PSF EXT CMAP XPLOR AUTOG

         3 !NTITLE
* GENERATED BY CHARMM-GUI (HTTP://WWW.CHARMM-GUI.ORG) V3.7 ON FEB, 08. 2026. JOB
* GENERATES WATER BOX TO SOLVATE THE PROTEIN/MEMBRANE COMPLEX                   
*  DATE:     2/ 8/26      2: 5:29      CREATED BY USER: charmm-gui              

     80883 !NATOM
         1 W2       1        TIP3     OH2      OT      -0.834000       15.9994           0
         2 W2       1        TIP3     H1       HT       0.417000       1.00800           0
         3 W2       1        TIP3     H2       HT       0.417000       1.00800           0
         4 W2       2        TIP3     OH2      OT      -0.834000       15.9994           0
         5 W2       2        TIP3     H1       HT       0.417000       1.00800           0
         6 W2       2        TIP3     H2       HT       0.417000       1.00800           0
         7 W2       3        TIP3     OH2      OT      -0.834000       15.9994           0
         8 W2       3        TIP3     H1       HT       0.417000       1.00800           0
         9 W2       3        TIP3     H2       HT       0.417000       1.00800           0
        10 W2       4        TIP3     OH2      OT      -0.834000       15.9994           0
        11 W2       4        TIP3     H1       HT       0.417000       1.00800           0
        12 W2       4        TIP3     H2       HT       0.417000       1.00800           0
        13 W2       5        TIP3     OH2      OT      -0.834000       15.9994           0
        14 W2       5        TIP3     H1       HT       0.417000       1.00800           0
        15 W2       5        TIP3     H2       HT       0.417000       1.00800           0
        16 W2       6        TIP3     OH2      OT      -0.834000       15.9994           0
        17 W2       6        TIP3     H1       HT       0.417000       1.00800           0
        18 W2       6        TIP3     H2       HT       0.417000       1.00800           0
        19 W2       7        TIP3     OH2      OT      -0.834000       15.9994           0
        20 W2       7        TIP3     H1       HT       0.417000       1.00800           0
        21 W2       7        TIP3     H2       HT       0.417000       1.00800           0
        22 W2       8        TIP3     OH2      OT      -0.834000       15.9994           0
        23 W2       8        TIP3     H1       HT       0.417000       1.00800           0
        24 W2       8        TIP3     H2       HT       0.417000       1.00800           0
        25 W2       9        TIP3     OH2      OT      -0.834000       15.9994           0
        26 W2       9        TIP3     H1       HT       0.417000       1.00800           0
        27 W2       9        TIP3     H2       HT       0.417000       1.00800           0
        28 W2       10       TIP3     OH2      OT      -0.834000       15.9994           0
        29 W2       10       TIP3     H1       HT       0.417000       1.00800           0
        30 W2       10       TIP3     H2       HT       0.417000       1.00800           0
        31 W2       11       TIP3     OH2      OT      -0.834000       15.9994           0
        32 W2       11       TIP3     H1       HT       0.417000       1.00800           0
        33 W2       11       TIP3     H2       HT       0.417000       1.00800           0
        34 W2       12       TIP3     OH2      OT      -0.834000       15.9994           0
        35 W2       12       TIP3     H1       HT       0.417000       1.00800           0
        36 W2       12       TIP3     H2       HT       0.417000       1.00800           0
        37 W2       13       TIP3     OH2      OT      -0.834000       15.9994           0
        38 W2       13       TIP3     H1       HT       0.417000       1.00800           0
        39 W2       13       TIP3     H2       HT       0.417000       1.00800           0
        40 W2       14       TIP3     OH2      OT      -0.834000       15.9994           0
        41 W2       14       TIP3     H1       HT       0.417000       1.00800           0
        42 W2       14       TIP3     H2       HT       0.417000       1.00800           0
        43 W2       15       TIP3     OH2      OT      -0.834000       15.9994           0
        44 W2       15       TIP3     H1       HT       0.417000       1.00800           0
        45 W2       15       TIP3     H2       HT       0.417000       1.00800           0
        46 W2       16       TIP3     OH2      OT      -0.834000       15.9994           0
        47 W2       16       TIP3     H1       HT       0.417000       1.00800           0
        48 W2       16       TIP3     H2       HT       0.417000       1.00800           0
        49 W2       17       TIP3     OH2      OT      -0.834000       15.9994           0
        50 W2       17       TIP3     H1       HT       0.417000       1.00800           0
        51 W2       17       TIP3     H2       HT       0.417000       1.00800           0
        52 W2       18       TIP3     OH2      OT      -0.834000       15.9994           0
        53 W2       18       TIP3     H1       HT       0.417000       1.00800           0
        54 W2       18       TIP3     H2       HT       0.417000       1.00800           0
        55 W2       19       TIP3     OH2      OT      -0.834000       15.9994           0
        56 W2       19       TIP3     H1       HT       0.417000       1.00800           0
        57 W2       19       TIP3     H2       HT       0.417000       1.00800           0
        58 W2       20       TIP3     OH2      OT      -0.834000       15.9994           0
        59 W2       20       TIP3     H1       HT       0.417000       1.00800           0
        60 W2       20       TIP3     H2       HT       0.417000       1.00800           0
        61 W2       21       TIP3     OH2      OT      -0.834000       15.9994           0
        62 W2       21       TIP3     H1       HT       0.417000       1.00800           0
        63 W2       21       TIP3     H2       HT       0.417000       1.00800           0
        64 W2       22       TIP3     OH2      OT      -0.834000       15.9994           0
        65 W2       22       TIP3     H1       HT       0.417000       1.00800           0
        66 W2       22       TIP3     H2       HT       0.417000       1.00800           0
        67 W2       23       TIP3     OH2      OT      -0.834000       15.9994           0
        68 W2       23       TIP3     H1       HT       0.417000       1.00800           0
        69 W2       23       TIP3     H2       HT       0.417000       1.00800           0
        70 W2       24       TIP3     OH2      OT      -0.834000       15.9994           0
        71 W2       24       TIP3     H1       HT       0.417000       1.00800           0
        72 W2       24       TIP3     H2       HT       0.417000       1.00800           0
        73 W2       25       TIP3     OH2      OT      -0.834000       15.9994           0
        74 W2       25       TIP3     H1       HT       0.417000       1.00800           0
        75 W2       25       TIP3     H2       HT       0.417000       1.00800           0
        76 W2       26       TIP3     OH2      OT      -0.834000       15.9994           0
        77 W2       26       TIP3     H1       HT       0.417000       1.00800           0
        78 W2       26       TIP3     H2       HT       0.417000       1.00800           0
        79 W2       27       TIP3     OH2      OT      -0.834000       15.9994           0
        80 W2       27       TIP3     H1       HT       0.417000       1.00800           0
        81 W2       27       TIP3     H2       HT       0.417000       1.00800           0
        82 W2       28       TIP3     OH2      OT      -0.834000       15.9994           0
        83 W2       28       TIP3     H1       HT       0.417000       1.00800           0
        84 W2       28       TIP3     H2       HT       0.417000       1.00800           0
        85 W2       29       TIP3     OH2      OT      -0.834000       15.9994           0
        86 W2       29       TIP3     H1       HT       0.417000       1.00800           0
        87 W2       29       TIP3     H2       HT       0.417000       1.00800           0
        88 W2       30       TIP3     OH2      OT      -0.834000       15.9994           0
        89 W2       30       TIP3     H1       HT       0.417000       1.00800           0
        90 W2       30       TIP3     H2       HT       0.417000       1.00800           0
        91 W2       31       TIP3     OH2      OT      -0.834000       15.9994           0
        92 W2       31       TIP3     H1       HT       0.417000       1.00800           0
        93 W2       31       TIP3     H2       HT       0.417000       1.00800           0
        94 W2       32       TIP3     OH2      OT      -0.834000       15.9994           0
        95 W2       32       TIP3     H1       HT       0.417000       1.00800           0
        96 W2       32       TIP3     H2       HT       0.417000       1.00800           0
        97 W2       33       TIP3     OH2      OT      -0.834000       15.9994           0
        98 W2       33       TIP3     H1       HT       0.417000       1.00800           0
        99 W2       33       TIP3     H2       HT       0.417000       1.00800           0
       100 W2       34       TIP3     OH2      OT      -0.834000       15.9994           0
       101 W2       34       TIP3     H1       HT       0.417000       1.00800           0
       102 W2       34       TIP3     H2       HT       0.417000       1.00800           0
       103 W2       35       TIP3     OH2      OT      -0.834000       15.9994           0
       104 W2       35       TIP3     H1       HT       0.417000       1.00800           0
       105 W2       35       TIP3     H2       HT       0.417000       1.00800           0
       106 W2       36       TIP3     OH2      OT      -0.834000       15.9994           0
       107 W2       36       TIP3     H1       HT       0.417000       1.00800           0
       108 W2       36       TIP3     H2       HT       0.417000       1.00800           0
       109 W2       37       TIP3     OH2      OT      -0.834000       15.9994           0
       110 W2       37       TIP3     H1       HT       0.417000       1.00800           0
       111 W2       37       TIP3     H2       HT       0.417000       1.00800           0
       112 W2       38       TIP3     OH2      OT      -0.834000       15.9994           0
       113 W2       38       TIP3     H1       HT       0.417000       1.00800           0
       114 W2       38       TIP3     H2       HT       0.417000       1.00800           0
       115 W2       39       TIP3     OH2      OT      -0.834000       15.9994           0
       116 W2       39       TIP3     H1       HT       0.417000       1.00800           0
       117 W2       39       TIP3     H2       HT       0.417000       1.00800           0
       118 W2       40       TIP3     OH2      OT      -0.834000       15.9994           0
       119 W2       40       TIP3     H1       HT       0.417000       1.00800           0
       120 W2       40       TIP3     H2       HT       0.417000       1.00800           0
       121 W2       41       TIP3     OH2      OT      -0.834000       15.9994           0
       122 W2       41       TIP3     H1       HT       0.417000       1.00800           0
       123 W2       41       TIP3     H2       HT       0.417000       1.00800           0
       124 W2       42       TIP3     OH2      OT      -0.834000       15.9994           0
       125 W2       42       TIP3     H1       HT       0.417000       1.00800           0
       126 W2       42       TIP3     H2       HT       0.417000       1.00800           0
       127 W2       43       TIP3     OH2      OT      -0.834000       15.9994           0
       128 W2       43       TIP3     H1       HT       0.417000       1.00800           0
       129 W2       43       TIP3     H2       HT       0.417000       1.00800           0
       130 W2       44       TIP3     OH2      OT      -0.834000       15.9994           0
       131 W2       44       TIP3     H1       HT       0.417000       1.00800           0
       132 W2       44       TIP3     H2       HT       0.417000       1.00800           0
       133 W2       45       TIP3     OH2      OT      -0.834000       15.9994           0
       134 W2       45       TIP3     H1       HT       0.417000       1.00800           0
       135 W2       45       TIP3     H2       HT       0.417000       1.00800           0
       136 W2       46       TIP3     OH2      OT      -0.834000       15.9994           0
       137 W2       46       TIP3     H1       HT       0.417000       1.00800           0
       138 W2       46       TIP3     H2       HT       0.417000       1.00800           0
       139 W2       47       TIP3     OH2      OT      -0.834000       15.9994           0
       140 W2       47       TIP3     H1       HT       0.417000       1.00800           0
       141 W2       47       TIP3     H2       HT       0.417000       1.00800           0
       142 W2       48       TIP3     OH2      OT      -0.834000       15.9994           0
       143 W2       48       TIP3     H1       HT       0.417000       1.00800           0
       144 W2       48       TIP3     H2       HT       0.417000       1.00800           0
       145 W2       49       TIP3     OH2      OT      -0.834000       15.9994           0
       146 W2       49       TIP3     H1       HT       0.417000       1.00800           0
       147 W2       49       TIP3     H2       HT       0.417000       1.00800           0
       148 W2       50       TIP3     OH2      OT      -0.834000       15.9994           0
       149 W2       50       TIP3     H1       HT       0.417000       1.00800           0
       150 W2       50       TIP3     H2       HT       0.417000       1.00800           0
       151 W2       51       TIP3     OH2      OT      -0.834000       15.9994           0
       152 W2       51       TIP3     H1       HT       0.417000       1.00800           0
       153 W2       51       TIP3     H2       HT       0.417000       1.00800           0
       154 W2       52       TIP3     OH2      OT      -0.834000       15.9994           0
       155 W2       52       TIP3     H1       HT       0.417000       1.00800           0
       156 W2       52       TIP3     H2       HT       0.417000       1.00800           0
       157 W2       53       TIP3     OH2      OT      -0.834000       15.9994           0
       158 W2       53       TIP3     H1       HT       0.417000       1.00800           0
       159 W2       53       TIP3     H2       HT       0.417000       1.00800           0
       160 W2       54       TIP3     OH2      OT      -0.834000       15.9994           0
       161 W2       54       TIP3     H1       HT       0.417000       1.00800           0
       162 W2       54       TIP3     H2       HT       0.417000       1.00800           0
       163 W2       55       TIP3     OH2      OT      -0.834000       15.9994           0
       164 W2       55       TIP3     H1       HT       0.417000       1.00800           0
       165 W2       55       TIP3     H2       HT       0.417000       1.00800           0
       166 W2       56       TIP3     OH2      OT      -0.834000       15.9994           0
       167 W2       56       TIP3     H1       HT       0.417000       1.00800           0
       168 W2       56       TIP3     H2       HT       0.417000       1.00800           0
       169 W2       57       TIP3     OH2      OT      -0.834000       15.9994           0
       170 W2       57       TIP3     H1       HT       0.417000       1.00800           0
       171 W2       57       TIP3     H2       HT       0.417000       1.00800           0
       172 W2       58       TIP3     OH2      OT      -0.834000       15.9994           0
       173 W2       58       TIP3     H1       HT       0.417000       1.00800           0
       174 W2       58       TIP3     H2       HT       0.417000       1.00800           0
       175 W2       59       TIP3     OH2      OT      -0.834000       15.9994           0
       176 W2       59       TIP3     H1       HT       0.417000       1.00800           0
       177 W2       59       TIP3     H2       HT       0.417000       1.00800           0
       178 W2       60       TIP3     OH2      OT      -0.834000       15.9994           0
       179 W2       60       TIP3     H1       HT       0.417000       1.00800           0
       180 W2       60       TIP3     H2       HT       0.417000       1.00800           0
       181 W2       61       TIP3     OH2      OT      -0.834000       15.9994           0
       182 W2       61       TIP3     H1       HT       0.417000       1.00800           0
       183 W2       61       TIP3     H2       HT       0.417000       1.00800           0
       184 W2       62       TIP3     OH2      OT      -0.834000       15.9994           0
       185 W2       62       TIP3     H1       HT       0.417000       1.00800           0
       186 W2       62       TIP3     H2       HT       0.417000       1.00800           0
       187 W2       63       TIP3     OH2      OT      -0.834000       15.9994           0
       188 W2       63       TIP3     H1       HT       0.417000       1.00800           0
       189 W2       63       TIP3     H2       HT       0.417000       1.00800           0
       190 W2       64       TIP3     OH2      OT      -0.834000       15.9994           0
       191 W2       64       TIP3     H1       HT       0.417000       1.00800           0
       192 W2       64       TIP3     H2       HT       0.417000       1.00800           0
       193 W2       65       TIP3     OH2      OT      -0.834000       15.9994           0
       194 W2       65       TIP3     H1       HT       0.417000       1.00800           0
       195 W2       65       TIP3     H2       HT       0.417000       1.00800           0
       196 W2       66       TIP3     OH2      OT      -0.834000       15.9994           0
       197 W2       66       TIP3     H1       HT       0.417000       1.00800           0
       198 W2       66       TIP3     H2       HT       0.417000       1.00800           0
       199 W2       67       TIP3     OH2      OT      -0.834000       15.9994           0
       200 W2       67       TIP3     H1       HT       0.417000       1.00800           0
       201 W2       67       TIP3     H2       HT       0.417000       1.00800           0
       202 W2       68       TIP3     OH2      OT      -0.834000       15.9994           0
       203 W2       68       TIP3     H1       HT       0.417000       1.00800           0
       204 W2       68       TIP3     H2       HT       0.417000       1.00800           0
       205 W2       69       TIP3     OH2      OT      -0.834000       15.9994           0
       206 W2       69       TIP3     H1       HT       0.417000       1.00800           0
       207 W2       69       TIP3     H2       HT       0.417000       1.00800           0
       208 W2       70       TIP3     OH2      OT      -0.834000       15.9994           0
       209 W2       70       TIP3     H1       HT       0.417000       1.00800           0
       210 W2       70       TIP3     H2       HT       0.417000       1.00800           0
       211 W2       71       TIP3     OH2      OT      -0.834000       15.9994           0
       212 W2       71       TIP3     H1       HT       0.417000       1.00800           0
       213 W2       71       TIP3     H2       HT       0.417000       1.00800           0
       214 W2       72       TIP3     OH2      OT      -0.834000       15.9994           0
       215 W2       72       TIP3     H1       HT       0.417000       1.00800           0
       216 W2       72       TIP3     H2       HT       0.417000       1.00800           0
       217 W2       73       TIP3     OH2      OT      -0.834000       15.9994           0
       218 W2       73       TIP3     H1       HT       0.417000       1.00800           0
       219 W2       73       TIP3     H2       HT       0.417000       1.00800           0
       220 W2       74       TIP3     OH2      OT      -0.834000       15.9994           0
       221 W2       74       TIP3     H1       HT       0.417000       1.00800           0
       222 W2       74       TIP3     H2       HT       0.417000       1.00800           0
       223 W2       75       TIP3     OH2      OT      -0.834000       15.9994           0
       224 W2       75       TIP3     H1       HT       0.417000       1.00800           0
       225 W2       75       TIP3     H2       HT       0.417000       1.00800           0
       226 W2       76       TIP3     OH2      OT      -0.834000       15.9994           0
       227 W2       76       TIP3     H1       HT       0.417000       1.00800           0
       228 W2       76       TIP3     H2       HT       0.417000       1.00800           0
       229 W2       77       TIP3     OH2      OT      -0.834000       15.9994           0
       230 W2       77       TIP3     H1       HT       0.417000       1.00800           0
       231 W2       77       TIP3     H2       HT       0.417000       1.00800           0
       232 W2       78       TIP3     OH2      OT      -0.834000       15.9994           0
       233 W2       78       TIP3     H1       HT       0.417000       1.00800           0
       234 W2       78       TIP3     H2       HT       0.417000       1.00800           0
       235 W2       79       TIP3     OH2      OT      -0.834000       15.9994           0
       236 W2       79       TIP3     H1       HT       0.417000       1.00800           0
       237 W2       79       TIP3     H2       HT       0.417000       1.00800           0
       238 W2       80       TIP3     OH2      OT      -0.834000       15.9994           0
       239 W2       80       TIP3     H1       HT       0.417000       1.00800           0
       240 W2       80       TIP3     H2       HT       0.417000       1.00800           0
       241 W2       81       TIP3     OH2      OT      -0.834000       15.9994           0
       242 W2       81       TIP3     H1       HT       0.417000       1.00800           0
       243 W2       81       TIP3     H2       HT       0.417000       1.00800           0
       244 W2       82       TIP3     OH2      OT      -0.834000       15.9994           0
       245 W2       82       TIP3     H1       HT       0.417000       1.00800           0
       246 W2       82       TIP3     H2       HT       0.417000       1.00800           0
       247 W2       83       TIP3     OH2      OT      -0.834000       15.9994           0
       248 W2       83       TIP3     H1       HT       0.417000       1.00800           0
       249 W2       83       TIP3     H2       HT       0.417000       1.00800           0
       250 W2       84       TIP3     OH2      OT      -0.834000       15.9994           0
       251 W2       84       TIP3     H1       HT       0.417000       1.00800           0
       252 W2       84       TIP3     H2       HT       0.417000       1.00800           0
       253 W2       85       TIP3     OH2      OT      -0.834000       15.9994           0
       254 W2       85       TIP3     H1       HT       0.417000       1.00800           0
       255 W2       85       TIP3     H2       HT       0.417000       1.00800           0
       256 W2       86       TIP3     OH2      OT      -0.834000       15.9994           0
       257 W2       86       TIP3     H1       HT       0.417000       1.00800           0
       258 W2       86       TIP3     H2       HT       0.417000       1.00800           0
       259 W2       87       TIP3     OH2      OT      -0.834000       15.9994           0
       260 W2       87       TIP3     H1       HT       0.417000       1.00800           0
       261 W2       87       TIP3     H2       HT       0.417000       1.00800           0
       262 W2       88       TIP3     OH2      OT      -0.834000       15.9994           0
       263 W2       88       TIP3     H1       HT       0.417000       1.00800           0
       264 W2       88       TIP3     H2       HT       0.417000       1.00800           0
       265 W2       89       TIP3     OH2      OT      -0.834000       15.9994           0
       266 W2       89       TIP3     H1       HT       0.417000       1.00800           0
       267 W2       89       TIP3     H2       HT       0.417000       1.00800           0
       268 W2       90       TIP3     OH2      OT      -0.834000       15.9994           0
       269 W2       90       TIP3     H1       HT       0.417000       1.00800           0
       270 W2       90       TIP3     H2       HT       0.417000       1.00800           0
       271 W2       91       TIP3     OH2      OT      -0.834000       15.9994           0
       272 W2       91       TIP3     H1       HT       0.417000       1.00800           0
       273 W2       91       TIP3     H2       HT       0.417000       1.00800           0
       274 W2       92       TIP3     OH2      OT      -0.834000       15.9994           0
       275 W2       92       TIP3     H1       HT       0.417000       1.00800           0
       276 W2       92       TIP3     H2       HT       0.417000       1.00800           0
       277 W2       93       TIP3     OH2      OT      -0.834000       15.9994           0
       278 W2       93       TIP3     H1       HT       0.417000       1.00800           0
       279 W2       93       TIP3     H2       HT       0.417000       1.00800           0
       280 W2       94       TIP3     OH2      OT      -0.834000       15.9994           0
       281 W2       94       TIP3     H1       HT       0.417000       1.00800           0
       282 W2       94       TIP3     H2       HT       0.417000       1.00800           0
       283 W2       95       TIP3     OH2      OT      -0.834000       15.9994           0
       284 W2       95       TIP3     H1       HT       0.417000       1.00800           0
       285 W2       95       TIP3     H2       HT       0.417000       1.00800           0
       286 W2       96       TIP3     OH2      OT      -0.834000       15.9994           0
       287 W2       96       TIP3     H1       HT       0.417000       1.00800           0
       288 W2       96       TIP3     H2       HT       0.417000       1.00800           0
       289 W2       97       TIP3     OH2      OT      -0.834000       15.9994           0
       290 W2       97       TIP3     H1       HT       0.417000       1.00800           0
       291 W2       97       TIP3     H2       HT       0.417000       1.00800           0
       292 W2       98       TIP3     OH2      OT      -0.834000       15.9994           0
       293 W2       98       TIP3     H1       HT       0.417000       1.00800           0
       294 W2       98       TIP3     H2       HT       0.417000       1.00800           0
       295 W2       99       TIP3     OH2      OT      -0.834000       15.9994           0
       296 W2       99       TIP3     H1       HT       0.417000       1.00800           0
       297 W2       99       TIP3     H2       HT       0.417000       1.00800           0
       298 W2       100      TIP3     OH2      OT      -0.834000       15.9994           0
       299 W2       100      TIP3     H1       HT       0.417000       1.00800           0
       300 W2       100      TIP3     H2       HT       0.417000       1.00800           0
       301 W2       101      TIP3     OH2      OT      -0.834000       15.9994           0
       302 W2       101      TIP3     H1       HT       0.417000       1.00800           0
       303 W2       101      TIP3     H2       HT       0.417000       1.00800           0
       304 W2       102      TIP3     OH2      OT      -0.834000       15.9994           0
       305 W2       102      TIP3     H1       HT       0.417000       1.00800           0
       306 W2       102      TIP3     H2       HT       0.417000       1.00800           0
       307 W2       103      TIP3     OH2      OT      -0.834000       15.9994           0
       308 W2       103      TIP3     H1       HT       0.417000       1.00800           0
       309 W2       103      TIP3     H2       HT       0.417000       1.00800           0
       310 W2       104      TIP3     OH2      OT      -0.834000       15.9994           0
       311 W2       104      TIP3     H1       HT       0.417000       1.00800           0
       312 W2       104      TIP3     H2       HT       0.417000       1.00800           0
       313 W2       105      TIP3     OH2      OT      -0.834000       15.9994           0
       314 W2       105      TIP3     H1       HT       0.417000       1.00800           0
       315 W2       105      TIP3     H2       HT       0.417000       1.00800           0
       316 W2       106      TIP3     OH2      OT      -0.834000       15.9994           0
       317 W2       106      TIP3     H1       HT       0.417000       1.00800           0
       318 W2       106      TIP3     H2       HT       0.417000       1.00800           0
       319 W2       107      TIP3     OH2      OT      -0.834000       15.9994           0
       320 W2       107      TIP3     H1       HT       0.417000       1.00800           0
       321 W2       107      TIP3     H2       HT       0.417000       1.00800           0
       322 W2       108      TIP3     OH2      OT      -0.834000       15.9994           0
       323 W2       108      TIP3     H1       HT       0.417000       1.00800           0
       324 W2       108      TIP3     H2       HT       0.417000       1.00800           0
       325 W2       109      TIP3     OH2      OT      -0.834000       15.9994           0
       326 W2       109      TIP3     H1       HT       0.417000       1.00800           0
       327 W2       109      TIP3     H2       HT       0.417000       1.00800           0
       328 W2       110      TIP3     OH2      OT      -0.834000       15.9994           0
       329 W2       110      TIP3     H1       HT       0.417000       1.00800           0
       330 W2       110      TIP3     H2       HT       0.417000       1.00800           0
       331 W2       111      TIP3     OH2      OT      -0.834000       15.9994           0
       332 W2       111      TIP3     H1       HT       0.417000       1.00800           0
       333 W2       111      TIP3     H2       HT       0.417000       1.00800           0
       334 W2       112      TIP3     OH2      OT      -0.834000       15.9994           0
       335 W2       112      TIP3     H1       HT       0.417000       1.00800           0
       336 W2       112      TIP3     H2       HT       0.417000       1.00800           0
       337 W2       113      TIP3     OH2      OT      -0.834000       15.9994           0
       338 W2       113      TIP3     H1       HT       0.417000       1.00800           0
       339 W2       113      TIP3     H2       HT       0.417000       1.00800           0
       340 W2       114      TIP3     OH2      OT      -0.834000       15.9994           0
       341 W2       114      TIP3     H1       HT       0.417000       1.00800           0
       342 W2       114      TIP3     H2       HT       0.417000       1.00800           0
       343 W2       115      TIP3     OH2      OT      -0.834000       15.9994           0
       344 W2       115      TIP3     H1       HT       0.417000       1.00800           0
       345 W2       115      TIP3     H2       HT       0.417000       1.00800           0
       346 W2       116      TIP3     OH2      OT      -0.834000       15.9994           0
       347 W2       116      TIP3     H1       HT       0.417000       1.00800           0
       348 W2       116      TIP3     H2       HT       0.417000       1.00800           0
       349 W2       117      TIP3     OH2      OT      -0.834000       15.9994           0
       350 W2       117      TIP3     H1       HT       0.417000       1.00800           0
       351 W2       117      TIP3     H2       HT       0.417000       1.00800           0
       352 W2       118      TIP3     OH2      OT      -0.834000       15.9994           0
       353 W2       118      TIP3     H1       HT       0.417000       1.00800           0
       354 W2       118      TIP3     H2       HT       0.417000       1.00800           0
       355 W2       119      TIP3     OH2      OT      -0.834000       15.9994           0
       356 W2       119      TIP3     H1       HT       0.417000       1.00800           0
       357 W2       119      TIP3     H2       HT       0.417000       1.00800           0
       358 W2       120      TIP3     OH2      OT      -0.834000       15.9994           0
       359 W2       120      TIP3     H1       HT       0.417000       1.00800           0
       360 W2       120      TIP3     H2       HT       0.417000       1.00800           0
       361 W2       121      TIP3     OH2      OT      -0.834000       15.9994           0
       362 W2       121      TIP3     H1       HT       0.417000       1.00800           0
       363 W2       121      TIP3     H2       HT       0.417000       1.00800           0
       364 W2       122      TIP3     OH2      OT      -0.834000       15.9994           0
       365 W2       122      TIP3     H1       HT       0.417000       1.00800           0
       366 W2       122      TIP3     H2       HT       0.417000       1.00800           0
       367 W2       123      TIP3     OH2      OT      -0.834000       15.9994           0
       368 W2       123      TIP3     H1       HT       0.417000       1.00800           0
       369 W2       123      TIP3     H2       HT       0.417000       1.00800           0
       370 W2       124      TIP3     OH2      OT      -0.834000       15.9994           0
       371 W2       124      TIP3     H1       HT       0.417000       1.00800           0
       372 W2       124      TIP3     H2       HT       0.417000       1.00800           0
       373 W2       125      TIP3     OH2      OT      -0.834000       15.9994           0
       374 W2       125      TIP3     H1       HT       0.417000       1.00800           0
       375 W2       125      TIP3     H2       HT       0.417000       1.00800           0
       376 W2       126      TIP3     OH2      OT      -0.834000       15.9994           0
       377 W2       126      TIP3     H1       HT       0.417000       1.00800           0
       378 W2       126      TIP3     H2       HT       0.417000       1.00800           0
       379 W2       127      TIP3     OH2      OT      -0.834000       15.9994           0
       380 W2       127      TIP3     H1       HT       0.417000       1.00800           0
       381 W2       127      TIP3     H2       HT       0.417000       1.00800           0
       382 W2       128      TIP3     OH2      OT      -0.834000       15.9994           0
       383 W2       128      TIP3     H1       HT       0.417000       1.00800           0
       384 W2       128      TIP3     H2       HT       0.417000       1.00800           0
       385 W2       129      TIP3     OH2      OT      -0.834000       15.9994           0
       386 W2       129      TIP3     H1       HT       0.417000       1.00800           0
       387 W2       129      TIP3     H2       HT       0.417000       1.00800           0
       388 W2       130      TIP3     OH2      OT      -0.834000       15.9994           0
       389 W2       130      TIP3     H1       HT       0.417000       1.00800           0
       390 W2       130      TIP3     H2       HT       0.417000       1.00800           0
       391 W2       131      TIP3     OH2      OT      -0.834000       15.9994           0
       392 W2       131      TIP3     H1       HT       0.417000       1.00800           0
       393 W2       131      TIP3     H2       HT       0.417000       1.00800           0
       394 W2       132      TIP3     OH2      OT      -0.834000       15.9994           0
       395 W2       132      TIP3     H1       HT       0.417000       1.00800           0
       396 W2       132      TIP3     H2       HT       0.417000       1.00800           0
       397 W2       133      TIP3     OH2      OT      -0.834000       15.9994           0
       398 W2       133      TIP3     H1       HT       0.417000       1.00800           0
       399 W2       133      TIP3     H2       HT       0.417000       1.00800           0
       400 W2       134      TIP3     OH2      OT      -0.834000       15.9994           0
       401 W2       134      TIP3     H1       HT       0.417000       1.00800           0
       402 W2       134      TIP3     H2       HT       0.417000       1.00800           0
       403 W2       135      TIP3     OH2      OT      -0.834000       15.9994           0
       404 W2       135      TIP3     H1       HT       0.417000       1.00800           0
       405 W2       135      TIP3     H2       HT       0.417000       1.00800           0
       406 W2       136      TIP3     OH2      OT      -0.834000       15.9994           0
       407 W2       136      TIP3     H1       HT       0.417000       1.00800           0
       408 W2       136      TIP3     H2       HT       0.417000       1.00800           0
       409 W2       137      TIP3     OH2      OT      -0.834000       15.9994           0
       410 W2       137      TIP3     H1       HT       0.417000       1.00800           0
       411 W2       137      TIP3     H2       HT       0.417000       1.00800           0
       412 W2       138      TIP3     OH2      OT      -0.834000       15.9994           0
       413 W2       138      TIP3     H1       HT       0.417000       1.00800           0
       414 W2       138      TIP3     H2       HT       0.417000       1.00800           0
       415 W2       139      TIP3     OH2      OT      -0.834000       15.9994           0
       416 W2       139      TIP3     H1       HT       0.417000       1.00800           0
       417 W2       139      TIP3     H2       HT       0.417000       1.00800           0
       418 W2       140      TIP3     OH2      OT      -0.834000       15.9994           0
       419 W2       140      TIP3     H1       HT       0.417000       1.00800           0
       420 W2       140      TIP3     H2       HT       0.417000       1.00800           0
       421 W2       141      TIP3     OH2      OT      -0.834000       15.9994           0
       422 W2       141      TIP3     H1       HT       0.417000       1.00800           0
       423 W2       141      TIP3     H2       HT       0.417000       1.00800           0
       424 W2       142      TIP3     OH2      OT      -0.834000       15.9994           0
       425 W2       142      TIP3     H1       HT       0.417000       1.00800           0
       426 W2       142      TIP3     H2       HT       0.417000       1.00800           0
       427 W2       143      TIP3     OH2      OT      -0.834000       15.9994           0
       428 W2       143      TIP3     H1       HT       0.417000       1.00800           0
       429 W2       143      TIP3     H2       HT       0.417000       1.00800           0
       430 W2       144      TIP3     OH2      OT      -0.834000       15.9994           0
       431 W2       144      TIP3     H1       HT       0.417000       1.00800           0
       432 W2       144      TIP3     H2       HT       0.417000       1.00800           0
       433 W2       145      TIP3     OH2      OT      -0.834000       15.9994           0
       434 W2       145      TIP3     H1       HT       0.417000       1.00800           0
       435 W2       145      TIP3     H2       HT       0.417000       1.00800           0
       436 W2       146      TIP3     OH2      OT      -0.834000       15.9994           0
       437 W2       146      TIP3     H1       HT       0.417000       1.00800           0
       438 W2       146      TIP3     H2       HT       0.417000       1.00800           0
       439 W2       147      TIP3     OH2      OT      -0.834000       15.9994           0
       440 W2       147      TIP3     H1       HT       0.417000       1.00800           0
       441 W2       147      TIP3     H2       HT       0.417000       1.00800           0
       442 W2       148      TIP3     OH2      OT      -0.834000       15.9994           0
       443 W2       148      TIP3     H1       HT       0.417000       1.00800           0
       444 W2       148      TIP3     H2       HT       0.417000       1.00800           0
       445 W2       149      TIP3     OH2      OT      -0.834000       15.9994           0
       446 W2       149      TIP3     H1       HT       0.417000       1.00800           0
       447 W2       149      TIP3     H2       HT       0.417000       1.00800           0
       448 W2       150      TIP3     OH2      OT      -0.834000       15.9994           0
       449 W2       150      TIP3     H1       HT       0.417000       1.00800           0
       450 W2       150      TIP3     H2       HT       0.417000       1.00800           0
       451 W2       151      TIP3     OH2      OT      -0.834000       15.9994           0
       452 W2       151      TIP3     H1       HT       0.417000       1.00800           0
       453 W2       151      TIP3     H2       HT       0.417000       1.00800           0
       454 W2       152      TIP3     OH2      OT      -0.834000       15.9994           0
       455 W2       152      TIP3     H1       HT       0.417000       1.00800           0
       456 W2       152      TIP3     H2       HT       0.417000       1.00800           0
       457 W2       153      TIP3     OH2      OT      -0.834000       15.9994           0
       458 W2       153      TIP3     H1       HT       0.417000       1.00800           0
       459 W2       153      TIP3     H2       HT       0.417000       1.00800           0
       460 W2       154      TIP3     OH2      OT      -0.834000       15.9994           0
       461 W2       154      TIP3     H1       HT       0.417000       1.00800           0
       462 W2       154      TIP3     H2       HT       0.417000       1.00800           0
       463 W2       155      TIP3     OH2      OT      -0.834000       15.9994           0
       464 W2       155      TIP3     H1       HT       0.417000       1.00800           0
       465 W2       155      TIP3     H2       HT       0.417000       1.00800           0
       466 W2       156      TIP3     OH2      OT      -0.834000       15.9994           0
       467 W2       156      TIP3     H1       HT       0.417000       1.00800           0
       468 W2       156      TIP3     H2       HT       0.417000       1.00800           0
       469 W2       157      TIP3     OH2      OT      -0.834000       15.9994           0
       470 W2       157      TIP3     H1       HT       0.417000       1.00800           0
       471 W2       157      TIP3     H2       HT       0.417000       1.00800           0
       472 W2       158      TIP3     OH2      OT      -0.834000       15.9994           0
       473 W2       158      TIP3     H1       HT       0.417000       1.00800           0
       474 W2       158      TIP3     H2       HT       0.417000       1.00800           0
       475 W2       159      TIP3     OH2      OT      -0.834000       15.9994           0
       476 W2       159      TIP3     H1       HT       0.417000       1.00800           0
       477 W2       159      TIP3     H2       HT       0.417000       1.00800           0
       478 W2       160      TIP3     OH2      OT      -0.834000       15.9994           0
       479 W2       160      TIP3     H1       HT       0.417000       1.00800           0
       480 W2       160      TIP3     H2       HT       0.417000       1.00800           0
       481 W2       161      TIP3     OH2      OT      -0.834000       15.9994           0
       482 W2       161      TIP3     H1       HT       0.417000       1.00800           0
       483 W2       161      TIP3     H2       HT       0.417000       1.00800           0
       484 W2       162      TIP3     OH2      OT      -0.834000       15.9994           0
       485 W2       162      TIP3     H1       HT       0.417000       1.00800           0
       486 W2       162      TIP3     H2       HT       0.417000       1.00800           0
       487 W2       163      TIP3     OH2      OT      -0.834000       15.9994           0
       488 W2       163      TIP3     H1       HT       0.417000       1.00800           0
       489 W2       163      TIP3     H2       HT       0.417000       1.00800           0
       490 W2       164      TIP3     OH2      OT      -0.834000       15.9994           0
       491 W2       164      TIP3     H1       HT       0.417000       1.00800           0
       492 W2       164      TIP3     H2       HT       0.417000       1.00800           0
       493 W2       165      TIP3     OH2      OT      -0.834000       15.9994           0
       494 W2       165      TIP3     H1       HT       0.417000       1.00800           0
       495 W2       165      TIP3     H2       HT       0.417000       1.00800           0
       496 W2       166      TIP3     OH2      OT      -0.834000       15.9994           0
       497 W2       166      TIP3     H1       HT       0.417000       1.00800           0
       498 W2       166      TIP3     H2       HT       0.417000       1.00800           0
       499 W2       167      TIP3     OH2      OT      -0.834000       15.9994           0
       500 W2       167      TIP3     H1       HT       0.417000       1.00800           0
       501 W2       167      TIP3     H2       HT       0.417000       1.00800           0
       502 W2       168      TIP3     OH2      OT      -0.834000       15.9994           0
       503 W2       168      TIP3     H1       HT       0.417000       1.00800           0
       504 W2       168      TIP3     H2       HT       0.417000       1.00800           0
       505 W2       169      TIP3     OH2      OT      -0.834000       15.9994           0
       506 W2       169      TIP3     H1       HT       0.417000       1.00800           0
       507 W2       169      TIP3     H2       HT       0.417000       1.00800           0
       508 W2       170      TIP3     OH2      OT      -0.834000       15.9994           0
       509 W2       170      TIP3     H1       HT       0.417000       1.00800           0
       510 W2       170      TIP3     H2       HT       0.417000       1.00800           0
       511 W2       171      TIP3     OH2      OT      -0.834000       15.9994           0
       512 W2       171      TIP3     H1       HT       0.417000       1.00800           0
       513 W2       171      TIP3     H2       HT       0.417000       1.00800           0
       514 W2       172      TIP3     OH2      OT      -0.834000       15.9994           0
       515 W2       172      TIP3     H1       HT       0.417000       1.00800           0
       516 W2       172      TIP3     H2       HT       0.417000       1.00800           0
       517 W2       173      TIP3     OH2      OT      -0.834000       15.9994           0
       518 W2       173      TIP3     H1       HT       0.417000       1.00800           0
       519 W2       173      TIP3     H2       HT       0.417000       1.00800           0
       520 W2       174      TIP3     OH2      OT      -0.834000       15.9994           0
       521 W2       174      TIP3     H1       HT       0.417000       1.00800           0
       522 W2       174      TIP3     H2       HT       0.417000       1.00800           0
       523 W2       175      TIP3     OH2      OT      -0.834000       15.9994           0
       524 W2       175      TIP3     H1       HT       0.417000       1.00800           0
       525 W2       175      TIP3     H2       HT       0.417000       1.00800           0
       526 W2       176      TIP3     OH2      OT      -0.834000       15.9994           0
       527 W2       176      TIP3     H1       HT       0.417000       1.00800           0
       528 W2       176      TIP3     H2       HT       0.417000       1.00800           0
       529 W2       177      TIP3     OH2      OT      -0.834000       15.9994           0
       530 W2       177      TIP3     H1       HT       0.417000       1.00800           0
       531 W2       177      TIP3     H2       HT       0.417000       1.00800           0
       532 W2       178      TIP3     OH2      OT      -0.834000       15.9994           0
       533 W2       178      TIP3     H1       HT       0.417000       1.00800           0
       534 W2       178      TIP3     H2       HT       0.417000       1.00800           0
       535 W2       179      TIP3     OH2      OT      -0.834000       15.9994           0
       536 W2       179      TIP3     H1       HT       0.417000       1.00800           0
       537 W2       179      TIP3     H2       HT       0.417000       1.00800           0
       538 W2       180      TIP3     OH2      OT      -0.834000       15.9994           0
       539 W2       180      TIP3     H1       HT       0.417000       1.00800           0
       540 W2       180      TIP3     H2       HT       0.417000       1.00800           0
       541 W2       181      TIP3     OH2      OT      -0.834000       15.9994           0
       542 W2       181      TIP3     H1       HT       0.417000       1.00800           0
       543 W2       181      TIP3     H2       HT       0.417000       1.00800           0
       544 W2       182      TIP3     OH2      OT      -0.834000       15.9994           0
       545 W2       182      TIP3     H1       HT       0.417000       1.00800           0
       546 W2       182      TIP3     H2       HT       0.417000       1.00800           0
       547 W2       183      TIP3     OH2      OT      -0.834000       15.9994           0
       548 W2       183      TIP3     H1       HT       0.417000       1.00800           0
       549 W2       183      TIP3     H2       HT       0.417000       1.00800           0
       550 W2       184      TIP3     OH2      OT      -0.834000       15.9994           0
       551 W2       184      TIP3     H1       HT       0.417000       1.00800           0
       552 W2       184      TIP3     H2       HT       0.417000       1.00800           0
       553 W2       185      TIP3     OH2      OT      -0.834000       15.9994           0
       554 W2       185      TIP3     H1       HT       0.417000       1.00800           0
       555 W2       185      TIP3     H2       HT       0.417000       1.00800           0
       556 W2       186      TIP3     OH2      OT      -0.834000       15.9994           0
       557 W2       186      TIP3     H1       HT       0.417000       1.00800           0
       558 W2       186      TIP3     H2       HT       0.417000       1.00800           0
       559 W2       187      TIP3     OH2      OT      -0.834000       15.9994           0
       560 W2       187      TIP3     H1       HT       0.417000       1.00800           0
       561 W2       187      TIP3     H2       HT       0.417000       1.00800           0
       562 W2       188      TIP3     OH2      OT      -0.834000       15.9994           0
       563 W2       188      TIP3     H1       HT       0.417000       1.00800           0
       564 W2       188      TIP3     H2       HT       0.417000       1.00800           0
       565 W2       189      TIP3     OH2      OT      -0.834000       15.9994           0
       566 W2       189      TIP3     H1       HT       0.417000       1.00800           0
       567 W2       189      TIP3     H2       HT       0.417000       1.00800           0
       568 W2       190      TIP3     OH2      OT      -0.834000       15.9994           0
       569 W2       190      TIP3     H1       HT       0.417000       1.00800           0
       570 W2       190      TIP3     H2       HT       0.417000       1.00800           0
       571 W2       191      TIP3     OH2      OT      -0.834000       15.9994           0
       572 W2       191      TIP3     H1       HT       0.417000       1.00800           0
       573 W2       191      TIP3     H2       HT       0.417000       1.00800           0
       574 W2       192      TIP3     OH2      OT      -0.834000       15.9994           0
       575 W2       192      TIP3     H1       HT       0.417000       1.00800           0
       576 W2       192      TIP3     H2       HT       0.417000       1.00800           0
       577 W2       193      TIP3     OH2      OT      -0.834000       15.9994           0
       578 W2       193      TIP3     H1       HT       0.417000       1.00800           0
       579 W2       193      TIP3     H2       HT       0.417000       1.00800           0
       580 W2       194      TIP3     OH2      OT      -0.834000       15.9994           0
       581 W2       194      TIP3     H1       HT       0.417000       1.00800           0
       582 W2       194      TIP3     H2       HT       0.417000       1.00800           0
       583 W2       195      TIP3     OH2      OT      -0.834000       15.9994           0
       584 W2       195      TIP3     H1       HT       0.417000       1.00800           0
       585 W2       195      TIP3     H2       HT       0.417000       1.00800           0
       586 W2       196      TIP3     OH2      OT      -0.834000       15.9994           0
       587 W2       196      TIP3     H1       HT       0.417000       1.00800           0
       588 W2       196      TIP3     H2       HT       0.417000       1.00800           0
       589 W2       197      TIP3     OH2      OT      -0.834000       15.9994           0
       590 W2       197      TIP3     H1       HT       0.417000       1.00800           0
       591 W2       197      TIP3     H2       HT       0.417000       1.00800           0
       592 W2       198      TIP3     OH2      OT      -0.834000       15.9994           0
       593 W2       198      TIP3     H1       HT       0.417000       1.00800           0
       594 W2       198      TIP3     H2       HT       0.417000       1.00800           0
       595 W2       199      TIP3     OH2      OT      -0.834000       15.9994           0
       596 W2       199      TIP3     H1       HT       0.417000       1.00800           0
       597 W2       199      TIP3     H2       HT       0.417000       1.00800           0
       598 W2       200      TIP3     OH2      OT      -0.834000       15.9994           0
       599 W2       200      TIP3     H1       HT       0.417000       1.00800           0
       600 W2       200      TIP3     H2       HT       0.417000       1.00800           0
       601 W2       201      TIP3     OH2      OT      -0.834000       15.9994           0
       602 W2       201      TIP3     H1       HT       0.417000       1.00800           0
       603 W2       201      TIP3     H2       HT       0.417000       1.00800           0
       604 W2       202      TIP3     OH2      OT      -0.834000       15.9994           0
       605 W2       202      TIP3     H1       HT       0.417000       1.00800           0
       606 W2       202      TIP3     H2       HT       0.417000       1.00800           0
       607 W2       203      TIP3     OH2      OT      -0.834000       15.9994           0
       608 W2       203      TIP3     H1       HT       0.417000       1.00800           0
       609 W2       203      TIP3     H2       HT       0.417000       1.00800           0
       610 W2       204      TIP3     OH2      OT      -0.834000       15.9994           0
       611 W2       204      TIP3     H1       HT       0.417000       1.00800           0
       612 W2       204      TIP3     H2       HT       0.417000       1.00800           0
       613 W2       205      TIP3     OH2      OT      -0.834000       15.9994           0
       614 W2       205      TIP3     H1       HT       0.417000       1.00800           0
       615 W2       205      TIP3     H2       HT       0.417000       1.00800           0
       616 W2       206      TIP3     OH2      OT      -0.834000       15.9994           0
       617 W2       206      TIP3     H1       HT       0.417000       1.00800           0
       618 W2       206      TIP3     H2       HT       0.417000       1.00800           0
       619 W2       207      TIP3     OH2      OT      -0.834000       15.9994           0
       620 W2       207      TIP3     H1       HT       0.417000       1.00800           0
       621 W2       207      TIP3     H2       HT       0.417000       1.00800           0
       622 W2       208      TIP3     OH2      OT      -0.834000       15.9994           0
       623 W2       208      TIP3     H1       HT       0.417000       1.00800           0
       624 W2       208      TIP3     H2       HT       0.417000       1.00800           0
       625 W2       209      TIP3     OH2      OT      -0.834000       15.9994           0
       626 W2       209      TIP3     H1       HT       0.417000       1.00800           0
       627 W2       209      TIP3     H2       HT       0.417000       1.00800           0
       628 W2       210      TIP3     OH2      OT      -0.834000       15.9994           0
       629 W2       210      TIP3     H1       HT       0.417000       1.00800           0
       630 W2       210      TIP3     H2       HT       0.417000       1.00800           0
       631 W2       211      TIP3     OH2      OT      -0.834000       15.9994           0
       632 W2       211      TIP3     H1       HT       0.417000       1.00800           0
       633 W2       211      TIP3     H2       HT       0.417000       1.00800           0
       634 W2       212      TIP3     OH2      OT      -0.834000       15.9994           0
       635 W2       212      TIP3     H1       HT       0.417000       1.00800           0
       636 W2       212      TIP3     H2       HT       0.417000       1.00800           0
       637 W2       213      TIP3     OH2      OT      -0.834000       15.9994           0
       638 W2       213      TIP3     H1       HT       0.417000       1.00800           0
       639 W2       213      TIP3     H2       HT       0.417000       1.00800           0
       640 W2       214      TIP3     OH2      OT      -0.834000       15.9994           0
       641 W2       214      TIP3     H1       HT       0.417000       1.00800           0
       642 W2       214      TIP3     H2       HT       0.417000       1.00800           0
       643 W2       215      TIP3     OH2      OT      -0.834000       15.9994           0
       644 W2       215      TIP3     H1       HT       0.417000       1.00800           0
       645 W2       215      TIP3     H2       HT       0.417000       1.00800           0
       646 W2       216      TIP3     OH2      OT      -0.834000       15.9994           0
       647 W2       216      TIP3     H1       HT       0.417000       1.00800           0
       648 W2       216      TIP3     H2       HT       0.417000       1.00800           0
       649 W2       217      TIP3     OH2      OT      -0.834000       15.9994           0
       650 W2       217      TIP3     H1       HT       0.417000       1.00800           0
       651 W2       217      TIP3     H2       HT       0.417000       1.00800           0
       652 W2       218      TIP3     OH2      OT      -0.834000       15.9994           0
       653 W2       218      TIP3     H1       HT       0.417000       1.00800           0
       654 W2       218      TIP3     H2       HT       0.417000       1.00800           0
       655 W2       219      TIP3     OH2      OT      -0.834000       15.9994           0
       656 W2       219      TIP3     H1       HT       0.417000       1.00800           0
       657 W2       219      TIP3     H2       HT       0.417000       1.00800           0
       658 W2       220      TIP3     OH2      OT      -0.834000       15.9994           0
       659 W2       220      TIP3     H1       HT       0.417000       1.00800           0
       660 W2       220      TIP3     H2       HT       0.417000       1.00800           0
       661 W2       221      TIP3     OH2      OT      -0.834000       15.9994           0
       662 W2       221      TIP3     H1       HT       0.417000       1.00800           0
       663 W2       221      TIP3     H2       HT       0.417000       1.00800           0
       664 W2       222      TIP3     OH2      OT      -0.834000       15.9994           0
       665 W2       222      TIP3     H1       HT       0.417000       1.00800           0
       666 W2       222      TIP3     H2       HT       0.417000       1.00800           0
       667 W2       223      TIP3     OH2      OT      -0.834000       15.9994           0
       668 W2       223      TIP3     H1       HT       0.417000       1.00800           0
       669 W2       223      TIP3     H2       HT       0.417000       1.00800           0
       670 W2       224      TIP3     OH2      OT      -0.834000       15.9994           0
       671 W2       224      TIP3     H1       HT       0.417000       1.00800           0
       672 W2       224      TIP3     H2       HT       0.417000       1.00800           0
       673 W2       225      TIP3     OH2      OT      -0.834000       15.9994           0
       674 W2       225      TIP3     H1       HT       0.417000       1.00800           0
       675 W2       225      TIP3     H2       HT       0.417000       1.00800           0
       676 W2       226      TIP3     OH2      OT      -0.834000       15.9994           0
       677 W2       226      TIP3     H1       HT       0.417000       1.00800           0
       678 W2       226      TIP3     H2       HT       0.417000       1.00800           0
       679 W2       227      TIP3     OH2      OT      -0.834000       15.9994           0
       680 W2       227      TIP3     H1       HT       0.417000       1.00800           0
       681 W2       227      TIP3     H2       HT       0.417000       1.00800           0
       682 W2       228      TIP3     OH2      OT      -0.834000       15.9994           0
       683 W2       228      TIP3     H1       HT       0.417000       1.00800           0
       684 W2       228      TIP3     H2       HT       0.417000       1.00800           0
       685 W2       229      TIP3     OH2      OT      -0.834000       15.9994           0
       686 W2       229      TIP3     H1       HT       0.417000       1.00800           0
       687 W2       229      TIP3     H2       HT       0.417000       1.00800           0
       688 W2       230      TIP3     OH2      OT      -0.834000       15.9994           0
       689 W2       230      TIP3     H1       HT       0.417000       1.00800           0
       690 W2       230      TIP3     H2       HT       0.417000       1.00800           0
       691 W2       231      TIP3     OH2      OT      -0.834000       15.9994           0
       692 W2       231      TIP3     H1       HT       0.417000       1.00800           0
       693 W2       231      TIP3     H2       HT       0.417000       1.00800           0
       694 W2       232      TIP3     OH2      OT      -0.834000       15.9994           0
       695 W2       232      TIP3     H1       HT       0.417000       1.00800           0
       696 W2       232      TIP3     H2       HT       0.417000       1.00800           0
       697 W2       233      TIP3     OH2      OT      -0.834000       15.9994           0
       698 W2       233      TIP3     H1       HT       0.417000       1.00800           0
       699 W2       233      TIP3     H2       HT       0.417000       1.00800           0
       700 W2       234      TIP3     OH2      OT      -0.834000       15.9994           0
       701 W2       234      TIP3     H1       HT       0.417000       1.00800           0
       702 W2       234      TIP3     H2       HT       0.417000       1.00800           0
       703 W2       235      TIP3     OH2      OT      -0.834000       15.9994           0
       704 W2       235      TIP3     H1       HT       0.417000       1.00800           0
       705 W2       235      TIP3     H2       HT       0.417000       1.00800           0
       706 W2       236      TIP3     OH2      OT      -0.834000       15.9994           0
       707 W2       236      TIP3     H1       HT       0.417000       1.00800           0
       708 W2       236      TIP3     H2       HT       0.417000       1.00800           0
       709 W2       237      TIP3     OH2      OT      -0.834000       15.9994           0
       710 W2       237      TIP3     H1       HT       0.417000       1.00800           0
       711 W2       237      TIP3     H2       HT       0.417000       1.00800           0
       712 W2       238      TIP3     OH2      OT      -0.834000       15.9994           0
       713 W2       238      TIP3     H1       HT       0.417000       1.00800           0
       714 W2       238      TIP3     H2       HT       0.417000       1.00800           0
       715 W2       239      TIP3     OH2      OT      -0.834000       15.9994           0
       716 W2       239      TIP3     H1       HT       0.417000       1.00800           0
       717 W2       239      TIP3     H2       HT       0.417000       1.00800           0
       718 W2       240      TIP3     OH2      OT      -0.834000       15.9994           0
       719 W2       240      TIP3     H1       HT       0.417000       1.00800           0
       720 W2       240      TIP3     H2       HT       0.417000       1.00800           0
       721 W2       241      TIP3     OH2      OT      -0.834000       15.9994           0
       722 W2       241      TIP3     H1       HT       0.417000       1.00800           0
       723 W2       241      TIP3     H2       HT       0.417000       1.00800           0
       724 W2       242      TIP3     OH2      OT      -0.834000       15.9994           0
       725 W2       242      TIP3     H1       HT       0.417000       1.00800           0
       726 W2       242      TIP3     H2       HT       0.417000       1.00800           0
       727 W2       243      TIP3     OH2      OT      -0.834000       15.9994           0
       728 W2       243      TIP3     H1       HT       0.417000       1.00800           0
       729 W2       243      TIP3     H2       HT       0.417000       1.00800           0
       730 W2       244      TIP3     OH2      OT      -0.834000       15.9994           0
       731 W2       244      TIP3     H1       HT       0.417000       1.00800           0
       732 W2       244      TIP3     H2       HT       0.417000       1.00800           0
       733 W2       245      TIP3     OH2      OT      -0.834000       15.9994           0
       734 W2       245      TIP3     H1       HT       0.417000       1.00800           0
       735 W2       245      TIP3     H2       HT       0.417000       1.00800           0
       736 W2       246      TIP3     OH2      OT      -0.834000       15.9994           0
       737 W2       246      TIP3     H1       HT       0.417000       1.00800           0
       738 W2       246      TIP3     H2       HT       0.417000       1.00800           0
       739 W2       247      TIP3     OH2      OT      -0.834000       15.9994           0
       740 W2       247      TIP3     H1       HT       0.417000       1.00800           0
       741 W2       247      TIP3     H2       HT       0.417000       1.00800           0
       742 W2       248      TIP3     OH2      OT      -0.834000       15.9994           0
       743 W2       248      TIP3     H1       HT       0.417000       1.00800           0
       744 W2       248      TIP3     H2       HT       0.417000       1.00800           0
       745 W2       249      TIP3     OH2      OT      -0.834000       15.9994           0
       746 W2       249      TIP3     H1       HT       0.417000       1.00800           0
       747 W2       249      TIP3     H2       HT       0.417000       1.00800           0
       748 W2       250      TIP3     OH2      OT      -0.834000       15.9994           0
       749 W2       250      TIP3     H1       HT       0.417000       1.00800           0
       750 W2       250      TIP3     H2       HT       0.417000       1.00800           0
       751 W2       251      TIP3     OH2      OT      -0.834000       15.9994           0
       752 W2       251      TIP3     H1       HT       0.417000       1.00800           0
       753 W2       251      TIP3     H2       HT       0.417000       1.00800           0
       754 W2       252      TIP3     OH2      OT      -0.834000       15.9994           0
       755 W2       252      TIP3     H1       HT       0.417000       1.00800           0
       756 W2       252      TIP3     H2       HT       0.417000       1.00800           0
       757 W2       253      TIP3     OH2      OT      -0.834000       15.9994           0
       758 W2       253      TIP3     H1       HT       0.417000       1.00800           0
       759 W2       253      TIP3     H2       HT       0.417000       1.00800           0
       760 W2       254      TIP3     OH2      OT      -0.834000       15.9994           0
       761 W2       254      TIP3     H1       HT       0.417000       1.00800           0
       762 W2       254      TIP3     H2       HT       0.417000       1.00800           0
       763 W2       255      TIP3     OH2      OT      -0.834000       15.9994           0
       764 W2       255      TIP3     H1       HT       0.417000       1.00800           0
       765 W2       255      TIP3     H2       HT       0.417000       1.00800           0
       766 W2       256      TIP3     OH2      OT      -0.834000       15.9994           0
       767 W2       256      TIP3     H1       HT       0.417000       1.00800           0
       768 W2       256      TIP3     H2       HT       0.417000       1.00800           0
       769 W2       257      TIP3     OH2      OT      -0.834000       15.9994           0
       770 W2       257      TIP3     H1       HT       0.417000       1.00800           0
       771 W2       257      TIP3     H2       HT       0.417000       1.00800           0
       772 W2       258      TIP3     OH2      OT      -0.834000       15.9994           0
       773 W2       258      TIP3     H1       HT       0.417000       1.00800           0
       774 W2       258      TIP3     H2       HT       0.417000       1.00800           0
       775 W2       259      TIP3     OH2      OT      -0.834000       15.9994           0
       776 W2       259      TIP3     H1       HT       0.417000       1.00800           0
       777 W2       259      TIP3     H2       HT       0.417000       1.00800           0
       778 W2       260      TIP3     OH2      OT      -0.834000       15.9994           0
       779 W2       260      TIP3     H1       HT       0.417000       1.00800           0
       780 W2       260      TIP3     H2       HT       0.417000       1.00800           0
       781 W2       261      TIP3     OH2      OT      -0.834000       15.9994           0
       782 W2       261      TIP3     H1       HT       0.417000       1.00800           0
       783 W2       261      TIP3     H2       HT       0.417000       1.00800           0
       784 W2       262      TIP3     OH2      OT      -0.834000       15.9994           0
       785 W2       262      TIP3     H1       HT       0.417000       1.00800           0
       786 W2       262      TIP3     H2       HT       0.417000       1.00800           0
       787 W2       263      TIP3     OH2      OT      -0.834000       15.9994           0
       788 W2       263      TIP3     H1       HT       0.417000       1.00800           0
       789 W2       263      TIP3     H2       HT       0.417000       1.00800           0
       790 W2       264      TIP3     OH2      OT      -0.834000       15.9994           0
       791 W2       264      TIP3     H1       HT       0.417000       1.00800           0
       792 W2       264      TIP3     H2       HT       0.417000       1.00800           0
       793 W2       265      TIP3     OH2      OT      -0.834000       15.9994           0
       794 W2       265      TIP3     H1       HT       0.417000       1.00800           0
       795 W2       265      TIP3     H2       HT       0.417000       1.00800           0
       796 W2       266      TIP3     OH2      OT      -0.834000       15.9994           0
       797 W2       266      TIP3     H1       HT       0.417000       1.00800           0
       798 W2       266      TIP3     H2       HT       0.417000       1.00800           0
       799 W2       267      TIP3     OH2      OT      -0.834000       15.9994           0
       800 W2       267      TIP3     H1       HT       0.417000       1.00800           0
       801 W2       267      TIP3     H2       HT       0.417000       1.00800           0
       802 W2       268      TIP3     OH2      OT      -0.834000       15.9994           0
       803 W2       268      TIP3     H1       HT       0.417000       1.00800           0
       804 W2       268      TIP3     H2       HT       0.417000       1.00800           0
       805 W2       269      TIP3     OH2      OT      -0.834000       15.9994           0
       806 W2       269      TIP3     H1       HT       0.417000       1.00800           0
       807 W2       269      TIP3     H2       HT       0.417000       1.00800           0
       808 W2       270      TIP3     OH2      OT      -0.834000       15.9994           0
       809 W2       270      TIP3     H1       HT       0.417000       1.00800           0
       810 W2       270      TIP3     H2       HT       0.417000       1.00800           0
       811 W2       271      TIP3     OH2      OT      -0.834000       15.9994           0
       812 W2       271      TIP3     H1       HT       0.417000       1.00800           0
       813 W2       271      TIP3     H2       HT       0.417000       1.00800           0
       814 W2       272      TIP3     OH2      OT      -0.834000       15.9994           0
       815 W2       272      TIP3     H1       HT       0.417000       1.00800           0
       816 W2       272      TIP3     H2       HT       0.417000       1.00800           0
       817 W2       273      TIP3     OH2      OT      -0.834000       15.9994           0
       818 W2       273      TIP3     H1       HT       0.417000       1.00800           0
       819 W2       273      TIP3     H2       HT       0.417000       1.00800           0
       820 W2       274      TIP3     OH2      OT      -0.834000       15.9994           0
       821 W2       274      TIP3     H1       HT       0.417000       1.00800           0
       822 W2       274      TIP3     H2       HT       0.417000       1.00800           0
       823 W2       275      TIP3     OH2      OT      -0.834000       15.9994           0
       824 W2       275      TIP3     H1       HT       0.417000       1.00800           0
       825 W2       275      TIP3     H2       HT       0.417000       1.00800           0
       826 W2       276      TIP3     OH2      OT      -0.834000       15.9994           0
       827 W2       276      TIP3     H1       HT       0.417000       1.00800           0
       828 W2       276      TIP3     H2       HT       0.417000       1.00800           0
       829 W2       277      TIP3     OH2      OT      -0.834000       15.9994           0
       830 W2       277      TIP3     H1       HT       0.417000       1.00800           0
       831 W2       277      TIP3     H2       HT       0.417000       1.00800           0
       832 W2       278      TIP3     OH2      OT      -0.834000       15.9994           0
       833 W2       278      TIP3     H1       HT       0.417000       1.00800           0
       834 W2       278      TIP3     H2       HT       0.417000       1.00800           0
       835 W2       279      TIP3     OH2      OT      -0.834000       15.9994           0
       836 W2       279      TIP3     H1       HT       0.417000       1.00800           0
       837 W2       279      TIP3     H2       HT       0.417000       1.00800           0
       838 W2       280      TIP3     OH2      OT      -0.834000       15.9994           0
       839 W2       280      TIP3     H1       HT       0.417000       1.00800           0
       840 W2       280      TIP3     H2       HT       0.417000       1.00800           0
       841 W2       281      TIP3     OH2      OT      -0.834000       15.9994           0
       842 W2       281      TIP3     H1       HT       0.417000       1.00800           0
       843 W2       281      TIP3     H2       HT       0.417000       1.00800           0
       844 W2       282      TIP3     OH2      OT      -0.834000       15.9994           0
       845 W2       282      TIP3     H1       HT       0.417000       1.00800           0
       846 W2       282      TIP3     H2       HT       0.417000       1.00800           0
       847 W2       283      TIP3     OH2      OT      -0.834000       15.9994           0
       848 W2       283      TIP3     H1       HT       0.417000       1.00800           0
       849 W2       283      TIP3     H2       HT       0.417000       1.00800           0
       850 W2       284      TIP3     OH2      OT      -0.834000       15.9994           0
       851 W2       284      TIP3     H1       HT       0.417000       1.00800           0
       852 W2       284      TIP3     H2       HT       0.417000       1.00800           0
       853 W2       285      TIP3     OH2      OT      -0.834000       15.9994           0
       854 W2       285      TIP3     H1       HT       0.417000       1.00800           0
       855 W2       285      TIP3     H2       HT       0.417000       1.00800           0
       856 W2       286      TIP3     OH2      OT      -0.834000       15.9994           0
       857 W2       286      TIP3     H1       HT       0.417000       1.00800           0
       858 W2       286      TIP3     H2       HT       0.417000       1.00800           0
       859 W2       287      TIP3     OH2      OT      -0.834000       15.9994           0
       860 W2       287      TIP3     H1       HT       0.417000       1.00800           0
       861 W2       287      TIP3     H2       HT       0.417000       1.00800           0
       862 W2       288      TIP3     OH2      OT      -0.834000       15.9994           0
       863 W2       288      TIP3     H1       HT       0.417000       1.00800           0
       864 W2       288      TIP3     H2       HT       0.417000       1.00800           0
       865 W2       289      TIP3     OH2      OT      -0.834000       15.9994           0
       866 W2       289      TIP3     H1       HT       0.417000       1.00800           0
       867 W2       289      TIP3     H2       HT       0.417000       1.00800           0
       868 W2       290      TIP3     OH2      OT      -0.834000       15.9994           0
       869 W2       290      TIP3     H1       HT       0.417000       1.00800           0
       870 W2       290      TIP3     H2       HT       0.417000       1.00800           0
       871 W2       291      TIP3     OH2      OT      -0.834000       15.9994           0
       872 W2       291      TIP3     H1       HT       0.417000       1.00800           0
       873 W2       291      TIP3     H2       HT       0.417000       1.00800           0
       874 W2       292      TIP3     OH2      OT      -0.834000       15.9994           0
       875 W2       292      TIP3     H1       HT       0.417000       1.00800           0
       876 W2       292      TIP3     H2       HT       0.417000       1.00800           0
       877 W2       293      TIP3     OH2      OT      -0.834000       15.9994           0
       878 W2       293      TIP3     H1       HT       0.417000       1.00800           0
       879 W2       293      TIP3     H2       HT       0.417000       1.00800           0
       880 W2       294      TIP3     OH2      OT      -0.834000       15.9994           0
       881 W2       294      TIP3     H1       HT       0.417000       1.00800           0
       882 W2       294      TIP3     H2       HT       0.417000       1.00800           0
       883 W2       295      TIP3     OH2      OT      -0.834000       15.9994           0
       884 W2       295      TIP3     H1       HT       0.417000       1.00800           0
       885 W2       295      TIP3     H2       HT       0.417000       1.00800           0
       886 W2       296      TIP3     OH2      OT      -0.834000       15.9994           0
       887 W2       296      TIP3     H1       HT       0.417000       1.00800           0
       888 W2       296      TIP3     H2       HT       0.417000       1.00800           0
       889 W2       297      TIP3     OH2      OT      -0.834000       15.9994           0
       890 W2       297      TIP3     H1       HT       0.417000       1.00800           0
       891 W2       297      TIP3     H2       HT       0.417000       1.00800           0
       892 W2       298      TIP3     OH2      OT      -0.834000       15.9994           0
       893 W2       298      TIP3     H1       HT       0.417000       1.00800           0
       894 W2       298      TIP3     H2       HT       0.417000       1.00800           0
       895 W2       299      TIP3     OH2      OT      -0.834000       15.9994           0
       896 W2       299      TIP3     H1       HT       0.417000       1.00800           0
       897 W2       299      TIP3     H2       HT       0.417000       1.00800           0
       898 W2       300      TIP3     OH2      OT      -0.834000       15.9994           0
       899 W2       300      TIP3     H1       HT       0.417000       1.00800           0
       900 W2       300      TIP3     H2       HT       0.417000       1.00800           0
       901 W2       301      TIP3     OH2      OT      -0.834000       15.9994           0
       902 W2       301      TIP3     H1       HT       0.417000       1.00800           0
       903 W2       301      TIP3     H2       HT       0.417000       1.00800           0
       904 W2       302      TIP3     OH2      OT      -0.834000       15.9994           0
       905 W2       302      TIP3     H1       HT       0.417000       1.00800           0
       906 W2       302      TIP3     H2       HT       0.417000       1.00800           0
       907 W2       303      TIP3     OH2      OT      -0.834000       15.9994           0
       908 W2       303      TIP3     H1       HT       0.417000       1.00800           0
       909 W2       303      TIP3     H2       HT       0.417000       1.00800           0
       910 W2       304      TIP3     OH2      OT      -0.834000       15.9994           0
       911 W2       304      TIP3     H1       HT       0.417000       1.00800           0
       912 W2       304      TIP3     H2       HT       0.417000       1.00800           0
       913 W2       305      TIP3     OH2      OT      -0.834000       15.9994           0
       914 W2       305      TIP3     H1       HT       0.417000       1.00800           0
       915 W2       305      TIP3     H2       HT       0.417000       1.00800           0
       916 W2       306      TIP3     OH2      OT      -0.834000       15.9994           0
       917 W2       306      TIP3     H1       HT       0.417000       1.00800           0
       918 W2       306      TIP3     H2       HT       0.417000       1.00800           0
       919 W2       307      TIP3     OH2      OT      -0.834000       15.9994           0
       920 W2       307      TIP3     H1       HT       0.417000       1.00800           0
       921 W2       307      TIP3     H2       HT       0.417000       1.00800           0
       922 W2       308      TIP3     OH2      OT      -0.834000       15.9994           0
       923 W2       308      TIP3     H1       HT       0.417000       1.00800           0
       924 W2       308      TIP3     H2       HT       0.417000       1.00800           0
       925 W2       309      TIP3     OH2      OT      -0.834000       15.9994           0
       926 W2       309      TIP3     H1       HT       0.417000       1.00800           0
       927 W2       309      TIP3     H2       HT       0.417000       1.00800           0
       928 W2       310      TIP3     OH2      OT      -0.834000       15.9994           0
       929 W2       310      TIP3     H1       HT       0.417000       1.00800           0
       930 W2       310      TIP3     H2       HT       0.417000       1.00800           0
       931 W2       311      TIP3     OH2      OT      -0.834000       15.9994           0
       932 W2       311      TIP3     H1       HT       0.417000       1.00800           0
       933 W2       311      TIP3     H2       HT       0.417000       1.00800           0
       934 W2       312      TIP3     OH2      OT      -0.834000       15.9994           0
       935 W2       312      TIP3     H1       HT       0.417000       1.00800           0
       936 W2       312      TIP3     H2       HT       0.417000       1.00800           0
       937 W2       313      TIP3     OH2      OT      -0.834000       15.9994           0
       938 W2       313      TIP3     H1       HT       0.417000       1.00800           0
       939 W2       313      TIP3     H2       HT       0.417000       1.00800           0
       940 W2       314      TIP3     OH2      OT      -0.834000       15.9994           0
       941 W2       314      TIP3     H1       HT       0.417000       1.00800           0
       942 W2       314      TIP3     H2       HT       0.417000       1.00800           0
       943 W2       315      TIP3     OH2      OT      -0.834000       15.9994           0
       944 W2       315      TIP3     H1       HT       0.417000       1.00800           0
       945 W2       315      TIP3     H2       HT       0.417000       1.00800           0
       946 W2       316      TIP3     OH2      OT      -0.834000       15.9994           0
       947 W2       316      TIP3     H1       HT       0.417000       1.00800           0
       948 W2       316      TIP3     H2       HT       0.417000       1.00800           0
       949 W2       317      TIP3     OH2      OT      -0.834000       15.9994           0
       950 W2       317      TIP3     H1       HT       0.417000       1.00800           0
       951 W2       317      TIP3     H2       HT       0.417000       1.00800           0
       952 W2       318      TIP3     OH2      OT      -0.834000       15.9994           0
       953 W2       318      TIP3     H1       HT       0.417000       1.00800           0
       954 W2       318      TIP3     H2       HT       0.417000       1.00800           0
       955 W2       319      TIP3     OH2      OT      -0.834000       15.9994           0
       956 W2       319      TIP3     H1       HT       0.417000       1.00800           0
       957 W2       319      TIP3     H2       HT       0.417000       1.00800           0
       958 W2       320      TIP3     OH2      OT      -0.834000       15.9994           0
       959 W2       320      TIP3     H1       HT       0.417000       1.00800           0
       960 W2       320      TIP3     H2       HT       0.417000       1.00800           0
       961 W2       321      TIP3     OH2      OT      -0.834000       15.9994           0
       962 W2       321      TIP3     H1       HT       0.417000       1.00800           0
       963 W2       321      TIP3     H2       HT       0.417000       1.00800           0
       964 W2       322      TIP3     OH2      OT      -0.834000       15.9994           0
       965 W2       322      TIP3     H1       HT       0.417000       1.00800           0
       966 W2       322      TIP3     H2       HT       0.417000       1.00800           0
       967 W2       323      TIP3     OH2      OT      -0.834000       15.9994           0
       968 W2       323      TIP3     H1       HT       0.417000       1.00800           0
       969 W2       323      TIP3     H2       HT       0.417000       1.00800           0
       970 W2       324      TIP3     OH2      OT      -0.834000       15.9994           0
       971 W2       324      TIP3     H1       HT       0.417000       1.00800           0
       972 W2       324      TIP3     H2       HT       0.417000       1.00800           0
       973 W2       325      TIP3     OH2      OT      -0.834000       15.9994           0
       974 W2       325      TIP3     H1       HT       0.417000       1.00800           0
       975 W2       325      TIP3     H2       HT       0.417000       1.00800           0
       976 W2       326      TIP3     OH2      OT      -0.834000       15.9994           0
       977 W2       326      TIP3     H1       HT       0.417000       1.00800           0
       978 W2       326      TIP3     H2       HT       0.417000       1.00800           0
       979 W2       327      TIP3     OH2      OT      -0.834000       15.9994           0
       980 W2       327      TIP3     H1       HT       0.417000       1.00800           0
       981 W2       327      TIP3     H2       HT       0.417000       1.00800           0
       982 W2       328      TIP3     OH2      OT      -0.834000       15.9994           0
       983 W2       328      TIP3     H1       HT       0.417000       1.00800           0
       984 W2       328      TIP3     H2       HT       0.417000       1.00800           0
       985 W2       329      TIP3     OH2      OT      -0.834000       15.9994           0
       986 W2       329      TIP3     H1       HT       0.417000       1.00800           0
       987 W2       329      TIP3     H2       HT       0.417000       1.00800           0
       988 W2       330      TIP3     OH2      OT      -0.834000       15.9994           0
       989 W2       330      TIP3     H1       HT       0.417000       1.00800           0
       990 W2       330      TIP3     H2       HT       0.417000       1.00800           0
       991 W2       331      TIP3     OH2      OT      -0.834000       15.9994           0
       992 W2       331      TIP3     H1       HT       0.417000       1.00800           0
       993 W2       331      TIP3     H2       HT       0.417000       1.00800           0
       994 W2       332      TIP3     OH2      OT      -0.834000       15.9994           0
       995 W2       332      TIP3     H1       HT       0.417000       1.00800           0
       996 W2       332      TIP3     H2       HT       0.417000       1.00800           0
       997 W2       333      TIP3     OH2      OT      -0.834000       15.9994           0
       998 W2       333      TIP3     H1       HT       0.417000       1.00800           0
       999 W2       333      TIP3     H2       HT       0.417000       1.00800           0
      1000 W2       334      TIP3     OH2      OT      -0.834000       15.9994           0
      1001 W2       334      TIP3     H1       HT       0.417000       1.00800           0
      1002 W2       334      TIP3     H2       HT       0.417000       1.00800           0
      1003 W2       335      TIP3     OH2      OT      -0.834000       15.9994           0
      1004 W2       335      TIP3     H1       HT       0.417000       1.00800           0
      1005 W2       335      TIP3     H2       HT       0.417000       1.00800           0
      1006 W2       336      TIP3     OH2      OT      -0.834000       15.9994           0
      1007 W2       336      TIP3     H1       HT       0.417000       1.00800           0
      1008 W2       336      TIP3     H2       HT       0.417000       1.00800           0
      1009 W2       337      TIP3     OH2      OT      -0.834000       15.9994           0
      1010 W2       337      TIP3     H1       HT       0.417000       1.00800           0
      1011 W2       337      TIP3     H2       HT       0.417000       1.00800           0
      1012 W2       338      TIP3     OH2      OT      -0.834000       15.9994           0
      1013 W2       338      TIP3     H1       HT       0.417000       1.00800           0
      1014 W2       338      TIP3     H2       HT       0.417000       1.00800           0
      1015 W2       339      TIP3     OH2      OT      -0.834000       15.9994           0
      1016 W2       339      TIP3     H1       HT       0.417000       1.00800           0
      1017 W2       339      TIP3     H2       HT       0.417000       1.00800           0
      1018 W2       340      TIP3     OH2      OT      -0.834000       15.9994           0
      1019 W2       340      TIP3     H1       HT       0.417000       1.00800           0
      1020 W2       340      TIP3     H2       HT       0.417000       1.00800           0
      1021 W2       341      TIP3     OH2      OT      -0.834000       15.9994           0
      1022 W2       341      TIP3     H1       HT       0.417000       1.00800           0
      1023 W2       341      TIP3     H2       HT       0.417000       1.00800           0
      1024 W2       342      TIP3     OH2      OT      -0.834000       15.9994           0
      1025 W2       342      TIP3     H1       HT       0.417000       1.00800           0
      1026 W2       342      TIP3     H2       HT       0.417000       1.00800           0
      1027 W2       343      TIP3     OH2      OT      -0.834000       15.9994           0
      1028 W2       343      TIP3     H1       HT       0.417000       1.00800           0
      1029 W2       343      TIP3     H2       HT       0.417000       1.00800           0
      1030 W2       344      TIP3     OH2      OT      -0.834000       15.9994           0
      1031 W2       344      TIP3     H1       HT       0.417000       1.00800           0
      1032 W2       344      TIP3     H2       HT       0.417000       1.00800           0
      1033 W2       345      TIP3     OH2      OT      -0.834000       15.9994           0
      1034 W2       345      TIP3     H1       HT       0.417000       1.00800           0
      1035 W2       345      TIP3     H2       HT       0.417000       1.00800           0
      1036 W2       346      TIP3     OH2      OT      -0.834000       15.9994           0
      1037 W2       346      TIP3     H1       HT       0.417000       1.00800           0
      1038 W2       346      TIP3     H2       HT       0.417000       1.00800           0
      1039 W2       347      TIP3     OH2      OT      -0.834000       15.9994           0
      1040 W2       347      TIP3     H1       HT       0.417000       1.00800           0
      1041 W2       347      TIP3     H2       HT       0.417000       1.00800           0
      1042 W2       348      TIP3     OH2      OT      -0.834000       15.9994           0
      1043 W2       348      TIP3     H1       HT       0.417000       1.00800           0
      1044 W2       348      TIP3     H2       HT       0.417000       1.00800           0
      1045 W2       349      TIP3     OH2      OT      -0.834000       15.9994           0
      1046 W2       349      TIP3     H1       HT       0.417000       1.00800           0
      1047 W2       349      TIP3     H2       HT       0.417000       1.00800           0
      1048 W2       350      TIP3     OH2      OT      -0.834000       15.9994           0
      1049 W2       350      TIP3     H1       HT       0.417000       1.00800           0
      1050 W2       350      TIP3     H2       HT       0.417000       1.00800           0
      1051 W2       351      TIP3     OH2      OT      -0.834000       15.9994           0
      1052 W2       351      TIP3     H1       HT       0.417000       1.00800           0
      1053 W2       351      TIP3     H2       HT       0.417000       1.00800           0
      1054 W2       352      TIP3     OH2      OT      -0.834000       15.9994           0
      1055 W2       352      TIP3     H1       HT       0.417000       1.00800           0
      1056 W2       352      TIP3     H2       HT       0.417000       1.00800           0
      1057 W2       353      TIP3     OH2      OT      -0.834000       15.9994           0
      1058 W2       353      TIP3     H1       HT       0.417000       1.00800           0
      1059 W2       353      TIP3     H2       HT       0.417000       1.00800           0
      1060 W2       354      TIP3     OH2      OT      -0.834000       15.9994           0
      1061 W2       354      TIP3     H1       HT       0.417000       1.00800           0
      1062 W2       354      TIP3     H2       HT       0.417000       1.00800           0
      1063 W2       355      TIP3     OH2      OT      -0.834000       15.9994           0
      1064 W2       355      TIP3     H1       HT       0.417000       1.00800           0
      1065 W2       355      TIP3     H2       HT       0.417000       1.00800           0
      1066 W2       356      TIP3     OH2      OT      -0.834000       15.9994           0
      1067 W2       356      TIP3     H1       HT       0.417000       1.00800           0
      1068 W2       356      TIP3     H2       HT       0.417000       1.00800           0
      1069 W2       357      TIP3     OH2      OT      -0.834000       15.9994           0
      1070 W2       357      TIP3     H1       HT       0.417000       1.00800           0
      1071 W2       357      TIP3     H2       HT       0.417000       1.00800           0
      1072 W2       358      TIP3     OH2      OT      -0.834000       15.9994           0
      1073 W2       358      TIP3     H1       HT       0.417000       1.00800           0
      1074 W2       358      TIP3     H2       HT       0.417000       1.00800           0
      1075 W2       359      TIP3     OH2      OT      -0.834000       15.9994           0
      1076 W2       359      TIP3     H1       HT       0.417000       1.00800           0
      1077 W2       359      TIP3     H2       HT       0.417000       1.00800           0
      1078 W2       360      TIP3     OH2      OT      -0.834000       15.9994           0
      1079 W2       360      TIP3     H1       HT       0.417000       1.00800           0
      1080 W2       360      TIP3     H2       HT       0.417000       1.00800           0
      1081 W2       361      TIP3     OH2      OT      -0.834000       15.9994           0
      1082 W2       361      TIP3     H1       HT       0.417000       1.00800           0
      1083 W2       361      TIP3     H2       HT       0.417000       1.00800           0
      1084 W2       362      TIP3     OH2      OT      -0.834000       15.9994           0
      1085 W2       362      TIP3     H1       HT       0.417000       1.00800           0
      1086 W2       362      TIP3     H2       HT       0.417000       1.00800           0
      1087 W2       363      TIP3     OH2      OT      -0.834000       15.9994           0
      1088 W2       363      TIP3     H1       HT       0.417000       1.00800           0
      1089 W2       363      TIP3     H2       HT       0.417000       1.00800           0
      1090 W2       364      TIP3     OH2      OT      -0.834000       15.9994           0
      1091 W2       364      TIP3     H1       HT       0.417000       1.00800           0
      1092 W2       364      TIP3     H2       HT       0.417000       1.00800           0
      1093 W2       365      TIP3     OH2      OT      -0.834000       15.9994           0
      1094 W2       365      TIP3     H1       HT       0.417000       1.00800           0
      1095 W2       365      TIP3     H2       HT       0.417000       1.00800           0
      1096 W2       366      TIP3     OH2      OT      -0.834000       15.9994           0
      1097 W2       366      TIP3     H1       HT       0.417000       1.00800           0
      1098 W2       366      TIP3     H2       HT       0.417000       1.00800           0
      1099 W2       367      TIP3     OH2      OT      -0.834000       15.9994           0
      1100 W2       367      TIP3     H1       HT       0.417000       1.00800           0
      1101 W2       367      TIP3     H2       HT       0.417000       1.00800           0
      1102 W2       368      TIP3     OH2      OT      -0.834000       15.9994           0
      1103 W2       368      TIP3     H1       HT       0.417000       1.00800           0
      1104 W2       368      TIP3     H2       HT       0.417000       1.00800           0
      1105 W2       369      TIP3     OH2      OT      -0.834000       15.9994           0
      1106 W2       369      TIP3     H1       HT       0.417000       1.00800           0
      1107 W2       369      TIP3     H2       HT       0.417000       1.00800           0
      1108 W2       370      TIP3     OH2      OT      -0.834000       15.9994           0
      1109 W2       370      TIP3     H1       HT       0.417000       1.00800           0
      1110 W2       370      TIP3     H2       HT       0.417000       1.00800           0
      1111 W2       371      TIP3     OH2      OT      -0.834000       15.9994           0
      1112 W2       371      TIP3     H1       HT       0.417000       1.00800           0
      1113 W2       371      TIP3     H2       HT       0.417000       1.00800           0
      1114 W2       372      TIP3     OH2      OT      -0.834000       15.9994           0
      1115 W2       372      TIP3     H1       HT       0.417000       1.00800           0
      1116 W2       372      TIP3     H2       HT       0.417000       1.00800           0
      1117 W2       373      TIP3     OH2      OT      -0.834000       15.9994           0
      1118 W2       373      TIP3     H1       HT       0.417000       1.00800           0
      1119 W2       373      TIP3     H2       HT       0.417000       1.00800           0
      1120 W2       374      TIP3     OH2      OT      -0.834000       15.9994           0
      1121 W2       374      TIP3     H1       HT       0.417000       1.00800           0
      1122 W2       374      TIP3     H2       HT       0.417000       1.00800           0
      1123 W2       375      TIP3     OH2      OT      -0.834000       15.9994           0
      1124 W2       375      TIP3     H1       HT       0.417000       1.00800           0
      1125 W2       375      TIP3     H2       HT       0.417000       1.00800           0
      1126 W2       376      TIP3     OH2      OT      -0.834000       15.9994           0
      1127 W2       376      TIP3     H1       HT       0.417000       1.00800           0
      1128 W2       376      TIP3     H2       HT       0.417000       1.00800           0
      1129 W2       377      TIP3     OH2      OT      -0.834000       15.9994           0
      1130 W2       377      TIP3     H1       HT       0.417000       1.00800           0
      1131 W2       377      TIP3     H2       HT       0.417000       1.00800           0
      1132 W2       378      TIP3     OH2      OT      -0.834000       15.9994           0
      1133 W2       378      TIP3     H1       HT       0.417000       1.00800           0
      1134 W2       378      TIP3     H2       HT       0.417000       1.00800           0
      1135 W2       379      TIP3     OH2      OT      -0.834000       15.9994           0
      1136 W2       379      TIP3     H1       HT       0.417000       1.00800           0
      1137 W2       379      TIP3     H2       HT       0.417000       1.00800           0
      1138 W2       380      TIP3     OH2      OT      -0.834000       15.9994           0
      1139 W2       380      TIP3     H1       HT       0.417000       1.00800           0
      1140 W2       380      TIP3     H2       HT       0.417000       1.00800           0
      1141 W2       381      TIP3     OH2      OT      -0.834000       15.9994           0
      1142 W2       381      TIP3     H1       HT       0.417000       1.00800           0
      1143 W2       381      TIP3     H2       HT       0.417000       1.00800           0
      1144 W2       382      TIP3     OH2      OT      -0.834000       15.9994           0
      1145 W2       382      TIP3     H1       HT       0.417000       1.00800           0
      1146 W2       382      TIP3     H2       HT       0.417000       1.00800           0
      1147 W2       383      TIP3     OH2      OT      -0.834000       15.9994           0
      1148 W2       383      TIP3     H1       HT       0.417000       1.00800           0
      1149 W2       383      TIP3     H2       HT       0.417000       1.00800           0
      1150 W2       384      TIP3     OH2      OT      -0.834000       15.9994           0
      1151 W2       384      TIP3     H1       HT       0.417000       1.00800           0
      1152 W2       384      TIP3     H2       HT       0.417000       1.00800           0
      1153 W2       385      TIP3     OH2      OT      -0.834000       15.9994           0
      1154 W2       385      TIP3     H1       HT       0.417000       1.00800           0
      1155 W2       385      TIP3     H2       HT       0.417000       1.00800           0
      1156 W2       386      TIP3     OH2      OT      -0.834000       15.9994           0
      1157 W2       386      TIP3     H1       HT       0.417000       1.00800           0
      1158 W2       386      TIP3     H2       HT       0.417000       1.00800           0
      1159 W2       387      TIP3     OH2      OT      -0.834000       15.9994           0
      1160 W2       387      TIP3     H1       HT       0.417000       1.00800           0
      1161 W2       387      TIP3     H2       HT       0.417000       1.00800           0
      1162 W2       388      TIP3     OH2      OT      -0.834000       15.9994           0
      1163 W2       388      TIP3     H1       HT       0.417000       1.00800           0
      1164 W2       388      TIP3     H2       HT       0.417000       1.00800           0
      1165 W2       389      TIP3     OH2      OT      -0.834000       15.9994           0
      1166 W2       389      TIP3     H1       HT       0.417000       1.00800           0
      1167 W2       389      TIP3     H2       HT       0.417000       1.00800           0
      1168 W2       390      TIP3     OH2      OT      -0.834000       15.9994           0
      1169 W2       390      TIP3     H1       HT       0.417000       1.00800           0
      1170 W2       390      TIP3     H2       HT       0.417000       1.00800           0
      1171 W2       391      TIP3     OH2      OT      -0.834000       15.9994           0
      1172 W2       391      TIP3     H1       HT       0.417000       1.00800           0
      1173 W2       391      TIP3     H2       HT       0.417000       1.00800           0
      1174 W2       392      TIP3     OH2      OT      -0.834000       15.9994           0
      1175 W2       392      TIP3     H1       HT       0.417000       1.00800           0
      1176 W2       392      TIP3     H2       HT       0.417000       1.00800           0
      1177 W2       393      TIP3     OH2      OT      -0.834000       15.9994           0
      1178 W2       393      TIP3     H1       HT       0.417000       1.00800           0
      1179 W2       393      TIP3     H2       HT       0.417000       1.00800           0
      1180 W2       394      TIP3     OH2      OT      -0.834000       15.9994           0
      1181 W2       394      TIP3     H1       HT       0.417000       1.00800           0
      1182 W2       394      TIP3     H2       HT       0.417000       1.00800           0
      1183 W2       395      TIP3     OH2      OT      -0.834000       15.9994           0
      1184 W2       395      TIP3     H1       HT       0.417000       1.00800           0
      1185 W2       395      TIP3     H2       HT       0.417000       1.00800           0
      1186 W2       396      TIP3     OH2      OT      -0.834000       15.9994           0
      1187 W2       396      TIP3     H1       HT       0.417000       1.00800           0
      1188 W2       396      TIP3     H2       HT       0.417000       1.00800           0
      1189 W2       397      TIP3     OH2      OT      -0.834000       15.9994           0
      1190 W2       397      TIP3     H1       HT       0.417000       1.00800           0
      1191 W2       397      TIP3     H2       HT       0.417000       1.00800           0
      1192 W2       398      TIP3     OH2      OT      -0.834000       15.9994           0
      1193 W2       398      TIP3     H1       HT       0.417000       1.00800           0
      1194 W2       398      TIP3     H2       HT       0.417000       1.00800           0
      1195 W2       399      TIP3     OH2      OT      -0.834000       15.9994           0
      1196 W2       399      TIP3     H1       HT       0.417000       1.00800           0
      1197 W2       399      TIP3     H2       HT       0.417000       1.00800           0
      1198 W2       400      TIP3     OH2      OT      -0.834000       15.9994           0
      1199 W2       400      TIP3     H1       HT       0.417000       1.00800           0
      1200 W2       400      TIP3     H2       HT       0.417000       1.00800           0
      1201 W2       401      TIP3     OH2      OT      -0.834000       15.9994           0
      1202 W2       401      TIP3     H1       HT       0.417000       1.00800           0
      1203 W2       401      TIP3     H2       HT       0.417000       1.00800           0
      1204 W2       402      TIP3     OH2      OT      -0.834000       15.9994           0
      1205 W2       402      TIP3     H1       HT       0.417000       1.00800           0
      1206 W2       402      TIP3     H2       HT       0.417000       1.00800           0
      1207 W2       403      TIP3     OH2      OT      -0.834000       15.9994           0
      1208 W2       403      TIP3     H1       HT       0.417000       1.00800           0
      1209 W2       403      TIP3     H2       HT       0.417000       1.00800           0
      1210 W2       404      TIP3     OH2      OT      -0.834000       15.9994           0
      1211 W2       404      TIP3     H1       HT       0.417000       1.00800           0
      1212 W2       404      TIP3     H2       HT       0.417000       1.00800           0
      1213 W2       405      TIP3     OH2      OT      -0.834000       15.9994           0
      1214 W2       405      TIP3     H1       HT       0.417000       1.00800           0
      1215 W2       405      TIP3     H2       HT       0.417000       1.00800           0
      1216 W2       406      TIP3     OH2      OT      -0.834000       15.9994           0
      1217 W2       406      TIP3     H1       HT       0.417000       1.00800           0
      1218 W2       406      TIP3     H2       HT       0.417000       1.00800           0
      1219 W2       407      TIP3     OH2      OT      -0.834000       15.9994           0
      1220 W2       407      TIP3     H1       HT       0.417000       1.00800           0
      1221 W2       407      TIP3     H2       HT       0.417000       1.00800           0
      1222 W2       408      TIP3     OH2      OT      -0.834000       15.9994           0
      1223 W2       408      TIP3     H1       HT       0.417000       1.00800           0
      1224 W2       408      TIP3     H2       HT       0.417000       1.00800           0
      1225 W2       409      TIP3     OH2      OT      -0.834000       15.9994           0
      1226 W2       409      TIP3     H1       HT       0.417000       1.00800           0
      1227 W2       409      TIP3     H2       HT       0.417000       1.00800           0
      1228 W2       410      TIP3     OH2      OT      -0.834000       15.9994           0
      1229 W2       410      TIP3     H1       HT       0.417000       1.00800           0
      1230 W2       410      TIP3     H2       HT       0.417000       1.00800           0
      1231 W2       411      TIP3     OH2      OT      -0.834000       15.9994           0
      1232 W2       411      TIP3     H1       HT       0.417000       1.00800           0
      1233 W2       411      TIP3     H2       HT       0.417000       1.00800           0
      1234 W2       412      TIP3     OH2      OT      -0.834000       15.9994           0
      1235 W2       412      TIP3     H1       HT       0.417000       1.00800           0
      1236 W2       412      TIP3     H2       HT       0.417000       1.00800           0
      1237 W2       413      TIP3     OH2      OT      -0.834000       15.9994           0
      1238 W2       413      TIP3     H1       HT       0.417000       1.00800           0
      1239 W2       413      TIP3     H2       HT       0.417000       1.00800           0
      1240 W2       414      TIP3     OH2      OT      -0.834000       15.9994           0
      1241 W2       414      TIP3     H1       HT       0.417000       1.00800           0
      1242 W2       414      TIP3     H2       HT       0.417000       1.00800           0
      1243 W2       415      TIP3     OH2      OT      -0.834000       15.9994           0
      1244 W2       415      TIP3     H1       HT       0.417000       1.00800           0
      1245 W2       415      TIP3     H2       HT       0.417000       1.00800           0
      1246 W2       416      TIP3     OH2      OT      -0.834000       15.9994           0
      1247 W2       416      TIP3     H1       HT       0.417000       1.00800           0
      1248 W2       416      TIP3     H2       HT       0.417000       1.00800           0
      1249 W2       417      TIP3     OH2      OT      -0.834000       15.9994           0
      1250 W2       417      TIP3     H1       HT       0.417000       1.00800           0
      1251 W2       417      TIP3     H2       HT       0.417000       1.00800           0
      1252 W2       418      TIP3     OH2      OT      -0.834000       15.9994           0
      1253 W2       418      TIP3     H1       HT       0.417000       1.00800           0
      1254 W2       418      TIP3     H2       HT       0.417000       1.00800           0
      1255 W2       419      TIP3     OH2      OT      -0.834000       15.9994           0
      1256 W2       419      TIP3     H1       HT       0.417000       1.00800           0
      1257 W2       419      TIP3     H2       HT       0.417000       1.00800           0
      1258 W2       420      TIP3     OH2      OT      -0.834000       15.9994           0
      1259 W2       420      TIP3     H1       HT       0.417000       1.00800           0
      1260 W2       420      TIP3     H2       HT       0.417000       1.00800           0
      1261 W2       421      TIP3     OH2      OT      -0.834000       15.9994           0
      1262 W2       421      TIP3     H1       HT       0.417000       1.00800           0
      1263 W2       421      TIP3     H2       HT       0.417000       1.00800           0
      1264 W2       422      TIP3     OH2      OT      -0.834000       15.9994           0
      1265 W2       422      TIP3     H1       HT       0.417000       1.00800           0
      1266 W2       422      TIP3     H2       HT       0.417000       1.00800           0
      1267 W2       423      TIP3     OH2      OT      -0.834000       15.9994           0
      1268 W2       423      TIP3     H1       HT       0.417000       1.00800           0
      1269 W2       423      TIP3     H2       HT       0.417000       1.00800           0
      1270 W2       424      TIP3     OH2      OT      -0.834000       15.9994           0
      1271 W2       424      TIP3     H1       HT       0.417000       1.00800           0
      1272 W2       424      TIP3     H2       HT       0.417000       1.00800           0
      1273 W2       425      TIP3     OH2      OT      -0.834000       15.9994           0
      1274 W2       425      TIP3     H1       HT       0.417000       1.00800           0
      1275 W2       425      TIP3     H2       HT       0.417000       1.00800           0
      1276 W2       426      TIP3     OH2      OT      -0.834000       15.9994           0
      1277 W2       426      TIP3     H1       HT       0.417000       1.00800           0
      1278 W2       426      TIP3     H2       HT       0.417000       1.00800           0
      1279 W2       427      TIP3     OH2      OT      -0.834000       15.9994           0
      1280 W2       427      TIP3     H1       HT       0.417000       1.00800           0
      1281 W2       427      TIP3     H2       HT       0.417000       1.00800           0
      1282 W2       428      TIP3     OH2      OT      -0.834000       15.9994           0
      1283 W2       428      TIP3     H1       HT       0.417000       1.00800           0
      1284 W2       428      TIP3     H2       HT       0.417000       1.00800           0
      1285 W2       429      TIP3     OH2      OT      -0.834000       15.9994           0
      1286 W2       429      TIP3     H1       HT       0.417000       1.00800           0
      1287 W2       429      TIP3     H2       HT       0.417000       1.00800           0
      1288 W2       430      TIP3     OH2      OT      -0.834000       15.9994           0
      1289 W2       430      TIP3     H1       HT       0.417000       1.00800           0
      1290 W2       430      TIP3     H2       HT       0.417000       1.00800           0
      1291 W2       431      TIP3     OH2      OT      -0.834000       15.9994           0
      1292 W2       431      TIP3     H1       HT       0.417000       1.00800           0
      1293 W2       431      TIP3     H2       HT       0.417000       1.00800           0
      1294 W2       432      TIP3     OH2      OT      -0.834000       15.9994           0
      1295 W2       432      TIP3     H1       HT       0.417000       1.00800           0
      1296 W2       432      TIP3     H2       HT       0.417000       1.00800           0
      1297 W2       433      TIP3     OH2      OT      -0.834000       15.9994           0
      1298 W2       433      TIP3     H1       HT       0.417000       1.00800           0
      1299 W2       433      TIP3     H2       HT       0.417000       1.00800           0
      1300 W2       434      TIP3     OH2      OT      -0.834000       15.9994           0
      1301 W2       434      TIP3     H1       HT       0.417000       1.00800           0
      1302 W2       434      TIP3     H2       HT       0.417000       1.00800           0
      1303 W2       435      TIP3     OH2      OT      -0.834000       15.9994           0
      1304 W2       435      TIP3     H1       HT       0.417000       1.00800           0
      1305 W2       435      TIP3     H2       HT       0.417000       1.00800           0
      1306 W2       436      TIP3     OH2      OT      -0.834000       15.9994           0
      1307 W2       436      TIP3     H1       HT       0.417000       1.00800           0
      1308 W2       436      TIP3     H2       HT       0.417000       1.00800           0
      1309 W2       437      TIP3     OH2      OT      -0.834000       15.9994           0
      1310 W2       437      TIP3     H1       HT       0.417000       1.00800           0
      1311 W2       437      TIP3     H2       HT       0.417000       1.00800           0
      1312 W2       438      TIP3     OH2      OT      -0.834000       15.9994           0
      1313 W2       438      TIP3     H1       HT       0.417000       1.00800           0
      1314 W2       438      TIP3     H2       HT       0.417000       1.00800           0
      1315 W2       439      TIP3     OH2      OT      -0.834000       15.9994           0
      1316 W2       439      TIP3     H1       HT       0.417000       1.00800           0
      1317 W2       439      TIP3     H2       HT       0.417000       1.00800           0
      1318 W2       440      TIP3     OH2      OT      -0.834000       15.9994           0
      1319 W2       440      TIP3     H1       HT       0.417000       1.00800           0
      1320 W2       440      TIP3     H2       HT       0.417000       1.00800           0
      1321 W2       441      TIP3     OH2      OT      -0.834000       15.9994           0
      1322 W2       441      TIP3     H1       HT       0.417000       1.00800           0
      1323 W2       441      TIP3     H2       HT       0.417000       1.00800           0
      1324 W2       442      TIP3     OH2      OT      -0.834000       15.9994           0
      1325 W2       442      TIP3     H1       HT       0.417000       1.00800           0
      1326 W2       442      TIP3     H2       HT       0.417000       1.00800           0
      1327 W2       443      TIP3     OH2      OT      -0.834000       15.9994           0
      1328 W2       443      TIP3     H1       HT       0.417000       1.00800           0
      1329 W2       443      TIP3     H2       HT       0.417000       1.00800           0
      1330 W2       444      TIP3     OH2      OT      -0.834000       15.9994           0
      1331 W2       444      TIP3     H1       HT       0.417000       1.00800           0
      1332 W2       444      TIP3     H2       HT       0.417000       1.00800           0
      1333 W2       445      TIP3     OH2      OT      -0.834000       15.9994           0
      1334 W2       445      TIP3     H1       HT       0.417000       1.00800           0
      1335 W2       445      TIP3     H2       HT       0.417000       1.00800           0
      1336 W2       446      TIP3     OH2      OT      -0.834000       15.9994           0
      1337 W2       446      TIP3     H1       HT       0.417000       1.00800           0
      1338 W2       446      TIP3     H2       HT       0.417000       1.00800           0
      1339 W2       447      TIP3     OH2      OT      -0.834000       15.9994           0
      1340 W2       447      TIP3     H1       HT       0.417000       1.00800           0
      1341 W2       447      TIP3     H2       HT       0.417000       1.00800           0
      1342 W2       448      TIP3     OH2      OT      -0.834000       15.9994           0
      1343 W2       448      TIP3     H1       HT       0.417000       1.00800           0
      1344 W2       448      TIP3     H2       HT       0.417000       1.00800           0
      1345 W2       449      TIP3     OH2      OT      -0.834000       15.9994           0
      1346 W2       449      TIP3     H1       HT       0.417000       1.00800           0
      1347 W2       449      TIP3     H2       HT       0.417000       1.00800           0
      1348 W2       450      TIP3     OH2      OT      -0.834000       15.9994           0
      1349 W2       450      TIP3     H1       HT       0.417000       1.00800           0
      1350 W2       450      TIP3     H2       HT       0.417000       1.00800           0
      1351 W2       451      TIP3     OH2      OT      -0.834000       15.9994           0
      1352 W2       451      TIP3     H1       HT       0.417000       1.00800           0
      1353 W2       451      TIP3     H2       HT       0.417000       1.00800           0
      1354 W2       452      TIP3     OH2      OT      -0.834000       15.9994           0
      1355 W2       452      TIP3     H1       HT       0.417000       1.00800           0
      1356 W2       452      TIP3     H2       HT       0.417000       1.00800           0
      1357 W2       453      TIP3     OH2      OT      -0.834000       15.9994           0
      1358 W2       453      TIP3     H1       HT       0.417000       1.00800           0
      1359 W2       453      TIP3     H2       HT       0.417000       1.00800           0
      1360 W2       454      TIP3     OH2      OT      -0.834000       15.9994           0
      1361 W2       454      TIP3     H1       HT       0.417000       1.00800           0
      1362 W2       454      TIP3     H2       HT       0.417000       1.00800           0
      1363 W2       455      TIP3     OH2      OT      -0.834000       15.9994           0
      1364 W2       455      TIP3     H1       HT       0.417000       1.00800           0
      1365 W2       455      TIP3     H2       HT       0.417000       1.00800           0
      1366 W2       456      TIP3     OH2      OT      -0.834000       15.9994           0
      1367 W2       456      TIP3     H1       HT       0.417000       1.00800           0
      1368 W2       456      TIP3     H2       HT       0.417000       1.00800           0
      1369 W2       457      TIP3     OH2      OT      -0.834000       15.9994           0
      1370 W2       457      TIP3     H1       HT       0.417000       1.00800           0
      1371 W2       457      TIP3     H2       HT       0.417000       1.00800           0
      1372 W2       458      TIP3     OH2      OT      -0.834000       15.9994           0
      1373 W2       458      TIP3     H1       HT       0.417000       1.00800           0
      1374 W2       458      TIP3     H2       HT       0.417000       1.00800           0
      1375 W2       459      TIP3     OH2      OT      -0.834000       15.9994           0
      1376 W2       459      TIP3     H1       HT       0.417000       1.00800           0
      1377 W2       459      TIP3     H2       HT       0.417000       1.00800           0
      1378 W2       460      TIP3     OH2      OT      -0.834000       15.9994           0
      1379 W2       460      TIP3     H1       HT       0.417000       1.00800           0
      1380 W2       460      TIP3     H2       HT       0.417000       1.00800           0
      1381 W2       461      TIP3     OH2      OT      -0.834000       15.9994           0
      1382 W2       461      TIP3     H1       HT       0.417000       1.00800           0
      1383 W2       461      TIP3     H2       HT       0.417000       1.00800           0
      1384 W2       462      TIP3     OH2      OT      -0.834000       15.9994           0
      1385 W2       462      TIP3     H1       HT       0.417000       1.00800           0
      1386 W2       462      TIP3     H2       HT       0.417000       1.00800           0
      1387 W2       463      TIP3     OH2      OT      -0.834000       15.9994           0
      1388 W2       463      TIP3     H1       HT       0.417000       1.00800           0
      1389 W2       463      TIP3     H2       HT       0.417000       1.00800           0
      1390 W2       464      TIP3     OH2      OT      -0.834000       15.9994           0
      1391 W2       464      TIP3     H1       HT       0.417000       1.00800           0
      1392 W2       464      TIP3     H2       HT       0.417000       1.00800           0
      1393 W2       465      TIP3     OH2      OT      -0.834000       15.9994           0
      1394 W2       465      TIP3     H1       HT       0.417000       1.00800           0
      1395 W2       465      TIP3     H2       HT       0.417000       1.00800           0
      1396 W2       466      TIP3     OH2      OT      -0.834000       15.9994           0
      1397 W2       466      TIP3     H1       HT       0.417000       1.00800           0
      1398 W2       466      TIP3     H2       HT       0.417000       1.00800           0
      1399 W2       467      TIP3     OH2      OT      -0.834000       15.9994           0
      1400 W2       467      TIP3     H1       HT       0.417000       1.00800           0
      1401 W2       467      TIP3     H2       HT       0.417000       1.00800           0
      1402 W2       468      TIP3     OH2      OT      -0.834000       15.9994           0
      1403 W2       468      TIP3     H1       HT       0.417000       1.00800           0
      1404 W2       468      TIP3     H2       HT       0.417000       1.00800           0
      1405 W2       469      TIP3     OH2      OT      -0.834000       15.9994           0
      1406 W2       469      TIP3     H1       HT       0.417000       1.00800           0
      1407 W2       469      TIP3     H2       HT       0.417000       1.00800           0
      1408 W2       470      TIP3     OH2      OT      -0.834000       15.9994           0
      1409 W2       470      TIP3     H1       HT       0.417000       1.00800           0
      1410 W2       470      TIP3     H2       HT       0.417000       1.00800           0
      1411 W2       471      TIP3     OH2      OT      -0.834000       15.9994           0
      1412 W2       471      TIP3     H1       HT       0.417000       1.00800           0
      1413 W2       471      TIP3     H2       HT       0.417000       1.00800           0
      1414 W2       472      TIP3     OH2      OT      -0.834000       15.9994           0
      1415 W2       472      TIP3     H1       HT       0.417000       1.00800           0
      1416 W2       472      TIP3     H2       HT       0.417000       1.00800           0
      1417 W2       473      TIP3     OH2      OT      -0.834000       15.9994           0
      1418 W2       473      TIP3     H1       HT       0.417000       1.00800           0
      1419 W2       473      TIP3     H2       HT       0.417000       1.00800           0
      1420 W2       474      TIP3     OH2      OT      -0.834000       15.9994           0
      1421 W2       474      TIP3     H1       HT       0.417000       1.00800           0
      1422 W2       474      TIP3     H2       HT       0.417000       1.00800           0
      1423 W2       475      TIP3     OH2      OT      -0.834000       15.9994           0
      1424 W2       475      TIP3     H1       HT       0.417000       1.00800           0
      1425 W2       475      TIP3     H2       HT       0.417000       1.00800           0
      1426 W2       476      TIP3     OH2      OT      -0.834000       15.9994           0
      1427 W2       476      TIP3     H1       HT       0.417000       1.00800           0
      1428 W2       476      TIP3     H2       HT       0.417000       1.00800           0
      1429 W2       477      TIP3     OH2      OT      -0.834000       15.9994           0
      1430 W2       477      TIP3     H1       HT       0.417000       1.00800           0
      1431 W2       477      TIP3     H2       HT       0.417000       1.00800           0
      1432 W2       478      TIP3     OH2      OT      -0.834000       15.9994           0
      1433 W2       478      TIP3     H1       HT       0.417000       1.00800           0
      1434 W2       478      TIP3     H2       HT       0.417000       1.00800           0
      1435 W2       479      TIP3     OH2      OT      -0.834000       15.9994           0
      1436 W2       479      TIP3     H1       HT       0.417000       1.00800           0
      1437 W2       479      TIP3     H2       HT       0.417000       1.00800           0
      1438 W2       480      TIP3     OH2      OT      -0.834000       15.9994           0
      1439 W2       480      TIP3     H1       HT       0.417000       1.00800           0
      1440 W2       480      TIP3     H2       HT       0.417000       1.00800           0
      1441 W2       481      TIP3     OH2      OT      -0.834000       15.9994           0
      1442 W2       481      TIP3     H1       HT       0.417000       1.00800           0
      1443 W2       481      TIP3     H2       HT       0.417000       1.00800           0
      1444 W2       482      TIP3     OH2      OT      -0.834000       15.9994           0
      1445 W2       482      TIP3     H1       HT       0.417000       1.00800           0
      1446 W2       482      TIP3     H2       HT       0.417000       1.00800           0
      1447 W2       483      TIP3     OH2      OT      -0.834000       15.9994           0
      1448 W2       483      TIP3     H1       HT       0.417000       1.00800           0
      1449 W2       483      TIP3     H2       HT       0.417000       1.00800           0
      1450 W2       484      TIP3     OH2      OT      -0.834000       15.9994           0
      1451 W2       484      TIP3     H1       HT       0.417000       1.00800           0
      1452 W2       484      TIP3     H2       HT       0.417000       1.00800           0
      1453 W2       485      TIP3     OH2      OT      -0.834000       15.9994           0
      1454 W2       485      TIP3     H1       HT       0.417000       1.00800           0
      1455 W2       485      TIP3     H2       HT       0.417000       1.00800           0
      1456 W2       486      TIP3     OH2      OT      -0.834000       15.9994           0
      1457 W2       486      TIP3     H1       HT       0.417000       1.00800           0
      1458 W2       486      TIP3     H2       HT       0.417000       1.00800           0
      1459 W2       487      TIP3     OH2      OT      -0.834000       15.9994           0
      1460 W2       487      TIP3     H1       HT       0.417000       1.00800           0
      1461 W2       487      TIP3     H2       HT       0.417000       1.00800           0
      1462 W2       488      TIP3     OH2      OT      -0.834000       15.9994           0
      1463 W2       488      TIP3     H1       HT       0.417000       1.00800           0
      1464 W2       488      TIP3     H2       HT       0.417000       1.00800           0
      1465 W2       489      TIP3     OH2      OT      -0.834000       15.9994           0
      1466 W2       489      TIP3     H1       HT       0.417000       1.00800           0
      1467 W2       489      TIP3     H2       HT       0.417000       1.00800           0
      1468 W2       490      TIP3     OH2      OT      -0.834000       15.9994           0
      1469 W2       490      TIP3     H1       HT       0.417000       1.00800           0
      1470 W2       490      TIP3     H2       HT       0.417000       1.00800           0
      1471 W2       491      TIP3     OH2      OT      -0.834000       15.9994           0
      1472 W2       491      TIP3     H1       HT       0.417000       1.00800           0
      1473 W2       491      TIP3     H2       HT       0.417000       1.00800           0
      1474 W2       492      TIP3     OH2      OT      -0.834000       15.9994           0
      1475 W2       492      TIP3     H1       HT       0.417000       1.00800           0
      1476 W2       492      TIP3     H2       HT       0.417000       1.00800           0
      1477 W2       493      TIP3     OH2      OT      -0.834000       15.9994           0
      1478 W2       493      TIP3     H1       HT       0.417000       1.00800           0
      1479 W2       493      TIP3     H2       HT       0.417000       1.00800           0
      1480 W2       494      TIP3     OH2      OT      -0.834000       15.9994           0
      1481 W2       494      TIP3     H1       HT       0.417000       1.00800           0
      1482 W2       494      TIP3     H2       HT       0.417000       1.00800           0
      1483 W2       495      TIP3     OH2      OT      -0.834000       15.9994           0
      1484 W2       495      TIP3     H1       HT       0.417000       1.00800           0
      1485 W2       495      TIP3     H2       HT       0.417000       1.00800           0
      1486 W2       496      TIP3     OH2      OT      -0.834000       15.9994           0
      1487 W2       496      TIP3     H1       HT       0.417000       1.00800           0
      1488 W2       496      TIP3     H2       HT       0.417000       1.00800           0
      1489 W2       497      TIP3     OH2      OT      -0.834000       15.9994           0
      1490 W2       497      TIP3     H1       HT       0.417000       1.00800           0
      1491 W2       497      TIP3     H2       HT       0.417000       1.00800           0
      1492 W2       498      TIP3     OH2      OT      -0.834000       15.9994           0
      1493 W2       498      TIP3     H1       HT       0.417000       1.00800           0
      1494 W2       498      TIP3     H2       HT       0.417000       1.00800           0
      1495 W2       499      TIP3     OH2      OT      -0.834000       15.9994           0
      1496 W2       499      TIP3     H1       HT       0.417000       1.00800           0
      1497 W2       499      TIP3     H2       HT       0.417000       1.00800           0
      1498 W2       500      TIP3     OH2      OT      -0.834000       15.9994           0
      1499 W2       500      TIP3     H1       HT       0.417000       1.00800           0
      1500 W2       500      TIP3     H2       HT       0.417000       1.00800           0
      1501 W2       501      TIP3     OH2      OT      -0.834000       15.9994           0
      1502 W2       501      TIP3     H1       HT       0.417000       1.00800           0
      1503 W2       501      TIP3     H2       HT       0.417000       1.00800           0
      1504 W2       502      TIP3     OH2      OT      -0.834000       15.9994           0
      1505 W2       502      TIP3     H1       HT       0.417000       1.00800           0
      1506 W2       502      TIP3     H2       HT       0.417000       1.00800           0
      1507 W2       503      TIP3     OH2      OT      -0.834000       15.9994           0
      1508 W2       503      TIP3     H1       HT       0.417000       1.00800           0
      1509 W2       503      TIP3     H2       HT       0.417000       1.00800           0
      1510 W2       504      TIP3     OH2      OT      -0.834000       15.9994           0
      1511 W2       504      TIP3     H1       HT       0.417000       1.00800           0
      1512 W2       504      TIP3     H2       HT       0.417000       1.00800           0
      1513 W2       505      TIP3     OH2      OT      -0.834000       15.9994           0
      1514 W2       505      TIP3     H1       HT       0.417000       1.00800           0
      1515 W2       505      TIP3     H2       HT       0.417000       1.00800           0
      1516 W2       506      TIP3     OH2      OT      -0.834000       15.9994           0
      1517 W2       506      TIP3     H1       HT       0.417000       1.00800           0
      1518 W2       506      TIP3     H2       HT       0.417000       1.00800           0
      1519 W2       507      TIP3     OH2      OT      -0.834000       15.9994           0
      1520 W2       507      TIP3     H1       HT       0.417000       1.00800           0
      1521 W2       507      TIP3     H2       HT       0.417000       1.00800           0
      1522 W2       508      TIP3     OH2      OT      -0.834000       15.9994           0
      1523 W2       508      TIP3     H1       HT       0.417000       1.00800           0
      1524 W2       508      TIP3     H2       HT       0.417000       1.00800           0
      1525 W2       509      TIP3     OH2      OT      -0.834000       15.9994           0
      1526 W2       509      TIP3     H1       HT       0.417000       1.00800           0
      1527 W2       509      TIP3     H2       HT       0.417000       1.00800           0
      1528 W2       510      TIP3     OH2      OT      -0.834000       15.9994           0
      1529 W2       510      TIP3     H1       HT       0.417000       1.00800           0
      1530 W2       510      TIP3     H2       HT       0.417000       1.00800           0
      1531 W2       511      TIP3     OH2      OT      -0.834000       15.9994           0
      1532 W2       511      TIP3     H1       HT       0.417000       1.00800           0
      1533 W2       511      TIP3     H2       HT       0.417000       1.00800           0
      1534 W2       512      TIP3     OH2      OT      -0.834000       15.9994           0
      1535 W2       512      TIP3     H1       HT       0.417000       1.00800           0
      1536 W2       512      TIP3     H2       HT       0.417000       1.00800           0
      1537 W2       513      TIP3     OH2      OT      -0.834000       15.9994           0
      1538 W2       513      TIP3     H1       HT       0.417000       1.00800           0
      1539 W2       513      TIP3     H2       HT       0.417000       1.00800           0
      1540 W2       514      TIP3     OH2      OT      -0.834000       15.9994           0
      1541 W2       514      TIP3     H1       HT       0.417000       1.00800           0
      1542 W2       514      TIP3     H2       HT       0.417000       1.00800           0
      1543 W2       515      TIP3     OH2      OT      -0.834000       15.9994           0
      1544 W2       515      TIP3     H1       HT       0.417000       1.00800           0
      1545 W2       515      TIP3     H2       HT       0.417000       1.00800           0
      1546 W2       516      TIP3     OH2      OT      -0.834000       15.9994           0
      1547 W2       516      TIP3     H1       HT       0.417000       1.00800           0
      1548 W2       516      TIP3     H2       HT       0.417000       1.00800           0
      1549 W2       517      TIP3     OH2      OT      -0.834000       15.9994           0
      1550 W2       517      TIP3     H1       HT       0.417000       1.00800           0
      1551 W2       517      TIP3     H2       HT       0.417000       1.00800           0
      1552 W2       518      TIP3     OH2      OT      -0.834000       15.9994           0
      1553 W2       518      TIP3     H1       HT       0.417000       1.00800           0
      1554 W2       518      TIP3     H2       HT       0.417000       1.00800           0
      1555 W2       519      TIP3     OH2      OT      -0.834000       15.9994           0
      1556 W2       519      TIP3     H1       HT       0.417000       1.00800           0
      1557 W2       519      TIP3     H2       HT       0.417000       1.00800           0
      1558 W2       520      TIP3     OH2      OT      -0.834000       15.9994           0
      1559 W2       520      TIP3     H1       HT       0.417000       1.00800           0
      1560 W2       520      TIP3     H2       HT       0.417000       1.00800           0
      1561 W2       521      TIP3     OH2      OT      -0.834000       15.9994           0
      1562 W2       521      TIP3     H1       HT       0.417000       1.00800           0
      1563 W2       521      TIP3     H2       HT       0.417000       1.00800           0
      1564 W2       522      TIP3     OH2      OT      -0.834000       15.9994           0
      1565 W2       522      TIP3     H1       HT       0.417000       1.00800           0
      1566 W2       522      TIP3     H2       HT       0.417000       1.00800           0
      1567 W2       523      TIP3     OH2      OT      -0.834000       15.9994           0
      1568 W2       523      TIP3     H1       HT       0.417000       1.00800           0
      1569 W2       523      TIP3     H2       HT       0.417000       1.00800           0
      1570 W2       524      TIP3     OH2      OT      -0.834000       15.9994           0
      1571 W2       524      TIP3     H1       HT       0.417000       1.00800           0
      1572 W2       524      TIP3     H2       HT       0.417000       1.00800           0
      1573 W2       525      TIP3     OH2      OT      -0.834000       15.9994           0
      1574 W2       525      TIP3     H1       HT       0.417000       1.00800           0
      1575 W2       525      TIP3     H2       HT       0.417000       1.00800           0
      1576 W2       526      TIP3     OH2      OT      -0.834000       15.9994           0
      1577 W2       526      TIP3     H1       HT       0.417000       1.00800           0
      1578 W2       526      TIP3     H2       HT       0.417000       1.00800           0
      1579 W2       527      TIP3     OH2      OT      -0.834000       15.9994           0
      1580 W2       527      TIP3     H1       HT       0.417000       1.00800           0
      1581 W2       527      TIP3     H2       HT       0.417000       1.00800           0
      1582 W2       528      TIP3     OH2      OT      -0.834000       15.9994           0
      1583 W2       528      TIP3     H1       HT       0.417000       1.00800           0
      1584 W2       528      TIP3     H2       HT       0.417000       1.00800           0
      1585 W2       529      TIP3     OH2      OT      -0.834000       15.9994           0
      1586 W2       529      TIP3     H1       HT       0.417000       1.00800           0
      1587 W2       529      TIP3     H2       HT       0.417000       1.00800           0
      1588 W2       530      TIP3     OH2      OT      -0.834000       15.9994           0
      1589 W2       530      TIP3     H1       HT       0.417000       1.00800           0
      1590 W2       530      TIP3     H2       HT       0.417000       1.00800           0
      1591 W2       531      TIP3     OH2      OT      -0.834000       15.9994           0
      1592 W2       531      TIP3     H1       HT       0.417000       1.00800           0
      1593 W2       531      TIP3     H2       HT       0.417000       1.00800           0
      1594 W2       532      TIP3     OH2      OT      -0.834000       15.9994           0
      1595 W2       532      TIP3     H1       HT       0.417000       1.00800           0
      1596 W2       532      TIP3     H2       HT       0.417000       1.00800           0
      1597 W2       533      TIP3     OH2      OT      -0.834000       15.9994           0
      1598 W2       533      TIP3     H1       HT       0.417000       1.00800           0
      1599 W2       533      TIP3     H2       HT       0.417000       1.00800           0
      1600 W2       534      TIP3     OH2      OT      -0.834000       15.9994           0
      1601 W2       534      TIP3     H1       HT       0.417000       1.00800           0
      1602 W2       534      TIP3     H2       HT       0.417000       1.00800           0
      1603 W2       535      TIP3     OH2      OT      -0.834000       15.9994           0
      1604 W2       535      TIP3     H1       HT       0.417000       1.00800           0
      1605 W2       535      TIP3     H2       HT       0.417000       1.00800           0
      1606 W2       536      TIP3     OH2      OT      -0.834000       15.9994           0
      1607 W2       536      TIP3     H1       HT       0.417000       1.00800           0
      1608 W2       536      TIP3     H2       HT       0.417000       1.00800           0
      1609 W2       537      TIP3     OH2      OT      -0.834000       15.9994           0
      1610 W2       537      TIP3     H1       HT       0.417000       1.00800           0
      1611 W2       537      TIP3     H2       HT       0.417000       1.00800           0
      1612 W2       538      TIP3     OH2      OT      -0.834000       15.9994           0
      1613 W2       538      TIP3     H1       HT       0.417000       1.00800           0
      1614 W2       538      TIP3     H2       HT       0.417000       1.00800           0
      1615 W2       539      TIP3     OH2      OT      -0.834000       15.9994           0
      1616 W2       539      TIP3     H1       HT       0.417000       1.00800           0
      1617 W2       539      TIP3     H2       HT       0.417000       1.00800           0
      1618 W2       540      TIP3     OH2      OT      -0.834000       15.9994           0
      1619 W2       540      TIP3     H1       HT       0.417000       1.00800           0
      1620 W2       540      TIP3     H2       HT       0.417000       1.00800           0
      1621 W2       541      TIP3     OH2      OT      -0.834000       15.9994           0
      1622 W2       541      TIP3     H1       HT       0.417000       1.00800           0
      1623 W2       541      TIP3     H2       HT       0.417000       1.00800           0
      1624 W2       542      TIP3     OH2      OT      -0.834000       15.9994           0
      1625 W2       542      TIP3     H1       HT       0.417000       1.00800           0
      1626 W2       542      TIP3     H2       HT       0.417000       1.00800           0
      1627 W2       543      TIP3     OH2      OT      -0.834000       15.9994           0
      1628 W2       543      TIP3     H1       HT       0.417000       1.00800           0
      1629 W2       543      TIP3     H2       HT       0.417000       1.00800           0
      1630 W2       544      TIP3     OH2      OT      -0.834000       15.9994           0
      1631 W2       544      TIP3     H1       HT       0.417000       1.00800           0
      1632 W2       544      TIP3     H2       HT       0.417000       1.00800           0
      1633 W2       545      TIP3     OH2      OT      -0.834000       15.9994           0
      1634 W2       545      TIP3     H1       HT       0.417000       1.00800           0
      1635 W2       545      TIP3     H2       HT       0.417000       1.00800           0
      1636 W2       546      TIP3     OH2      OT      -0.834000       15.9994           0
      1637 W2       546      TIP3     H1       HT       0.417000       1.00800           0
      1638 W2       546      TIP3     H2       HT       0.417000       1.00800           0
      1639 W2       547      TIP3     OH2      OT      -0.834000       15.9994           0
      1640 W2       547      TIP3     H1       HT       0.417000       1.00800           0
      1641 W2       547      TIP3     H2       HT       0.417000       1.00800           0
      1642 W2       548      TIP3     OH2      OT      -0.834000       15.9994           0
      1643 W2       548      TIP3     H1       HT       0.417000       1.00800           0
      1644 W2       548      TIP3     H2       HT       0.417000       1.00800           0
      1645 W2       549      TIP3     OH2      OT      -0.834000       15.9994           0
      1646 W2       549      TIP3     H1       HT       0.417000       1.00800           0
      1647 W2       549      TIP3     H2       HT       0.417000       1.00800           0
      1648 W2       550      TIP3     OH2      OT      -0.834000       15.9994           0
      1649 W2       550      TIP3     H1       HT       0.417000       1.00800           0
      1650 W2       550      TIP3     H2       HT       0.417000       1.00800           0
      1651 W2       551      TIP3     OH2      OT      -0.834000       15.9994           0
      1652 W2       551      TIP3     H1       HT       0.417000       1.00800           0
      1653 W2       551      TIP3     H2       HT       0.417000       1.00800           0
      1654 W2       552      TIP3     OH2      OT      -0.834000       15.9994           0
      1655 W2       552      TIP3     H1       HT       0.417000       1.00800           0
      1656 W2       552      TIP3     H2       HT       0.417000       1.00800           0
      1657 W2       553      TIP3     OH2      OT      -0.834000       15.9994           0
      1658 W2       553      TIP3     H1       HT       0.417000       1.00800           0
      1659 W2       553      TIP3     H2       HT       0.417000       1.00800           0
      1660 W2       554      TIP3     OH2      OT      -0.834000       15.9994           0
      1661 W2       554      TIP3     H1       HT       0.417000       1.00800           0
      1662 W2       554      TIP3     H2       HT       0.417000       1.00800           0
      1663 W2       555      TIP3     OH2      OT      -0.834000       15.9994           0
      1664 W2       555      TIP3     H1       HT       0.417000       1.00800           0
      1665 W2       555      TIP3     H2       HT       0.417000       1.00800           0
      1666 W2       556      TIP3     OH2      OT      -0.834000       15.9994           0
      1667 W2       556      TIP3     H1       HT       0.417000       1.00800           0
      1668 W2       556      TIP3     H2       HT       0.417000       1.00800           0
      1669 W2       557      TIP3     OH2      OT      -0.834000       15.9994           0
      1670 W2       557      TIP3     H1       HT       0.417000       1.00800           0
      1671 W2       557      TIP3     H2       HT       0.417000       1.00800           0
      1672 W2       558      TIP3     OH2      OT      -0.834000       15.9994           0
      1673 W2       558      TIP3     H1       HT       0.417000       1.00800           0
      1674 W2       558      TIP3     H2       HT       0.417000       1.00800           0
      1675 W2       559      TIP3     OH2      OT      -0.834000       15.9994           0
      1676 W2       559      TIP3     H1       HT       0.417000       1.00800           0
      1677 W2       559      TIP3     H2       HT       0.417000       1.00800           0
      1678 W2       560      TIP3     OH2      OT      -0.834000       15.9994           0
      1679 W2       560      TIP3     H1       HT       0.417000       1.00800           0
      1680 W2       560      TIP3     H2       HT       0.417000       1.00800           0
      1681 W2       561      TIP3     OH2      OT      -0.834000       15.9994           0
      1682 W2       561      TIP3     H1       HT       0.417000       1.00800           0
      1683 W2       561      TIP3     H2       HT       0.417000       1.00800           0
      1684 W2       562      TIP3     OH2      OT      -0.834000       15.9994           0
      1685 W2       562      TIP3     H1       HT       0.417000       1.00800           0
      1686 W2       562      TIP3     H2       HT       0.417000       1.00800           0
      1687 W2       563      TIP3     OH2      OT      -0.834000       15.9994           0
      1688 W2       563      TIP3     H1       HT       0.417000       1.00800           0
      1689 W2       563      TIP3     H2       HT       0.417000       1.00800           0
      1690 W2       564      TIP3     OH2      OT      -0.834000       15.9994           0
      1691 W2       564      TIP3     H1       HT       0.417000       1.00800           0
      1692 W2       564      TIP3     H2       HT       0.417000       1.00800           0
      1693 W2       565      TIP3     OH2      OT      -0.834000       15.9994           0
      1694 W2       565      TIP3     H1       HT       0.417000       1.00800           0
      1695 W2       565      TIP3     H2       HT       0.417000       1.00800           0
      1696 W2       566      TIP3     OH2      OT      -0.834000       15.9994           0
      1697 W2       566      TIP3     H1       HT       0.417000       1.00800           0
      1698 W2       566      TIP3     H2       HT       0.417000       1.00800           0
      1699 W2       567      TIP3     OH2      OT      -0.834000       15.9994           0
      1700 W2       567      TIP3     H1       HT       0.417000       1.00800           0
      1701 W2       567      TIP3     H2       HT       0.417000       1.00800           0
      1702 W2       568      TIP3     OH2      OT      -0.834000       15.9994           0
      1703 W2       568      TIP3     H1       HT       0.417000       1.00800           0
      1704 W2       568      TIP3     H2       HT       0.417000       1.00800           0
      1705 W2       569      TIP3     OH2      OT      -0.834000       15.9994           0
      1706 W2       569      TIP3     H1       HT       0.417000       1.00800           0
      1707 W2       569      TIP3     H2       HT       0.417000       1.00800           0
      1708 W2       570      TIP3     OH2      OT      -0.834000       15.9994           0
      1709 W2       570      TIP3     H1       HT       0.417000       1.00800           0
      1710 W2       570      TIP3     H2       HT       0.417000       1.00800           0
      1711 W2       571      TIP3     OH2      OT      -0.834000       15.9994           0
      1712 W2       571      TIP3     H1       HT       0.417000       1.00800           0
      1713 W2       571      TIP3     H2       HT       0.417000       1.00800           0
      1714 W2       572      TIP3     OH2      OT      -0.834000       15.9994           0
      1715 W2       572      TIP3     H1       HT       0.417000       1.00800           0
      1716 W2       572      TIP3     H2       HT       0.417000       1.00800           0
      1717 W2       573      TIP3     OH2      OT      -0.834000       15.9994           0
      1718 W2       573      TIP3     H1       HT       0.417000       1.00800           0
      1719 W2       573      TIP3     H2       HT       0.417000       1.00800           0
      1720 W2       574      TIP3     OH2      OT      -0.834000       15.9994           0
      1721 W2       574      TIP3     H1       HT       0.417000       1.00800           0
      1722 W2       574      TIP3     H2       HT       0.417000       1.00800           0
      1723 W2       575      TIP3     OH2      OT      -0.834000       15.9994           0
      1724 W2       575      TIP3     H1       HT       0.417000       1.00800           0
      1725 W2       575      TIP3     H2       HT       0.417000       1.00800           0
      1726 W2       576      TIP3     OH2      OT      -0.834000       15.9994           0
      1727 W2       576      TIP3     H1       HT       0.417000       1.00800           0
      1728 W2       576      TIP3     H2       HT       0.417000       1.00800           0
      1729 W2       577      TIP3     OH2      OT      -0.834000       15.9994           0
      1730 W2       577      TIP3     H1       HT       0.417000       1.00800           0
      1731 W2       577      TIP3     H2       HT       0.417000       1.00800           0
      1732 W2       578      TIP3     OH2      OT      -0.834000       15.9994           0
      1733 W2       578      TIP3     H1       HT       0.417000       1.00800           0
      1734 W2       578      TIP3     H2       HT       0.417000       1.00800           0
      1735 W2       579      TIP3     OH2      OT      -0.834000       15.9994           0
      1736 W2       579      TIP3     H1       HT       0.417000       1.00800           0
      1737 W2       579      TIP3     H2       HT       0.417000       1.00800           0
      1738 W2       580      TIP3     OH2      OT      -0.834000       15.9994           0
      1739 W2       580      TIP3     H1       HT       0.417000       1.00800           0
      1740 W2       580      TIP3     H2       HT       0.417000       1.00800           0
      1741 W2       581      TIP3     OH2      OT      -0.834000       15.9994           0
      1742 W2       581      TIP3     H1       HT       0.417000       1.00800           0
      1743 W2       581      TIP3     H2       HT       0.417000       1.00800           0
      1744 W2       582      TIP3     OH2      OT      -0.834000       15.9994           0
      1745 W2       582      TIP3     H1       HT       0.417000       1.00800           0
      1746 W2       582      TIP3     H2       HT       0.417000       1.00800           0
      1747 W2       583      TIP3     OH2      OT      -0.834000       15.9994           0
      1748 W2       583      TIP3     H1       HT       0.417000       1.00800           0
      1749 W2       583      TIP3     H2       HT       0.417000       1.00800           0
      1750 W2       584      TIP3     OH2      OT      -0.834000       15.9994           0
      1751 W2       584      TIP3     H1       HT       0.417000       1.00800           0
      1752 W2       584      TIP3     H2       HT       0.417000       1.00800           0
      1753 W2       585      TIP3     OH2      OT      -0.834000       15.9994           0
      1754 W2       585      TIP3     H1       HT       0.417000       1.00800           0
      1755 W2       585      TIP3     H2       HT       0.417000       1.00800           0
      1756 W2       586      TIP3     OH2      OT      -0.834000       15.9994           0
      1757 W2       586      TIP3     H1       HT       0.417000       1.00800           0
      1758 W2       586      TIP3     H2       HT       0.417000       1.00800           0
      1759 W2       587      TIP3     OH2      OT      -0.834000       15.9994           0
      1760 W2       587      TIP3     H1       HT       0.417000       1.00800           0
      1761 W2       587      TIP3     H2       HT       0.417000       1.00800           0
      1762 W2       588      TIP3     OH2      OT      -0.834000       15.9994           0
      1763 W2       588      TIP3     H1       HT       0.417000       1.00800           0
      1764 W2       588      TIP3     H2       HT       0.417000       1.00800           0
      1765 W2       589      TIP3     OH2      OT      -0.834000       15.9994           0
      1766 W2       589      TIP3     H1       HT       0.417000       1.00800           0
      1767 W2       589      TIP3     H2       HT       0.417000       1.00800           0
      1768 W2       590      TIP3     OH2      OT      -0.834000       15.9994           0
      1769 W2       590      TIP3     H1       HT       0.417000       1.00800           0
      1770 W2       590      TIP3     H2       HT       0.417000       1.00800           0
      1771 W2       591      TIP3     OH2      OT      -0.834000       15.9994           0
      1772 W2       591      TIP3     H1       HT       0.417000       1.00800           0
      1773 W2       591      TIP3     H2       HT       0.417000       1.00800           0
      1774 W2       592      TIP3     OH2      OT      -0.834000       15.9994           0
      1775 W2       592      TIP3     H1       HT       0.417000       1.00800           0
      1776 W2       592      TIP3     H2       HT       0.417000       1.00800           0
      1777 W2       593      TIP3     OH2      OT      -0.834000       15.9994           0
      1778 W2       593      TIP3     H1       HT       0.417000       1.00800           0
      1779 W2       593      TIP3     H2       HT       0.417000       1.00800           0
      1780 W2       594      TIP3     OH2      OT      -0.834000       15.9994           0
      1781 W2       594      TIP3     H1       HT       0.417000       1.00800           0
      1782 W2       594      TIP3     H2       HT       0.417000       1.00800           0
      1783 W2       595      TIP3     OH2      OT      -0.834000       15.9994           0
      1784 W2       595      TIP3     H1       HT       0.417000       1.00800           0
      1785 W2       595      TIP3     H2       HT       0.417000       1.00800           0
      1786 W2       596      TIP3     OH2      OT      -0.834000       15.9994           0
      1787 W2       596      TIP3     H1       HT       0.417000       1.00800           0
      1788 W2       596      TIP3     H2       HT       0.417000       1.00800           0
      1789 W2       597      TIP3     OH2      OT      -0.834000       15.9994           0
      1790 W2       597      TIP3     H1       HT       0.417000       1.00800           0
      1791 W2       597      TIP3     H2       HT       0.417000       1.00800           0
      1792 W2       598      TIP3     OH2      OT      -0.834000       15.9994           0
      1793 W2       598      TIP3     H1       HT       0.417000       1.00800           0
      1794 W2       598      TIP3     H2       HT       0.417000       1.00800           0
      1795 W2       599      TIP3     OH2      OT      -0.834000       15.9994           0
      1796 W2       599      TIP3     H1       HT       0.417000       1.00800           0
      1797 W2       599      TIP3     H2       HT       0.417000       1.00800           0
      1798 W2       600      TIP3     OH2      OT      -0.834000       15.9994           0
      1799 W2       600      TIP3     H1       HT       0.417000       1.00800           0
      1800 W2       600      TIP3     H2       HT       0.417000       1.00800           0
      1801 W2       601      TIP3     OH2      OT      -0.834000       15.9994           0
      1802 W2       601      TIP3     H1       HT       0.417000       1.00800           0
      1803 W2       601      TIP3     H2       HT       0.417000       1.00800           0
      1804 W2       602      TIP3     OH2      OT      -0.834000       15.9994           0
      1805 W2       602      TIP3     H1       HT       0.417000       1.00800           0
      1806 W2       602      TIP3     H2       HT       0.417000       1.00800           0
      1807 W2       603      TIP3     OH2      OT      -0.834000       15.9994           0
      1808 W2       603      TIP3     H1       HT       0.417000       1.00800           0
      1809 W2       603      TIP3     H2       HT       0.417000       1.00800           0
      1810 W2       604      TIP3     OH2      OT      -0.834000       15.9994           0
      1811 W2       604      TIP3     H1       HT       0.417000       1.00800           0
      1812 W2       604      TIP3     H2       HT       0.417000       1.00800           0
      1813 W2       605      TIP3     OH2      OT      -0.834000       15.9994           0
      1814 W2       605      TIP3     H1       HT       0.417000       1.00800           0
      1815 W2       605      TIP3     H2       HT       0.417000       1.00800           0
      1816 W2       606      TIP3     OH2      OT      -0.834000       15.9994           0
      1817 W2       606      TIP3     H1       HT       0.417000       1.00800           0
      1818 W2       606      TIP3     H2       HT       0.417000       1.00800           0
      1819 W2       607      TIP3     OH2      OT      -0.834000       15.9994           0
      1820 W2       607      TIP3     H1       HT       0.417000       1.00800           0
      1821 W2       607      TIP3     H2       HT       0.417000       1.00800           0
      1822 W2       608      TIP3     OH2      OT      -0.834000       15.9994           0
      1823 W2       608      TIP3     H1       HT       0.417000       1.00800           0
      1824 W2       608      TIP3     H2       HT       0.417000       1.00800           0
      1825 W2       609      TIP3     OH2      OT      -0.834000       15.9994           0
      1826 W2       609      TIP3     H1       HT       0.417000       1.00800           0
      1827 W2       609      TIP3     H2       HT       0.417000       1.00800           0
      1828 W2       610      TIP3     OH2      OT      -0.834000       15.9994           0
      1829 W2       610      TIP3     H1       HT       0.417000       1.00800           0
      1830 W2       610      TIP3     H2       HT       0.417000       1.00800           0
      1831 W2       611      TIP3     OH2      OT      -0.834000       15.9994           0
      1832 W2       611      TIP3     H1       HT       0.417000       1.00800           0
      1833 W2       611      TIP3     H2       HT       0.417000       1.00800           0
      1834 W2       612      TIP3     OH2      OT      -0.834000       15.9994           0
      1835 W2       612      TIP3     H1       HT       0.417000       1.00800           0
      1836 W2       612      TIP3     H2       HT       0.417000       1.00800           0
      1837 W2       613      TIP3     OH2      OT      -0.834000       15.9994           0
      1838 W2       613      TIP3     H1       HT       0.417000       1.00800           0
      1839 W2       613      TIP3     H2       HT       0.417000       1.00800           0
      1840 W2       614      TIP3     OH2      OT      -0.834000       15.9994           0
      1841 W2       614      TIP3     H1       HT       0.417000       1.00800           0
      1842 W2       614      TIP3     H2       HT       0.417000       1.00800           0
      1843 W2       615      TIP3     OH2      OT      -0.834000       15.9994           0
      1844 W2       615      TIP3     H1       HT       0.417000       1.00800           0
      1845 W2       615      TIP3     H2       HT       0.417000       1.00800           0
      1846 W2       616      TIP3     OH2      OT      -0.834000       15.9994           0
      1847 W2       616      TIP3     H1       HT       0.417000       1.00800           0
      1848 W2       616      TIP3     H2       HT       0.417000       1.00800           0
      1849 W2       617      TIP3     OH2      OT      -0.834000       15.9994           0
      1850 W2       617      TIP3     H1       HT       0.417000       1.00800           0
      1851 W2       617      TIP3     H2       HT       0.417000       1.00800           0
      1852 W2       618      TIP3     OH2      OT      -0.834000       15.9994           0
      1853 W2       618      TIP3     H1       HT       0.417000       1.00800           0
      1854 W2       618      TIP3     H2       HT       0.417000       1.00800           0
      1855 W2       619      TIP3     OH2      OT      -0.834000       15.9994           0
      1856 W2       619      TIP3     H1       HT       0.417000       1.00800           0
      1857 W2       619      TIP3     H2       HT       0.417000       1.00800           0
      1858 W2       620      TIP3     OH2      OT      -0.834000       15.9994           0
      1859 W2       620      TIP3     H1       HT       0.417000       1.00800           0
      1860 W2       620      TIP3     H2       HT       0.417000       1.00800           0
      1861 W2       621      TIP3     OH2      OT      -0.834000       15.9994           0
      1862 W2       621      TIP3     H1       HT       0.417000       1.00800           0
      1863 W2       621      TIP3     H2       HT       0.417000       1.00800           0
      1864 W2       622      TIP3     OH2      OT      -0.834000       15.9994           0
      1865 W2       622      TIP3     H1       HT       0.417000       1.00800           0
      1866 W2       622      TIP3     H2       HT       0.417000       1.00800           0
      1867 W2       623      TIP3     OH2      OT      -0.834000       15.9994           0
      1868 W2       623      TIP3     H1       HT       0.417000       1.00800           0
      1869 W2       623      TIP3     H2       HT       0.417000       1.00800           0
      1870 W2       624      TIP3     OH2      OT      -0.834000       15.9994           0
      1871 W2       624      TIP3     H1       HT       0.417000       1.00800           0
      1872 W2       624      TIP3     H2       HT       0.417000       1.00800           0
      1873 W2       625      TIP3     OH2      OT      -0.834000       15.9994           0
      1874 W2       625      TIP3     H1       HT       0.417000       1.00800           0
      1875 W2       625      TIP3     H2       HT       0.417000       1.00800           0
      1876 W2       626      TIP3     OH2      OT      -0.834000       15.9994           0
      1877 W2       626      TIP3     H1       HT       0.417000       1.00800           0
      1878 W2       626      TIP3     H2       HT       0.417000       1.00800           0
      1879 W2       627      TIP3     OH2      OT      -0.834000       15.9994           0
      1880 W2       627      TIP3     H1       HT       0.417000       1.00800           0
      1881 W2       627      TIP3     H2       HT       0.417000       1.00800           0
      1882 W2       628      TIP3     OH2      OT      -0.834000       15.9994           0
      1883 W2       628      TIP3     H1       HT       0.417000       1.00800           0
      1884 W2       628      TIP3     H2       HT       0.417000       1.00800           0
      1885 W2       629      TIP3     OH2      OT      -0.834000       15.9994           0
      1886 W2       629      TIP3     H1       HT       0.417000       1.00800           0
      1887 W2       629      TIP3     H2       HT       0.417000       1.00800           0
      1888 W2       630      TIP3     OH2      OT      -0.834000       15.9994           0
      1889 W2       630      TIP3     H1       HT       0.417000       1.00800           0
      1890 W2       630      TIP3     H2       HT       0.417000       1.00800           0
      1891 W2       631      TIP3     OH2      OT      -0.834000       15.9994           0
      1892 W2       631      TIP3     H1       HT       0.417000       1.00800           0
      1893 W2       631      TIP3     H2       HT       0.417000       1.00800           0
      1894 W2       632      TIP3     OH2      OT      -0.834000       15.9994           0
      1895 W2       632      TIP3     H1       HT       0.417000       1.00800           0
      1896 W2       632      TIP3     H2       HT       0.417000       1.00800           0
      1897 W2       633      TIP3     OH2      OT      -0.834000       15.9994           0
      1898 W2       633      TIP3     H1       HT       0.417000       1.00800           0
      1899 W2       633      TIP3     H2       HT       0.417000       1.00800           0
      1900 W2       634      TIP3     OH2      OT      -0.834000       15.9994           0
      1901 W2       634      TIP3     H1       HT       0.417000       1.00800           0
      1902 W2       634      TIP3     H2       HT       0.417000       1.00800           0
      1903 W2       635      TIP3     OH2      OT      -0.834000       15.9994           0
      1904 W2       635      TIP3     H1       HT       0.417000       1.00800           0
      1905 W2       635      TIP3     H2       HT       0.417000       1.00800           0
      1906 W2       636      TIP3     OH2      OT      -0.834000       15.9994           0
      1907 W2       636      TIP3     H1       HT       0.417000       1.00800           0
      1908 W2       636      TIP3     H2       HT       0.417000       1.00800           0
      1909 W2       637      TIP3     OH2      OT      -0.834000       15.9994           0
      1910 W2       637      TIP3     H1       HT       0.417000       1.00800           0
      1911 W2       637      TIP3     H2       HT       0.417000       1.00800           0
      1912 W2       638      TIP3     OH2      OT      -0.834000       15.9994           0
      1913 W2       638      TIP3     H1       HT       0.417000       1.00800           0
      1914 W2       638      TIP3     H2       HT       0.417000       1.00800           0
      1915 W2       639      TIP3     OH2      OT      -0.834000       15.9994           0
      1916 W2       639      TIP3     H1       HT       0.417000       1.00800           0
      1917 W2       639      TIP3     H2       HT       0.417000       1.00800           0
      1918 W2       640      TIP3     OH2      OT      -0.834000       15.9994           0
      1919 W2       640      TIP3     H1       HT       0.417000       1.00800           0
      1920 W2       640      TIP3     H2       HT       0.417000       1.00800           0
      1921 W2       641      TIP3     OH2      OT      -0.834000       15.9994           0
      1922 W2       641      TIP3     H1       HT       0.417000       1.00800           0
      1923 W2       641      TIP3     H2       HT       0.417000       1.00800           0
      1924 W2       642      TIP3     OH2      OT      -0.834000       15.9994           0
      1925 W2       642      TIP3     H1       HT       0.417000       1.00800           0
      1926 W2       642      TIP3     H2       HT       0.417000       1.00800           0
      1927 W2       643      TIP3     OH2      OT      -0.834000       15.9994           0
      1928 W2       643      TIP3     H1       HT       0.417000       1.00800           0
      1929 W2       643      TIP3     H2       HT       0.417000       1.00800           0
      1930 W2       644      TIP3     OH2      OT      -0.834000       15.9994           0
      1931 W2       644      TIP3     H1       HT       0.417000       1.00800           0
      1932 W2       644      TIP3     H2       HT       0.417000       1.00800           0
      1933 W2       645      TIP3     OH2      OT      -0.834000       15.9994           0
      1934 W2       645      TIP3     H1       HT       0.417000       1.00800           0
      1935 W2       645      TIP3     H2       HT       0.417000       1.00800           0
      1936 W2       646      TIP3     OH2      OT      -0.834000       15.9994           0
      1937 W2       646      TIP3     H1       HT       0.417000       1.00800           0
      1938 W2       646      TIP3     H2       HT       0.417000       1.00800           0
      1939 W2       647      TIP3     OH2      OT      -0.834000       15.9994           0
      1940 W2       647      TIP3     H1       HT       0.417000       1.00800           0
      1941 W2       647      TIP3     H2       HT       0.417000       1.00800           0
      1942 W2       648      TIP3     OH2      OT      -0.834000       15.9994           0
      1943 W2       648      TIP3     H1       HT       0.417000       1.00800           0
      1944 W2       648      TIP3     H2       HT       0.417000       1.00800           0
      1945 W2       649      TIP3     OH2      OT      -0.834000       15.9994           0
      1946 W2       649      TIP3     H1       HT       0.417000       1.00800           0
      1947 W2       649      TIP3     H2       HT       0.417000       1.00800           0
      1948 W2       650      TIP3     OH2      OT      -0.834000       15.9994           0
      1949 W2       650      TIP3     H1       HT       0.417000       1.00800           0
      1950 W2       650      TIP3     H2       HT       0.417000       1.00800           0
      1951 W2       651      TIP3     OH2      OT      -0.834000       15.9994           0
      1952 W2       651      TIP3     H1       HT       0.417000       1.00800           0
      1953 W2       651      TIP3     H2       HT       0.417000       1.00800           0
      1954 W2       652      TIP3     OH2      OT      -0.834000       15.9994           0
      1955 W2       652      TIP3     H1       HT       0.417000       1.00800           0
      1956 W2       652      TIP3     H2       HT       0.417000       1.00800           0
      1957 W2       653      TIP3     OH2      OT      -0.834000       15.9994           0
      1958 W2       653      TIP3     H1       HT       0.417000       1.00800           0
      1959 W2       653      TIP3     H2       HT       0.417000       1.00800           0
      1960 W2       654      TIP3     OH2      OT      -0.834000       15.9994           0
      1961 W2       654      TIP3     H1       HT       0.417000       1.00800           0
      1962 W2       654      TIP3     H2       HT       0.417000       1.00800           0
      1963 W2       655      TIP3     OH2      OT      -0.834000       15.9994           0
      1964 W2       655      TIP3     H1       HT       0.417000       1.00800           0
      1965 W2       655      TIP3     H2       HT       0.417000       1.00800           0
      1966 W2       656      TIP3     OH2      OT      -0.834000       15.9994           0
      1967 W2       656      TIP3     H1       HT       0.417000       1.00800           0
      1968 W2       656      TIP3     H2       HT       0.417000       1.00800           0
      1969 W2       657      TIP3     OH2      OT      -0.834000       15.9994           0
      1970 W2       657      TIP3     H1       HT       0.417000       1.00800           0
      1971 W2       657      TIP3     H2       HT       0.417000       1.00800           0
      1972 W2       658      TIP3     OH2      OT      -0.834000       15.9994           0
      1973 W2       658      TIP3     H1       HT       0.417000       1.00800           0
      1974 W2       658      TIP3     H2       HT       0.417000       1.00800           0
      1975 W2       659      TIP3     OH2      OT      -0.834000       15.9994           0
      1976 W2       659      TIP3     H1       HT       0.417000       1.00800           0
      1977 W2       659      TIP3     H2       HT       0.417000       1.00800           0
      1978 W2       660      TIP3     OH2      OT      -0.834000       15.9994           0
      1979 W2       660      TIP3     H1       HT       0.417000       1.00800           0
      1980 W2       660      TIP3     H2       HT       0.417000       1.00800           0
      1981 W2       661      TIP3     OH2      OT      -0.834000       15.9994           0
      1982 W2       661      TIP3     H1       HT       0.417000       1.00800           0
      1983 W2       661      TIP3     H2       HT       0.417000       1.00800           0
      1984 W2       662      TIP3     OH2      OT      -0.834000       15.9994           0
      1985 W2       662      TIP3     H1       HT       0.417000       1.00800           0
      1986 W2       662      TIP3     H2       HT       0.417000       1.00800           0
      1987 W2       663      TIP3     OH2      OT      -0.834000       15.9994           0
      1988 W2       663      TIP3     H1       HT       0.417000       1.00800           0
      1989 W2       663      TIP3     H2       HT       0.417000       1.00800           0
      1990 W2       664      TIP3     OH2      OT      -0.834000       15.9994           0
      1991 W2       664      TIP3     H1       HT       0.417000       1.00800           0
      1992 W2       664      TIP3     H2       HT       0.417000       1.00800           0
      1993 W2       665      TIP3     OH2      OT      -0.834000       15.9994           0
      1994 W2       665      TIP3     H1       HT       0.417000       1.00800           0
      1995 W2       665      TIP3     H2       HT       0.417000       1.00800           0
      1996 W2       666      TIP3     OH2      OT      -0.834000       15.9994           0
      1997 W2       666      TIP3     H1       HT       0.417000       1.00800           0
      1998 W2       666      TIP3     H2       HT       0.417000       1.00800           0
      1999 W2       667      TIP3     OH2      OT      -0.834000       15.9994           0
      2000 W2       667      TIP3     H1       HT       0.417000       1.00800           0
      2001 W2       667      TIP3     H2       HT       0.417000       1.00800           0
      2002 W2       668      TIP3     OH2      OT      -0.834000       15.9994           0
      2003 W2       668      TIP3     H1       HT       0.417000       1.00800           0
      2004 W2       668      TIP3     H2       HT       0.417000       1.00800           0
      2005 W2       669      TIP3     OH2      OT      -0.834000       15.9994           0
      2006 W2       669      TIP3     H1       HT       0.417000       1.00800           0
      2007 W2       669      TIP3     H2       HT       0.417000       1.00800           0
      2008 W2       670      TIP3     OH2      OT      -0.834000       15.9994           0
      2009 W2       670      TIP3     H1       HT       0.417000       1.00800           0
      2010 W2       670      TIP3     H2       HT       0.417000       1.00800           0
      2011 W2       671      TIP3     OH2      OT      -0.834000       15.9994           0
      2012 W2       671      TIP3     H1       HT       0.417000       1.00800           0
      2013 W2       671      TIP3     H2       HT       0.417000       1.00800           0
      2014 W2       672      TIP3     OH2      OT      -0.834000       15.9994           0
      2015 W2       672      TIP3     H1       HT       0.417000       1.00800           0
      2016 W2       672      TIP3     H2       HT       0.417000       1.00800           0
      2017 W2       673      TIP3     OH2      OT      -0.834000       15.9994           0
      2018 W2       673      TIP3     H1       HT       0.417000       1.00800           0
      2019 W2       673      TIP3     H2       HT       0.417000       1.00800           0
      2020 W2       674      TIP3     OH2      OT      -0.834000       15.9994           0
      2021 W2       674      TIP3     H1       HT       0.417000       1.00800           0
      2022 W2       674      TIP3     H2       HT       0.417000       1.00800           0
      2023 W2       675      TIP3     OH2      OT      -0.834000       15.9994           0
      2024 W2       675      TIP3     H1       HT       0.417000       1.00800           0
      2025 W2       675      TIP3     H2       HT       0.417000       1.00800           0
      2026 W2       676      TIP3     OH2      OT      -0.834000       15.9994           0
      2027 W2       676      TIP3     H1       HT       0.417000       1.00800           0
      2028 W2       676      TIP3     H2       HT       0.417000       1.00800           0
      2029 W2       677      TIP3     OH2      OT      -0.834000       15.9994           0
      2030 W2       677      TIP3     H1       HT       0.417000       1.00800           0
      2031 W2       677      TIP3     H2       HT       0.417000       1.00800           0
      2032 W2       678      TIP3     OH2      OT      -0.834000       15.9994           0
      2033 W2       678      TIP3     H1       HT       0.417000       1.00800           0
      2034 W2       678      TIP3     H2       HT       0.417000       1.00800           0
      2035 W2       679      TIP3     OH2      OT      -0.834000       15.9994           0
      2036 W2       679      TIP3     H1       HT       0.417000       1.00800           0
      2037 W2       679      TIP3     H2       HT       0.417000       1.00800           0
      2038 W2       680      TIP3     OH2      OT      -0.834000       15.9994           0
      2039 W2       680      TIP3     H1       HT       0.417000       1.00800           0
      2040 W2       680      TIP3     H2       HT       0.417000       1.00800           0
      2041 W2       681      TIP3     OH2      OT      -0.834000       15.9994           0
      2042 W2       681      TIP3     H1       HT       0.417000       1.00800           0
      2043 W2       681      TIP3     H2       HT       0.417000       1.00800           0
      2044 W2       682      TIP3     OH2      OT      -0.834000       15.9994           0
      2045 W2       682      TIP3     H1       HT       0.417000       1.00800           0
      2046 W2       682      TIP3     H2       HT       0.417000       1.00800           0
      2047 W2       683      TIP3     OH2      OT      -0.834000       15.9994           0
      2048 W2       683      TIP3     H1       HT       0.417000       1.00800           0
      2049 W2       683      TIP3     H2       HT       0.417000       1.00800           0
      2050 W2       684      TIP3     OH2      OT      -0.834000       15.9994           0
      2051 W2       684      TIP3     H1       HT       0.417000       1.00800           0
      2052 W2       684      TIP3     H2       HT       0.417000       1.00800           0
      2053 W2       685      TIP3     OH2      OT      -0.834000       15.9994           0
      2054 W2       685      TIP3     H1       HT       0.417000       1.00800           0
      2055 W2       685      TIP3     H2       HT       0.417000       1.00800           0
      2056 W2       686      TIP3     OH2      OT      -0.834000       15.9994           0
      2057 W2       686      TIP3     H1       HT       0.417000       1.00800           0
      2058 W2       686      TIP3     H2       HT       0.417000       1.00800           0
      2059 W2       687      TIP3     OH2      OT      -0.834000       15.9994           0
      2060 W2       687      TIP3     H1       HT       0.417000       1.00800           0
      2061 W2       687      TIP3     H2       HT       0.417000       1.00800           0
      2062 W2       688      TIP3     OH2      OT      -0.834000       15.9994           0
      2063 W2       688      TIP3     H1       HT       0.417000       1.00800           0
      2064 W2       688      TIP3     H2       HT       0.417000       1.00800           0
      2065 W2       689      TIP3     OH2      OT      -0.834000       15.9994           0
      2066 W2       689      TIP3     H1       HT       0.417000       1.00800           0
      2067 W2       689      TIP3     H2       HT       0.417000       1.00800           0
      2068 W2       690      TIP3     OH2      OT      -0.834000       15.9994           0
      2069 W2       690      TIP3     H1       HT       0.417000       1.00800           0
      2070 W2       690      TIP3     H2       HT       0.417000       1.00800           0
      2071 W2       691      TIP3     OH2      OT      -0.834000       15.9994           0
      2072 W2       691      TIP3     H1       HT       0.417000       1.00800           0
      2073 W2       691      TIP3     H2       HT       0.417000       1.00800           0
      2074 W2       692      TIP3     OH2      OT      -0.834000       15.9994           0
      2075 W2       692      TIP3     H1       HT       0.417000       1.00800           0
      2076 W2       692      TIP3     H2       HT       0.417000       1.00800           0
      2077 W2       693      TIP3     OH2      OT      -0.834000       15.9994           0
      2078 W2       693      TIP3     H1       HT       0.417000       1.00800           0
      2079 W2       693      TIP3     H2       HT       0.417000       1.00800           0
      2080 W2       694      TIP3     OH2      OT      -0.834000       15.9994           0
      2081 W2       694      TIP3     H1       HT       0.417000       1.00800           0
      2082 W2       694      TIP3     H2       HT       0.417000       1.00800           0
      2083 W2       695      TIP3     OH2      OT      -0.834000       15.9994           0
      2084 W2       695      TIP3     H1       HT       0.417000       1.00800           0
      2085 W2       695      TIP3     H2       HT       0.417000       1.00800           0
      2086 W2       696      TIP3     OH2      OT      -0.834000       15.9994           0
      2087 W2       696      TIP3     H1       HT       0.417000       1.00800           0
      2088 W2       696      TIP3     H2       HT       0.417000       1.00800           0
      2089 W2       697      TIP3     OH2      OT      -0.834000       15.9994           0
      2090 W2       697      TIP3     H1       HT       0.417000       1.00800           0
      2091 W2       697      TIP3     H2       HT       0.417000       1.00800           0
      2092 W2       698      TIP3     OH2      OT      -0.834000       15.9994           0
      2093 W2       698      TIP3     H1       HT       0.417000       1.00800           0
      2094 W2       698      TIP3     H2       HT       0.417000       1.00800           0
      2095 W2       699      TIP3     OH2      OT      -0.834000       15.9994           0
      2096 W2       699      TIP3     H1       HT       0.417000       1.00800           0
      2097 W2       699      TIP3     H2       HT       0.417000       1.00800           0
      2098 W2       700      TIP3     OH2      OT      -0.834000       15.9994           0
      2099 W2       700      TIP3     H1       HT       0.417000       1.00800           0
      2100 W2       700      TIP3     H2       HT       0.417000       1.00800           0
      2101 W2       701      TIP3     OH2      OT      -0.834000       15.9994           0
      2102 W2       701      TIP3     H1       HT       0.417000       1.00800           0
      2103 W2       701      TIP3     H2       HT       0.417000       1.00800           0
      2104 W2       702      TIP3     OH2      OT      -0.834000       15.9994           0
      2105 W2       702      TIP3     H1       HT       0.417000       1.00800           0
      2106 W2       702      TIP3     H2       HT       0.417000       1.00800           0
      2107 W2       703      TIP3     OH2      OT      -0.834000       15.9994           0
      2108 W2       703      TIP3     H1       HT       0.417000       1.00800           0
      2109 W2       703      TIP3     H2       HT       0.417000       1.00800           0
      2110 W2       704      TIP3     OH2      OT      -0.834000       15.9994           0
      2111 W2       704      TIP3     H1       HT       0.417000       1.00800           0
      2112 W2       704      TIP3     H2       HT       0.417000       1.00800           0
      2113 W2       705      TIP3     OH2      OT      -0.834000       15.9994           0
      2114 W2       705      TIP3     H1       HT       0.417000       1.00800           0
      2115 W2       705      TIP3     H2       HT       0.417000       1.00800           0
      2116 W2       706      TIP3     OH2      OT      -0.834000       15.9994           0
      2117 W2       706      TIP3     H1       HT       0.417000       1.00800           0
      2118 W2       706      TIP3     H2       HT       0.417000       1.00800           0
      2119 W2       707      TIP3     OH2      OT      -0.834000       15.9994           0
      2120 W2       707      TIP3     H1       HT       0.417000       1.00800           0
      2121 W2       707      TIP3     H2       HT       0.417000       1.00800           0
      2122 W2       708      TIP3     OH2      OT      -0.834000       15.9994           0
      2123 W2       708      TIP3     H1       HT       0.417000       1.00800           0
      2124 W2       708      TIP3     H2       HT       0.417000       1.00800           0
      2125 W2       709      TIP3     OH2      OT      -0.834000       15.9994           0
      2126 W2       709      TIP3     H1       HT       0.417000       1.00800           0
      2127 W2       709      TIP3     H2       HT       0.417000       1.00800           0
      2128 W2       710      TIP3     OH2      OT      -0.834000       15.9994           0
      2129 W2       710      TIP3     H1       HT       0.417000       1.00800           0
      2130 W2       710      TIP3     H2       HT       0.417000       1.00800           0
      2131 W2       711      TIP3     OH2      OT      -0.834000       15.9994           0
      2132 W2       711      TIP3     H1       HT       0.417000       1.00800           0
      2133 W2       711      TIP3     H2       HT       0.417000       1.00800           0
      2134 W2       712      TIP3     OH2      OT      -0.834000       15.9994           0
      2135 W2       712      TIP3     H1       HT       0.417000       1.00800           0
      2136 W2       712      TIP3     H2       HT       0.417000       1.00800           0
      2137 W2       713      TIP3     OH2      OT      -0.834000       15.9994           0
      2138 W2       713      TIP3     H1       HT       0.417000       1.00800           0
      2139 W2       713      TIP3     H2       HT       0.417000       1.00800           0
      2140 W2       714      TIP3     OH2      OT      -0.834000       15.9994           0
      2141 W2       714      TIP3     H1       HT       0.417000       1.00800           0
      2142 W2       714      TIP3     H2       HT       0.417000       1.00800           0
      2143 W2       715      TIP3     OH2      OT      -0.834000       15.9994           0
      2144 W2       715      TIP3     H1       HT       0.417000       1.00800           0
      2145 W2       715      TIP3     H2       HT       0.417000       1.00800           0
      2146 W2       716      TIP3     OH2      OT      -0.834000       15.9994           0
      2147 W2       716      TIP3     H1       HT       0.417000       1.00800           0
      2148 W2       716      TIP3     H2       HT       0.417000       1.00800           0
      2149 W2       717      TIP3     OH2      OT      -0.834000       15.9994           0
      2150 W2       717      TIP3     H1       HT       0.417000       1.00800           0
      2151 W2       717      TIP3     H2       HT       0.417000       1.00800           0
      2152 W2       718      TIP3     OH2      OT      -0.834000       15.9994           0
      2153 W2       718      TIP3     H1       HT       0.417000       1.00800           0
      2154 W2       718      TIP3     H2       HT       0.417000       1.00800           0
      2155 W2       719      TIP3     OH2      OT      -0.834000       15.9994           0
      2156 W2       719      TIP3     H1       HT       0.417000       1.00800           0
      2157 W2       719      TIP3     H2       HT       0.417000       1.00800           0
      2158 W2       720      TIP3     OH2      OT      -0.834000       15.9994           0
      2159 W2       720      TIP3     H1       HT       0.417000       1.00800           0
      2160 W2       720      TIP3     H2       HT       0.417000       1.00800           0
      2161 W2       721      TIP3     OH2      OT      -0.834000       15.9994           0
      2162 W2       721      TIP3     H1       HT       0.417000       1.00800           0
      2163 W2       721      TIP3     H2       HT       0.417000       1.00800           0
      2164 W2       722      TIP3     OH2      OT      -0.834000       15.9994           0
      2165 W2       722      TIP3     H1       HT       0.417000       1.00800           0
      2166 W2       722      TIP3     H2       HT       0.417000       1.00800           0
      2167 W2       723      TIP3     OH2      OT      -0.834000       15.9994           0
      2168 W2       723      TIP3     H1       HT       0.417000       1.00800           0
      2169 W2       723      TIP3     H2       HT       0.417000       1.00800           0
      2170 W2       724      TIP3     OH2      OT      -0.834000       15.9994           0
      2171 W2       724      TIP3     H1       HT       0.417000       1.00800           0
      2172 W2       724      TIP3     H2       HT       0.417000       1.00800           0
      2173 W2       725      TIP3     OH2      OT      -0.834000       15.9994           0
      2174 W2       725      TIP3     H1       HT       0.417000       1.00800           0
      2175 W2       725      TIP3     H2       HT       0.417000       1.00800           0
      2176 W2       726      TIP3     OH2      OT      -0.834000       15.9994           0
      2177 W2       726      TIP3     H1       HT       0.417000       1.00800           0
      2178 W2       726      TIP3     H2       HT       0.417000       1.00800           0
      2179 W2       727      TIP3     OH2      OT      -0.834000       15.9994           0
      2180 W2       727      TIP3     H1       HT       0.417000       1.00800           0
      2181 W2       727      TIP3     H2       HT       0.417000       1.00800           0
      2182 W2       728      TIP3     OH2      OT      -0.834000       15.9994           0
      2183 W2       728      TIP3     H1       HT       0.417000       1.00800           0
      2184 W2       728      TIP3     H2       HT       0.417000       1.00800           0
      2185 W2       729      TIP3     OH2      OT      -0.834000       15.9994           0
      2186 W2       729      TIP3     H1       HT       0.417000       1.00800           0
      2187 W2       729      TIP3     H2       HT       0.417000       1.00800           0
      2188 W2       730      TIP3     OH2      OT      -0.834000       15.9994           0
      2189 W2       730      TIP3     H1       HT       0.417000       1.00800           0
      2190 W2       730      TIP3     H2       HT       0.417000       1.00800           0
      2191 W2       731      TIP3     OH2      OT      -0.834000       15.9994           0
      2192 W2       731      TIP3     H1       HT       0.417000       1.00800           0
      2193 W2       731      TIP3     H2       HT       0.417000       1.00800           0
      2194 W2       732      TIP3     OH2      OT      -0.834000       15.9994           0
      2195 W2       732      TIP3     H1       HT       0.417000       1.00800           0
      2196 W2       732      TIP3     H2       HT       0.417000       1.00800           0
      2197 W2       733      TIP3     OH2      OT      -0.834000       15.9994           0
      2198 W2       733      TIP3     H1       HT       0.417000       1.00800           0
      2199 W2       733      TIP3     H2       HT       0.417000       1.00800           0
      2200 W2       734      TIP3     OH2      OT      -0.834000       15.9994           0
      2201 W2       734      TIP3     H1       HT       0.417000       1.00800           0
      2202 W2       734      TIP3     H2       HT       0.417000       1.00800           0
      2203 W2       735      TIP3     OH2      OT      -0.834000       15.9994           0
      2204 W2       735      TIP3     H1       HT       0.417000       1.00800           0
      2205 W2       735      TIP3     H2       HT       0.417000       1.00800           0
      2206 W2       736      TIP3     OH2      OT      -0.834000       15.9994           0
      2207 W2       736      TIP3     H1       HT       0.417000       1.00800           0
      2208 W2       736      TIP3     H2       HT       0.417000       1.00800           0
      2209 W2       737      TIP3     OH2      OT      -0.834000       15.9994           0
      2210 W2       737      TIP3     H1       HT       0.417000       1.00800           0
      2211 W2       737      TIP3     H2       HT       0.417000       1.00800           0
      2212 W2       738      TIP3     OH2      OT      -0.834000       15.9994           0
      2213 W2       738      TIP3     H1       HT       0.417000       1.00800           0
      2214 W2       738      TIP3     H2       HT       0.417000       1.00800           0
      2215 W2       739      TIP3     OH2      OT      -0.834000       15.9994           0
      2216 W2       739      TIP3     H1       HT       0.417000       1.00800           0
      2217 W2       739      TIP3     H2       HT       0.417000       1.00800           0
      2218 W2       740      TIP3     OH2      OT      -0.834000       15.9994           0
      2219 W2       740      TIP3     H1       HT       0.417000       1.00800           0
      2220 W2       740      TIP3     H2       HT       0.417000       1.00800           0
      2221 W2       741      TIP3     OH2      OT      -0.834000       15.9994           0
      2222 W2       741      TIP3     H1       HT       0.417000       1.00800           0
      2223 W2       741      TIP3     H2       HT       0.417000       1.00800           0
      2224 W2       742      TIP3     OH2      OT      -0.834000       15.9994           0
      2225 W2       742      TIP3     H1       HT       0.417000       1.00800           0
      2226 W2       742      TIP3     H2       HT       0.417000       1.00800           0
      2227 W2       743      TIP3     OH2      OT      -0.834000       15.9994           0
      2228 W2       743      TIP3     H1       HT       0.417000       1.00800           0
      2229 W2       743      TIP3     H2       HT       0.417000       1.00800           0
      2230 W2       744      TIP3     OH2      OT      -0.834000       15.9994           0
      2231 W2       744      TIP3     H1       HT       0.417000       1.00800           0
      2232 W2       744      TIP3     H2       HT       0.417000       1.00800           0
      2233 W2       745      TIP3     OH2      OT      -0.834000       15.9994           0
      2234 W2       745      TIP3     H1       HT       0.417000       1.00800           0
      2235 W2       745      TIP3     H2       HT       0.417000       1.00800           0
      2236 W2       746      TIP3     OH2      OT      -0.834000       15.9994           0
      2237 W2       746      TIP3     H1       HT       0.417000       1.00800           0
      2238 W2       746      TIP3     H2       HT       0.417000       1.00800           0
      2239 W2       747      TIP3     OH2      OT      -0.834000       15.9994           0
      2240 W2       747      TIP3     H1       HT       0.417000       1.00800           0
      2241 W2       747      TIP3     H2       HT       0.417000       1.00800           0
      2242 W2       748      TIP3     OH2      OT      -0.834000       15.9994           0
      2243 W2       748      TIP3     H1       HT       0.417000       1.00800           0
      2244 W2       748      TIP3     H2       HT       0.417000       1.00800           0
      2245 W2       749      TIP3     OH2      OT      -0.834000       15.9994           0
      2246 W2       749      TIP3     H1       HT       0.417000       1.00800           0
      2247 W2       749      TIP3     H2       HT       0.417000       1.00800           0
      2248 W2       750      TIP3     OH2      OT      -0.834000       15.9994           0
      2249 W2       750      TIP3     H1       HT       0.417000       1.00800           0
      2250 W2       750      TIP3     H2       HT       0.417000       1.00800           0
      2251 W2       751      TIP3     OH2      OT      -0.834000       15.9994           0
      2252 W2       751      TIP3     H1       HT       0.417000       1.00800           0
      2253 W2       751      TIP3     H2       HT       0.417000       1.00800           0
      2254 W2       752      TIP3     OH2      OT      -0.834000       15.9994           0
      2255 W2       752      TIP3     H1       HT       0.417000       1.00800           0
      2256 W2       752      TIP3     H2       HT       0.417000       1.00800           0
      2257 W2       753      TIP3     OH2      OT      -0.834000       15.9994           0
      2258 W2       753      TIP3     H1       HT       0.417000       1.00800           0
      2259 W2       753      TIP3     H2       HT       0.417000       1.00800           0
      2260 W2       754      TIP3     OH2      OT      -0.834000       15.9994           0
      2261 W2       754      TIP3     H1       HT       0.417000       1.00800           0
      2262 W2       754      TIP3     H2       HT       0.417000       1.00800           0
      2263 W2       755      TIP3     OH2      OT      -0.834000       15.9994           0
      2264 W2       755      TIP3     H1       HT       0.417000       1.00800           0
      2265 W2       755      TIP3     H2       HT       0.417000       1.00800           0
      2266 W2       756      TIP3     OH2      OT      -0.834000       15.9994           0
      2267 W2       756      TIP3     H1       HT       0.417000       1.00800           0
      2268 W2       756      TIP3     H2       HT       0.417000       1.00800           0
      2269 W2       757      TIP3     OH2      OT      -0.834000       15.9994           0
      2270 W2       757      TIP3     H1       HT       0.417000       1.00800           0
      2271 W2       757      TIP3     H2       HT       0.417000       1.00800           0
      2272 W2       758      TIP3     OH2      OT      -0.834000       15.9994           0
      2273 W2       758      TIP3     H1       HT       0.417000       1.00800           0
      2274 W2       758      TIP3     H2       HT       0.417000       1.00800           0
      2275 W2       759      TIP3     OH2      OT      -0.834000       15.9994           0
      2276 W2       759      TIP3     H1       HT       0.417000       1.00800           0
      2277 W2       759      TIP3     H2       HT       0.417000       1.00800           0
      2278 W2       760      TIP3     OH2      OT      -0.834000       15.9994           0
      2279 W2       760      TIP3     H1       HT       0.417000       1.00800           0
      2280 W2       760      TIP3     H2       HT       0.417000       1.00800           0
      2281 W2       761      TIP3     OH2      OT      -0.834000       15.9994           0
      2282 W2       761      TIP3     H1       HT       0.417000       1.00800           0
      2283 W2       761      TIP3     H2       HT       0.417000       1.00800           0
      2284 W2       762      TIP3     OH2      OT      -0.834000       15.9994           0
      2285 W2       762      TIP3     H1       HT       0.417000       1.00800           0
      2286 W2       762      TIP3     H2       HT       0.417000       1.00800           0
      2287 W2       763      TIP3     OH2      OT      -0.834000       15.9994           0
      2288 W2       763      TIP3     H1       HT       0.417000       1.00800           0
      2289 W2       763      TIP3     H2       HT       0.417000       1.00800           0
      2290 W2       764      TIP3     OH2      OT      -0.834000       15.9994           0
      2291 W2       764      TIP3     H1       HT       0.417000       1.00800           0
      2292 W2       764      TIP3     H2       HT       0.417000       1.00800           0
      2293 W2       765      TIP3     OH2      OT      -0.834000       15.9994           0
      2294 W2       765      TIP3     H1       HT       0.417000       1.00800           0
      2295 W2       765      TIP3     H2       HT       0.417000       1.00800           0
      2296 W2       766      TIP3     OH2      OT      -0.834000       15.9994           0
      2297 W2       766      TIP3     H1       HT       0.417000       1.00800           0
      2298 W2       766      TIP3     H2       HT       0.417000       1.00800           0
      2299 W2       767      TIP3     OH2      OT      -0.834000       15.9994           0
      2300 W2       767      TIP3     H1       HT       0.417000       1.00800           0
      2301 W2       767      TIP3     H2       HT       0.417000       1.00800           0
      2302 W2       768      TIP3     OH2      OT      -0.834000       15.9994           0
      2303 W2       768      TIP3     H1       HT       0.417000       1.00800           0
      2304 W2       768      TIP3     H2       HT       0.417000       1.00800           0
      2305 W2       769      TIP3     OH2      OT      -0.834000       15.9994           0
      2306 W2       769      TIP3     H1       HT       0.417000       1.00800           0
      2307 W2       769      TIP3     H2       HT       0.417000       1.00800           0
      2308 W2       770      TIP3     OH2      OT      -0.834000       15.9994           0
      2309 W2       770      TIP3     H1       HT       0.417000       1.00800           0
      2310 W2       770      TIP3     H2       HT       0.417000       1.00800           0
      2311 W2       771      TIP3     OH2      OT      -0.834000       15.9994           0
      2312 W2       771      TIP3     H1       HT       0.417000       1.00800           0
      2313 W2       771      TIP3     H2       HT       0.417000       1.00800           0
      2314 W2       772      TIP3     OH2      OT      -0.834000       15.9994           0
      2315 W2       772      TIP3     H1       HT       0.417000       1.00800           0
      2316 W2       772      TIP3     H2       HT       0.417000       1.00800           0
      2317 W2       773      TIP3     OH2      OT      -0.834000       15.9994           0
      2318 W2       773      TIP3     H1       HT       0.417000       1.00800           0
      2319 W2       773      TIP3     H2       HT       0.417000       1.00800           0
      2320 W2       774      TIP3     OH2      OT      -0.834000       15.9994           0
      2321 W2       774      TIP3     H1       HT       0.417000       1.00800           0
      2322 W2       774      TIP3     H2       HT       0.417000       1.00800           0
      2323 W2       775      TIP3     OH2      OT      -0.834000       15.9994           0
      2324 W2       775      TIP3     H1       HT       0.417000       1.00800           0
      2325 W2       775      TIP3     H2       HT       0.417000       1.00800           0
      2326 W2       776      TIP3     OH2      OT      -0.834000       15.9994           0
      2327 W2       776      TIP3     H1       HT       0.417000       1.00800           0
      2328 W2       776      TIP3     H2       HT       0.417000       1.00800           0
      2329 W2       777      TIP3     OH2      OT      -0.834000       15.9994           0
      2330 W2       777      TIP3     H1       HT       0.417000       1.00800           0
      2331 W2       777      TIP3     H2       HT       0.417000       1.00800           0
      2332 W2       778      TIP3     OH2      OT      -0.834000       15.9994           0
      2333 W2       778      TIP3     H1       HT       0.417000       1.00800           0
      2334 W2       778      TIP3     H2       HT       0.417000       1.00800           0
      2335 W2       779      TIP3     OH2      OT      -0.834000       15.9994           0
      2336 W2       779      TIP3     H1       HT       0.417000       1.00800           0
      2337 W2       779      TIP3     H2       HT       0.417000       1.00800           0
      2338 W2       780      TIP3     OH2      OT      -0.834000       15.9994           0
      2339 W2       780      TIP3     H1       HT       0.417000       1.00800           0
      2340 W2       780      TIP3     H2       HT       0.417000       1.00800           0
      2341 W2       781      TIP3     OH2      OT      -0.834000       15.9994           0
      2342 W2       781      TIP3     H1       HT       0.417000       1.00800           0
      2343 W2       781      TIP3     H2       HT       0.417000       1.00800           0
      2344 W2       782      TIP3     OH2      OT      -0.834000       15.9994           0
      2345 W2       782      TIP3     H1       HT       0.417000       1.00800           0
      2346 W2       782      TIP3     H2       HT       0.417000       1.00800           0
      2347 W2       783      TIP3     OH2      OT      -0.834000       15.9994           0
      2348 W2       783      TIP3     H1       HT       0.417000       1.00800           0
      2349 W2       783      TIP3     H2       HT       0.417000       1.00800           0
      2350 W2       784      TIP3     OH2      OT      -0.834000       15.9994           0
      2351 W2       784      TIP3     H1       HT       0.417000       1.00800           0
      2352 W2       784      TIP3     H2       HT       0.417000       1.00800           0
      2353 W2       785      TIP3     OH2      OT      -0.834000       15.9994           0
      2354 W2       785      TIP3     H1       HT       0.417000       1.00800           0
      2355 W2       785      TIP3     H2       HT       0.417000       1.00800           0
      2356 W2       786      TIP3     OH2      OT      -0.834000       15.9994           0
      2357 W2       786      TIP3     H1       HT       0.417000       1.00800           0
      2358 W2       786      TIP3     H2       HT       0.417000       1.00800           0
      2359 W2       787      TIP3     OH2      OT      -0.834000       15.9994           0
      2360 W2       787      TIP3     H1       HT       0.417000       1.00800           0
      2361 W2       787      TIP3     H2       HT       0.417000       1.00800           0
      2362 W2       788      TIP3     OH2      OT      -0.834000       15.9994           0
      2363 W2       788      TIP3     H1       HT       0.417000       1.00800           0
      2364 W2       788      TIP3     H2       HT       0.417000       1.00800           0
      2365 W2       789      TIP3     OH2      OT      -0.834000       15.9994           0
      2366 W2       789      TIP3     H1       HT       0.417000       1.00800           0
      2367 W2       789      TIP3     H2       HT       0.417000       1.00800           0
      2368 W2       790      TIP3     OH2      OT      -0.834000       15.9994           0
      2369 W2       790      TIP3     H1       HT       0.417000       1.00800           0
      2370 W2       790      TIP3     H2       HT       0.417000       1.00800           0
      2371 W2       791      TIP3     OH2      OT      -0.834000       15.9994           0
      2372 W2       791      TIP3     H1       HT       0.417000       1.00800           0
      2373 W2       791      TIP3     H2       HT       0.417000       1.00800           0
      2374 W2       792      TIP3     OH2      OT      -0.834000       15.9994           0
      2375 W2       792      TIP3     H1       HT       0.417000       1.00800           0
      2376 W2       792      TIP3     H2       HT       0.417000       1.00800           0
      2377 W2       793      TIP3     OH2      OT      -0.834000       15.9994           0
      2378 W2       793      TIP3     H1       HT       0.417000       1.00800           0
      2379 W2       793      TIP3     H2       HT       0.417000       1.00800           0
      2380 W2       794      TIP3     OH2      OT      -0.834000       15.9994           0
      2381 W2       794      TIP3     H1       HT       0.417000       1.00800           0
      2382 W2       794      TIP3     H2       HT       0.417000       1.00800           0
      2383 W2       795      TIP3     OH2      OT      -0.834000       15.9994           0
      2384 W2       795      TIP3     H1       HT       0.417000       1.00800           0
      2385 W2       795      TIP3     H2       HT       0.417000       1.00800           0
      2386 W2       796      TIP3     OH2      OT      -0.834000       15.9994           0
      2387 W2       796      TIP3     H1       HT       0.417000       1.00800           0
      2388 W2       796      TIP3     H2       HT       0.417000       1.00800           0
      2389 W2       797      TIP3     OH2      OT      -0.834000       15.9994           0
      2390 W2       797      TIP3     H1       HT       0.417000       1.00800           0
      2391 W2       797      TIP3     H2       HT       0.417000       1.00800           0
      2392 W2       798      TIP3     OH2      OT      -0.834000       15.9994           0
      2393 W2       798      TIP3     H1       HT       0.417000       1.00800           0
      2394 W2       798      TIP3     H2       HT       0.417000       1.00800           0
      2395 W2       799      TIP3     OH2      OT      -0.834000       15.9994           0
      2396 W2       799      TIP3     H1       HT       0.417000       1.00800           0
      2397 W2       799      TIP3     H2       HT       0.417000       1.00800           0
      2398 W2       800      TIP3     OH2      OT      -0.834000       15.9994           0
      2399 W2       800      TIP3     H1       HT       0.417000       1.00800           0
      2400 W2       800      TIP3     H2       HT       0.417000       1.00800           0
      2401 W2       801      TIP3     OH2      OT      -0.834000       15.9994           0
      2402 W2       801      TIP3     H1       HT       0.417000       1.00800           0
      2403 W2       801      TIP3     H2       HT       0.417000       1.00800           0
      2404 W2       802      TIP3     OH2      OT      -0.834000       15.9994           0
      2405 W2       802      TIP3     H1       HT       0.417000       1.00800           0
      2406 W2       802      TIP3     H2       HT       0.417000       1.00800           0
      2407 W2       803      TIP3     OH2      OT      -0.834000       15.9994           0
      2408 W2       803      TIP3     H1       HT       0.417000       1.00800           0
      2409 W2       803      TIP3     H2       HT       0.417000       1.00800           0
      2410 W2       804      TIP3     OH2      OT      -0.834000       15.9994           0
      2411 W2       804      TIP3     H1       HT       0.417000       1.00800           0
      2412 W2       804      TIP3     H2       HT       0.417000       1.00800           0
      2413 W2       805      TIP3     OH2      OT      -0.834000       15.9994           0
      2414 W2       805      TIP3     H1       HT       0.417000       1.00800           0
      2415 W2       805      TIP3     H2       HT       0.417000       1.00800           0
      2416 W2       806      TIP3     OH2      OT      -0.834000       15.9994           0
      2417 W2       806      TIP3     H1       HT       0.417000       1.00800           0
      2418 W2       806      TIP3     H2       HT       0.417000       1.00800           0
      2419 W2       807      TIP3     OH2      OT      -0.834000       15.9994           0
      2420 W2       807      TIP3     H1       HT       0.417000       1.00800           0
      2421 W2       807      TIP3     H2       HT       0.417000       1.00800           0
      2422 W2       808      TIP3     OH2      OT      -0.834000       15.9994           0
      2423 W2       808      TIP3     H1       HT       0.417000       1.00800           0
      2424 W2       808      TIP3     H2       HT       0.417000       1.00800           0
      2425 W2       809      TIP3     OH2      OT      -0.834000       15.9994           0
      2426 W2       809      TIP3     H1       HT       0.417000       1.00800           0
      2427 W2       809      TIP3     H2       HT       0.417000       1.00800           0
      2428 W2       810      TIP3     OH2      OT      -0.834000       15.9994           0
      2429 W2       810      TIP3     H1       HT       0.417000       1.00800           0
      2430 W2       810      TIP3     H2       HT       0.417000       1.00800           0
      2431 W2       811      TIP3     OH2      OT      -0.834000       15.9994           0
      2432 W2       811      TIP3     H1       HT       0.417000       1.00800           0
      2433 W2       811      TIP3     H2       HT       0.417000       1.00800           0
      2434 W2       812      TIP3     OH2      OT      -0.834000       15.9994           0
      2435 W2       812      TIP3     H1       HT       0.417000       1.00800           0
      2436 W2       812      TIP3     H2       HT       0.417000       1.00800           0
      2437 W2       813      TIP3     OH2      OT      -0.834000       15.9994           0
      2438 W2       813      TIP3     H1       HT       0.417000       1.00800           0
      2439 W2       813      TIP3     H2       HT       0.417000       1.00800           0
      2440 W2       814      TIP3     OH2      OT      -0.834000       15.9994           0
      2441 W2       814      TIP3     H1       HT       0.417000       1.00800           0
      2442 W2       814      TIP3     H2       HT       0.417000       1.00800           0
      2443 W2       815      TIP3     OH2      OT      -0.834000       15.9994           0
      2444 W2       815      TIP3     H1       HT       0.417000       1.00800           0
      2445 W2       815      TIP3     H2       HT       0.417000       1.00800           0
      2446 W2       816      TIP3     OH2      OT      -0.834000       15.9994           0
      2447 W2       816      TIP3     H1       HT       0.417000       1.00800           0
      2448 W2       816      TIP3     H2       HT       0.417000       1.00800           0
      2449 W2       817      TIP3     OH2      OT      -0.834000       15.9994           0
      2450 W2       817      TIP3     H1       HT       0.417000       1.00800           0
      2451 W2       817      TIP3     H2       HT       0.417000       1.00800           0
      2452 W2       818      TIP3     OH2      OT      -0.834000       15.9994           0
      2453 W2       818      TIP3     H1       HT       0.417000       1.00800           0
      2454 W2       818      TIP3     H2       HT       0.417000       1.00800           0
      2455 W2       819      TIP3     OH2      OT      -0.834000       15.9994           0
      2456 W2       819      TIP3     H1       HT       0.417000       1.00800           0
      2457 W2       819      TIP3     H2       HT       0.417000       1.00800           0
      2458 W2       820      TIP3     OH2      OT      -0.834000       15.9994           0
      2459 W2       820      TIP3     H1       HT       0.417000       1.00800           0
      2460 W2       820      TIP3     H2       HT       0.417000       1.00800           0
      2461 W2       821      TIP3     OH2      OT      -0.834000       15.9994           0
      2462 W2       821      TIP3     H1       HT       0.417000       1.00800           0
      2463 W2       821      TIP3     H2       HT       0.417000       1.00800           0
      2464 W2       822      TIP3     OH2      OT      -0.834000       15.9994           0
      2465 W2       822      TIP3     H1       HT       0.417000       1.00800           0
      2466 W2       822      TIP3     H2       HT       0.417000       1.00800           0
      2467 W2       823      TIP3     OH2      OT      -0.834000       15.9994           0
      2468 W2       823      TIP3     H1       HT       0.417000       1.00800           0
      2469 W2       823      TIP3     H2       HT       0.417000       1.00800           0
      2470 W2       824      TIP3     OH2      OT      -0.834000       15.9994           0
      2471 W2       824      TIP3     H1       HT       0.417000       1.00800           0
      2472 W2       824      TIP3     H2       HT       0.417000       1.00800           0
      2473 W2       825      TIP3     OH2      OT      -0.834000       15.9994           0
      2474 W2       825      TIP3     H1       HT       0.417000       1.00800           0
      2475 W2       825      TIP3     H2       HT       0.417000       1.00800           0
      2476 W2       826      TIP3     OH2      OT      -0.834000       15.9994           0
      2477 W2       826      TIP3     H1       HT       0.417000       1.00800           0
      2478 W2       826      TIP3     H2       HT       0.417000       1.00800           0
      2479 W2       827      TIP3     OH2      OT      -0.834000       15.9994           0
      2480 W2       827      TIP3     H1       HT       0.417000       1.00800           0
      2481 W2       827      TIP3     H2       HT       0.417000       1.00800           0
      2482 W2       828      TIP3     OH2      OT      -0.834000       15.9994           0
      2483 W2       828      TIP3     H1       HT       0.417000       1.00800           0
      2484 W2       828      TIP3     H2       HT       0.417000       1.00800           0
      2485 W2       829      TIP3     OH2      OT      -0.834000       15.9994           0
      2486 W2       829      TIP3     H1       HT       0.417000       1.00800           0
      2487 W2       829      TIP3     H2       HT       0.417000       1.00800           0
      2488 W2       830      TIP3     OH2      OT      -0.834000       15.9994           0
      2489 W2       830      TIP3     H1       HT       0.417000       1.00800           0
      2490 W2       830      TIP3     H2       HT       0.417000       1.00800           0
      2491 W2       831      TIP3     OH2      OT      -0.834000       15.9994           0
      2492 W2       831      TIP3     H1       HT       0.417000       1.00800           0
      2493 W2       831      TIP3     H2       HT       0.417000       1.00800           0
      2494 W2       832      TIP3     OH2      OT      -0.834000       15.9994           0
      2495 W2       832      TIP3     H1       HT       0.417000       1.00800           0
      2496 W2       832      TIP3     H2       HT       0.417000       1.00800           0
      2497 W2       833      TIP3     OH2      OT      -0.834000       15.9994           0
      2498 W2       833      TIP3     H1       HT       0.417000       1.00800           0
      2499 W2       833      TIP3     H2       HT       0.417000       1.00800           0
      2500 W2       834      TIP3     OH2      OT      -0.834000       15.9994           0
      2501 W2       834      TIP3     H1       HT       0.417000       1.00800           0
      2502 W2       834      TIP3     H2       HT       0.417000       1.00800           0
      2503 W2       835      TIP3     OH2      OT      -0.834000       15.9994           0
      2504 W2       835      TIP3     H1       HT       0.417000       1.00800           0
      2505 W2       835      TIP3     H2       HT       0.417000       1.00800           0
      2506 W2       836      TIP3     OH2      OT      -0.834000       15.9994           0
      2507 W2       836      TIP3     H1       HT       0.417000       1.00800           0
      2508 W2       836      TIP3     H2       HT       0.417000       1.00800           0
      2509 W2       837      TIP3     OH2      OT      -0.834000       15.9994           0
      2510 W2       837      TIP3     H1       HT       0.417000       1.00800           0
      2511 W2       837      TIP3     H2       HT       0.417000       1.00800           0
      2512 W2       838      TIP3     OH2      OT      -0.834000       15.9994           0
      2513 W2       838      TIP3     H1       HT       0.417000       1.00800           0
      2514 W2       838      TIP3     H2       HT       0.417000       1.00800           0
      2515 W2       839      TIP3     OH2      OT      -0.834000       15.9994           0
      2516 W2       839      TIP3     H1       HT       0.417000       1.00800           0
      2517 W2       839      TIP3     H2       HT       0.417000       1.00800           0
      2518 W2       840      TIP3     OH2      OT      -0.834000       15.9994           0
      2519 W2       840      TIP3     H1       HT       0.417000       1.00800           0
      2520 W2       840      TIP3     H2       HT       0.417000       1.00800           0
      2521 W2       841      TIP3     OH2      OT      -0.834000       15.9994           0
      2522 W2       841      TIP3     H1       HT       0.417000       1.00800           0
      2523 W2       841      TIP3     H2       HT       0.417000       1.00800           0
      2524 W2       842      TIP3     OH2      OT      -0.834000       15.9994           0
      2525 W2       842      TIP3     H1       HT       0.417000       1.00800           0
      2526 W2       842      TIP3     H2       HT       0.417000       1.00800           0
      2527 W2       843      TIP3     OH2      OT      -0.834000       15.9994           0
      2528 W2       843      TIP3     H1       HT       0.417000       1.00800           0
      2529 W2       843      TIP3     H2       HT       0.417000       1.00800           0
      2530 W2       844      TIP3     OH2      OT      -0.834000       15.9994           0
      2531 W2       844      TIP3     H1       HT       0.417000       1.00800           0
      2532 W2       844      TIP3     H2       HT       0.417000       1.00800           0
      2533 W2       845      TIP3     OH2      OT      -0.834000       15.9994           0
      2534 W2       845      TIP3     H1       HT       0.417000       1.00800           0
      2535 W2       845      TIP3     H2       HT       0.417000       1.00800           0
      2536 W2       846      TIP3     OH2      OT      -0.834000       15.9994           0
      2537 W2       846      TIP3     H1       HT       0.417000       1.00800           0
      2538 W2       846      TIP3     H2       HT       0.417000       1.00800           0
      2539 W2       847      TIP3     OH2      OT      -0.834000       15.9994           0
      2540 W2       847      TIP3     H1       HT       0.417000       1.00800           0
      2541 W2       847      TIP3     H2       HT       0.417000       1.00800           0
      2542 W2       848      TIP3     OH2      OT      -0.834000       15.9994           0
      2543 W2       848      TIP3     H1       HT       0.417000       1.00800           0
      2544 W2       848      TIP3     H2       HT       0.417000       1.00800           0
      2545 W2       849      TIP3     OH2      OT      -0.834000       15.9994           0
      2546 W2       849      TIP3     H1       HT       0.417000       1.00800           0
      2547 W2       849      TIP3     H2       HT       0.417000       1.00800           0
      2548 W2       850      TIP3     OH2      OT      -0.834000       15.9994           0
      2549 W2       850      TIP3     H1       HT       0.417000       1.00800           0
      2550 W2       850      TIP3     H2       HT       0.417000       1.00800           0
      2551 W2       851      TIP3     OH2      OT      -0.834000       15.9994           0
      2552 W2       851      TIP3     H1       HT       0.417000       1.00800           0
      2553 W2       851      TIP3     H2       HT       0.417000       1.00800           0
      2554 W2       852      TIP3     OH2      OT      -0.834000       15.9994           0
      2555 W2       852      TIP3     H1       HT       0.417000       1.00800           0
      2556 W2       852      TIP3     H2       HT       0.417000       1.00800           0
      2557 W2       853      TIP3     OH2      OT      -0.834000       15.9994           0
      2558 W2       853      TIP3     H1       HT       0.417000       1.00800           0
      2559 W2       853      TIP3     H2       HT       0.417000       1.00800           0
      2560 W2       854      TIP3     OH2      OT      -0.834000       15.9994           0
      2561 W2       854      TIP3     H1       HT       0.417000       1.00800           0
      2562 W2       854      TIP3     H2       HT       0.417000       1.00800           0
      2563 W2       855      TIP3     OH2      OT      -0.834000       15.9994           0
      2564 W2       855      TIP3     H1       HT       0.417000       1.00800           0
      2565 W2       855      TIP3     H2       HT       0.417000       1.00800           0
      2566 W2       856      TIP3     OH2      OT      -0.834000       15.9994           0
      2567 W2       856      TIP3     H1       HT       0.417000       1.00800           0
      2568 W2       856      TIP3     H2       HT       0.417000       1.00800           0
      2569 W2       857      TIP3     OH2      OT      -0.834000       15.9994           0
      2570 W2       857      TIP3     H1       HT       0.417000       1.00800           0
      2571 W2       857      TIP3     H2       HT       0.417000       1.00800           0
      2572 W2       858      TIP3     OH2      OT      -0.834000       15.9994           0
      2573 W2       858      TIP3     H1       HT       0.417000       1.00800           0
      2574 W2       858      TIP3     H2       HT       0.417000       1.00800           0
      2575 W2       859      TIP3     OH2      OT      -0.834000       15.9994           0
      2576 W2       859      TIP3     H1       HT       0.417000       1.00800           0
      2577 W2       859      TIP3     H2       HT       0.417000       1.00800           0
      2578 W2       860      TIP3     OH2      OT      -0.834000       15.9994           0
      2579 W2       860      TIP3     H1       HT       0.417000       1.00800           0
      2580 W2       860      TIP3     H2       HT       0.417000       1.00800           0
      2581 W2       861      TIP3     OH2      OT      -0.834000       15.9994           0
      2582 W2       861      TIP3     H1       HT       0.417000       1.00800           0
      2583 W2       861      TIP3     H2       HT       0.417000       1.00800           0
      2584 W2       862      TIP3     OH2      OT      -0.834000       15.9994           0
      2585 W2       862      TIP3     H1       HT       0.417000       1.00800           0
      2586 W2       862      TIP3     H2       HT       0.417000       1.00800           0
      2587 W2       863      TIP3     OH2      OT      -0.834000       15.9994           0
      2588 W2       863      TIP3     H1       HT       0.417000       1.00800           0
      2589 W2       863      TIP3     H2       HT       0.417000       1.00800           0
      2590 W2       864      TIP3     OH2      OT      -0.834000       15.9994           0
      2591 W2       864      TIP3     H1       HT       0.417000       1.00800           0
      2592 W2       864      TIP3     H2       HT       0.417000       1.00800           0
      2593 W2       865      TIP3     OH2      OT      -0.834000       15.9994           0
      2594 W2       865      TIP3     H1       HT       0.417000       1.00800           0
      2595 W2       865      TIP3     H2       HT       0.417000       1.00800           0
      2596 W2       866      TIP3     OH2      OT      -0.834000       15.9994           0
      2597 W2       866      TIP3     H1       HT       0.417000       1.00800           0
      2598 W2       866      TIP3     H2       HT       0.417000       1.00800           0
      2599 W2       867      TIP3     OH2      OT      -0.834000       15.9994           0
      2600 W2       867      TIP3     H1       HT       0.417000       1.00800           0
      2601 W2       867      TIP3     H2       HT       0.417000       1.00800           0
      2602 W2       868      TIP3     OH2      OT      -0.834000       15.9994           0
      2603 W2       868      TIP3     H1       HT       0.417000       1.00800           0
      2604 W2       868      TIP3     H2       HT       0.417000       1.00800           0
      2605 W2       869      TIP3     OH2      OT      -0.834000       15.9994           0
      2606 W2       869      TIP3     H1       HT       0.417000       1.00800           0
      2607 W2       869      TIP3     H2       HT       0.417000       1.00800           0
      2608 W2       870      TIP3     OH2      OT      -0.834000       15.9994           0
      2609 W2       870      TIP3     H1       HT       0.417000       1.00800           0
      2610 W2       870      TIP3     H2       HT       0.417000       1.00800           0
      2611 W2       871      TIP3     OH2      OT      -0.834000       15.9994           0
      2612 W2       871      TIP3     H1       HT       0.417000       1.00800           0
      2613 W2       871      TIP3     H2       HT       0.417000       1.00800           0
      2614 W2       872      TIP3     OH2      OT      -0.834000       15.9994           0
      2615 W2       872      TIP3     H1       HT       0.417000       1.00800           0
      2616 W2       872      TIP3     H2       HT       0.417000       1.00800           0
      2617 W2       873      TIP3     OH2      OT      -0.834000       15.9994           0
      2618 W2       873      TIP3     H1       HT       0.417000       1.00800           0
      2619 W2       873      TIP3     H2       HT       0.417000       1.00800           0
      2620 W2       874      TIP3     OH2      OT      -0.834000       15.9994           0
      2621 W2       874      TIP3     H1       HT       0.417000       1.00800           0
      2622 W2       874      TIP3     H2       HT       0.417000       1.00800           0
      2623 W2       875      TIP3     OH2      OT      -0.834000       15.9994           0
      2624 W2       875      TIP3     H1       HT       0.417000       1.00800           0
      2625 W2       875      TIP3     H2       HT       0.417000       1.00800           0
      2626 W2       876      TIP3     OH2      OT      -0.834000       15.9994           0
      2627 W2       876      TIP3     H1       HT       0.417000       1.00800           0
      2628 W2       876      TIP3     H2       HT       0.417000       1.00800           0
      2629 W2       877      TIP3     OH2      OT      -0.834000       15.9994           0
      2630 W2       877      TIP3     H1       HT       0.417000       1.00800           0
      2631 W2       877      TIP3     H2       HT       0.417000       1.00800           0
      2632 W2       878      TIP3     OH2      OT      -0.834000       15.9994           0
      2633 W2       878      TIP3     H1       HT       0.417000       1.00800           0
      2634 W2       878      TIP3     H2       HT       0.417000       1.00800           0
      2635 W2       879      TIP3     OH2      OT      -0.834000       15.9994           0
      2636 W2       879      TIP3     H1       HT       0.417000       1.00800           0
      2637 W2       879      TIP3     H2       HT       0.417000       1.00800           0
      2638 W2       880      TIP3     OH2      OT      -0.834000       15.9994           0
      2639 W2       880      TIP3     H1       HT       0.417000       1.00800           0
      2640 W2       880      TIP3     H2       HT       0.417000       1.00800           0
      2641 W2       881      TIP3     OH2      OT      -0.834000       15.9994           0
      2642 W2       881      TIP3     H1       HT       0.417000       1.00800           0
      2643 W2       881      TIP3     H2       HT       0.417000       1.00800           0
      2644 W2       882      TIP3     OH2      OT      -0.834000       15.9994           0
      2645 W2       882      TIP3     H1       HT       0.417000       1.00800           0
      2646 W2       882      TIP3     H2       HT       0.417000       1.00800           0
      2647 W2       883      TIP3     OH2      OT      -0.834000       15.9994           0
      2648 W2       883      TIP3     H1       HT       0.417000       1.00800           0
      2649 W2       883      TIP3     H2       HT       0.417000       1.00800           0
      2650 W2       884      TIP3     OH2      OT      -0.834000       15.9994           0
      2651 W2       884      TIP3     H1       HT       0.417000       1.00800           0
      2652 W2       884      TIP3     H2       HT       0.417000       1.00800           0
      2653 W2       885      TIP3     OH2      OT      -0.834000       15.9994           0
      2654 W2       885      TIP3     H1       HT       0.417000       1.00800           0
      2655 W2       885      TIP3     H2       HT       0.417000       1.00800           0
      2656 W2       886      TIP3     OH2      OT      -0.834000       15.9994           0
      2657 W2       886      TIP3     H1       HT       0.417000       1.00800           0
      2658 W2       886      TIP3     H2       HT       0.417000       1.00800           0
      2659 W2       887      TIP3     OH2      OT      -0.834000       15.9994           0
      2660 W2       887      TIP3     H1       HT       0.417000       1.00800           0
      2661 W2       887      TIP3     H2       HT       0.417000       1.00800           0
      2662 W2       888      TIP3     OH2      OT      -0.834000       15.9994           0
      2663 W2       888      TIP3     H1       HT       0.417000       1.00800           0
      2664 W2       888      TIP3     H2       HT       0.417000       1.00800           0
      2665 W2       889      TIP3     OH2      OT      -0.834000       15.9994           0
      2666 W2       889      TIP3     H1       HT       0.417000       1.00800           0
      2667 W2       889      TIP3     H2       HT       0.417000       1.00800           0
      2668 W2       890      TIP3     OH2      OT      -0.834000       15.9994           0
      2669 W2       890      TIP3     H1       HT       0.417000       1.00800           0
      2670 W2       890      TIP3     H2       HT       0.417000       1.00800           0
      2671 W2       891      TIP3     OH2      OT      -0.834000       15.9994           0
      2672 W2       891      TIP3     H1       HT       0.417000       1.00800           0
      2673 W2       891      TIP3     H2       HT       0.417000       1.00800           0
      2674 W2       892      TIP3     OH2      OT      -0.834000       15.9994           0
      2675 W2       892      TIP3     H1       HT       0.417000       1.00800           0
      2676 W2       892      TIP3     H2       HT       0.417000       1.00800           0
      2677 W2       893      TIP3     OH2      OT      -0.834000       15.9994           0
      2678 W2       893      TIP3     H1       HT       0.417000       1.00800           0
      2679 W2       893      TIP3     H2       HT       0.417000       1.00800           0
      2680 W2       894      TIP3     OH2      OT      -0.834000       15.9994           0
      2681 W2       894      TIP3     H1       HT       0.417000       1.00800           0
      2682 W2       894      TIP3     H2       HT       0.417000       1.00800           0
      2683 W2       895      TIP3     OH2      OT      -0.834000       15.9994           0
      2684 W2       895      TIP3     H1       HT       0.417000       1.00800           0
      2685 W2       895      TIP3     H2       HT       0.417000       1.00800           0
      2686 W2       896      TIP3     OH2      OT      -0.834000       15.9994           0
      2687 W2       896      TIP3     H1       HT       0.417000       1.00800           0
      2688 W2       896      TIP3     H2       HT       0.417000       1.00800           0
      2689 W2       897      TIP3     OH2      OT      -0.834000       15.9994           0
      2690 W2       897      TIP3     H1       HT       0.417000       1.00800           0
      2691 W2       897      TIP3     H2       HT       0.417000       1.00800           0
      2692 W2       898      TIP3     OH2      OT      -0.834000       15.9994           0
      2693 W2       898      TIP3     H1       HT       0.417000       1.00800           0
      2694 W2       898      TIP3     H2       HT       0.417000       1.00800           0
      2695 W2       899      TIP3     OH2      OT      -0.834000       15.9994           0
      2696 W2       899      TIP3     H1       HT       0.417000       1.00800           0
      2697 W2       899      TIP3     H2       HT       0.417000       1.00800           0
      2698 W2       900      TIP3     OH2      OT      -0.834000       15.9994           0
      2699 W2       900      TIP3     H1       HT       0.417000       1.00800           0
      2700 W2       900      TIP3     H2       HT       0.417000       1.00800           0
      2701 W2       901      TIP3     OH2      OT      -0.834000       15.9994           0
      2702 W2       901      TIP3     H1       HT       0.417000       1.00800           0
      2703 W2       901      TIP3     H2       HT       0.417000       1.00800           0
      2704 W2       902      TIP3     OH2      OT      -0.834000       15.9994           0
      2705 W2       902      TIP3     H1       HT       0.417000       1.00800           0
      2706 W2       902      TIP3     H2       HT       0.417000       1.00800           0
      2707 W2       903      TIP3     OH2      OT      -0.834000       15.9994           0
      2708 W2       903      TIP3     H1       HT       0.417000       1.00800           0
      2709 W2       903      TIP3     H2       HT       0.417000       1.00800           0
      2710 W2       904      TIP3     OH2      OT      -0.834000       15.9994           0
      2711 W2       904      TIP3     H1       HT       0.417000       1.00800           0
      2712 W2       904      TIP3     H2       HT       0.417000       1.00800           0
      2713 W2       905      TIP3     OH2      OT      -0.834000       15.9994           0
      2714 W2       905      TIP3     H1       HT       0.417000       1.00800           0
      2715 W2       905      TIP3     H2       HT       0.417000       1.00800           0
      2716 W2       906      TIP3     OH2      OT      -0.834000       15.9994           0
      2717 W2       906      TIP3     H1       HT       0.417000       1.00800           0
      2718 W2       906      TIP3     H2       HT       0.417000       1.00800           0
      2719 W2       907      TIP3     OH2      OT      -0.834000       15.9994           0
      2720 W2       907      TIP3     H1       HT       0.417000       1.00800           0
      2721 W2       907      TIP3     H2       HT       0.417000       1.00800           0
      2722 W2       908      TIP3     OH2      OT      -0.834000       15.9994           0
      2723 W2       908      TIP3     H1       HT       0.417000       1.00800           0
      2724 W2       908      TIP3     H2       HT       0.417000       1.00800           0
      2725 W2       909      TIP3     OH2      OT      -0.834000       15.9994           0
      2726 W2       909      TIP3     H1       HT       0.417000       1.00800           0
      2727 W2       909      TIP3     H2       HT       0.417000       1.00800           0
      2728 W2       910      TIP3     OH2      OT      -0.834000       15.9994           0
      2729 W2       910      TIP3     H1       HT       0.417000       1.00800           0
      2730 W2       910      TIP3     H2       HT       0.417000       1.00800           0
      2731 W2       911      TIP3     OH2      OT      -0.834000       15.9994           0
      2732 W2       911      TIP3     H1       HT       0.417000       1.00800           0
      2733 W2       911      TIP3     H2       HT       0.417000       1.00800           0
      2734 W2       912      TIP3     OH2      OT      -0.834000       15.9994           0
      2735 W2       912      TIP3     H1       HT       0.417000       1.00800           0
      2736 W2       912      TIP3     H2       HT       0.417000       1.00800           0
      2737 W2       913      TIP3     OH2      OT      -0.834000       15.9994           0
      2738 W2       913      TIP3     H1       HT       0.417000       1.00800           0
      2739 W2       913      TIP3     H2       HT       0.417000       1.00800           0
      2740 W2       914      TIP3     OH2      OT      -0.834000       15.9994           0
      2741 W2       914      TIP3     H1       HT       0.417000       1.00800           0
      2742 W2       914      TIP3     H2       HT       0.417000       1.00800           0
      2743 W2       915      TIP3     OH2      OT      -0.834000       15.9994           0
      2744 W2       915      TIP3     H1       HT       0.417000       1.00800           0
      2745 W2       915      TIP3     H2       HT       0.417000       1.00800           0
      2746 W2       916      TIP3     OH2      OT      -0.834000       15.9994           0
      2747 W2       916      TIP3     H1       HT       0.417000       1.00800           0
      2748 W2       916      TIP3     H2       HT       0.417000       1.00800           0
      2749 W2       917      TIP3     OH2      OT      -0.834000       15.9994           0
      2750 W2       917      TIP3     H1       HT       0.417000       1.00800           0
      2751 W2       917      TIP3     H2       HT       0.417000       1.00800           0
      2752 W2       918      TIP3     OH2      OT      -0.834000       15.9994           0
      2753 W2       918      TIP3     H1       HT       0.417000       1.00800           0
      2754 W2       918      TIP3     H2       HT       0.417000       1.00800           0
      2755 W2       919      TIP3     OH2      OT      -0.834000       15.9994           0
      2756 W2       919      TIP3     H1       HT       0.417000       1.00800           0
      2757 W2       919      TIP3     H2       HT       0.417000       1.00800           0
      2758 W2       920      TIP3     OH2      OT      -0.834000       15.9994           0
      2759 W2       920      TIP3     H1       HT       0.417000       1.00800           0
      2760 W2       920      TIP3     H2       HT       0.417000       1.00800           0
      2761 W2       921      TIP3     OH2      OT      -0.834000       15.9994           0
      2762 W2       921      TIP3     H1       HT       0.417000       1.00800           0
      2763 W2       921      TIP3     H2       HT       0.417000       1.00800           0
      2764 W2       922      TIP3     OH2      OT      -0.834000       15.9994           0
      2765 W2       922      TIP3     H1       HT       0.417000       1.00800           0
      2766 W2       922      TIP3     H2       HT       0.417000       1.00800           0
      2767 W2       923      TIP3     OH2      OT      -0.834000       15.9994           0
      2768 W2       923      TIP3     H1       HT       0.417000       1.00800           0
      2769 W2       923      TIP3     H2       HT       0.417000       1.00800           0
      2770 W2       924      TIP3     OH2      OT      -0.834000       15.9994           0
      2771 W2       924      TIP3     H1       HT       0.417000       1.00800           0
      2772 W2       924      TIP3     H2       HT       0.417000       1.00800           0
      2773 W2       925      TIP3     OH2      OT      -0.834000       15.9994           0
      2774 W2       925      TIP3     H1       HT       0.417000       1.00800           0
      2775 W2       925      TIP3     H2       HT       0.417000       1.00800           0
      2776 W2       926      TIP3     OH2      OT      -0.834000       15.9994           0
      2777 W2       926      TIP3     H1       HT       0.417000       1.00800           0
      2778 W2       926      TIP3     H2       HT       0.417000       1.00800           0
      2779 W2       927      TIP3     OH2      OT      -0.834000       15.9994           0
      2780 W2       927      TIP3     H1       HT       0.417000       1.00800           0
      2781 W2       927      TIP3     H2       HT       0.417000       1.00800           0
      2782 W2       928      TIP3     OH2      OT      -0.834000       15.9994           0
      2783 W2       928      TIP3     H1       HT       0.417000       1.00800           0
      2784 W2       928      TIP3     H2       HT       0.417000       1.00800           0
      2785 W2       929      TIP3     OH2      OT      -0.834000       15.9994           0
      2786 W2       929      TIP3     H1       HT       0.417000       1.00800           0
      2787 W2       929      TIP3     H2       HT       0.417000       1.00800           0
      2788 W2       930      TIP3     OH2      OT      -0.834000       15.9994           0
      2789 W2       930      TIP3     H1       HT       0.417000       1.00800           0
      2790 W2       930      TIP3     H2       HT       0.417000       1.00800           0
      2791 W2       931      TIP3     OH2      OT      -0.834000       15.9994           0
      2792 W2       931      TIP3     H1       HT       0.417000       1.00800           0
      2793 W2       931      TIP3     H2       HT       0.417000       1.00800           0
      2794 W2       932      TIP3     OH2      OT      -0.834000       15.9994           0
      2795 W2       932      TIP3     H1       HT       0.417000       1.00800           0
      2796 W2       932      TIP3     H2       HT       0.417000       1.00800           0
      2797 W2       933      TIP3     OH2      OT      -0.834000       15.9994           0
      2798 W2       933      TIP3     H1       HT       0.417000       1.00800           0
      2799 W2       933      TIP3     H2       HT       0.417000       1.00800           0
      2800 W2       934      TIP3     OH2      OT      -0.834000       15.9994           0
      2801 W2       934      TIP3     H1       HT       0.417000       1.00800           0
      2802 W2       934      TIP3     H2       HT       0.417000       1.00800           0
      2803 W2       935      TIP3     OH2      OT      -0.834000       15.9994           0
      2804 W2       935      TIP3     H1       HT       0.417000       1.00800           0
      2805 W2       935      TIP3     H2       HT       0.417000       1.00800           0
      2806 W2       936      TIP3     OH2      OT      -0.834000       15.9994           0
      2807 W2       936      TIP3     H1       HT       0.417000       1.00800           0
      2808 W2       936      TIP3     H2       HT       0.417000       1.00800           0
      2809 W2       937      TIP3     OH2      OT      -0.834000       15.9994           0
      2810 W2       937      TIP3     H1       HT       0.417000       1.00800           0
      2811 W2       937      TIP3     H2       HT       0.417000       1.00800           0
      2812 W2       938      TIP3     OH2      OT      -0.834000       15.9994           0
      2813 W2       938      TIP3     H1       HT       0.417000       1.00800           0
      2814 W2       938      TIP3     H2       HT       0.417000       1.00800           0
      2815 W2       939      TIP3     OH2      OT      -0.834000       15.9994           0
      2816 W2       939      TIP3     H1       HT       0.417000       1.00800           0
      2817 W2       939      TIP3     H2       HT       0.417000       1.00800           0
      2818 W2       940      TIP3     OH2      OT      -0.834000       15.9994           0
      2819 W2       940      TIP3     H1       HT       0.417000       1.00800           0
      2820 W2       940      TIP3     H2       HT       0.417000       1.00800           0
      2821 W2       941      TIP3     OH2      OT      -0.834000       15.9994           0
      2822 W2       941      TIP3     H1       HT       0.417000       1.00800           0
      2823 W2       941      TIP3     H2       HT       0.417000       1.00800           0
      2824 W2       942      TIP3     OH2      OT      -0.834000       15.9994           0
      2825 W2       942      TIP3     H1       HT       0.417000       1.00800           0
      2826 W2       942      TIP3     H2       HT       0.417000       1.00800           0
      2827 W2       943      TIP3     OH2      OT      -0.834000       15.9994           0
      2828 W2       943      TIP3     H1       HT       0.417000       1.00800           0
      2829 W2       943      TIP3     H2       HT       0.417000       1.00800           0
      2830 W2       944      TIP3     OH2      OT      -0.834000       15.9994           0
      2831 W2       944      TIP3     H1       HT       0.417000       1.00800           0
      2832 W2       944      TIP3     H2       HT       0.417000       1.00800           0
      2833 W2       945      TIP3     OH2      OT      -0.834000       15.9994           0
      2834 W2       945      TIP3     H1       HT       0.417000       1.00800           0
      2835 W2       945      TIP3     H2       HT       0.417000       1.00800           0
      2836 W2       946      TIP3     OH2      OT      -0.834000       15.9994           0
      2837 W2       946      TIP3     H1       HT       0.417000       1.00800           0
      2838 W2       946      TIP3     H2       HT       0.417000       1.00800           0
      2839 W2       947      TIP3     OH2      OT      -0.834000       15.9994           0
      2840 W2       947      TIP3     H1       HT       0.417000       1.00800           0
      2841 W2       947      TIP3     H2       HT       0.417000       1.00800           0
      2842 W2       948      TIP3     OH2      OT      -0.834000       15.9994           0
      2843 W2       948      TIP3     H1       HT       0.417000       1.00800           0
      2844 W2       948      TIP3     H2       HT       0.417000       1.00800           0
      2845 W2       949      TIP3     OH2      OT      -0.834000       15.9994           0
      2846 W2       949      TIP3     H1       HT       0.417000       1.00800           0
      2847 W2       949      TIP3     H2       HT       0.417000       1.00800           0
      2848 W2       950      TIP3     OH2      OT      -0.834000       15.9994           0
      2849 W2       950      TIP3     H1       HT       0.417000       1.00800           0
      2850 W2       950      TIP3     H2       HT       0.417000       1.00800           0
      2851 W2       951      TIP3     OH2      OT      -0.834000       15.9994           0
      2852 W2       951      TIP3     H1       HT       0.417000       1.00800           0
      2853 W2       951      TIP3     H2       HT       0.417000       1.00800           0
      2854 W2       952      TIP3     OH2      OT      -0.834000       15.9994           0
      2855 W2       952      TIP3     H1       HT       0.417000       1.00800           0
      2856 W2       952      TIP3     H2       HT       0.417000       1.00800           0
      2857 W2       953      TIP3     OH2      OT      -0.834000       15.9994           0
      2858 W2       953      TIP3     H1       HT       0.417000       1.00800           0
      2859 W2       953      TIP3     H2       HT       0.417000       1.00800           0
      2860 W2       954      TIP3     OH2      OT      -0.834000       15.9994           0
      2861 W2       954      TIP3     H1       HT       0.417000       1.00800           0
      2862 W2       954      TIP3     H2       HT       0.417000       1.00800           0
      2863 W2       955      TIP3     OH2      OT      -0.834000       15.9994           0
      2864 W2       955      TIP3     H1       HT       0.417000       1.00800           0
      2865 W2       955      TIP3     H2       HT       0.417000       1.00800           0
      2866 W2       956      TIP3     OH2      OT      -0.834000       15.9994           0
      2867 W2       956      TIP3     H1       HT       0.417000       1.00800           0
      2868 W2       956      TIP3     H2       HT       0.417000       1.00800           0
      2869 W2       957      TIP3     OH2      OT      -0.834000       15.9994           0
      2870 W2       957      TIP3     H1       HT       0.417000       1.00800           0
      2871 W2       957      TIP3     H2       HT       0.417000       1.00800           0
      2872 W2       958      TIP3     OH2      OT      -0.834000       15.9994           0
      2873 W2       958      TIP3     H1       HT       0.417000       1.00800           0
      2874 W2       958      TIP3     H2       HT       0.417000       1.00800           0
      2875 W2       959      TIP3     OH2      OT      -0.834000       15.9994           0
      2876 W2       959      TIP3     H1       HT       0.417000       1.00800           0
      2877 W2       959      TIP3     H2       HT       0.417000       1.00800           0
      2878 W2       960      TIP3     OH2      OT      -0.834000       15.9994           0
      2879 W2       960      TIP3     H1       HT       0.417000       1.00800           0
      2880 W2       960      TIP3     H2       HT       0.417000       1.00800           0
      2881 W2       961      TIP3     OH2      OT      -0.834000       15.9994           0
      2882 W2       961      TIP3     H1       HT       0.417000       1.00800           0
      2883 W2       961      TIP3     H2       HT       0.417000       1.00800           0
      2884 W2       962      TIP3     OH2      OT      -0.834000       15.9994           0
      2885 W2       962      TIP3     H1       HT       0.417000       1.00800           0
      2886 W2       962      TIP3     H2       HT       0.417000       1.00800           0
      2887 W2       963      TIP3     OH2      OT      -0.834000       15.9994           0
      2888 W2       963      TIP3     H1       HT       0.417000       1.00800           0
      2889 W2       963      TIP3     H2       HT       0.417000       1.00800           0
      2890 W2       964      TIP3     OH2      OT      -0.834000       15.9994           0
      2891 W2       964      TIP3     H1       HT       0.417000       1.00800           0
      2892 W2       964      TIP3     H2       HT       0.417000       1.00800           0
      2893 W2       965      TIP3     OH2      OT      -0.834000       15.9994           0
      2894 W2       965      TIP3     H1       HT       0.417000       1.00800           0
      2895 W2       965      TIP3     H2       HT       0.417000       1.00800           0
      2896 W2       966      TIP3     OH2      OT      -0.834000       15.9994           0
      2897 W2       966      TIP3     H1       HT       0.417000       1.00800           0
      2898 W2       966      TIP3     H2       HT       0.417000       1.00800           0
      2899 W2       967      TIP3     OH2      OT      -0.834000       15.9994           0
      2900 W2       967      TIP3     H1       HT       0.417000       1.00800           0
      2901 W2       967      TIP3     H2       HT       0.417000       1.00800           0
      2902 W2       968      TIP3     OH2      OT      -0.834000       15.9994           0
      2903 W2       968      TIP3     H1       HT       0.417000       1.00800           0
      2904 W2       968      TIP3     H2       HT       0.417000       1.00800           0
      2905 W2       969      TIP3     OH2      OT      -0.834000       15.9994           0
      2906 W2       969      TIP3     H1       HT       0.417000       1.00800           0
      2907 W2       969      TIP3     H2       HT       0.417000       1.00800           0
      2908 W2       970      TIP3     OH2      OT      -0.834000       15.9994           0
      2909 W2       970      TIP3     H1       HT       0.417000       1.00800           0
      2910 W2       970      TIP3     H2       HT       0.417000       1.00800           0
      2911 W2       971      TIP3     OH2      OT      -0.834000       15.9994           0
      2912 W2       971      TIP3     H1       HT       0.417000       1.00800           0
      2913 W2       971      TIP3     H2       HT       0.417000       1.00800           0
      2914 W2       972      TIP3     OH2      OT      -0.834000       15.9994           0
      2915 W2       972      TIP3     H1       HT       0.417000       1.00800           0
      2916 W2       972      TIP3     H2       HT       0.417000       1.00800           0
      2917 W2       973      TIP3     OH2      OT      -0.834000       15.9994           0
      2918 W2       973      TIP3     H1       HT       0.417000       1.00800           0
      2919 W2       973      TIP3     H2       HT       0.417000       1.00800           0
      2920 W2       974      TIP3     OH2      OT      -0.834000       15.9994           0
      2921 W2       974      TIP3     H1       HT       0.417000       1.00800           0
      2922 W2       974      TIP3     H2       HT       0.417000       1.00800           0
      2923 W2       975      TIP3     OH2      OT      -0.834000       15.9994           0
      2924 W2       975      TIP3     H1       HT       0.417000       1.00800           0
      2925 W2       975      TIP3     H2       HT       0.417000       1.00800           0
      2926 W2       976      TIP3     OH2      OT      -0.834000       15.9994           0
      2927 W2       976      TIP3     H1       HT       0.417000       1.00800           0
      2928 W2       976      TIP3     H2       HT       0.417000       1.00800           0
      2929 W2       977      TIP3     OH2      OT      -0.834000       15.9994           0
      2930 W2       977      TIP3     H1       HT       0.417000       1.00800           0
      2931 W2       977      TIP3     H2       HT       0.417000       1.00800           0
      2932 W2       978      TIP3     OH2      OT      -0.834000       15.9994           0
      2933 W2       978      TIP3     H1       HT       0.417000       1.00800           0
      2934 W2       978      TIP3     H2       HT       0.417000       1.00800           0
      2935 W2       979      TIP3     OH2      OT      -0.834000       15.9994           0
      2936 W2       979      TIP3     H1       HT       0.417000       1.00800           0
      2937 W2       979      TIP3     H2       HT       0.417000       1.00800           0
      2938 W2       980      TIP3     OH2      OT      -0.834000       15.9994           0
      2939 W2       980      TIP3     H1       HT       0.417000       1.00800           0
      2940 W2       980      TIP3     H2       HT       0.417000       1.00800           0
      2941 W2       981      TIP3     OH2      OT      -0.834000       15.9994           0
      2942 W2       981      TIP3     H1       HT       0.417000       1.00800           0
      2943 W2       981      TIP3     H2       HT       0.417000       1.00800           0
      2944 W2       982      TIP3     OH2      OT      -0.834000       15.9994           0
      2945 W2       982      TIP3     H1       HT       0.417000       1.00800           0
      2946 W2       982      TIP3     H2       HT       0.417000       1.00800           0
      2947 W2       983      TIP3     OH2      OT      -0.834000       15.9994           0
      2948 W2       983      TIP3     H1       HT       0.417000       1.00800           0
      2949 W2       983      TIP3     H2       HT       0.417000       1.00800           0
      2950 W2       984      TIP3     OH2      OT      -0.834000       15.9994           0
      2951 W2       984      TIP3     H1       HT       0.417000       1.00800           0
      2952 W2       984      TIP3     H2       HT       0.417000       1.00800           0
      2953 W2       985      TIP3     OH2      OT      -0.834000       15.9994           0
      2954 W2       985      TIP3     H1       HT       0.417000       1.00800           0
      2955 W2       985      TIP3     H2       HT       0.417000       1.00800           0
      2956 W2       986      TIP3     OH2      OT      -0.834000       15.9994           0
      2957 W2       986      TIP3     H1       HT       0.417000       1.00800           0
      2958 W2       986      TIP3     H2       HT       0.417000       1.00800           0
      2959 W2       987      TIP3     OH2      OT      -0.834000       15.9994           0
      2960 W2       987      TIP3     H1       HT       0.417000       1.00800           0
      2961 W2       987      TIP3     H2       HT       0.417000       1.00800           0
      2962 W2       988      TIP3     OH2      OT      -0.834000       15.9994           0
      2963 W2       988      TIP3     H1       HT       0.417000       1.00800           0
      2964 W2       988      TIP3     H2       HT       0.417000       1.00800           0
      2965 W2       989      TIP3     OH2      OT      -0.834000       15.9994           0
      2966 W2       989      TIP3     H1       HT       0.417000       1.00800           0
      2967 W2       989      TIP3     H2       HT       0.417000       1.00800           0
      2968 W2       990      TIP3     OH2      OT      -0.834000       15.9994           0
      2969 W2       990      TIP3     H1       HT       0.417000       1.00800           0
      2970 W2       990      TIP3     H2       HT       0.417000       1.00800           0
      2971 W2       991      TIP3     OH2      OT      -0.834000       15.9994           0
      2972 W2       991      TIP3     H1       HT       0.417000       1.00800           0
      2973 W2       991      TIP3     H2       HT       0.417000       1.00800           0
      2974 W2       992      TIP3     OH2      OT      -0.834000       15.9994           0
      2975 W2       992      TIP3     H1       HT       0.417000       1.00800           0
      2976 W2       992      TIP3     H2       HT       0.417000       1.00800           0
      2977 W2       993      TIP3     OH2      OT      -0.834000       15.9994           0
      2978 W2       993      TIP3     H1       HT       0.417000       1.00800           0
      2979 W2       993      TIP3     H2       HT       0.417000       1.00800           0
      2980 W2       994      TIP3     OH2      OT      -0.834000       15.9994           0
      2981 W2       994      TIP3     H1       HT       0.417000       1.00800           0
      2982 W2       994      TIP3     H2       HT       0.417000       1.00800           0
      2983 W2       995      TIP3     OH2      OT      -0.834000       15.9994           0
      2984 W2       995      TIP3     H1       HT       0.417000       1.00800           0
      2985 W2       995      TIP3     H2       HT       0.417000       1.00800           0
      2986 W2       996      TIP3     OH2      OT      -0.834000       15.9994           0
      2987 W2       996      TIP3     H1       HT       0.417000       1.00800           0
      2988 W2       996      TIP3     H2       HT       0.417000       1.00800           0
      2989 W2       997      TIP3     OH2      OT      -0.834000       15.9994           0
      2990 W2       997      TIP3     H1       HT       0.417000       1.00800           0
      2991 W2       997      TIP3     H2       HT       0.417000       1.00800           0
      2992 W2       998      TIP3     OH2      OT      -0.834000       15.9994           0
      2993 W2       998      TIP3     H1       HT       0.417000       1.00800           0
      2994 W2       998      TIP3     H2       HT       0.417000       1.00800           0
      2995 W2       999      TIP3     OH2      OT      -0.834000       15.9994           0
      2996 W2       999      TIP3     H1       HT       0.417000       1.00800           0
      2997 W2       999      TIP3     H2       HT       0.417000       1.00800           0
      2998 W2       1000     TIP3     OH2      OT      -0.834000       15.9994           0
      2999 W2       1000     TIP3     H1       HT       0.417000       1.00800           0
      3000 W2       1000     TIP3     H2       HT       0.417000       1.00800           0
      3001 W2       1001     TIP3     OH2      OT      -0.834000       15.9994           0
      3002 W2       1001     TIP3     H1       HT       0.417000       1.00800           0
      3003 W2       1001     TIP3     H2       HT       0.417000       1.00800           0
      3004 W2       1002     TIP3     OH2      OT      -0.834000       15.9994           0
      3005 W2       1002     TIP3     H1       HT       0.417000       1.00800           0
      3006 W2       1002     TIP3     H2       HT       0.417000       1.00800           0
      3007 W2       1003     TIP3     OH2      OT      -0.834000       15.9994           0
      3008 W2       1003     TIP3     H1       HT       0.417000       1.00800           0
      3009 W2       1003     TIP3     H2       HT       0.417000       1.00800           0
      3010 W2       1004     TIP3     OH2      OT      -0.834000       15.9994           0
      3011 W2       1004     TIP3     H1       HT       0.417000       1.00800           0
      3012 W2       1004     TIP3     H2       HT       0.417000       1.00800           0
      3013 W2       1005     TIP3     OH2      OT      -0.834000       15.9994           0
      3014 W2       1005     TIP3     H1       HT       0.417000       1.00800           0
      3015 W2       1005     TIP3     H2       HT       0.417000       1.00800           0
      3016 W2       1006     TIP3     OH2      OT      -0.834000       15.9994           0
      3017 W2       1006     TIP3     H1       HT       0.417000       1.00800           0
      3018 W2       1006     TIP3     H2       HT       0.417000       1.00800           0
      3019 W2       1007     TIP3     OH2      OT      -0.834000       15.9994           0
      3020 W2       1007     TIP3     H1       HT       0.417000       1.00800           0
      3021 W2       1007     TIP3     H2       HT       0.417000       1.00800           0
      3022 W2       1008     TIP3     OH2      OT      -0.834000       15.9994           0
      3023 W2       1008     TIP3     H1       HT       0.417000       1.00800           0
      3024 W2       1008     TIP3     H2       HT       0.417000       1.00800           0
      3025 W2       1009     TIP3     OH2      OT      -0.834000       15.9994           0
      3026 W2       1009     TIP3     H1       HT       0.417000       1.00800           0
      3027 W2       1009     TIP3     H2       HT       0.417000       1.00800           0
      3028 W2       1010     TIP3     OH2      OT      -0.834000       15.9994           0
      3029 W2       1010     TIP3     H1       HT       0.417000       1.00800           0
      3030 W2       1010     TIP3     H2       HT       0.417000       1.00800           0
      3031 W2       1011     TIP3     OH2      OT      -0.834000       15.9994           0
      3032 W2       1011     TIP3     H1       HT       0.417000       1.00800           0
      3033 W2       1011     TIP3     H2       HT       0.417000       1.00800           0
      3034 W2       1012     TIP3     OH2      OT      -0.834000       15.9994           0
      3035 W2       1012     TIP3     H1       HT       0.417000       1.00800           0
      3036 W2       1012     TIP3     H2       HT       0.417000       1.00800           0
      3037 W2       1013     TIP3     OH2      OT      -0.834000       15.9994           0
      3038 W2       1013     TIP3     H1       HT       0.417000       1.00800           0
      3039 W2       1013     TIP3     H2       HT       0.417000       1.00800           0
      3040 W2       1014     TIP3     OH2      OT      -0.834000       15.9994           0
      3041 W2       1014     TIP3     H1       HT       0.417000       1.00800           0
      3042 W2       1014     TIP3     H2       HT       0.417000       1.00800           0
      3043 W2       1015     TIP3     OH2      OT      -0.834000       15.9994           0
      3044 W2       1015     TIP3     H1       HT       0.417000       1.00800           0
      3045 W2       1015     TIP3     H2       HT       0.417000       1.00800           0
      3046 W2       1016     TIP3     OH2      OT      -0.834000       15.9994           0
      3047 W2       1016     TIP3     H1       HT       0.417000       1.00800           0
      3048 W2       1016     TIP3     H2       HT       0.417000       1.00800           0
      3049 W2       1017     TIP3     OH2      OT      -0.834000       15.9994           0
      3050 W2       1017     TIP3     H1       HT       0.417000       1.00800           0
      3051 W2       1017     TIP3     H2       HT       0.417000       1.00800           0
      3052 W2       1018     TIP3     OH2      OT      -0.834000       15.9994           0
      3053 W2       1018     TIP3     H1       HT       0.417000       1.00800           0
      3054 W2       1018     TIP3     H2       HT       0.417000       1.00800           0
      3055 W2       1019     TIP3     OH2      OT      -0.834000       15.9994           0
      3056 W2       1019     TIP3     H1       HT       0.417000       1.00800           0
      3057 W2       1019     TIP3     H2       HT       0.417000       1.00800           0
      3058 W2       1020     TIP3     OH2      OT      -0.834000       15.9994           0
      3059 W2       1020     TIP3     H1       HT       0.417000       1.00800           0
      3060 W2       1020     TIP3     H2       HT       0.417000       1.00800           0
      3061 W2       1021     TIP3     OH2      OT      -0.834000       15.9994           0
      3062 W2       1021     TIP3     H1       HT       0.417000       1.00800           0
      3063 W2       1021     TIP3     H2       HT       0.417000       1.00800           0
      3064 W2       1022     TIP3     OH2      OT      -0.834000       15.9994           0
      3065 W2       1022     TIP3     H1       HT       0.417000       1.00800           0
      3066 W2       1022     TIP3     H2       HT       0.417000       1.00800           0
      3067 W2       1023     TIP3     OH2      OT      -0.834000       15.9994           0
      3068 W2       1023     TIP3     H1       HT       0.417000       1.00800           0
      3069 W2       1023     TIP3     H2       HT       0.417000       1.00800           0
      3070 W2       1024     TIP3     OH2      OT      -0.834000       15.9994           0
      3071 W2       1024     TIP3     H1       HT       0.417000       1.00800           0
      3072 W2       1024     TIP3     H2       HT       0.417000       1.00800           0
      3073 W2       1025     TIP3     OH2      OT      -0.834000       15.9994           0
      3074 W2       1025     TIP3     H1       HT       0.417000       1.00800           0
      3075 W2       1025     TIP3     H2       HT       0.417000       1.00800           0
      3076 W2       1026     TIP3     OH2      OT      -0.834000       15.9994           0
      3077 W2       1026     TIP3     H1       HT       0.417000       1.00800           0
      3078 W2       1026     TIP3     H2       HT       0.417000       1.00800           0
      3079 W2       1027     TIP3     OH2      OT      -0.834000       15.9994           0
      3080 W2       1027     TIP3     H1       HT       0.417000       1.00800           0
      3081 W2       1027     TIP3     H2       HT       0.417000       1.00800           0
      3082 W2       1028     TIP3     OH2      OT      -0.834000       15.9994           0
      3083 W2       1028     TIP3     H1       HT       0.417000       1.00800           0
      3084 W2       1028     TIP3     H2       HT       0.417000       1.00800           0
      3085 W2       1029     TIP3     OH2      OT      -0.834000       15.9994           0
      3086 W2       1029     TIP3     H1       HT       0.417000       1.00800           0
      3087 W2       1029     TIP3     H2       HT       0.417000       1.00800           0
      3088 W2       1030     TIP3     OH2      OT      -0.834000       15.9994           0
      3089 W2       1030     TIP3     H1       HT       0.417000       1.00800           0
      3090 W2       1030     TIP3     H2       HT       0.417000       1.00800           0
      3091 W2       1031     TIP3     OH2      OT      -0.834000       15.9994           0
      3092 W2       1031     TIP3     H1       HT       0.417000       1.00800           0
      3093 W2       1031     TIP3     H2       HT       0.417000       1.00800           0
      3094 W2       1032     TIP3     OH2      OT      -0.834000       15.9994           0
      3095 W2       1032     TIP3     H1       HT       0.417000       1.00800           0
      3096 W2       1032     TIP3     H2       HT       0.417000       1.00800           0
      3097 W2       1033     TIP3     OH2      OT      -0.834000       15.9994           0
      3098 W2       1033     TIP3     H1       HT       0.417000       1.00800           0
      3099 W2       1033     TIP3     H2       HT       0.417000       1.00800           0
      3100 W2       1034     TIP3     OH2      OT      -0.834000       15.9994           0
      3101 W2       1034     TIP3     H1       HT       0.417000       1.00800           0
      3102 W2       1034     TIP3     H2       HT       0.417000       1.00800           0
      3103 W2       1035     TIP3     OH2      OT      -0.834000       15.9994           0
      3104 W2       1035     TIP3     H1       HT       0.417000       1.00800           0
      3105 W2       1035     TIP3     H2       HT       0.417000       1.00800           0
      3106 W2       1036     TIP3     OH2      OT      -0.834000       15.9994           0
      3107 W2       1036     TIP3     H1       HT       0.417000       1.00800           0
      3108 W2       1036     TIP3     H2       HT       0.417000       1.00800           0
      3109 W2       1037     TIP3     OH2      OT      -0.834000       15.9994           0
      3110 W2       1037     TIP3     H1       HT       0.417000       1.00800           0
      3111 W2       1037     TIP3     H2       HT       0.417000       1.00800           0
      3112 W2       1038     TIP3     OH2      OT      -0.834000       15.9994           0
      3113 W2       1038     TIP3     H1       HT       0.417000       1.00800           0
      3114 W2       1038     TIP3     H2       HT       0.417000       1.00800           0
      3115 W2       1039     TIP3     OH2      OT      -0.834000       15.9994           0
      3116 W2       1039     TIP3     H1       HT       0.417000       1.00800           0
      3117 W2       1039     TIP3     H2       HT       0.417000       1.00800           0
      3118 W2       1040     TIP3     OH2      OT      -0.834000       15.9994           0
      3119 W2       1040     TIP3     H1       HT       0.417000       1.00800           0
      3120 W2       1040     TIP3     H2       HT       0.417000       1.00800           0
      3121 W2       1041     TIP3     OH2      OT      -0.834000       15.9994           0
      3122 W2       1041     TIP3     H1       HT       0.417000       1.00800           0
      3123 W2       1041     TIP3     H2       HT       0.417000       1.00800           0
      3124 W2       1042     TIP3     OH2      OT      -0.834000       15.9994           0
      3125 W2       1042     TIP3     H1       HT       0.417000       1.00800           0
      3126 W2       1042     TIP3     H2       HT       0.417000       1.00800           0
      3127 W2       1043     TIP3     OH2      OT      -0.834000       15.9994           0
      3128 W2       1043     TIP3     H1       HT       0.417000       1.00800           0
      3129 W2       1043     TIP3     H2       HT       0.417000       1.00800           0
      3130 W2       1044     TIP3     OH2      OT      -0.834000       15.9994           0
      3131 W2       1044     TIP3     H1       HT       0.417000       1.00800           0
      3132 W2       1044     TIP3     H2       HT       0.417000       1.00800           0
      3133 W2       1045     TIP3     OH2      OT      -0.834000       15.9994           0
      3134 W2       1045     TIP3     H1       HT       0.417000       1.00800           0
      3135 W2       1045     TIP3     H2       HT       0.417000       1.00800           0
      3136 W2       1046     TIP3     OH2      OT      -0.834000       15.9994           0
      3137 W2       1046     TIP3     H1       HT       0.417000       1.00800           0
      3138 W2       1046     TIP3     H2       HT       0.417000       1.00800           0
      3139 W2       1047     TIP3     OH2      OT      -0.834000       15.9994           0
      3140 W2       1047     TIP3     H1       HT       0.417000       1.00800           0
      3141 W2       1047     TIP3     H2       HT       0.417000       1.00800           0
      3142 W2       1048     TIP3     OH2      OT      -0.834000       15.9994           0
      3143 W2       1048     TIP3     H1       HT       0.417000       1.00800           0
      3144 W2       1048     TIP3     H2       HT       0.417000       1.00800           0
      3145 W2       1049     TIP3     OH2      OT      -0.834000       15.9994           0
      3146 W2       1049     TIP3     H1       HT       0.417000       1.00800           0
      3147 W2       1049     TIP3     H2       HT       0.417000       1.00800           0
      3148 W2       1050     TIP3     OH2      OT      -0.834000       15.9994           0
      3149 W2       1050     TIP3     H1       HT       0.417000       1.00800           0
      3150 W2       1050     TIP3     H2       HT       0.417000       1.00800           0
      3151 W2       1051     TIP3     OH2      OT      -0.834000       15.9994           0
      3152 W2       1051     TIP3     H1       HT       0.417000       1.00800           0
      3153 W2       1051     TIP3     H2       HT       0.417000       1.00800           0
      3154 W2       1052     TIP3     OH2      OT      -0.834000       15.9994           0
      3155 W2       1052     TIP3     H1       HT       0.417000       1.00800           0
      3156 W2       1052     TIP3     H2       HT       0.417000       1.00800           0
      3157 W2       1053     TIP3     OH2      OT      -0.834000       15.9994           0
      3158 W2       1053     TIP3     H1       HT       0.417000       1.00800           0
      3159 W2       1053     TIP3     H2       HT       0.417000       1.00800           0
      3160 W2       1054     TIP3     OH2      OT      -0.834000       15.9994           0
      3161 W2       1054     TIP3     H1       HT       0.417000       1.00800           0
      3162 W2       1054     TIP3     H2       HT       0.417000       1.00800           0
      3163 W2       1055     TIP3     OH2      OT      -0.834000       15.9994           0
      3164 W2       1055     TIP3     H1       HT       0.417000       1.00800           0
      3165 W2       1055     TIP3     H2       HT       0.417000       1.00800           0
      3166 W2       1056     TIP3     OH2      OT      -0.834000       15.9994           0
      3167 W2       1056     TIP3     H1       HT       0.417000       1.00800           0
      3168 W2       1056     TIP3     H2       HT       0.417000       1.00800           0
      3169 W2       1057     TIP3     OH2      OT      -0.834000       15.9994           0
      3170 W2       1057     TIP3     H1       HT       0.417000       1.00800           0
      3171 W2       1057     TIP3     H2       HT       0.417000       1.00800           0
      3172 W2       1058     TIP3     OH2      OT      -0.834000       15.9994           0
      3173 W2       1058     TIP3     H1       HT       0.417000       1.00800           0
      3174 W2       1058     TIP3     H2       HT       0.417000       1.00800           0
      3175 W2       1059     TIP3     OH2      OT      -0.834000       15.9994           0
      3176 W2       1059     TIP3     H1       HT       0.417000       1.00800           0
      3177 W2       1059     TIP3     H2       HT       0.417000       1.00800           0
      3178 W2       1060     TIP3     OH2      OT      -0.834000       15.9994           0
      3179 W2       1060     TIP3     H1       HT       0.417000       1.00800           0
      3180 W2       1060     TIP3     H2       HT       0.417000       1.00800           0
      3181 W2       1061     TIP3     OH2      OT      -0.834000       15.9994           0
      3182 W2       1061     TIP3     H1       HT       0.417000       1.00800           0
      3183 W2       1061     TIP3     H2       HT       0.417000       1.00800           0
      3184 W2       1062     TIP3     OH2      OT      -0.834000       15.9994           0
      3185 W2       1062     TIP3     H1       HT       0.417000       1.00800           0
      3186 W2       1062     TIP3     H2       HT       0.417000       1.00800           0
      3187 W2       1063     TIP3     OH2      OT      -0.834000       15.9994           0
      3188 W2       1063     TIP3     H1       HT       0.417000       1.00800           0
      3189 W2       1063     TIP3     H2       HT       0.417000       1.00800           0
      3190 W2       1064     TIP3     OH2      OT      -0.834000       15.9994           0
      3191 W2       1064     TIP3     H1       HT       0.417000       1.00800           0
      3192 W2       1064     TIP3     H2       HT       0.417000       1.00800           0
      3193 W2       1065     TIP3     OH2      OT      -0.834000       15.9994           0
      3194 W2       1065     TIP3     H1       HT       0.417000       1.00800           0
      3195 W2       1065     TIP3     H2       HT       0.417000       1.00800           0
      3196 W2       1066     TIP3     OH2      OT      -0.834000       15.9994           0
      3197 W2       1066     TIP3     H1       HT       0.417000       1.00800           0
      3198 W2       1066     TIP3     H2       HT       0.417000       1.00800           0
      3199 W2       1067     TIP3     OH2      OT      -0.834000       15.9994           0
      3200 W2       1067     TIP3     H1       HT       0.417000       1.00800           0
      3201 W2       1067     TIP3     H2       HT       0.417000       1.00800           0
      3202 W2       1068     TIP3     OH2      OT      -0.834000       15.9994           0
      3203 W2       1068     TIP3     H1       HT       0.417000       1.00800           0
      3204 W2       1068     TIP3     H2       HT       0.417000       1.00800           0
      3205 W2       1069     TIP3     OH2      OT      -0.834000       15.9994           0
      3206 W2       1069     TIP3     H1       HT       0.417000       1.00800           0
      3207 W2       1069     TIP3     H2       HT       0.417000       1.00800           0
      3208 W2       1070     TIP3     OH2      OT      -0.834000       15.9994           0
      3209 W2       1070     TIP3     H1       HT       0.417000       1.00800           0
      3210 W2       1070     TIP3     H2       HT       0.417000       1.00800           0
      3211 W2       1071     TIP3     OH2      OT      -0.834000       15.9994           0
      3212 W2       1071     TIP3     H1       HT       0.417000       1.00800           0
      3213 W2       1071     TIP3     H2       HT       0.417000       1.00800           0
      3214 W2       1072     TIP3     OH2      OT      -0.834000       15.9994           0
      3215 W2       1072     TIP3     H1       HT       0.417000       1.00800           0
      3216 W2       1072     TIP3     H2       HT       0.417000       1.00800           0
      3217 W2       1073     TIP3     OH2      OT      -0.834000       15.9994           0
      3218 W2       1073     TIP3     H1       HT       0.417000       1.00800           0
      3219 W2       1073     TIP3     H2       HT       0.417000       1.00800           0
      3220 W2       1074     TIP3     OH2      OT      -0.834000       15.9994           0
      3221 W2       1074     TIP3     H1       HT       0.417000       1.00800           0
      3222 W2       1074     TIP3     H2       HT       0.417000       1.00800           0
      3223 W2       1075     TIP3     OH2      OT      -0.834000       15.9994           0
      3224 W2       1075     TIP3     H1       HT       0.417000       1.00800           0
      3225 W2       1075     TIP3     H2       HT       0.417000       1.00800           0
      3226 W2       1076     TIP3     OH2      OT      -0.834000       15.9994           0
      3227 W2       1076     TIP3     H1       HT       0.417000       1.00800           0
      3228 W2       1076     TIP3     H2       HT       0.417000       1.00800           0
      3229 W2       1077     TIP3     OH2      OT      -0.834000       15.9994           0
      3230 W2       1077     TIP3     H1       HT       0.417000       1.00800           0
      3231 W2       1077     TIP3     H2       HT       0.417000       1.00800           0
      3232 W2       1078     TIP3     OH2      OT      -0.834000       15.9994           0
      3233 W2       1078     TIP3     H1       HT       0.417000       1.00800           0
      3234 W2       1078     TIP3     H2       HT       0.417000       1.00800           0
      3235 W2       1079     TIP3     OH2      OT      -0.834000       15.9994           0
      3236 W2       1079     TIP3     H1       HT       0.417000       1.00800           0
      3237 W2       1079     TIP3     H2       HT       0.417000       1.00800           0
      3238 W2       1080     TIP3     OH2      OT      -0.834000       15.9994           0
      3239 W2       1080     TIP3     H1       HT       0.417000       1.00800           0
      3240 W2       1080     TIP3     H2       HT       0.417000       1.00800           0
      3241 W2       1081     TIP3     OH2      OT      -0.834000       15.9994           0
      3242 W2       1081     TIP3     H1       HT       0.417000       1.00800           0
      3243 W2       1081     TIP3     H2       HT       0.417000       1.00800           0
      3244 W2       1082     TIP3     OH2      OT      -0.834000       15.9994           0
      3245 W2       1082     TIP3     H1       HT       0.417000       1.00800           0
      3246 W2       1082     TIP3     H2       HT       0.417000       1.00800           0
      3247 W2       1083     TIP3     OH2      OT      -0.834000       15.9994           0
      3248 W2       1083     TIP3     H1       HT       0.417000       1.00800           0
      3249 W2       1083     TIP3     H2       HT       0.417000       1.00800           0
      3250 W2       1084     TIP3     OH2      OT      -0.834000       15.9994           0
      3251 W2       1084     TIP3     H1       HT       0.417000       1.00800           0
      3252 W2       1084     TIP3     H2       HT       0.417000       1.00800           0
      3253 W2       1085     TIP3     OH2      OT      -0.834000       15.9994           0
      3254 W2       1085     TIP3     H1       HT       0.417000       1.00800           0
      3255 W2       1085     TIP3     H2       HT       0.417000       1.00800           0
      3256 W2       1086     TIP3     OH2      OT      -0.834000       15.9994           0
      3257 W2       1086     TIP3     H1       HT       0.417000       1.00800           0
      3258 W2       1086     TIP3     H2       HT       0.417000       1.00800           0
      3259 W2       1087     TIP3     OH2      OT      -0.834000       15.9994           0
      3260 W2       1087     TIP3     H1       HT       0.417000       1.00800           0
      3261 W2       1087     TIP3     H2       HT       0.417000       1.00800           0
      3262 W2       1088     TIP3     OH2      OT      -0.834000       15.9994           0
      3263 W2       1088     TIP3     H1       HT       0.417000       1.00800           0
      3264 W2       1088     TIP3     H2       HT       0.417000       1.00800           0
      3265 W2       1089     TIP3     OH2      OT      -0.834000       15.9994           0
      3266 W2       1089     TIP3     H1       HT       0.417000       1.00800           0
      3267 W2       1089     TIP3     H2       HT       0.417000       1.00800           0
      3268 W2       1090     TIP3     OH2      OT      -0.834000       15.9994           0
      3269 W2       1090     TIP3     H1       HT       0.417000       1.00800           0
      3270 W2       1090     TIP3     H2       HT       0.417000       1.00800           0
      3271 W2       1091     TIP3     OH2      OT      -0.834000       15.9994           0
      3272 W2       1091     TIP3     H1       HT       0.417000       1.00800           0
      3273 W2       1091     TIP3     H2       HT       0.417000       1.00800           0
      3274 W2       1092     TIP3     OH2      OT      -0.834000       15.9994           0
      3275 W2       1092     TIP3     H1       HT       0.417000       1.00800           0
      3276 W2       1092     TIP3     H2       HT       0.417000       1.00800           0
      3277 W2       1093     TIP3     OH2      OT      -0.834000       15.9994           0
      3278 W2       1093     TIP3     H1       HT       0.417000       1.00800           0
      3279 W2       1093     TIP3     H2       HT       0.417000       1.00800           0
      3280 W2       1094     TIP3     OH2      OT      -0.834000       15.9994           0
      3281 W2       1094     TIP3     H1       HT       0.417000       1.00800           0
      3282 W2       1094     TIP3     H2       HT       0.417000       1.00800           0
      3283 W2       1095     TIP3     OH2      OT      -0.834000       15.9994           0
      3284 W2       1095     TIP3     H1       HT       0.417000       1.00800           0
      3285 W2       1095     TIP3     H2       HT       0.417000       1.00800           0
      3286 W2       1096     TIP3     OH2      OT      -0.834000       15.9994           0
      3287 W2       1096     TIP3     H1       HT       0.417000       1.00800           0
      3288 W2       1096     TIP3     H2       HT       0.417000       1.00800           0
      3289 W2       1097     TIP3     OH2      OT      -0.834000       15.9994           0
      3290 W2       1097     TIP3     H1       HT       0.417000       1.00800           0
      3291 W2       1097     TIP3     H2       HT       0.417000       1.00800           0
      3292 W2       1098     TIP3     OH2      OT      -0.834000       15.9994           0
      3293 W2       1098     TIP3     H1       HT       0.417000       1.00800           0
      3294 W2       1098     TIP3     H2       HT       0.417000       1.00800           0
      3295 W2       1099     TIP3     OH2      OT      -0.834000       15.9994           0
      3296 W2       1099     TIP3     H1       HT       0.417000       1.00800           0
      3297 W2       1099     TIP3     H2       HT       0.417000       1.00800           0
      3298 W2       1100     TIP3     OH2      OT      -0.834000       15.9994           0
      3299 W2       1100     TIP3     H1       HT       0.417000       1.00800           0
      3300 W2       1100     TIP3     H2       HT       0.417000       1.00800           0
      3301 W2       1101     TIP3     OH2      OT      -0.834000       15.9994           0
      3302 W2       1101     TIP3     H1       HT       0.417000       1.00800           0
      3303 W2       1101     TIP3     H2       HT       0.417000       1.00800           0
      3304 W2       1102     TIP3     OH2      OT      -0.834000       15.9994           0
      3305 W2       1102     TIP3     H1       HT       0.417000       1.00800           0
      3306 W2       1102     TIP3     H2       HT       0.417000       1.00800           0
      3307 W2       1103     TIP3     OH2      OT      -0.834000       15.9994           0
      3308 W2       1103     TIP3     H1       HT       0.417000       1.00800           0
      3309 W2       1103     TIP3     H2       HT       0.417000       1.00800           0
      3310 W2       1104     TIP3     OH2      OT      -0.834000       15.9994           0
      3311 W2       1104     TIP3     H1       HT       0.417000       1.00800           0
      3312 W2       1104     TIP3     H2       HT       0.417000       1.00800           0
      3313 W2       1105     TIP3     OH2      OT      -0.834000       15.9994           0
      3314 W2       1105     TIP3     H1       HT       0.417000       1.00800           0
      3315 W2       1105     TIP3     H2       HT       0.417000       1.00800           0
      3316 W2       1106     TIP3     OH2      OT      -0.834000       15.9994           0
      3317 W2       1106     TIP3     H1       HT       0.417000       1.00800           0
      3318 W2       1106     TIP3     H2       HT       0.417000       1.00800           0
      3319 W2       1107     TIP3     OH2      OT      -0.834000       15.9994           0
      3320 W2       1107     TIP3     H1       HT       0.417000       1.00800           0
      3321 W2       1107     TIP3     H2       HT       0.417000       1.00800           0
      3322 W2       1108     TIP3     OH2      OT      -0.834000       15.9994           0
      3323 W2       1108     TIP3     H1       HT       0.417000       1.00800           0
      3324 W2       1108     TIP3     H2       HT       0.417000       1.00800           0
      3325 W2       1109     TIP3     OH2      OT      -0.834000       15.9994           0
      3326 W2       1109     TIP3     H1       HT       0.417000       1.00800           0
      3327 W2       1109     TIP3     H2       HT       0.417000       1.00800           0
      3328 W2       1110     TIP3     OH2      OT      -0.834000       15.9994           0
      3329 W2       1110     TIP3     H1       HT       0.417000       1.00800           0
      3330 W2       1110     TIP3     H2       HT       0.417000       1.00800           0
      3331 W2       1111     TIP3     OH2      OT      -0.834000       15.9994           0
      3332 W2       1111     TIP3     H1       HT       0.417000       1.00800           0
      3333 W2       1111     TIP3     H2       HT       0.417000       1.00800           0
      3334 W2       1112     TIP3     OH2      OT      -0.834000       15.9994           0
      3335 W2       1112     TIP3     H1       HT       0.417000       1.00800           0
      3336 W2       1112     TIP3     H2       HT       0.417000       1.00800           0
      3337 W2       1113     TIP3     OH2      OT      -0.834000       15.9994           0
      3338 W2       1113     TIP3     H1       HT       0.417000       1.00800           0
      3339 W2       1113     TIP3     H2       HT       0.417000       1.00800           0
      3340 W2       1114     TIP3     OH2      OT      -0.834000       15.9994           0
      3341 W2       1114     TIP3     H1       HT       0.417000       1.00800           0
      3342 W2       1114     TIP3     H2       HT       0.417000       1.00800           0
      3343 W2       1115     TIP3     OH2      OT      -0.834000       15.9994           0
      3344 W2       1115     TIP3     H1       HT       0.417000       1.00800           0
      3345 W2       1115     TIP3     H2       HT       0.417000       1.00800           0
      3346 W2       1116     TIP3     OH2      OT      -0.834000       15.9994           0
      3347 W2       1116     TIP3     H1       HT       0.417000       1.00800           0
      3348 W2       1116     TIP3     H2       HT       0.417000       1.00800           0
      3349 W2       1117     TIP3     OH2      OT      -0.834000       15.9994           0
      3350 W2       1117     TIP3     H1       HT       0.417000       1.00800           0
      3351 W2       1117     TIP3     H2       HT       0.417000       1.00800           0
      3352 W2       1118     TIP3     OH2      OT      -0.834000       15.9994           0
      3353 W2       1118     TIP3     H1       HT       0.417000       1.00800           0
      3354 W2       1118     TIP3     H2       HT       0.417000       1.00800           0
      3355 W2       1119     TIP3     OH2      OT      -0.834000       15.9994           0
      3356 W2       1119     TIP3     H1       HT       0.417000       1.00800           0
      3357 W2       1119     TIP3     H2       HT       0.417000       1.00800           0
      3358 W2       1120     TIP3     OH2      OT      -0.834000       15.9994           0
      3359 W2       1120     TIP3     H1       HT       0.417000       1.00800           0
      3360 W2       1120     TIP3     H2       HT       0.417000       1.00800           0
      3361 W2       1121     TIP3     OH2      OT      -0.834000       15.9994           0
      3362 W2       1121     TIP3     H1       HT       0.417000       1.00800           0
      3363 W2       1121     TIP3     H2       HT       0.417000       1.00800           0
      3364 W2       1122     TIP3     OH2      OT      -0.834000       15.9994           0
      3365 W2       1122     TIP3     H1       HT       0.417000       1.00800           0
      3366 W2       1122     TIP3     H2       HT       0.417000       1.00800           0
      3367 W2       1123     TIP3     OH2      OT      -0.834000       15.9994           0
      3368 W2       1123     TIP3     H1       HT       0.417000       1.00800           0
      3369 W2       1123     TIP3     H2       HT       0.417000       1.00800           0
      3370 W2       1124     TIP3     OH2      OT      -0.834000       15.9994           0
      3371 W2       1124     TIP3     H1       HT       0.417000       1.00800           0
      3372 W2       1124     TIP3     H2       HT       0.417000       1.00800           0
      3373 W2       1125     TIP3     OH2      OT      -0.834000       15.9994           0
      3374 W2       1125     TIP3     H1       HT       0.417000       1.00800           0
      3375 W2       1125     TIP3     H2       HT       0.417000       1.00800           0
      3376 W2       1126     TIP3     OH2      OT      -0.834000       15.9994           0
      3377 W2       1126     TIP3     H1       HT       0.417000       1.00800           0
      3378 W2       1126     TIP3     H2       HT       0.417000       1.00800           0
      3379 W2       1127     TIP3     OH2      OT      -0.834000       15.9994           0
      3380 W2       1127     TIP3     H1       HT       0.417000       1.00800           0
      3381 W2       1127     TIP3     H2       HT       0.417000       1.00800           0
      3382 W2       1128     TIP3     OH2      OT      -0.834000       15.9994           0
      3383 W2       1128     TIP3     H1       HT       0.417000       1.00800           0
      3384 W2       1128     TIP3     H2       HT       0.417000       1.00800           0
      3385 W2       1129     TIP3     OH2      OT      -0.834000       15.9994           0
      3386 W2       1129     TIP3     H1       HT       0.417000       1.00800           0
      3387 W2       1129     TIP3     H2       HT       0.417000       1.00800           0
      3388 W2       1130     TIP3     OH2      OT      -0.834000       15.9994           0
      3389 W2       1130     TIP3     H1       HT       0.417000       1.00800           0
      3390 W2       1130     TIP3     H2       HT       0.417000       1.00800           0
      3391 W2       1131     TIP3     OH2      OT      -0.834000       15.9994           0
      3392 W2       1131     TIP3     H1       HT       0.417000       1.00800           0
      3393 W2       1131     TIP3     H2       HT       0.417000       1.00800           0
      3394 W2       1132     TIP3     OH2      OT      -0.834000       15.9994           0
      3395 W2       1132     TIP3     H1       HT       0.417000       1.00800           0
      3396 W2       1132     TIP3     H2       HT       0.417000       1.00800           0
      3397 W2       1133     TIP3     OH2      OT      -0.834000       15.9994           0
      3398 W2       1133     TIP3     H1       HT       0.417000       1.00800           0
      3399 W2       1133     TIP3     H2       HT       0.417000       1.00800           0
      3400 W2       1134     TIP3     OH2      OT      -0.834000       15.9994           0
      3401 W2       1134     TIP3     H1       HT       0.417000       1.00800           0
      3402 W2       1134     TIP3     H2       HT       0.417000       1.00800           0
      3403 W2       1135     TIP3     OH2      OT      -0.834000       15.9994           0
      3404 W2       1135     TIP3     H1       HT       0.417000       1.00800           0
      3405 W2       1135     TIP3     H2       HT       0.417000       1.00800           0
      3406 W2       1136     TIP3     OH2      OT      -0.834000       15.9994           0
      3407 W2       1136     TIP3     H1       HT       0.417000       1.00800           0
      3408 W2       1136     TIP3     H2       HT       0.417000       1.00800           0
      3409 W2       1137     TIP3     OH2      OT      -0.834000       15.9994           0
      3410 W2       1137     TIP3     H1       HT       0.417000       1.00800           0
      3411 W2       1137     TIP3     H2       HT       0.417000       1.00800           0
      3412 W2       1138     TIP3     OH2      OT      -0.834000       15.9994           0
      3413 W2       1138     TIP3     H1       HT       0.417000       1.00800           0
      3414 W2       1138     TIP3     H2       HT       0.417000       1.00800           0
      3415 W2       1139     TIP3     OH2      OT      -0.834000       15.9994           0
      3416 W2       1139     TIP3     H1       HT       0.417000       1.00800           0
      3417 W2       1139     TIP3     H2       HT       0.417000       1.00800           0
      3418 W2       1140     TIP3     OH2      OT      -0.834000       15.9994           0
      3419 W2       1140     TIP3     H1       HT       0.417000       1.00800           0
      3420 W2       1140     TIP3     H2       HT       0.417000       1.00800           0
      3421 W2       1141     TIP3     OH2      OT      -0.834000       15.9994           0
      3422 W2       1141     TIP3     H1       HT       0.417000       1.00800           0
      3423 W2       1141     TIP3     H2       HT       0.417000       1.00800           0
      3424 W2       1142     TIP3     OH2      OT      -0.834000       15.9994           0
      3425 W2       1142     TIP3     H1       HT       0.417000       1.00800           0
      3426 W2       1142     TIP3     H2       HT       0.417000       1.00800           0
      3427 W2       1143     TIP3     OH2      OT      -0.834000       15.9994           0
      3428 W2       1143     TIP3     H1       HT       0.417000       1.00800           0
      3429 W2       1143     TIP3     H2       HT       0.417000       1.00800           0
      3430 W2       1144     TIP3     OH2      OT      -0.834000       15.9994           0
      3431 W2       1144     TIP3     H1       HT       0.417000       1.00800           0
      3432 W2       1144     TIP3     H2       HT       0.417000       1.00800           0
      3433 W2       1145     TIP3     OH2      OT      -0.834000       15.9994           0
      3434 W2       1145     TIP3     H1       HT       0.417000       1.00800           0
      3435 W2       1145     TIP3     H2       HT       0.417000       1.00800           0
      3436 W2       1146     TIP3     OH2      OT      -0.834000       15.9994           0
      3437 W2       1146     TIP3     H1       HT       0.417000       1.00800           0
      3438 W2       1146     TIP3     H2       HT       0.417000       1.00800           0
      3439 W2       1147     TIP3     OH2      OT      -0.834000       15.9994           0
      3440 W2       1147     TIP3     H1       HT       0.417000       1.00800           0
      3441 W2       1147     TIP3     H2       HT       0.417000       1.00800           0
      3442 W2       1148     TIP3     OH2      OT      -0.834000       15.9994           0
      3443 W2       1148     TIP3     H1       HT       0.417000       1.00800           0
      3444 W2       1148     TIP3     H2       HT       0.417000       1.00800           0
      3445 W2       1149     TIP3     OH2      OT      -0.834000       15.9994           0
      3446 W2       1149     TIP3     H1       HT       0.417000       1.00800           0
      3447 W2       1149     TIP3     H2       HT       0.417000       1.00800           0
      3448 W2       1150     TIP3     OH2      OT      -0.834000       15.9994           0
      3449 W2       1150     TIP3     H1       HT       0.417000       1.00800           0
      3450 W2       1150     TIP3     H2       HT       0.417000       1.00800           0
      3451 W2       1151     TIP3     OH2      OT      -0.834000       15.9994           0
      3452 W2       1151     TIP3     H1       HT       0.417000       1.00800           0
      3453 W2       1151     TIP3     H2       HT       0.417000       1.00800           0
      3454 W2       1152     TIP3     OH2      OT      -0.834000       15.9994           0
      3455 W2       1152     TIP3     H1       HT       0.417000       1.00800           0
      3456 W2       1152     TIP3     H2       HT       0.417000       1.00800           0
      3457 W2       1153     TIP3     OH2      OT      -0.834000       15.9994           0
      3458 W2       1153     TIP3     H1       HT       0.417000       1.00800           0
      3459 W2       1153     TIP3     H2       HT       0.417000       1.00800           0
      3460 W2       1154     TIP3     OH2      OT      -0.834000       15.9994           0
      3461 W2       1154     TIP3     H1       HT       0.417000       1.00800           0
      3462 W2       1154     TIP3     H2       HT       0.417000       1.00800           0
      3463 W2       1155     TIP3     OH2      OT      -0.834000       15.9994           0
      3464 W2       1155     TIP3     H1       HT       0.417000       1.00800           0
      3465 W2       1155     TIP3     H2       HT       0.417000       1.00800           0
      3466 W2       1156     TIP3     OH2      OT      -0.834000       15.9994           0
      3467 W2       1156     TIP3     H1       HT       0.417000       1.00800           0
      3468 W2       1156     TIP3     H2       HT       0.417000       1.00800           0
      3469 W2       1157     TIP3     OH2      OT      -0.834000       15.9994           0
      3470 W2       1157     TIP3     H1       HT       0.417000       1.00800           0
      3471 W2       1157     TIP3     H2       HT       0.417000       1.00800           0
      3472 W2       1158     TIP3     OH2      OT      -0.834000       15.9994           0
      3473 W2       1158     TIP3     H1       HT       0.417000       1.00800           0
      3474 W2       1158     TIP3     H2       HT       0.417000       1.00800           0
      3475 W2       1159     TIP3     OH2      OT      -0.834000       15.9994           0
      3476 W2       1159     TIP3     H1       HT       0.417000       1.00800           0
      3477 W2       1159     TIP3     H2       HT       0.417000       1.00800           0
      3478 W2       1160     TIP3     OH2      OT      -0.834000       15.9994           0
      3479 W2       1160     TIP3     H1       HT       0.417000       1.00800           0
      3480 W2       1160     TIP3     H2       HT       0.417000       1.00800           0
      3481 W2       1161     TIP3     OH2      OT      -0.834000       15.9994           0
      3482 W2       1161     TIP3     H1       HT       0.417000       1.00800           0
      3483 W2       1161     TIP3     H2       HT       0.417000       1.00800           0
      3484 W2       1162     TIP3     OH2      OT      -0.834000       15.9994           0
      3485 W2       1162     TIP3     H1       HT       0.417000       1.00800           0
      3486 W2       1162     TIP3     H2       HT       0.417000       1.00800           0
      3487 W2       1163     TIP3     OH2      OT      -0.834000       15.9994           0
      3488 W2       1163     TIP3     H1       HT       0.417000       1.00800           0
      3489 W2       1163     TIP3     H2       HT       0.417000       1.00800           0
      3490 W2       1164     TIP3     OH2      OT      -0.834000       15.9994           0
      3491 W2       1164     TIP3     H1       HT       0.417000       1.00800           0
      3492 W2       1164     TIP3     H2       HT       0.417000       1.00800           0
      3493 W2       1165     TIP3     OH2      OT      -0.834000       15.9994           0
      3494 W2       1165     TIP3     H1       HT       0.417000       1.00800           0
      3495 W2       1165     TIP3     H2       HT       0.417000       1.00800           0
      3496 W2       1166     TIP3     OH2      OT      -0.834000       15.9994           0
      3497 W2       1166     TIP3     H1       HT       0.417000       1.00800           0
      3498 W2       1166     TIP3     H2       HT       0.417000       1.00800           0
      3499 W2       1167     TIP3     OH2      OT      -0.834000       15.9994           0
      3500 W2       1167     TIP3     H1       HT       0.417000       1.00800           0
      3501 W2       1167     TIP3     H2       HT       0.417000       1.00800           0
      3502 W2       1168     TIP3     OH2      OT      -0.834000       15.9994           0
      3503 W2       1168     TIP3     H1       HT       0.417000       1.00800           0
      3504 W2       1168     TIP3     H2       HT       0.417000       1.00800           0
      3505 W2       1169     TIP3     OH2      OT      -0.834000       15.9994           0
      3506 W2       1169     TIP3     H1       HT       0.417000       1.00800           0
      3507 W2       1169     TIP3     H2       HT       0.417000       1.00800           0
      3508 W2       1170     TIP3     OH2      OT      -0.834000       15.9994           0
      3509 W2       1170     TIP3     H1       HT       0.417000       1.00800           0
      3510 W2       1170     TIP3     H2       HT       0.417000       1.00800           0
      3511 W2       1171     TIP3     OH2      OT      -0.834000       15.9994           0
      3512 W2       1171     TIP3     H1       HT       0.417000       1.00800           0
      3513 W2       1171     TIP3     H2       HT       0.417000       1.00800           0
      3514 W2       1172     TIP3     OH2      OT      -0.834000       15.9994           0
      3515 W2       1172     TIP3     H1       HT       0.417000       1.00800           0
      3516 W2       1172     TIP3     H2       HT       0.417000       1.00800           0
      3517 W2       1173     TIP3     OH2      OT      -0.834000       15.9994           0
      3518 W2       1173     TIP3     H1       HT       0.417000       1.00800           0
      3519 W2       1173     TIP3     H2       HT       0.417000       1.00800           0
      3520 W2       1174     TIP3     OH2      OT      -0.834000       15.9994           0
      3521 W2       1174     TIP3     H1       HT       0.417000       1.00800           0
      3522 W2       1174     TIP3     H2       HT       0.417000       1.00800           0
      3523 W2       1175     TIP3     OH2      OT      -0.834000       15.9994           0
      3524 W2       1175     TIP3     H1       HT       0.417000       1.00800           0
      3525 W2       1175     TIP3     H2       HT       0.417000       1.00800           0
      3526 W2       1176     TIP3     OH2      OT      -0.834000       15.9994           0
      3527 W2       1176     TIP3     H1       HT       0.417000       1.00800           0
      3528 W2       1176     TIP3     H2       HT       0.417000       1.00800           0
      3529 W2       1177     TIP3     OH2      OT      -0.834000       15.9994           0
      3530 W2       1177     TIP3     H1       HT       0.417000       1.00800           0
      3531 W2       1177     TIP3     H2       HT       0.417000       1.00800           0
      3532 W2       1178     TIP3     OH2      OT      -0.834000       15.9994           0
      3533 W2       1178     TIP3     H1       HT       0.417000       1.00800           0
      3534 W2       1178     TIP3     H2       HT       0.417000       1.00800           0
      3535 W2       1179     TIP3     OH2      OT      -0.834000       15.9994           0
      3536 W2       1179     TIP3     H1       HT       0.417000       1.00800           0
      3537 W2       1179     TIP3     H2       HT       0.417000       1.00800           0
      3538 W2       1180     TIP3     OH2      OT      -0.834000       15.9994           0
      3539 W2       1180     TIP3     H1       HT       0.417000       1.00800           0
      3540 W2       1180     TIP3     H2       HT       0.417000       1.00800           0
      3541 W2       1181     TIP3     OH2      OT      -0.834000       15.9994           0
      3542 W2       1181     TIP3     H1       HT       0.417000       1.00800           0
      3543 W2       1181     TIP3     H2       HT       0.417000       1.00800           0
      3544 W2       1182     TIP3     OH2      OT      -0.834000       15.9994           0
      3545 W2       1182     TIP3     H1       HT       0.417000       1.00800           0
      3546 W2       1182     TIP3     H2       HT       0.417000       1.00800           0
      3547 W2       1183     TIP3     OH2      OT      -0.834000       15.9994           0
      3548 W2       1183     TIP3     H1       HT       0.417000       1.00800           0
      3549 W2       1183     TIP3     H2       HT       0.417000       1.00800           0
      3550 W2       1184     TIP3     OH2      OT      -0.834000       15.9994           0
      3551 W2       1184     TIP3     H1       HT       0.417000       1.00800           0
      3552 W2       1184     TIP3     H2       HT       0.417000       1.00800           0
      3553 W2       1185     TIP3     OH2      OT      -0.834000       15.9994           0
      3554 W2       1185     TIP3     H1       HT       0.417000       1.00800           0
      3555 W2       1185     TIP3     H2       HT       0.417000       1.00800           0
      3556 W2       1186     TIP3     OH2      OT      -0.834000       15.9994           0
      3557 W2       1186     TIP3     H1       HT       0.417000       1.00800           0
      3558 W2       1186     TIP3     H2       HT       0.417000       1.00800           0
      3559 W2       1187     TIP3     OH2      OT      -0.834000       15.9994           0
      3560 W2       1187     TIP3     H1       HT       0.417000       1.00800           0
      3561 W2       1187     TIP3     H2       HT       0.417000       1.00800           0
      3562 W2       1188     TIP3     OH2      OT      -0.834000       15.9994           0
      3563 W2       1188     TIP3     H1       HT       0.417000       1.00800           0
      3564 W2       1188     TIP3     H2       HT       0.417000       1.00800           0
      3565 W2       1189     TIP3     OH2      OT      -0.834000       15.9994           0
      3566 W2       1189     TIP3     H1       HT       0.417000       1.00800           0
      3567 W2       1189     TIP3     H2       HT       0.417000       1.00800           0
      3568 W2       1190     TIP3     OH2      OT      -0.834000       15.9994           0
      3569 W2       1190     TIP3     H1       HT       0.417000       1.00800           0
      3570 W2       1190     TIP3     H2       HT       0.417000       1.00800           0
      3571 W2       1191     TIP3     OH2      OT      -0.834000       15.9994           0
      3572 W2       1191     TIP3     H1       HT       0.417000       1.00800           0
      3573 W2       1191     TIP3     H2       HT       0.417000       1.00800           0
      3574 W2       1192     TIP3     OH2      OT      -0.834000       15.9994           0
      3575 W2       1192     TIP3     H1       HT       0.417000       1.00800           0
      3576 W2       1192     TIP3     H2       HT       0.417000       1.00800           0
      3577 W2       1193     TIP3     OH2      OT      -0.834000       15.9994           0
      3578 W2       1193     TIP3     H1       HT       0.417000       1.00800           0
      3579 W2       1193     TIP3     H2       HT       0.417000       1.00800           0
      3580 W2       1194     TIP3     OH2      OT      -0.834000       15.9994           0
      3581 W2       1194     TIP3     H1       HT       0.417000       1.00800           0
      3582 W2       1194     TIP3     H2       HT       0.417000       1.00800           0
      3583 W2       1195     TIP3     OH2      OT      -0.834000       15.9994           0
      3584 W2       1195     TIP3     H1       HT       0.417000       1.00800           0
      3585 W2       1195     TIP3     H2       HT       0.417000       1.00800           0
      3586 W2       1196     TIP3     OH2      OT      -0.834000       15.9994           0
      3587 W2       1196     TIP3     H1       HT       0.417000       1.00800           0
      3588 W2       1196     TIP3     H2       HT       0.417000       1.00800           0
      3589 W2       1197     TIP3     OH2      OT      -0.834000       15.9994           0
      3590 W2       1197     TIP3     H1       HT       0.417000       1.00800           0
      3591 W2       1197     TIP3     H2       HT       0.417000       1.00800           0
      3592 W2       1198     TIP3     OH2      OT      -0.834000       15.9994           0
      3593 W2       1198     TIP3     H1       HT       0.417000       1.00800           0
      3594 W2       1198     TIP3     H2       HT       0.417000       1.00800           0
      3595 W2       1199     TIP3     OH2      OT      -0.834000       15.9994           0
      3596 W2       1199     TIP3     H1       HT       0.417000       1.00800           0
      3597 W2       1199     TIP3     H2       HT       0.417000       1.00800           0
      3598 W2       1200     TIP3     OH2      OT      -0.834000       15.9994           0
      3599 W2       1200     TIP3     H1       HT       0.417000       1.00800           0
      3600 W2       1200     TIP3     H2       HT       0.417000       1.00800           0
      3601 W2       1201     TIP3     OH2      OT      -0.834000       15.9994           0
      3602 W2       1201     TIP3     H1       HT       0.417000       1.00800           0
      3603 W2       1201     TIP3     H2       HT       0.417000       1.00800           0
      3604 W2       1202     TIP3     OH2      OT      -0.834000       15.9994           0
      3605 W2       1202     TIP3     H1       HT       0.417000       1.00800           0
      3606 W2       1202     TIP3     H2       HT       0.417000       1.00800           0
      3607 W2       1203     TIP3     OH2      OT      -0.834000       15.9994           0
      3608 W2       1203     TIP3     H1       HT       0.417000       1.00800           0
      3609 W2       1203     TIP3     H2       HT       0.417000       1.00800           0
      3610 W2       1204     TIP3     OH2      OT      -0.834000       15.9994           0
      3611 W2       1204     TIP3     H1       HT       0.417000       1.00800           0
      3612 W2       1204     TIP3     H2       HT       0.417000       1.00800           0
      3613 W2       1205     TIP3     OH2      OT      -0.834000       15.9994           0
      3614 W2       1205     TIP3     H1       HT       0.417000       1.00800           0
      3615 W2       1205     TIP3     H2       HT       0.417000       1.00800           0
      3616 W2       1206     TIP3     OH2      OT      -0.834000       15.9994           0
      3617 W2       1206     TIP3     H1       HT       0.417000       1.00800           0
      3618 W2       1206     TIP3     H2       HT       0.417000       1.00800           0
      3619 W2       1207     TIP3     OH2      OT      -0.834000       15.9994           0
      3620 W2       1207     TIP3     H1       HT       0.417000       1.00800           0
      3621 W2       1207     TIP3     H2       HT       0.417000       1.00800           0
      3622 W2       1208     TIP3     OH2      OT      -0.834000       15.9994           0
      3623 W2       1208     TIP3     H1       HT       0.417000       1.00800           0
      3624 W2       1208     TIP3     H2       HT       0.417000       1.00800           0
      3625 W2       1209     TIP3     OH2      OT      -0.834000       15.9994           0
      3626 W2       1209     TIP3     H1       HT       0.417000       1.00800           0
      3627 W2       1209     TIP3     H2       HT       0.417000       1.00800           0
      3628 W2       1210     TIP3     OH2      OT      -0.834000       15.9994           0
      3629 W2       1210     TIP3     H1       HT       0.417000       1.00800           0
      3630 W2       1210     TIP3     H2       HT       0.417000       1.00800           0
      3631 W2       1211     TIP3     OH2      OT      -0.834000       15.9994           0
      3632 W2       1211     TIP3     H1       HT       0.417000       1.00800           0
      3633 W2       1211     TIP3     H2       HT       0.417000       1.00800           0
      3634 W2       1212     TIP3     OH2      OT      -0.834000       15.9994           0
      3635 W2       1212     TIP3     H1       HT       0.417000       1.00800           0
      3636 W2       1212     TIP3     H2       HT       0.417000       1.00800           0
      3637 W2       1213     TIP3     OH2      OT      -0.834000       15.9994           0
      3638 W2       1213     TIP3     H1       HT       0.417000       1.00800           0
      3639 W2       1213     TIP3     H2       HT       0.417000       1.00800           0
      3640 W2       1214     TIP3     OH2      OT      -0.834000       15.9994           0
      3641 W2       1214     TIP3     H1       HT       0.417000       1.00800           0
      3642 W2       1214     TIP3     H2       HT       0.417000       1.00800           0
      3643 W2       1215     TIP3     OH2      OT      -0.834000       15.9994           0
      3644 W2       1215     TIP3     H1       HT       0.417000       1.00800           0
      3645 W2       1215     TIP3     H2       HT       0.417000       1.00800           0
      3646 W2       1216     TIP3     OH2      OT      -0.834000       15.9994           0
      3647 W2       1216     TIP3     H1       HT       0.417000       1.00800           0
      3648 W2       1216     TIP3     H2       HT       0.417000       1.00800           0
      3649 W2       1217     TIP3     OH2      OT      -0.834000       15.9994           0
      3650 W2       1217     TIP3     H1       HT       0.417000       1.00800           0
      3651 W2       1217     TIP3     H2       HT       0.417000       1.00800           0
      3652 W2       1218     TIP3     OH2      OT      -0.834000       15.9994           0
      3653 W2       1218     TIP3     H1       HT       0.417000       1.00800           0
      3654 W2       1218     TIP3     H2       HT       0.417000       1.00800           0
      3655 W2       1219     TIP3     OH2      OT      -0.834000       15.9994           0
      3656 W2       1219     TIP3     H1       HT       0.417000       1.00800           0
      3657 W2       1219     TIP3     H2       HT       0.417000       1.00800           0
      3658 W2       1220     TIP3     OH2      OT      -0.834000       15.9994           0
      3659 W2       1220     TIP3     H1       HT       0.417000       1.00800           0
      3660 W2       1220     TIP3     H2       HT       0.417000       1.00800           0
      3661 W2       1221     TIP3     OH2      OT      -0.834000       15.9994           0
      3662 W2       1221     TIP3     H1       HT       0.417000       1.00800           0
      3663 W2       1221     TIP3     H2       HT       0.417000       1.00800           0
      3664 W2       1222     TIP3     OH2      OT      -0.834000       15.9994           0
      3665 W2       1222     TIP3     H1       HT       0.417000       1.00800           0
      3666 W2       1222     TIP3     H2       HT       0.417000       1.00800           0
      3667 W2       1223     TIP3     OH2      OT      -0.834000       15.9994           0
      3668 W2       1223     TIP3     H1       HT       0.417000       1.00800           0
      3669 W2       1223     TIP3     H2       HT       0.417000       1.00800           0
      3670 W2       1224     TIP3     OH2      OT      -0.834000       15.9994           0
      3671 W2       1224     TIP3     H1       HT       0.417000       1.00800           0
      3672 W2       1224     TIP3     H2       HT       0.417000       1.00800           0
      3673 W2       1225     TIP3     OH2      OT      -0.834000       15.9994           0
      3674 W2       1225     TIP3     H1       HT       0.417000       1.00800           0
      3675 W2       1225     TIP3     H2       HT       0.417000       1.00800           0
      3676 W2       1226     TIP3     OH2      OT      -0.834000       15.9994           0
      3677 W2       1226     TIP3     H1       HT       0.417000       1.00800           0
      3678 W2       1226     TIP3     H2       HT       0.417000       1.00800           0
      3679 W2       1227     TIP3     OH2      OT      -0.834000       15.9994           0
      3680 W2       1227     TIP3     H1       HT       0.417000       1.00800           0
      3681 W2       1227     TIP3     H2       HT       0.417000       1.00800           0
      3682 W2       1228     TIP3     OH2      OT      -0.834000       15.9994           0
      3683 W2       1228     TIP3     H1       HT       0.417000       1.00800           0
      3684 W2       1228     TIP3     H2       HT       0.417000       1.00800           0
      3685 W2       1229     TIP3     OH2      OT      -0.834000       15.9994           0
      3686 W2       1229     TIP3     H1       HT       0.417000       1.00800           0
      3687 W2       1229     TIP3     H2       HT       0.417000       1.00800           0
      3688 W2       1230     TIP3     OH2      OT      -0.834000       15.9994           0
      3689 W2       1230     TIP3     H1       HT       0.417000       1.00800           0
      3690 W2       1230     TIP3     H2       HT       0.417000       1.00800           0
      3691 W2       1231     TIP3     OH2      OT      -0.834000       15.9994           0
      3692 W2       1231     TIP3     H1       HT       0.417000       1.00800           0
      3693 W2       1231     TIP3     H2       HT       0.417000       1.00800           0
      3694 W2       1232     TIP3     OH2      OT      -0.834000       15.9994           0
      3695 W2       1232     TIP3     H1       HT       0.417000       1.00800           0
      3696 W2       1232     TIP3     H2       HT       0.417000       1.00800           0
      3697 W2       1233     TIP3     OH2      OT      -0.834000       15.9994           0
      3698 W2       1233     TIP3     H1       HT       0.417000       1.00800           0
      3699 W2       1233     TIP3     H2       HT       0.417000       1.00800           0
      3700 W2       1234     TIP3     OH2      OT      -0.834000       15.9994           0
      3701 W2       1234     TIP3     H1       HT       0.417000       1.00800           0
      3702 W2       1234     TIP3     H2       HT       0.417000       1.00800           0
      3703 W2       1235     TIP3     OH2      OT      -0.834000       15.9994           0
      3704 W2       1235     TIP3     H1       HT       0.417000       1.00800           0
      3705 W2       1235     TIP3     H2       HT       0.417000       1.00800           0
      3706 W2       1236     TIP3     OH2      OT      -0.834000       15.9994           0
      3707 W2       1236     TIP3     H1       HT       0.417000       1.00800           0
      3708 W2       1236     TIP3     H2       HT       0.417000       1.00800           0
      3709 W2       1237     TIP3     OH2      OT      -0.834000       15.9994           0
      3710 W2       1237     TIP3     H1       HT       0.417000       1.00800           0
      3711 W2       1237     TIP3     H2       HT       0.417000       1.00800           0
      3712 W2       1238     TIP3     OH2      OT      -0.834000       15.9994           0
      3713 W2       1238     TIP3     H1       HT       0.417000       1.00800           0
      3714 W2       1238     TIP3     H2       HT       0.417000       1.00800           0
      3715 W2       1239     TIP3     OH2      OT      -0.834000       15.9994           0
      3716 W2       1239     TIP3     H1       HT       0.417000       1.00800           0
      3717 W2       1239     TIP3     H2       HT       0.417000       1.00800           0
      3718 W2       1240     TIP3     OH2      OT      -0.834000       15.9994           0
      3719 W2       1240     TIP3     H1       HT       0.417000       1.00800           0
      3720 W2       1240     TIP3     H2       HT       0.417000       1.00800           0
      3721 W2       1241     TIP3     OH2      OT      -0.834000       15.9994           0
      3722 W2       1241     TIP3     H1       HT       0.417000       1.00800           0
      3723 W2       1241     TIP3     H2       HT       0.417000       1.00800           0
      3724 W2       1242     TIP3     OH2      OT      -0.834000       15.9994           0
      3725 W2       1242     TIP3     H1       HT       0.417000       1.00800           0
      3726 W2       1242     TIP3     H2       HT       0.417000       1.00800           0
      3727 W2       1243     TIP3     OH2      OT      -0.834000       15.9994           0
      3728 W2       1243     TIP3     H1       HT       0.417000       1.00800           0
      3729 W2       1243     TIP3     H2       HT       0.417000       1.00800           0
      3730 W2       1244     TIP3     OH2      OT      -0.834000       15.9994           0
      3731 W2       1244     TIP3     H1       HT       0.417000       1.00800           0
      3732 W2       1244     TIP3     H2       HT       0.417000       1.00800           0
      3733 W2       1245     TIP3     OH2      OT      -0.834000       15.9994           0
      3734 W2       1245     TIP3     H1       HT       0.417000       1.00800           0
      3735 W2       1245     TIP3     H2       HT       0.417000       1.00800           0
      3736 W2       1246     TIP3     OH2      OT      -0.834000       15.9994           0
      3737 W2       1246     TIP3     H1       HT       0.417000       1.00800           0
      3738 W2       1246     TIP3     H2       HT       0.417000       1.00800           0
      3739 W2       1247     TIP3     OH2      OT      -0.834000       15.9994           0
      3740 W2       1247     TIP3     H1       HT       0.417000       1.00800           0
      3741 W2       1247     TIP3     H2       HT       0.417000       1.00800           0
      3742 W2       1248     TIP3     OH2      OT      -0.834000       15.9994           0
      3743 W2       1248     TIP3     H1       HT       0.417000       1.00800           0
      3744 W2       1248     TIP3     H2       HT       0.417000       1.00800           0
      3745 W2       1249     TIP3     OH2      OT      -0.834000       15.9994           0
      3746 W2       1249     TIP3     H1       HT       0.417000       1.00800           0
      3747 W2       1249     TIP3     H2       HT       0.417000       1.00800           0
      3748 W2       1250     TIP3     OH2      OT      -0.834000       15.9994           0
      3749 W2       1250     TIP3     H1       HT       0.417000       1.00800           0
      3750 W2       1250     TIP3     H2       HT       0.417000       1.00800           0
      3751 W2       1251     TIP3     OH2      OT      -0.834000       15.9994           0
      3752 W2       1251     TIP3     H1       HT       0.417000       1.00800           0
      3753 W2       1251     TIP3     H2       HT       0.417000       1.00800           0
      3754 W2       1252     TIP3     OH2      OT      -0.834000       15.9994           0
      3755 W2       1252     TIP3     H1       HT       0.417000       1.00800           0
      3756 W2       1252     TIP3     H2       HT       0.417000       1.00800           0
      3757 W2       1253     TIP3     OH2      OT      -0.834000       15.9994           0
      3758 W2       1253     TIP3     H1       HT       0.417000       1.00800           0
      3759 W2       1253     TIP3     H2       HT       0.417000       1.00800           0
      3760 W2       1254     TIP3     OH2      OT      -0.834000       15.9994           0
      3761 W2       1254     TIP3     H1       HT       0.417000       1.00800           0
      3762 W2       1254     TIP3     H2       HT       0.417000       1.00800           0
      3763 W2       1255     TIP3     OH2      OT      -0.834000       15.9994           0
      3764 W2       1255     TIP3     H1       HT       0.417000       1.00800           0
      3765 W2       1255     TIP3     H2       HT       0.417000       1.00800           0
      3766 W2       1256     TIP3     OH2      OT      -0.834000       15.9994           0
      3767 W2       1256     TIP3     H1       HT       0.417000       1.00800           0
      3768 W2       1256     TIP3     H2       HT       0.417000       1.00800           0
      3769 W2       1257     TIP3     OH2      OT      -0.834000       15.9994           0
      3770 W2       1257     TIP3     H1       HT       0.417000       1.00800           0
      3771 W2       1257     TIP3     H2       HT       0.417000       1.00800           0
      3772 W2       1258     TIP3     OH2      OT      -0.834000       15.9994           0
      3773 W2       1258     TIP3     H1       HT       0.417000       1.00800           0
      3774 W2       1258     TIP3     H2       HT       0.417000       1.00800           0
      3775 W2       1259     TIP3     OH2      OT      -0.834000       15.9994           0
      3776 W2       1259     TIP3     H1       HT       0.417000       1.00800           0
      3777 W2       1259     TIP3     H2       HT       0.417000       1.00800           0
      3778 W2       1260     TIP3     OH2      OT      -0.834000       15.9994           0
      3779 W2       1260     TIP3     H1       HT       0.417000       1.00800           0
      3780 W2       1260     TIP3     H2       HT       0.417000       1.00800           0
      3781 W2       1261     TIP3     OH2      OT      -0.834000       15.9994           0
      3782 W2       1261     TIP3     H1       HT       0.417000       1.00800           0
      3783 W2       1261     TIP3     H2       HT       0.417000       1.00800           0
      3784 W2       1262     TIP3     OH2      OT      -0.834000       15.9994           0
      3785 W2       1262     TIP3     H1       HT       0.417000       1.00800           0
      3786 W2       1262     TIP3     H2       HT       0.417000       1.00800           0
      3787 W2       1263     TIP3     OH2      OT      -0.834000       15.9994           0
      3788 W2       1263     TIP3     H1       HT       0.417000       1.00800           0
      3789 W2       1263     TIP3     H2       HT       0.417000       1.00800           0
      3790 W2       1264     TIP3     OH2      OT      -0.834000       15.9994           0
      3791 W2       1264     TIP3     H1       HT       0.417000       1.00800           0
      3792 W2       1264     TIP3     H2       HT       0.417000       1.00800           0
      3793 W2       1265     TIP3     OH2      OT      -0.834000       15.9994           0
      3794 W2       1265     TIP3     H1       HT       0.417000       1.00800           0
      3795 W2       1265     TIP3     H2       HT       0.417000       1.00800           0
      3796 W2       1266     TIP3     OH2      OT      -0.834000       15.9994           0
      3797 W2       1266     TIP3     H1       HT       0.417000       1.00800           0
      3798 W2       1266     TIP3     H2       HT       0.417000       1.00800           0
      3799 W2       1267     TIP3     OH2      OT      -0.834000       15.9994           0
      3800 W2       1267     TIP3     H1       HT       0.417000       1.00800           0
      3801 W2       1267     TIP3     H2       HT       0.417000       1.00800           0
      3802 W2       1268     TIP3     OH2      OT      -0.834000       15.9994           0
      3803 W2       1268     TIP3     H1       HT       0.417000       1.00800           0
      3804 W2       1268     TIP3     H2       HT       0.417000       1.00800           0
      3805 W2       1269     TIP3     OH2      OT      -0.834000       15.9994           0
      3806 W2       1269     TIP3     H1       HT       0.417000       1.00800           0
      3807 W2       1269     TIP3     H2       HT       0.417000       1.00800           0
      3808 W2       1270     TIP3     OH2      OT      -0.834000       15.9994           0
      3809 W2       1270     TIP3     H1       HT       0.417000       1.00800           0
      3810 W2       1270     TIP3     H2       HT       0.417000       1.00800           0
      3811 W2       1271     TIP3     OH2      OT      -0.834000       15.9994           0
      3812 W2       1271     TIP3     H1       HT       0.417000       1.00800           0
      3813 W2       1271     TIP3     H2       HT       0.417000       1.00800           0
      3814 W2       1272     TIP3     OH2      OT      -0.834000       15.9994           0
      3815 W2       1272     TIP3     H1       HT       0.417000       1.00800           0
      3816 W2       1272     TIP3     H2       HT       0.417000       1.00800           0
      3817 W2       1273     TIP3     OH2      OT      -0.834000       15.9994           0
      3818 W2       1273     TIP3     H1       HT       0.417000       1.00800           0
      3819 W2       1273     TIP3     H2       HT       0.417000       1.00800           0
      3820 W2       1274     TIP3     OH2      OT      -0.834000       15.9994           0
      3821 W2       1274     TIP3     H1       HT       0.417000       1.00800           0
      3822 W2       1274     TIP3     H2       HT       0.417000       1.00800           0
      3823 W2       1275     TIP3     OH2      OT      -0.834000       15.9994           0
      3824 W2       1275     TIP3     H1       HT       0.417000       1.00800           0
      3825 W2       1275     TIP3     H2       HT       0.417000       1.00800           0
      3826 W2       1276     TIP3     OH2      OT      -0.834000       15.9994           0
      3827 W2       1276     TIP3     H1       HT       0.417000       1.00800           0
      3828 W2       1276     TIP3     H2       HT       0.417000       1.00800           0
      3829 W2       1277     TIP3     OH2      OT      -0.834000       15.9994           0
      3830 W2       1277     TIP3     H1       HT       0.417000       1.00800           0
      3831 W2       1277     TIP3     H2       HT       0.417000       1.00800           0
      3832 W2       1278     TIP3     OH2      OT      -0.834000       15.9994           0
      3833 W2       1278     TIP3     H1       HT       0.417000       1.00800           0
      3834 W2       1278     TIP3     H2       HT       0.417000       1.00800           0
      3835 W2       1279     TIP3     OH2      OT      -0.834000       15.9994           0
      3836 W2       1279     TIP3     H1       HT       0.417000       1.00800           0
      3837 W2       1279     TIP3     H2       HT       0.417000       1.00800           0
      3838 W2       1280     TIP3     OH2      OT      -0.834000       15.9994           0
      3839 W2       1280     TIP3     H1       HT       0.417000       1.00800           0
      3840 W2       1280     TIP3     H2       HT       0.417000       1.00800           0
      3841 W2       1281     TIP3     OH2      OT      -0.834000       15.9994           0
      3842 W2       1281     TIP3     H1       HT       0.417000       1.00800           0
      3843 W2       1281     TIP3     H2       HT       0.417000       1.00800           0
      3844 W2       1282     TIP3     OH2      OT      -0.834000       15.9994           0
      3845 W2       1282     TIP3     H1       HT       0.417000       1.00800           0
      3846 W2       1282     TIP3     H2       HT       0.417000       1.00800           0
      3847 W2       1283     TIP3     OH2      OT      -0.834000       15.9994           0
      3848 W2       1283     TIP3     H1       HT       0.417000       1.00800           0
      3849 W2       1283     TIP3     H2       HT       0.417000       1.00800           0
      3850 W2       1284     TIP3     OH2      OT      -0.834000       15.9994           0
      3851 W2       1284     TIP3     H1       HT       0.417000       1.00800           0
      3852 W2       1284     TIP3     H2       HT       0.417000       1.00800           0
      3853 W2       1285     TIP3     OH2      OT      -0.834000       15.9994           0
      3854 W2       1285     TIP3     H1       HT       0.417000       1.00800           0
      3855 W2       1285     TIP3     H2       HT       0.417000       1.00800           0
      3856 W2       1286     TIP3     OH2      OT      -0.834000       15.9994           0
      3857 W2       1286     TIP3     H1       HT       0.417000       1.00800           0
      3858 W2       1286     TIP3     H2       HT       0.417000       1.00800           0
      3859 W2       1287     TIP3     OH2      OT      -0.834000       15.9994           0
      3860 W2       1287     TIP3     H1       HT       0.417000       1.00800           0
      3861 W2       1287     TIP3     H2       HT       0.417000       1.00800           0
      3862 W2       1288     TIP3     OH2      OT      -0.834000       15.9994           0
      3863 W2       1288     TIP3     H1       HT       0.417000       1.00800           0
      3864 W2       1288     TIP3     H2       HT       0.417000       1.00800           0
      3865 W2       1289     TIP3     OH2      OT      -0.834000       15.9994           0
      3866 W2       1289     TIP3     H1       HT       0.417000       1.00800           0
      3867 W2       1289     TIP3     H2       HT       0.417000       1.00800           0
      3868 W2       1290     TIP3     OH2      OT      -0.834000       15.9994           0
      3869 W2       1290     TIP3     H1       HT       0.417000       1.00800           0
      3870 W2       1290     TIP3     H2       HT       0.417000       1.00800           0
      3871 W2       1291     TIP3     OH2      OT      -0.834000       15.9994           0
      3872 W2       1291     TIP3     H1       HT       0.417000       1.00800           0
      3873 W2       1291     TIP3     H2       HT       0.417000       1.00800           0
      3874 W2       1292     TIP3     OH2      OT      -0.834000       15.9994           0
      3875 W2       1292     TIP3     H1       HT       0.417000       1.00800           0
      3876 W2       1292     TIP3     H2       HT       0.417000       1.00800           0
      3877 W2       1293     TIP3     OH2      OT      -0.834000       15.9994           0
      3878 W2       1293     TIP3     H1       HT       0.417000       1.00800           0
      3879 W2       1293     TIP3     H2       HT       0.417000       1.00800           0
      3880 W2       1294     TIP3     OH2      OT      -0.834000       15.9994           0
      3881 W2       1294     TIP3     H1       HT       0.417000       1.00800           0
      3882 W2       1294     TIP3     H2       HT       0.417000       1.00800           0
      3883 W2       1295     TIP3     OH2      OT      -0.834000       15.9994           0
      3884 W2       1295     TIP3     H1       HT       0.417000       1.00800           0
      3885 W2       1295     TIP3     H2       HT       0.417000       1.00800           0
      3886 W2       1296     TIP3     OH2      OT      -0.834000       15.9994           0
      3887 W2       1296     TIP3     H1       HT       0.417000       1.00800           0
      3888 W2       1296     TIP3     H2       HT       0.417000       1.00800           0
      3889 W2       1297     TIP3     OH2      OT      -0.834000       15.9994           0
      3890 W2       1297     TIP3     H1       HT       0.417000       1.00800           0
      3891 W2       1297     TIP3     H2       HT       0.417000       1.00800           0
      3892 W2       1298     TIP3     OH2      OT      -0.834000       15.9994           0
      3893 W2       1298     TIP3     H1       HT       0.417000       1.00800           0
      3894 W2       1298     TIP3     H2       HT       0.417000       1.00800           0
      3895 W2       1299     TIP3     OH2      OT      -0.834000       15.9994           0
      3896 W2       1299     TIP3     H1       HT       0.417000       1.00800           0
      3897 W2       1299     TIP3     H2       HT       0.417000       1.00800           0
      3898 W2       1300     TIP3     OH2      OT      -0.834000       15.9994           0
      3899 W2       1300     TIP3     H1       HT       0.417000       1.00800           0
      3900 W2       1300     TIP3     H2       HT       0.417000       1.00800           0
      3901 W2       1301     TIP3     OH2      OT      -0.834000       15.9994           0
      3902 W2       1301     TIP3     H1       HT       0.417000       1.00800           0
      3903 W2       1301     TIP3     H2       HT       0.417000       1.00800           0
      3904 W2       1302     TIP3     OH2      OT      -0.834000       15.9994           0
      3905 W2       1302     TIP3     H1       HT       0.417000       1.00800           0
      3906 W2       1302     TIP3     H2       HT       0.417000       1.00800           0
      3907 W2       1303     TIP3     OH2      OT      -0.834000       15.9994           0
      3908 W2       1303     TIP3     H1       HT       0.417000       1.00800           0
      3909 W2       1303     TIP3     H2       HT       0.417000       1.00800           0
      3910 W2       1304     TIP3     OH2      OT      -0.834000       15.9994           0
      3911 W2       1304     TIP3     H1       HT       0.417000       1.00800           0
      3912 W2       1304     TIP3     H2       HT       0.417000       1.00800           0
      3913 W2       1305     TIP3     OH2      OT      -0.834000       15.9994           0
      3914 W2       1305     TIP3     H1       HT       0.417000       1.00800           0
      3915 W2       1305     TIP3     H2       HT       0.417000       1.00800           0
      3916 W2       1306     TIP3     OH2      OT      -0.834000       15.9994           0
      3917 W2       1306     TIP3     H1       HT       0.417000       1.00800           0
      3918 W2       1306     TIP3     H2       HT       0.417000       1.00800           0
      3919 W2       1307     TIP3     OH2      OT      -0.834000       15.9994           0
      3920 W2       1307     TIP3     H1       HT       0.417000       1.00800           0
      3921 W2       1307     TIP3     H2       HT       0.417000       1.00800           0
      3922 W2       1308     TIP3     OH2      OT      -0.834000       15.9994           0
      3923 W2       1308     TIP3     H1       HT       0.417000       1.00800           0
      3924 W2       1308     TIP3     H2       HT       0.417000       1.00800           0
      3925 W2       1309     TIP3     OH2      OT      -0.834000       15.9994           0
      3926 W2       1309     TIP3     H1       HT       0.417000       1.00800           0
      3927 W2       1309     TIP3     H2       HT       0.417000       1.00800           0
      3928 W2       1310     TIP3     OH2      OT      -0.834000       15.9994           0
      3929 W2       1310     TIP3     H1       HT       0.417000       1.00800           0
      3930 W2       1310     TIP3     H2       HT       0.417000       1.00800           0
      3931 W2       1311     TIP3     OH2      OT      -0.834000       15.9994           0
      3932 W2       1311     TIP3     H1       HT       0.417000       1.00800           0
      3933 W2       1311     TIP3     H2       HT       0.417000       1.00800           0
      3934 W2       1312     TIP3     OH2      OT      -0.834000       15.9994           0
      3935 W2       1312     TIP3     H1       HT       0.417000       1.00800           0
      3936 W2       1312     TIP3     H2       HT       0.417000       1.00800           0
      3937 W2       1313     TIP3     OH2      OT      -0.834000       15.9994           0
      3938 W2       1313     TIP3     H1       HT       0.417000       1.00800           0
      3939 W2       1313     TIP3     H2       HT       0.417000       1.00800           0
      3940 W2       1314     TIP3     OH2      OT      -0.834000       15.9994           0
      3941 W2       1314     TIP3     H1       HT       0.417000       1.00800           0
      3942 W2       1314     TIP3     H2       HT       0.417000       1.00800           0
      3943 W2       1315     TIP3     OH2      OT      -0.834000       15.9994           0
      3944 W2       1315     TIP3     H1       HT       0.417000       1.00800           0
      3945 W2       1315     TIP3     H2       HT       0.417000       1.00800           0
      3946 W2       1316     TIP3     OH2      OT      -0.834000       15.9994           0
      3947 W2       1316     TIP3     H1       HT       0.417000       1.00800           0
      3948 W2       1316     TIP3     H2       HT       0.417000       1.00800           0
      3949 W2       1317     TIP3     OH2      OT      -0.834000       15.9994           0
      3950 W2       1317     TIP3     H1       HT       0.417000       1.00800           0
      3951 W2       1317     TIP3     H2       HT       0.417000       1.00800           0
      3952 W2       1318     TIP3     OH2      OT      -0.834000       15.9994           0
      3953 W2       1318     TIP3     H1       HT       0.417000       1.00800           0
      3954 W2       1318     TIP3     H2       HT       0.417000       1.00800           0
      3955 W2       1319     TIP3     OH2      OT      -0.834000       15.9994           0
      3956 W2       1319     TIP3     H1       HT       0.417000       1.00800           0
      3957 W2       1319     TIP3     H2       HT       0.417000       1.00800           0
      3958 W2       1320     TIP3     OH2      OT      -0.834000       15.9994           0
      3959 W2       1320     TIP3     H1       HT       0.417000       1.00800           0
      3960 W2       1320     TIP3     H2       HT       0.417000       1.00800           0
      3961 W2       1321     TIP3     OH2      OT      -0.834000       15.9994           0
      3962 W2       1321     TIP3     H1       HT       0.417000       1.00800           0
      3963 W2       1321     TIP3     H2       HT       0.417000       1.00800           0
      3964 W2       1322     TIP3     OH2      OT      -0.834000       15.9994           0
      3965 W2       1322     TIP3     H1       HT       0.417000       1.00800           0
      3966 W2       1322     TIP3     H2       HT       0.417000       1.00800           0
      3967 W2       1323     TIP3     OH2      OT      -0.834000       15.9994           0
      3968 W2       1323     TIP3     H1       HT       0.417000       1.00800           0
      3969 W2       1323     TIP3     H2       HT       0.417000       1.00800           0
      3970 W2       1324     TIP3     OH2      OT      -0.834000       15.9994           0
      3971 W2       1324     TIP3     H1       HT       0.417000       1.00800           0
      3972 W2       1324     TIP3     H2       HT       0.417000       1.00800           0
      3973 W2       1325     TIP3     OH2      OT      -0.834000       15.9994           0
      3974 W2       1325     TIP3     H1       HT       0.417000       1.00800           0
      3975 W2       1325     TIP3     H2       HT       0.417000       1.00800           0
      3976 W2       1326     TIP3     OH2      OT      -0.834000       15.9994           0
      3977 W2       1326     TIP3     H1       HT       0.417000       1.00800           0
      3978 W2       1326     TIP3     H2       HT       0.417000       1.00800           0
      3979 W2       1327     TIP3     OH2      OT      -0.834000       15.9994           0
      3980 W2       1327     TIP3     H1       HT       0.417000       1.00800           0
      3981 W2       1327     TIP3     H2       HT       0.417000       1.00800           0
      3982 W2       1328     TIP3     OH2      OT      -0.834000       15.9994           0
      3983 W2       1328     TIP3     H1       HT       0.417000       1.00800           0
      3984 W2       1328     TIP3     H2       HT       0.417000       1.00800           0
      3985 W2       1329     TIP3     OH2      OT      -0.834000       15.9994           0
      3986 W2       1329     TIP3     H1       HT       0.417000       1.00800           0
      3987 W2       1329     TIP3     H2       HT       0.417000       1.00800           0
      3988 W2       1330     TIP3     OH2      OT      -0.834000       15.9994           0
      3989 W2       1330     TIP3     H1       HT       0.417000       1.00800           0
      3990 W2       1330     TIP3     H2       HT       0.417000       1.00800           0
      3991 W2       1331     TIP3     OH2      OT      -0.834000       15.9994           0
      3992 W2       1331     TIP3     H1       HT       0.417000       1.00800           0
      3993 W2       1331     TIP3     H2       HT       0.417000       1.00800           0
      3994 W2       1332     TIP3     OH2      OT      -0.834000       15.9994           0
      3995 W2       1332     TIP3     H1       HT       0.417000       1.00800           0
      3996 W2       1332     TIP3     H2       HT       0.417000       1.00800           0
      3997 W2       1333     TIP3     OH2      OT      -0.834000       15.9994           0
      3998 W2       1333     TIP3     H1       HT       0.417000       1.00800           0
      3999 W2       1333     TIP3     H2       HT       0.417000       1.00800           0
      4000 W2       1334     TIP3     OH2      OT      -0.834000       15.9994           0
      4001 W2       1334     TIP3     H1       HT       0.417000       1.00800           0
      4002 W2       1334     TIP3     H2       HT       0.417000       1.00800           0
      4003 W2       1335     TIP3     OH2      OT      -0.834000       15.9994           0
      4004 W2       1335     TIP3     H1       HT       0.417000       1.00800           0
      4005 W2       1335     TIP3     H2       HT       0.417000       1.00800           0
      4006 W2       1336     TIP3     OH2      OT      -0.834000       15.9994           0
      4007 W2       1336     TIP3     H1       HT       0.417000       1.00800           0
      4008 W2       1336     TIP3     H2       HT       0.417000       1.00800           0
      4009 W2       1337     TIP3     OH2      OT      -0.834000       15.9994           0
      4010 W2       1337     TIP3     H1       HT       0.417000       1.00800           0
      4011 W2       1337     TIP3     H2       HT       0.417000       1.00800           0
      4012 W2       1338     TIP3     OH2      OT      -0.834000       15.9994           0
      4013 W2       1338     TIP3     H1       HT       0.417000       1.00800           0
      4014 W2       1338     TIP3     H2       HT       0.417000       1.00800           0
      4015 W2       1339     TIP3     OH2      OT      -0.834000       15.9994           0
      4016 W2       1339     TIP3     H1       HT       0.417000       1.00800           0
      4017 W2       1339     TIP3     H2       HT       0.417000       1.00800           0
      4018 W2       1340     TIP3     OH2      OT      -0.834000       15.9994           0
      4019 W2       1340     TIP3     H1       HT       0.417000       1.00800           0
      4020 W2       1340     TIP3     H2       HT       0.417000       1.00800           0
      4021 W2       1341     TIP3     OH2      OT      -0.834000       15.9994           0
      4022 W2       1341     TIP3     H1       HT       0.417000       1.00800           0
      4023 W2       1341     TIP3     H2       HT       0.417000       1.00800           0
      4024 W2       1342     TIP3     OH2      OT      -0.834000       15.9994           0
      4025 W2       1342     TIP3     H1       HT       0.417000       1.00800           0
      4026 W2       1342     TIP3     H2       HT       0.417000       1.00800           0
      4027 W2       1343     TIP3     OH2      OT      -0.834000       15.9994           0
      4028 W2       1343     TIP3     H1       HT       0.417000       1.00800           0
      4029 W2       1343     TIP3     H2       HT       0.417000       1.00800           0
      4030 W2       1344     TIP3     OH2      OT      -0.834000       15.9994           0
      4031 W2       1344     TIP3     H1       HT       0.417000       1.00800           0
      4032 W2       1344     TIP3     H2       HT       0.417000       1.00800           0
      4033 W2       1345     TIP3     OH2      OT      -0.834000       15.9994           0
      4034 W2       1345     TIP3     H1       HT       0.417000       1.00800           0
      4035 W2       1345     TIP3     H2       HT       0.417000       1.00800           0
      4036 W2       1346     TIP3     OH2      OT      -0.834000       15.9994           0
      4037 W2       1346     TIP3     H1       HT       0.417000       1.00800           0
      4038 W2       1346     TIP3     H2       HT       0.417000       1.00800           0
      4039 W2       1347     TIP3     OH2      OT      -0.834000       15.9994           0
      4040 W2       1347     TIP3     H1       HT       0.417000       1.00800           0
      4041 W2       1347     TIP3     H2       HT       0.417000       1.00800           0
      4042 W2       1348     TIP3     OH2      OT      -0.834000       15.9994           0
      4043 W2       1348     TIP3     H1       HT       0.417000       1.00800           0
      4044 W2       1348     TIP3     H2       HT       0.417000       1.00800           0
      4045 W2       1349     TIP3     OH2      OT      -0.834000       15.9994           0
      4046 W2       1349     TIP3     H1       HT       0.417000       1.00800           0
      4047 W2       1349     TIP3     H2       HT       0.417000       1.00800           0
      4048 W2       1350     TIP3     OH2      OT      -0.834000       15.9994           0
      4049 W2       1350     TIP3     H1       HT       0.417000       1.00800           0
      4050 W2       1350     TIP3     H2       HT       0.417000       1.00800           0
      4051 W2       1351     TIP3     OH2      OT      -0.834000       15.9994           0
      4052 W2       1351     TIP3     H1       HT       0.417000       1.00800           0
      4053 W2       1351     TIP3     H2       HT       0.417000       1.00800           0
      4054 W2       1352     TIP3     OH2      OT      -0.834000       15.9994           0
      4055 W2       1352     TIP3     H1       HT       0.417000       1.00800           0
      4056 W2       1352     TIP3     H2       HT       0.417000       1.00800           0
      4057 W2       1353     TIP3     OH2      OT      -0.834000       15.9994           0
      4058 W2       1353     TIP3     H1       HT       0.417000       1.00800           0
      4059 W2       1353     TIP3     H2       HT       0.417000       1.00800           0
      4060 W2       1354     TIP3     OH2      OT      -0.834000       15.9994           0
      4061 W2       1354     TIP3     H1       HT       0.417000       1.00800           0
      4062 W2       1354     TIP3     H2       HT       0.417000       1.00800           0
      4063 W2       1355     TIP3     OH2      OT      -0.834000       15.9994           0
      4064 W2       1355     TIP3     H1       HT       0.417000       1.00800           0
      4065 W2       1355     TIP3     H2       HT       0.417000       1.00800           0
      4066 W2       1356     TIP3     OH2      OT      -0.834000       15.9994           0
      4067 W2       1356     TIP3     H1       HT       0.417000       1.00800           0
      4068 W2       1356     TIP3     H2       HT       0.417000       1.00800           0
      4069 W2       1357     TIP3     OH2      OT      -0.834000       15.9994           0
      4070 W2       1357     TIP3     H1       HT       0.417000       1.00800           0
      4071 W2       1357     TIP3     H2       HT       0.417000       1.00800           0
      4072 W2       1358     TIP3     OH2      OT      -0.834000       15.9994           0
      4073 W2       1358     TIP3     H1       HT       0.417000       1.00800           0
      4074 W2       1358     TIP3     H2       HT       0.417000       1.00800           0
      4075 W2       1359     TIP3     OH2      OT      -0.834000       15.9994           0
      4076 W2       1359     TIP3     H1       HT       0.417000       1.00800           0
      4077 W2       1359     TIP3     H2       HT       0.417000       1.00800           0
      4078 W2       1360     TIP3     OH2      OT      -0.834000       15.9994           0
      4079 W2       1360     TIP3     H1       HT       0.417000       1.00800           0
      4080 W2       1360     TIP3     H2       HT       0.417000       1.00800           0
      4081 W2       1361     TIP3     OH2      OT      -0.834000       15.9994           0
      4082 W2       1361     TIP3     H1       HT       0.417000       1.00800           0
      4083 W2       1361     TIP3     H2       HT       0.417000       1.00800           0
      4084 W2       1362     TIP3     OH2      OT      -0.834000       15.9994           0
      4085 W2       1362     TIP3     H1       HT       0.417000       1.00800           0
      4086 W2       1362     TIP3     H2       HT       0.417000       1.00800           0
      4087 W2       1363     TIP3     OH2      OT      -0.834000       15.9994           0
      4088 W2       1363     TIP3     H1       HT       0.417000       1.00800           0
      4089 W2       1363     TIP3     H2       HT       0.417000       1.00800           0
      4090 W2       1364     TIP3     OH2      OT      -0.834000       15.9994           0
      4091 W2       1364     TIP3     H1       HT       0.417000       1.00800           0
      4092 W2       1364     TIP3     H2       HT       0.417000       1.00800           0
      4093 W2       1365     TIP3     OH2      OT      -0.834000       15.9994           0
      4094 W2       1365     TIP3     H1       HT       0.417000       1.00800           0
      4095 W2       1365     TIP3     H2       HT       0.417000       1.00800           0
      4096 W2       1366     TIP3     OH2      OT      -0.834000       15.9994           0
      4097 W2       1366     TIP3     H1       HT       0.417000       1.00800           0
      4098 W2       1366     TIP3     H2       HT       0.417000       1.00800           0
      4099 W2       1367     TIP3     OH2      OT      -0.834000       15.9994           0
      4100 W2       1367     TIP3     H1       HT       0.417000       1.00800           0
      4101 W2       1367     TIP3     H2       HT       0.417000       1.00800           0
      4102 W2       1368     TIP3     OH2      OT      -0.834000       15.9994           0
      4103 W2       1368     TIP3     H1       HT       0.417000       1.00800           0
      4104 W2       1368     TIP3     H2       HT       0.417000       1.00800           0
      4105 W2       1369     TIP3     OH2      OT      -0.834000       15.9994           0
      4106 W2       1369     TIP3     H1       HT       0.417000       1.00800           0
      4107 W2       1369     TIP3     H2       HT       0.417000       1.00800           0
      4108 W2       1370     TIP3     OH2      OT      -0.834000       15.9994           0
      4109 W2       1370     TIP3     H1       HT       0.417000       1.00800           0
      4110 W2       1370     TIP3     H2       HT       0.417000       1.00800           0
      4111 W2       1371     TIP3     OH2      OT      -0.834000       15.9994           0
      4112 W2       1371     TIP3     H1       HT       0.417000       1.00800           0
      4113 W2       1371     TIP3     H2       HT       0.417000       1.00800           0
      4114 W2       1372     TIP3     OH2      OT      -0.834000       15.9994           0
      4115 W2       1372     TIP3     H1       HT       0.417000       1.00800           0
      4116 W2       1372     TIP3     H2       HT       0.417000       1.00800           0
      4117 W2       1373     TIP3     OH2      OT      -0.834000       15.9994           0
      4118 W2       1373     TIP3     H1       HT       0.417000       1.00800           0
      4119 W2       1373     TIP3     H2       HT       0.417000       1.00800           0
      4120 W2       1374     TIP3     OH2      OT      -0.834000       15.9994           0
      4121 W2       1374     TIP3     H1       HT       0.417000       1.00800           0
      4122 W2       1374     TIP3     H2       HT       0.417000       1.00800           0
      4123 W2       1375     TIP3     OH2      OT      -0.834000       15.9994           0
      4124 W2       1375     TIP3     H1       HT       0.417000       1.00800           0
      4125 W2       1375     TIP3     H2       HT       0.417000       1.00800           0
      4126 W2       1376     TIP3     OH2      OT      -0.834000       15.9994           0
      4127 W2       1376     TIP3     H1       HT       0.417000       1.00800           0
      4128 W2       1376     TIP3     H2       HT       0.417000       1.00800           0
      4129 W2       1377     TIP3     OH2      OT      -0.834000       15.9994           0
      4130 W2       1377     TIP3     H1       HT       0.417000       1.00800           0
      4131 W2       1377     TIP3     H2       HT       0.417000       1.00800           0
      4132 W2       1378     TIP3     OH2      OT      -0.834000       15.9994           0
      4133 W2       1378     TIP3     H1       HT       0.417000       1.00800           0
      4134 W2       1378     TIP3     H2       HT       0.417000       1.00800           0
      4135 W2       1379     TIP3     OH2      OT      -0.834000       15.9994           0
      4136 W2       1379     TIP3     H1       HT       0.417000       1.00800           0
      4137 W2       1379     TIP3     H2       HT       0.417000       1.00800           0
      4138 W2       1380     TIP3     OH2      OT      -0.834000       15.9994           0
      4139 W2       1380     TIP3     H1       HT       0.417000       1.00800           0
      4140 W2       1380     TIP3     H2       HT       0.417000       1.00800           0
      4141 W2       1381     TIP3     OH2      OT      -0.834000       15.9994           0
      4142 W2       1381     TIP3     H1       HT       0.417000       1.00800           0
      4143 W2       1381     TIP3     H2       HT       0.417000       1.00800           0
      4144 W2       1382     TIP3     OH2      OT      -0.834000       15.9994           0
      4145 W2       1382     TIP3     H1       HT       0.417000       1.00800           0
      4146 W2       1382     TIP3     H2       HT       0.417000       1.00800           0
      4147 W2       1383     TIP3     OH2      OT      -0.834000       15.9994           0
      4148 W2       1383     TIP3     H1       HT       0.417000       1.00800           0
      4149 W2       1383     TIP3     H2       HT       0.417000       1.00800           0
      4150 W2       1384     TIP3     OH2      OT      -0.834000       15.9994           0
      4151 W2       1384     TIP3     H1       HT       0.417000       1.00800           0
      4152 W2       1384     TIP3     H2       HT       0.417000       1.00800           0
      4153 W2       1385     TIP3     OH2      OT      -0.834000       15.9994           0
      4154 W2       1385     TIP3     H1       HT       0.417000       1.00800           0
      4155 W2       1385     TIP3     H2       HT       0.417000       1.00800           0
      4156 W2       1386     TIP3     OH2      OT      -0.834000       15.9994           0
      4157 W2       1386     TIP3     H1       HT       0.417000       1.00800           0
      4158 W2       1386     TIP3     H2       HT       0.417000       1.00800           0
      4159 W2       1387     TIP3     OH2      OT      -0.834000       15.9994           0
      4160 W2       1387     TIP3     H1       HT       0.417000       1.00800           0
      4161 W2       1387     TIP3     H2       HT       0.417000       1.00800           0
      4162 W2       1388     TIP3     OH2      OT      -0.834000       15.9994           0
      4163 W2       1388     TIP3     H1       HT       0.417000       1.00800           0
      4164 W2       1388     TIP3     H2       HT       0.417000       1.00800           0
      4165 W2       1389     TIP3     OH2      OT      -0.834000       15.9994           0
      4166 W2       1389     TIP3     H1       HT       0.417000       1.00800           0
      4167 W2       1389     TIP3     H2       HT       0.417000       1.00800           0
      4168 W2       1390     TIP3     OH2      OT      -0.834000       15.9994           0
      4169 W2       1390     TIP3     H1       HT       0.417000       1.00800           0
      4170 W2       1390     TIP3     H2       HT       0.417000       1.00800           0
      4171 W2       1391     TIP3     OH2      OT      -0.834000       15.9994           0
      4172 W2       1391     TIP3     H1       HT       0.417000       1.00800           0
      4173 W2       1391     TIP3     H2       HT       0.417000       1.00800           0
      4174 W2       1392     TIP3     OH2      OT      -0.834000       15.9994           0
      4175 W2       1392     TIP3     H1       HT       0.417000       1.00800           0
      4176 W2       1392     TIP3     H2       HT       0.417000       1.00800           0
      4177 W2       1393     TIP3     OH2      OT      -0.834000       15.9994           0
      4178 W2       1393     TIP3     H1       HT       0.417000       1.00800           0
      4179 W2       1393     TIP3     H2       HT       0.417000       1.00800           0
      4180 W2       1394     TIP3     OH2      OT      -0.834000       15.9994           0
      4181 W2       1394     TIP3     H1       HT       0.417000       1.00800           0
      4182 W2       1394     TIP3     H2       HT       0.417000       1.00800           0
      4183 W2       1395     TIP3     OH2      OT      -0.834000       15.9994           0
      4184 W2       1395     TIP3     H1       HT       0.417000       1.00800           0
      4185 W2       1395     TIP3     H2       HT       0.417000       1.00800           0
      4186 W2       1396     TIP3     OH2      OT      -0.834000       15.9994           0
      4187 W2       1396     TIP3     H1       HT       0.417000       1.00800           0
      4188 W2       1396     TIP3     H2       HT       0.417000       1.00800           0
      4189 W2       1397     TIP3     OH2      OT      -0.834000       15.9994           0
      4190 W2       1397     TIP3     H1       HT       0.417000       1.00800           0
      4191 W2       1397     TIP3     H2       HT       0.417000       1.00800           0
      4192 W2       1398     TIP3     OH2      OT      -0.834000       15.9994           0
      4193 W2       1398     TIP3     H1       HT       0.417000       1.00800           0
      4194 W2       1398     TIP3     H2       HT       0.417000       1.00800           0
      4195 W2       1399     TIP3     OH2      OT      -0.834000       15.9994           0
      4196 W2       1399     TIP3     H1       HT       0.417000       1.00800           0
      4197 W2       1399     TIP3     H2       HT       0.417000       1.00800           0
      4198 W2       1400     TIP3     OH2      OT      -0.834000       15.9994           0
      4199 W2       1400     TIP3     H1       HT       0.417000       1.00800           0
      4200 W2       1400     TIP3     H2       HT       0.417000       1.00800           0
      4201 W2       1401     TIP3     OH2      OT      -0.834000       15.9994           0
      4202 W2       1401     TIP3     H1       HT       0.417000       1.00800           0
      4203 W2       1401     TIP3     H2       HT       0.417000       1.00800           0
      4204 W2       1402     TIP3     OH2      OT      -0.834000       15.9994           0
      4205 W2       1402     TIP3     H1       HT       0.417000       1.00800           0
      4206 W2       1402     TIP3     H2       HT       0.417000       1.00800           0
      4207 W2       1403     TIP3     OH2      OT      -0.834000       15.9994           0
      4208 W2       1403     TIP3     H1       HT       0.417000       1.00800           0
      4209 W2       1403     TIP3     H2       HT       0.417000       1.00800           0
      4210 W2       1404     TIP3     OH2      OT      -0.834000       15.9994           0
      4211 W2       1404     TIP3     H1       HT       0.417000       1.00800           0
      4212 W2       1404     TIP3     H2       HT       0.417000       1.00800           0
      4213 W2       1405     TIP3     OH2      OT      -0.834000       15.9994           0
      4214 W2       1405     TIP3     H1       HT       0.417000       1.00800           0
      4215 W2       1405     TIP3     H2       HT       0.417000       1.00800           0
      4216 W2       1406     TIP3     OH2      OT      -0.834000       15.9994           0
      4217 W2       1406     TIP3     H1       HT       0.417000       1.00800           0
      4218 W2       1406     TIP3     H2       HT       0.417000       1.00800           0
      4219 W2       1407     TIP3     OH2      OT      -0.834000       15.9994           0
      4220 W2       1407     TIP3     H1       HT       0.417000       1.00800           0
      4221 W2       1407     TIP3     H2       HT       0.417000       1.00800           0
      4222 W2       1408     TIP3     OH2      OT      -0.834000       15.9994           0
      4223 W2       1408     TIP3     H1       HT       0.417000       1.00800           0
      4224 W2       1408     TIP3     H2       HT       0.417000       1.00800           0
      4225 W2       1409     TIP3     OH2      OT      -0.834000       15.9994           0
      4226 W2       1409     TIP3     H1       HT       0.417000       1.00800           0
      4227 W2       1409     TIP3     H2       HT       0.417000       1.00800           0
      4228 W2       1410     TIP3     OH2      OT      -0.834000       15.9994           0
      4229 W2       1410     TIP3     H1       HT       0.417000       1.00800           0
      4230 W2       1410     TIP3     H2       HT       0.417000       1.00800           0
      4231 W2       1411     TIP3     OH2      OT      -0.834000       15.9994           0
      4232 W2       1411     TIP3     H1       HT       0.417000       1.00800           0
      4233 W2       1411     TIP3     H2       HT       0.417000       1.00800           0
      4234 W2       1412     TIP3     OH2      OT      -0.834000       15.9994           0
      4235 W2       1412     TIP3     H1       HT       0.417000       1.00800           0
      4236 W2       1412     TIP3     H2       HT       0.417000       1.00800           0
      4237 W2       1413     TIP3     OH2      OT      -0.834000       15.9994           0
      4238 W2       1413     TIP3     H1       HT       0.417000       1.00800           0
      4239 W2       1413     TIP3     H2       HT       0.417000       1.00800           0
      4240 W2       1414     TIP3     OH2      OT      -0.834000       15.9994           0
      4241 W2       1414     TIP3     H1       HT       0.417000       1.00800           0
      4242 W2       1414     TIP3     H2       HT       0.417000       1.00800           0
      4243 W2       1415     TIP3     OH2      OT      -0.834000       15.9994           0
      4244 W2       1415     TIP3     H1       HT       0.417000       1.00800           0
      4245 W2       1415     TIP3     H2       HT       0.417000       1.00800           0
      4246 W2       1416     TIP3     OH2      OT      -0.834000       15.9994           0
      4247 W2       1416     TIP3     H1       HT       0.417000       1.00800           0
      4248 W2       1416     TIP3     H2       HT       0.417000       1.00800           0
      4249 W2       1417     TIP3     OH2      OT      -0.834000       15.9994           0
      4250 W2       1417     TIP3     H1       HT       0.417000       1.00800           0
      4251 W2       1417     TIP3     H2       HT       0.417000       1.00800           0
      4252 W2       1418     TIP3     OH2      OT      -0.834000       15.9994           0
      4253 W2       1418     TIP3     H1       HT       0.417000       1.00800           0
      4254 W2       1418     TIP3     H2       HT       0.417000       1.00800           0
      4255 W2       1419     TIP3     OH2      OT      -0.834000       15.9994           0
      4256 W2       1419     TIP3     H1       HT       0.417000       1.00800           0
      4257 W2       1419     TIP3     H2       HT       0.417000       1.00800           0
      4258 W2       1420     TIP3     OH2      OT      -0.834000       15.9994           0
      4259 W2       1420     TIP3     H1       HT       0.417000       1.00800           0
      4260 W2       1420     TIP3     H2       HT       0.417000       1.00800           0
      4261 W2       1421     TIP3     OH2      OT      -0.834000       15.9994           0
      4262 W2       1421     TIP3     H1       HT       0.417000       1.00800           0
      4263 W2       1421     TIP3     H2       HT       0.417000       1.00800           0
      4264 W2       1422     TIP3     OH2      OT      -0.834000       15.9994           0
      4265 W2       1422     TIP3     H1       HT       0.417000       1.00800           0
      4266 W2       1422     TIP3     H2       HT       0.417000       1.00800           0
      4267 W2       1423     TIP3     OH2      OT      -0.834000       15.9994           0
      4268 W2       1423     TIP3     H1       HT       0.417000       1.00800           0
      4269 W2       1423     TIP3     H2       HT       0.417000       1.00800           0
      4270 W2       1424     TIP3     OH2      OT      -0.834000       15.9994           0
      4271 W2       1424     TIP3     H1       HT       0.417000       1.00800           0
      4272 W2       1424     TIP3     H2       HT       0.417000       1.00800           0
      4273 W2       1425     TIP3     OH2      OT      -0.834000       15.9994           0
      4274 W2       1425     TIP3     H1       HT       0.417000       1.00800           0
      4275 W2       1425     TIP3     H2       HT       0.417000       1.00800           0
      4276 W2       1426     TIP3     OH2      OT      -0.834000       15.9994           0
      4277 W2       1426     TIP3     H1       HT       0.417000       1.00800           0
      4278 W2       1426     TIP3     H2       HT       0.417000       1.00800           0
      4279 W2       1427     TIP3     OH2      OT      -0.834000       15.9994           0
      4280 W2       1427     TIP3     H1       HT       0.417000       1.00800           0
      4281 W2       1427     TIP3     H2       HT       0.417000       1.00800           0
      4282 W2       1428     TIP3     OH2      OT      -0.834000       15.9994           0
      4283 W2       1428     TIP3     H1       HT       0.417000       1.00800           0
      4284 W2       1428     TIP3     H2       HT       0.417000       1.00800           0
      4285 W2       1429     TIP3     OH2      OT      -0.834000       15.9994           0
      4286 W2       1429     TIP3     H1       HT       0.417000       1.00800           0
      4287 W2       1429     TIP3     H2       HT       0.417000       1.00800           0
      4288 W2       1430     TIP3     OH2      OT      -0.834000       15.9994           0
      4289 W2       1430     TIP3     H1       HT       0.417000       1.00800           0
      4290 W2       1430     TIP3     H2       HT       0.417000       1.00800           0
      4291 W2       1431     TIP3     OH2      OT      -0.834000       15.9994           0
      4292 W2       1431     TIP3     H1       HT       0.417000       1.00800           0
      4293 W2       1431     TIP3     H2       HT       0.417000       1.00800           0
      4294 W2       1432     TIP3     OH2      OT      -0.834000       15.9994           0
      4295 W2       1432     TIP3     H1       HT       0.417000       1.00800           0
      4296 W2       1432     TIP3     H2       HT       0.417000       1.00800           0
      4297 W2       1433     TIP3     OH2      OT      -0.834000       15.9994           0
      4298 W2       1433     TIP3     H1       HT       0.417000       1.00800           0
      4299 W2       1433     TIP3     H2       HT       0.417000       1.00800           0
      4300 W2       1434     TIP3     OH2      OT      -0.834000       15.9994           0
      4301 W2       1434     TIP3     H1       HT       0.417000       1.00800           0
      4302 W2       1434     TIP3     H2       HT       0.417000       1.00800           0
      4303 W2       1435     TIP3     OH2      OT      -0.834000       15.9994           0
      4304 W2       1435     TIP3     H1       HT       0.417000       1.00800           0
      4305 W2       1435     TIP3     H2       HT       0.417000       1.00800           0
      4306 W2       1436     TIP3     OH2      OT      -0.834000       15.9994           0
      4307 W2       1436     TIP3     H1       HT       0.417000       1.00800           0
      4308 W2       1436     TIP3     H2       HT       0.417000       1.00800           0
      4309 W2       1437     TIP3     OH2      OT      -0.834000       15.9994           0
      4310 W2       1437     TIP3     H1       HT       0.417000       1.00800           0
      4311 W2       1437     TIP3     H2       HT       0.417000       1.00800           0
      4312 W2       1438     TIP3     OH2      OT      -0.834000       15.9994           0
      4313 W2       1438     TIP3     H1       HT       0.417000       1.00800           0
      4314 W2       1438     TIP3     H2       HT       0.417000       1.00800           0
      4315 W2       1439     TIP3     OH2      OT      -0.834000       15.9994           0
      4316 W2       1439     TIP3     H1       HT       0.417000       1.00800           0
      4317 W2       1439     TIP3     H2       HT       0.417000       1.00800           0
      4318 W2       1440     TIP3     OH2      OT      -0.834000       15.9994           0
      4319 W2       1440     TIP3     H1       HT       0.417000       1.00800           0
      4320 W2       1440     TIP3     H2       HT       0.417000       1.00800           0
      4321 W2       1441     TIP3     OH2      OT      -0.834000       15.9994           0
      4322 W2       1441     TIP3     H1       HT       0.417000       1.00800           0
      4323 W2       1441     TIP3     H2       HT       0.417000       1.00800           0
      4324 W2       1442     TIP3     OH2      OT      -0.834000       15.9994           0
      4325 W2       1442     TIP3     H1       HT       0.417000       1.00800           0
      4326 W2       1442     TIP3     H2       HT       0.417000       1.00800           0
      4327 W2       1443     TIP3     OH2      OT      -0.834000       15.9994           0
      4328 W2       1443     TIP3     H1       HT       0.417000       1.00800           0
      4329 W2       1443     TIP3     H2       HT       0.417000       1.00800           0
      4330 W2       1444     TIP3     OH2      OT      -0.834000       15.9994           0
      4331 W2       1444     TIP3     H1       HT       0.417000       1.00800           0
      4332 W2       1444     TIP3     H2       HT       0.417000       1.00800           0
      4333 W2       1445     TIP3     OH2      OT      -0.834000       15.9994           0
      4334 W2       1445     TIP3     H1       HT       0.417000       1.00800           0
      4335 W2       1445     TIP3     H2       HT       0.417000       1.00800           0
      4336 W2       1446     TIP3     OH2      OT      -0.834000       15.9994           0
      4337 W2       1446     TIP3     H1       HT       0.417000       1.00800           0
      4338 W2       1446     TIP3     H2       HT       0.417000       1.00800           0
      4339 W2       1447     TIP3     OH2      OT      -0.834000       15.9994           0
      4340 W2       1447     TIP3     H1       HT       0.417000       1.00800           0
      4341 W2       1447     TIP3     H2       HT       0.417000       1.00800           0
      4342 W2       1448     TIP3     OH2      OT      -0.834000       15.9994           0
      4343 W2       1448     TIP3     H1       HT       0.417000       1.00800           0
      4344 W2       1448     TIP3     H2       HT       0.417000       1.00800           0
      4345 W2       1449     TIP3     OH2      OT      -0.834000       15.9994           0
      4346 W2       1449     TIP3     H1       HT       0.417000       1.00800           0
      4347 W2       1449     TIP3     H2       HT       0.417000       1.00800           0
      4348 W2       1450     TIP3     OH2      OT      -0.834000       15.9994           0
      4349 W2       1450     TIP3     H1       HT       0.417000       1.00800           0
      4350 W2       1450     TIP3     H2       HT       0.417000       1.00800           0
      4351 W2       1451     TIP3     OH2      OT      -0.834000       15.9994           0
      4352 W2       1451     TIP3     H1       HT       0.417000       1.00800           0
      4353 W2       1451     TIP3     H2       HT       0.417000       1.00800           0
      4354 W2       1452     TIP3     OH2      OT      -0.834000       15.9994           0
      4355 W2       1452     TIP3     H1       HT       0.417000       1.00800           0
      4356 W2       1452     TIP3     H2       HT       0.417000       1.00800           0
      4357 W2       1453     TIP3     OH2      OT      -0.834000       15.9994           0
      4358 W2       1453     TIP3     H1       HT       0.417000       1.00800           0
      4359 W2       1453     TIP3     H2       HT       0.417000       1.00800           0
      4360 W2       1454     TIP3     OH2      OT      -0.834000       15.9994           0
      4361 W2       1454     TIP3     H1       HT       0.417000       1.00800           0
      4362 W2       1454     TIP3     H2       HT       0.417000       1.00800           0
      4363 W2       1455     TIP3     OH2      OT      -0.834000       15.9994           0
      4364 W2       1455     TIP3     H1       HT       0.417000       1.00800           0
      4365 W2       1455     TIP3     H2       HT       0.417000       1.00800           0
      4366 W2       1456     TIP3     OH2      OT      -0.834000       15.9994           0
      4367 W2       1456     TIP3     H1       HT       0.417000       1.00800           0
      4368 W2       1456     TIP3     H2       HT       0.417000       1.00800           0
      4369 W2       1457     TIP3     OH2      OT      -0.834000       15.9994           0
      4370 W2       1457     TIP3     H1       HT       0.417000       1.00800           0
      4371 W2       1457     TIP3     H2       HT       0.417000       1.00800           0
      4372 W2       1458     TIP3     OH2      OT      -0.834000       15.9994           0
      4373 W2       1458     TIP3     H1       HT       0.417000       1.00800           0
      4374 W2       1458     TIP3     H2       HT       0.417000       1.00800           0
      4375 W2       1459     TIP3     OH2      OT      -0.834000       15.9994           0
      4376 W2       1459     TIP3     H1       HT       0.417000       1.00800           0
      4377 W2       1459     TIP3     H2       HT       0.417000       1.00800           0
      4378 W2       1460     TIP3     OH2      OT      -0.834000       15.9994           0
      4379 W2       1460     TIP3     H1       HT       0.417000       1.00800           0
      4380 W2       1460     TIP3     H2       HT       0.417000       1.00800           0
      4381 W2       1461     TIP3     OH2      OT      -0.834000       15.9994           0
      4382 W2       1461     TIP3     H1       HT       0.417000       1.00800           0
      4383 W2       1461     TIP3     H2       HT       0.417000       1.00800           0
      4384 W2       1462     TIP3     OH2      OT      -0.834000       15.9994           0
      4385 W2       1462     TIP3     H1       HT       0.417000       1.00800           0
      4386 W2       1462     TIP3     H2       HT       0.417000       1.00800           0
      4387 W2       1463     TIP3     OH2      OT      -0.834000       15.9994           0
      4388 W2       1463     TIP3     H1       HT       0.417000       1.00800           0
      4389 W2       1463     TIP3     H2       HT       0.417000       1.00800           0
      4390 W2       1464     TIP3     OH2      OT      -0.834000       15.9994           0
      4391 W2       1464     TIP3     H1       HT       0.417000       1.00800           0
      4392 W2       1464     TIP3     H2       HT       0.417000       1.00800           0
      4393 W2       1465     TIP3     OH2      OT      -0.834000       15.9994           0
      4394 W2       1465     TIP3     H1       HT       0.417000       1.00800           0
      4395 W2       1465     TIP3     H2       HT       0.417000       1.00800           0
      4396 W2       1466     TIP3     OH2      OT      -0.834000       15.9994           0
      4397 W2       1466     TIP3     H1       HT       0.417000       1.00800           0
      4398 W2       1466     TIP3     H2       HT       0.417000       1.00800           0
      4399 W2       1467     TIP3     OH2      OT      -0.834000       15.9994           0
      4400 W2       1467     TIP3     H1       HT       0.417000       1.00800           0
      4401 W2       1467     TIP3     H2       HT       0.417000       1.00800           0
      4402 W2       1468     TIP3     OH2      OT      -0.834000       15.9994           0
      4403 W2       1468     TIP3     H1       HT       0.417000       1.00800           0
      4404 W2       1468     TIP3     H2       HT       0.417000       1.00800           0
      4405 W2       1469     TIP3     OH2      OT      -0.834000       15.9994           0
      4406 W2       1469     TIP3     H1       HT       0.417000       1.00800           0
      4407 W2       1469     TIP3     H2       HT       0.417000       1.00800           0
      4408 W2       1470     TIP3     OH2      OT      -0.834000       15.9994           0
      4409 W2       1470     TIP3     H1       HT       0.417000       1.00800           0
      4410 W2       1470     TIP3     H2       HT       0.417000       1.00800           0
      4411 W2       1471     TIP3     OH2      OT      -0.834000       15.9994           0
      4412 W2       1471     TIP3     H1       HT       0.417000       1.00800           0
      4413 W2       1471     TIP3     H2       HT       0.417000       1.00800           0
      4414 W2       1472     TIP3     OH2      OT      -0.834000       15.9994           0
      4415 W2       1472     TIP3     H1       HT       0.417000       1.00800           0
      4416 W2       1472     TIP3     H2       HT       0.417000       1.00800           0
      4417 W2       1473     TIP3     OH2      OT      -0.834000       15.9994           0
      4418 W2       1473     TIP3     H1       HT       0.417000       1.00800           0
      4419 W2       1473     TIP3     H2       HT       0.417000       1.00800           0
      4420 W2       1474     TIP3     OH2      OT      -0.834000       15.9994           0
      4421 W2       1474     TIP3     H1       HT       0.417000       1.00800           0
      4422 W2       1474     TIP3     H2       HT       0.417000       1.00800           0
      4423 W2       1475     TIP3     OH2      OT      -0.834000       15.9994           0
      4424 W2       1475     TIP3     H1       HT       0.417000       1.00800           0
      4425 W2       1475     TIP3     H2       HT       0.417000       1.00800           0
      4426 W2       1476     TIP3     OH2      OT      -0.834000       15.9994           0
      4427 W2       1476     TIP3     H1       HT       0.417000       1.00800           0
      4428 W2       1476     TIP3     H2       HT       0.417000       1.00800           0
      4429 W2       1477     TIP3     OH2      OT      -0.834000       15.9994           0
      4430 W2       1477     TIP3     H1       HT       0.417000       1.00800           0
      4431 W2       1477     TIP3     H2       HT       0.417000       1.00800           0
      4432 W2       1478     TIP3     OH2      OT      -0.834000       15.9994           0
      4433 W2       1478     TIP3     H1       HT       0.417000       1.00800           0
      4434 W2       1478     TIP3     H2       HT       0.417000       1.00800           0
      4435 W2       1479     TIP3     OH2      OT      -0.834000       15.9994           0
      4436 W2       1479     TIP3     H1       HT       0.417000       1.00800           0
      4437 W2       1479     TIP3     H2       HT       0.417000       1.00800           0
      4438 W2       1480     TIP3     OH2      OT      -0.834000       15.9994           0
      4439 W2       1480     TIP3     H1       HT       0.417000       1.00800           0
      4440 W2       1480     TIP3     H2       HT       0.417000       1.00800           0
      4441 W2       1481     TIP3     OH2      OT      -0.834000       15.9994           0
      4442 W2       1481     TIP3     H1       HT       0.417000       1.00800           0
      4443 W2       1481     TIP3     H2       HT       0.417000       1.00800           0
      4444 W2       1482     TIP3     OH2      OT      -0.834000       15.9994           0
      4445 W2       1482     TIP3     H1       HT       0.417000       1.00800           0
      4446 W2       1482     TIP3     H2       HT       0.417000       1.00800           0
      4447 W2       1483     TIP3     OH2      OT      -0.834000       15.9994           0
      4448 W2       1483     TIP3     H1       HT       0.417000       1.00800           0
      4449 W2       1483     TIP3     H2       HT       0.417000       1.00800           0
      4450 W2       1484     TIP3     OH2      OT      -0.834000       15.9994           0
      4451 W2       1484     TIP3     H1       HT       0.417000       1.00800           0
      4452 W2       1484     TIP3     H2       HT       0.417000       1.00800           0
      4453 W2       1485     TIP3     OH2      OT      -0.834000       15.9994           0
      4454 W2       1485     TIP3     H1       HT       0.417000       1.00800           0
      4455 W2       1485     TIP3     H2       HT       0.417000       1.00800           0
      4456 W2       1486     TIP3     OH2      OT      -0.834000       15.9994           0
      4457 W2       1486     TIP3     H1       HT       0.417000       1.00800           0
      4458 W2       1486     TIP3     H2       HT       0.417000       1.00800           0
      4459 W2       1487     TIP3     OH2      OT      -0.834000       15.9994           0
      4460 W2       1487     TIP3     H1       HT       0.417000       1.00800           0
      4461 W2       1487     TIP3     H2       HT       0.417000       1.00800           0
      4462 W2       1488     TIP3     OH2      OT      -0.834000       15.9994           0
      4463 W2       1488     TIP3     H1       HT       0.417000       1.00800           0
      4464 W2       1488     TIP3     H2       HT       0.417000       1.00800           0
      4465 W2       1489     TIP3     OH2      OT      -0.834000       15.9994           0
      4466 W2       1489     TIP3     H1       HT       0.417000       1.00800           0
      4467 W2       1489     TIP3     H2       HT       0.417000       1.00800           0
      4468 W2       1490     TIP3     OH2      OT      -0.834000       15.9994           0
      4469 W2       1490     TIP3     H1       HT       0.417000       1.00800           0
      4470 W2       1490     TIP3     H2       HT       0.417000       1.00800           0
      4471 W2       1491     TIP3     OH2      OT      -0.834000       15.9994           0
      4472 W2       1491     TIP3     H1       HT       0.417000       1.00800           0
      4473 W2       1491     TIP3     H2       HT       0.417000       1.00800           0
      4474 W2       1492     TIP3     OH2      OT      -0.834000       15.9994           0
      4475 W2       1492     TIP3     H1       HT       0.417000       1.00800           0
      4476 W2       1492     TIP3     H2       HT       0.417000       1.00800           0
      4477 W2       1493     TIP3     OH2      OT      -0.834000       15.9994           0
      4478 W2       1493     TIP3     H1       HT       0.417000       1.00800           0
      4479 W2       1493     TIP3     H2       HT       0.417000       1.00800           0
      4480 W2       1494     TIP3     OH2      OT      -0.834000       15.9994           0
      4481 W2       1494     TIP3     H1       HT       0.417000       1.00800           0
      4482 W2       1494     TIP3     H2       HT       0.417000       1.00800           0
      4483 W2       1495     TIP3     OH2      OT      -0.834000       15.9994           0
      4484 W2       1495     TIP3     H1       HT       0.417000       1.00800           0
      4485 W2       1495     TIP3     H2       HT       0.417000       1.00800           0
      4486 W2       1496     TIP3     OH2      OT      -0.834000       15.9994           0
      4487 W2       1496     TIP3     H1       HT       0.417000       1.00800           0
      4488 W2       1496     TIP3     H2       HT       0.417000       1.00800           0
      4489 W2       1497     TIP3     OH2      OT      -0.834000       15.9994           0
      4490 W2       1497     TIP3     H1       HT       0.417000       1.00800           0
      4491 W2       1497     TIP3     H2       HT       0.417000       1.00800           0
      4492 W2       1498     TIP3     OH2      OT      -0.834000       15.9994           0
      4493 W2       1498     TIP3     H1       HT       0.417000       1.00800           0
      4494 W2       1498     TIP3     H2       HT       0.417000       1.00800           0
      4495 W2       1499     TIP3     OH2      OT      -0.834000       15.9994           0
      4496 W2       1499     TIP3     H1       HT       0.417000       1.00800           0
      4497 W2       1499     TIP3     H2       HT       0.417000       1.00800           0
      4498 W2       1500     TIP3     OH2      OT      -0.834000       15.9994           0
      4499 W2       1500     TIP3     H1       HT       0.417000       1.00800           0
      4500 W2       1500     TIP3     H2       HT       0.417000       1.00800           0
      4501 W2       1501     TIP3     OH2      OT      -0.834000       15.9994           0
      4502 W2       1501     TIP3     H1       HT       0.417000       1.00800           0
      4503 W2       1501     TIP3     H2       HT       0.417000       1.00800           0
      4504 W2       1502     TIP3     OH2      OT      -0.834000       15.9994           0
      4505 W2       1502     TIP3     H1       HT       0.417000       1.00800           0
      4506 W2       1502     TIP3     H2       HT       0.417000       1.00800           0
      4507 W2       1503     TIP3     OH2      OT      -0.834000       15.9994           0
      4508 W2       1503     TIP3     H1       HT       0.417000       1.00800           0
      4509 W2       1503     TIP3     H2       HT       0.417000       1.00800           0
      4510 W2       1504     TIP3     OH2      OT      -0.834000       15.9994           0
      4511 W2       1504     TIP3     H1       HT       0.417000       1.00800           0
      4512 W2       1504     TIP3     H2       HT       0.417000       1.00800           0
      4513 W2       1505     TIP3     OH2      OT      -0.834000       15.9994           0
      4514 W2       1505     TIP3     H1       HT       0.417000       1.00800           0
      4515 W2       1505     TIP3     H2       HT       0.417000       1.00800           0
      4516 W2       1506     TIP3     OH2      OT      -0.834000       15.9994           0
      4517 W2       1506     TIP3     H1       HT       0.417000       1.00800           0
      4518 W2       1506     TIP3     H2       HT       0.417000       1.00800           0
      4519 W2       1507     TIP3     OH2      OT      -0.834000       15.9994           0
      4520 W2       1507     TIP3     H1       HT       0.417000       1.00800           0
      4521 W2       1507     TIP3     H2       HT       0.417000       1.00800           0
      4522 W2       1508     TIP3     OH2      OT      -0.834000       15.9994           0
      4523 W2       1508     TIP3     H1       HT       0.417000       1.00800           0
      4524 W2       1508     TIP3     H2       HT       0.417000       1.00800           0
      4525 W2       1509     TIP3     OH2      OT      -0.834000       15.9994           0
      4526 W2       1509     TIP3     H1       HT       0.417000       1.00800           0
      4527 W2       1509     TIP3     H2       HT       0.417000       1.00800           0
      4528 W2       1510     TIP3     OH2      OT      -0.834000       15.9994           0
      4529 W2       1510     TIP3     H1       HT       0.417000       1.00800           0
      4530 W2       1510     TIP3     H2       HT       0.417000       1.00800           0
      4531 W2       1511     TIP3     OH2      OT      -0.834000       15.9994           0
      4532 W2       1511     TIP3     H1       HT       0.417000       1.00800           0
      4533 W2       1511     TIP3     H2       HT       0.417000       1.00800           0
      4534 W2       1512     TIP3     OH2      OT      -0.834000       15.9994           0
      4535 W2       1512     TIP3     H1       HT       0.417000       1.00800           0
      4536 W2       1512     TIP3     H2       HT       0.417000       1.00800           0
      4537 W2       1513     TIP3     OH2      OT      -0.834000       15.9994           0
      4538 W2       1513     TIP3     H1       HT       0.417000       1.00800           0
      4539 W2       1513     TIP3     H2       HT       0.417000       1.00800           0
      4540 W2       1514     TIP3     OH2      OT      -0.834000       15.9994           0
      4541 W2       1514     TIP3     H1       HT       0.417000       1.00800           0
      4542 W2       1514     TIP3     H2       HT       0.417000       1.00800           0
      4543 W2       1515     TIP3     OH2      OT      -0.834000       15.9994           0
      4544 W2       1515     TIP3     H1       HT       0.417000       1.00800           0
      4545 W2       1515     TIP3     H2       HT       0.417000       1.00800           0
      4546 W2       1516     TIP3     OH2      OT      -0.834000       15.9994           0
      4547 W2       1516     TIP3     H1       HT       0.417000       1.00800           0
      4548 W2       1516     TIP3     H2       HT       0.417000       1.00800           0
      4549 W2       1517     TIP3     OH2      OT      -0.834000       15.9994           0
      4550 W2       1517     TIP3     H1       HT       0.417000       1.00800           0
      4551 W2       1517     TIP3     H2       HT       0.417000       1.00800           0
      4552 W2       1518     TIP3     OH2      OT      -0.834000       15.9994           0
      4553 W2       1518     TIP3     H1       HT       0.417000       1.00800           0
      4554 W2       1518     TIP3     H2       HT       0.417000       1.00800           0
      4555 W2       1519     TIP3     OH2      OT      -0.834000       15.9994           0
      4556 W2       1519     TIP3     H1       HT       0.417000       1.00800           0
      4557 W2       1519     TIP3     H2       HT       0.417000       1.00800           0
      4558 W2       1520     TIP3     OH2      OT      -0.834000       15.9994           0
      4559 W2       1520     TIP3     H1       HT       0.417000       1.00800           0
      4560 W2       1520     TIP3     H2       HT       0.417000       1.00800           0
      4561 W2       1521     TIP3     OH2      OT      -0.834000       15.9994           0
      4562 W2       1521     TIP3     H1       HT       0.417000       1.00800           0
      4563 W2       1521     TIP3     H2       HT       0.417000       1.00800           0
      4564 W2       1522     TIP3     OH2      OT      -0.834000       15.9994           0
      4565 W2       1522     TIP3     H1       HT       0.417000       1.00800           0
      4566 W2       1522     TIP3     H2       HT       0.417000       1.00800           0
      4567 W2       1523     TIP3     OH2      OT      -0.834000       15.9994           0
      4568 W2       1523     TIP3     H1       HT       0.417000       1.00800           0
      4569 W2       1523     TIP3     H2       HT       0.417000       1.00800           0
      4570 W2       1524     TIP3     OH2      OT      -0.834000       15.9994           0
      4571 W2       1524     TIP3     H1       HT       0.417000       1.00800           0
      4572 W2       1524     TIP3     H2       HT       0.417000       1.00800           0
      4573 W2       1525     TIP3     OH2      OT      -0.834000       15.9994           0
      4574 W2       1525     TIP3     H1       HT       0.417000       1.00800           0
      4575 W2       1525     TIP3     H2       HT       0.417000       1.00800           0
      4576 W2       1526     TIP3     OH2      OT      -0.834000       15.9994           0
      4577 W2       1526     TIP3     H1       HT       0.417000       1.00800           0
      4578 W2       1526     TIP3     H2       HT       0.417000       1.00800           0
      4579 W2       1527     TIP3     OH2      OT      -0.834000       15.9994           0
      4580 W2       1527     TIP3     H1       HT       0.417000       1.00800           0
      4581 W2       1527     TIP3     H2       HT       0.417000       1.00800           0
      4582 W2       1528     TIP3     OH2      OT      -0.834000       15.9994           0
      4583 W2       1528     TIP3     H1       HT       0.417000       1.00800           0
      4584 W2       1528     TIP3     H2       HT       0.417000       1.00800           0
      4585 W2       1529     TIP3     OH2      OT      -0.834000       15.9994           0
      4586 W2       1529     TIP3     H1       HT       0.417000       1.00800           0
      4587 W2       1529     TIP3     H2       HT       0.417000       1.00800           0
      4588 W2       1530     TIP3     OH2      OT      -0.834000       15.9994           0
      4589 W2       1530     TIP3     H1       HT       0.417000       1.00800           0
      4590 W2       1530     TIP3     H2       HT       0.417000       1.00800           0
      4591 W2       1531     TIP3     OH2      OT      -0.834000       15.9994           0
      4592 W2       1531     TIP3     H1       HT       0.417000       1.00800           0
      4593 W2       1531     TIP3     H2       HT       0.417000       1.00800           0
      4594 W2       1532     TIP3     OH2      OT      -0.834000       15.9994           0
      4595 W2       1532     TIP3     H1       HT       0.417000       1.00800           0
      4596 W2       1532     TIP3     H2       HT       0.417000       1.00800           0
      4597 W2       1533     TIP3     OH2      OT      -0.834000       15.9994           0
      4598 W2       1533     TIP3     H1       HT       0.417000       1.00800           0
      4599 W2       1533     TIP3     H2       HT       0.417000       1.00800           0
      4600 W2       1534     TIP3     OH2      OT      -0.834000       15.9994           0
      4601 W2       1534     TIP3     H1       HT       0.417000       1.00800           0
      4602 W2       1534     TIP3     H2       HT       0.417000       1.00800           0
      4603 W2       1535     TIP3     OH2      OT      -0.834000       15.9994           0
      4604 W2       1535     TIP3     H1       HT       0.417000       1.00800           0
      4605 W2       1535     TIP3     H2       HT       0.417000       1.00800           0
      4606 W2       1536     TIP3     OH2      OT      -0.834000       15.9994           0
      4607 W2       1536     TIP3     H1       HT       0.417000       1.00800           0
      4608 W2       1536     TIP3     H2       HT       0.417000       1.00800           0
      4609 W2       1537     TIP3     OH2      OT      -0.834000       15.9994           0
      4610 W2       1537     TIP3     H1       HT       0.417000       1.00800           0
      4611 W2       1537     TIP3     H2       HT       0.417000       1.00800           0
      4612 W2       1538     TIP3     OH2      OT      -0.834000       15.9994           0
      4613 W2       1538     TIP3     H1       HT       0.417000       1.00800           0
      4614 W2       1538     TIP3     H2       HT       0.417000       1.00800           0
      4615 W2       1539     TIP3     OH2      OT      -0.834000       15.9994           0
      4616 W2       1539     TIP3     H1       HT       0.417000       1.00800           0
      4617 W2       1539     TIP3     H2       HT       0.417000       1.00800           0
      4618 W2       1540     TIP3     OH2      OT      -0.834000       15.9994           0
      4619 W2       1540     TIP3     H1       HT       0.417000       1.00800           0
      4620 W2       1540     TIP3     H2       HT       0.417000       1.00800           0
      4621 W2       1541     TIP3     OH2      OT      -0.834000       15.9994           0
      4622 W2       1541     TIP3     H1       HT       0.417000       1.00800           0
      4623 W2       1541     TIP3     H2       HT       0.417000       1.00800           0
      4624 W2       1542     TIP3     OH2      OT      -0.834000       15.9994           0
      4625 W2       1542     TIP3     H1       HT       0.417000       1.00800           0
      4626 W2       1542     TIP3     H2       HT       0.417000       1.00800           0
      4627 W2       1543     TIP3     OH2      OT      -0.834000       15.9994           0
      4628 W2       1543     TIP3     H1       HT       0.417000       1.00800           0
      4629 W2       1543     TIP3     H2       HT       0.417000       1.00800           0
      4630 W2       1544     TIP3     OH2      OT      -0.834000       15.9994           0
      4631 W2       1544     TIP3     H1       HT       0.417000       1.00800           0
      4632 W2       1544     TIP3     H2       HT       0.417000       1.00800           0
      4633 W2       1545     TIP3     OH2      OT      -0.834000       15.9994           0
      4634 W2       1545     TIP3     H1       HT       0.417000       1.00800           0
      4635 W2       1545     TIP3     H2       HT       0.417000       1.00800           0
      4636 W2       1546     TIP3     OH2      OT      -0.834000       15.9994           0
      4637 W2       1546     TIP3     H1       HT       0.417000       1.00800           0
      4638 W2       1546     TIP3     H2       HT       0.417000       1.00800           0
      4639 W2       1547     TIP3     OH2      OT      -0.834000       15.9994           0
      4640 W2       1547     TIP3     H1       HT       0.417000       1.00800           0
      4641 W2       1547     TIP3     H2       HT       0.417000       1.00800           0
      4642 W2       1548     TIP3     OH2      OT      -0.834000       15.9994           0
      4643 W2       1548     TIP3     H1       HT       0.417000       1.00800           0
      4644 W2       1548     TIP3     H2       HT       0.417000       1.00800           0
      4645 W2       1549     TIP3     OH2      OT      -0.834000       15.9994           0
      4646 W2       1549     TIP3     H1       HT       0.417000       1.00800           0
      4647 W2       1549     TIP3     H2       HT       0.417000       1.00800           0
      4648 W2       1550     TIP3     OH2      OT      -0.834000       15.9994           0
      4649 W2       1550     TIP3     H1       HT       0.417000       1.00800           0
      4650 W2       1550     TIP3     H2       HT       0.417000       1.00800           0
      4651 W2       1551     TIP3     OH2      OT      -0.834000       15.9994           0
      4652 W2       1551     TIP3     H1       HT       0.417000       1.00800           0
      4653 W2       1551     TIP3     H2       HT       0.417000       1.00800           0
      4654 W2       1552     TIP3     OH2      OT      -0.834000       15.9994           0
      4655 W2       1552     TIP3     H1       HT       0.417000       1.00800           0
      4656 W2       1552     TIP3     H2       HT       0.417000       1.00800           0
      4657 W2       1553     TIP3     OH2      OT      -0.834000       15.9994           0
      4658 W2       1553     TIP3     H1       HT       0.417000       1.00800           0
      4659 W2       1553     TIP3     H2       HT       0.417000       1.00800           0
      4660 W2       1554     TIP3     OH2      OT      -0.834000       15.9994           0
      4661 W2       1554     TIP3     H1       HT       0.417000       1.00800           0
      4662 W2       1554     TIP3     H2       HT       0.417000       1.00800           0
      4663 W2       1555     TIP3     OH2      OT      -0.834000       15.9994           0
      4664 W2       1555     TIP3     H1       HT       0.417000       1.00800           0
      4665 W2       1555     TIP3     H2       HT       0.417000       1.00800           0
      4666 W2       1556     TIP3     OH2      OT      -0.834000       15.9994           0
      4667 W2       1556     TIP3     H1       HT       0.417000       1.00800           0
      4668 W2       1556     TIP3     H2       HT       0.417000       1.00800           0
      4669 W2       1557     TIP3     OH2      OT      -0.834000       15.9994           0
      4670 W2       1557     TIP3     H1       HT       0.417000       1.00800           0
      4671 W2       1557     TIP3     H2       HT       0.417000       1.00800           0
      4672 W2       1558     TIP3     OH2      OT      -0.834000       15.9994           0
      4673 W2       1558     TIP3     H1       HT       0.417000       1.00800           0
      4674 W2       1558     TIP3     H2       HT       0.417000       1.00800           0
      4675 W2       1559     TIP3     OH2      OT      -0.834000       15.9994           0
      4676 W2       1559     TIP3     H1       HT       0.417000       1.00800           0
      4677 W2       1559     TIP3     H2       HT       0.417000       1.00800           0
      4678 W2       1560     TIP3     OH2      OT      -0.834000       15.9994           0
      4679 W2       1560     TIP3     H1       HT       0.417000       1.00800           0
      4680 W2       1560     TIP3     H2       HT       0.417000       1.00800           0
      4681 W2       1561     TIP3     OH2      OT      -0.834000       15.9994           0
      4682 W2       1561     TIP3     H1       HT       0.417000       1.00800           0
      4683 W2       1561     TIP3     H2       HT       0.417000       1.00800           0
      4684 W2       1562     TIP3     OH2      OT      -0.834000       15.9994           0
      4685 W2       1562     TIP3     H1       HT       0.417000       1.00800           0
      4686 W2       1562     TIP3     H2       HT       0.417000       1.00800           0
      4687 W2       1563     TIP3     OH2      OT      -0.834000       15.9994           0
      4688 W2       1563     TIP3     H1       HT       0.417000       1.00800           0
      4689 W2       1563     TIP3     H2       HT       0.417000       1.00800           0
      4690 W2       1564     TIP3     OH2      OT      -0.834000       15.9994           0
      4691 W2       1564     TIP3     H1       HT       0.417000       1.00800           0
      4692 W2       1564     TIP3     H2       HT       0.417000       1.00800           0
      4693 W2       1565     TIP3     OH2      OT      -0.834000       15.9994           0
      4694 W2       1565     TIP3     H1       HT       0.417000       1.00800           0
      4695 W2       1565     TIP3     H2       HT       0.417000       1.00800           0
      4696 W2       1566     TIP3     OH2      OT      -0.834000       15.9994           0
      4697 W2       1566     TIP3     H1       HT       0.417000       1.00800           0
      4698 W2       1566     TIP3     H2       HT       0.417000       1.00800           0
      4699 W2       1567     TIP3     OH2      OT      -0.834000       15.9994           0
      4700 W2       1567     TIP3     H1       HT       0.417000       1.00800           0
      4701 W2       1567     TIP3     H2       HT       0.417000       1.00800           0
      4702 W2       1568     TIP3     OH2      OT      -0.834000       15.9994           0
      4703 W2       1568     TIP3     H1       HT       0.417000       1.00800           0
      4704 W2       1568     TIP3     H2       HT       0.417000       1.00800           0
      4705 W2       1569     TIP3     OH2      OT      -0.834000       15.9994           0
      4706 W2       1569     TIP3     H1       HT       0.417000       1.00800           0
      4707 W2       1569     TIP3     H2       HT       0.417000       1.00800           0
      4708 W2       1570     TIP3     OH2      OT      -0.834000       15.9994           0
      4709 W2       1570     TIP3     H1       HT       0.417000       1.00800           0
      4710 W2       1570     TIP3     H2       HT       0.417000       1.00800           0
      4711 W2       1571     TIP3     OH2      OT      -0.834000       15.9994           0
      4712 W2       1571     TIP3     H1       HT       0.417000       1.00800           0
      4713 W2       1571     TIP3     H2       HT       0.417000       1.00800           0
      4714 W2       1572     TIP3     OH2      OT      -0.834000       15.9994           0
      4715 W2       1572     TIP3     H1       HT       0.417000       1.00800           0
      4716 W2       1572     TIP3     H2       HT       0.417000       1.00800           0
      4717 W2       1573     TIP3     OH2      OT      -0.834000       15.9994           0
      4718 W2       1573     TIP3     H1       HT       0.417000       1.00800           0
      4719 W2       1573     TIP3     H2       HT       0.417000       1.00800           0
      4720 W2       1574     TIP3     OH2      OT      -0.834000       15.9994           0
      4721 W2       1574     TIP3     H1       HT       0.417000       1.00800           0
      4722 W2       1574     TIP3     H2       HT       0.417000       1.00800           0
      4723 W2       1575     TIP3     OH2      OT      -0.834000       15.9994           0
      4724 W2       1575     TIP3     H1       HT       0.417000       1.00800           0
      4725 W2       1575     TIP3     H2       HT       0.417000       1.00800           0
      4726 W2       1576     TIP3     OH2      OT      -0.834000       15.9994           0
      4727 W2       1576     TIP3     H1       HT       0.417000       1.00800           0
      4728 W2       1576     TIP3     H2       HT       0.417000       1.00800           0
      4729 W2       1577     TIP3     OH2      OT      -0.834000       15.9994           0
      4730 W2       1577     TIP3     H1       HT       0.417000       1.00800           0
      4731 W2       1577     TIP3     H2       HT       0.417000       1.00800           0
      4732 W2       1578     TIP3     OH2      OT      -0.834000       15.9994           0
      4733 W2       1578     TIP3     H1       HT       0.417000       1.00800           0
      4734 W2       1578     TIP3     H2       HT       0.417000       1.00800           0
      4735 W2       1579     TIP3     OH2      OT      -0.834000       15.9994           0
      4736 W2       1579     TIP3     H1       HT       0.417000       1.00800           0
      4737 W2       1579     TIP3     H2       HT       0.417000       1.00800           0
      4738 W2       1580     TIP3     OH2      OT      -0.834000       15.9994           0
      4739 W2       1580     TIP3     H1       HT       0.417000       1.00800           0
      4740 W2       1580     TIP3     H2       HT       0.417000       1.00800           0
      4741 W2       1581     TIP3     OH2      OT      -0.834000       15.9994           0
      4742 W2       1581     TIP3     H1       HT       0.417000       1.00800           0
      4743 W2       1581     TIP3     H2       HT       0.417000       1.00800           0
      4744 W2       1582     TIP3     OH2      OT      -0.834000       15.9994           0
      4745 W2       1582     TIP3     H1       HT       0.417000       1.00800           0
      4746 W2       1582     TIP3     H2       HT       0.417000       1.00800           0
      4747 W2       1583     TIP3     OH2      OT      -0.834000       15.9994           0
      4748 W2       1583     TIP3     H1       HT       0.417000       1.00800           0
      4749 W2       1583     TIP3     H2       HT       0.417000       1.00800           0
      4750 W2       1584     TIP3     OH2      OT      -0.834000       15.9994           0
      4751 W2       1584     TIP3     H1       HT       0.417000       1.00800           0
      4752 W2       1584     TIP3     H2       HT       0.417000       1.00800           0
      4753 W2       1585     TIP3     OH2      OT      -0.834000       15.9994           0
      4754 W2       1585     TIP3     H1       HT       0.417000       1.00800           0
      4755 W2       1585     TIP3     H2       HT       0.417000       1.00800           0
      4756 W2       1586     TIP3     OH2      OT      -0.834000       15.9994           0
      4757 W2       1586     TIP3     H1       HT       0.417000       1.00800           0
      4758 W2       1586     TIP3     H2       HT       0.417000       1.00800           0
      4759 W2       1587     TIP3     OH2      OT      -0.834000       15.9994           0
      4760 W2       1587     TIP3     H1       HT       0.417000       1.00800           0
      4761 W2       1587     TIP3     H2       HT       0.417000       1.00800           0
      4762 W2       1588     TIP3     OH2      OT      -0.834000       15.9994           0
      4763 W2       1588     TIP3     H1       HT       0.417000       1.00800           0
      4764 W2       1588     TIP3     H2       HT       0.417000       1.00800           0
      4765 W2       1589     TIP3     OH2      OT      -0.834000       15.9994           0
      4766 W2       1589     TIP3     H1       HT       0.417000       1.00800           0
      4767 W2       1589     TIP3     H2       HT       0.417000       1.00800           0
      4768 W2       1590     TIP3     OH2      OT      -0.834000       15.9994           0
      4769 W2       1590     TIP3     H1       HT       0.417000       1.00800           0
      4770 W2       1590     TIP3     H2       HT       0.417000       1.00800           0
      4771 W2       1591     TIP3     OH2      OT      -0.834000       15.9994           0
      4772 W2       1591     TIP3     H1       HT       0.417000       1.00800           0
      4773 W2       1591     TIP3     H2       HT       0.417000       1.00800           0
      4774 W2       1592     TIP3     OH2      OT      -0.834000       15.9994           0
      4775 W2       1592     TIP3     H1       HT       0.417000       1.00800           0
      4776 W2       1592     TIP3     H2       HT       0.417000       1.00800           0
      4777 W2       1593     TIP3     OH2      OT      -0.834000       15.9994           0
      4778 W2       1593     TIP3     H1       HT       0.417000       1.00800           0
      4779 W2       1593     TIP3     H2       HT       0.417000       1.00800           0
      4780 W2       1594     TIP3     OH2      OT      -0.834000       15.9994           0
      4781 W2       1594     TIP3     H1       HT       0.417000       1.00800           0
      4782 W2       1594     TIP3     H2       HT       0.417000       1.00800           0
      4783 W2       1595     TIP3     OH2      OT      -0.834000       15.9994           0
      4784 W2       1595     TIP3     H1       HT       0.417000       1.00800           0
      4785 W2       1595     TIP3     H2       HT       0.417000       1.00800           0
      4786 W2       1596     TIP3     OH2      OT      -0.834000       15.9994           0
      4787 W2       1596     TIP3     H1       HT       0.417000       1.00800           0
      4788 W2       1596     TIP3     H2       HT       0.417000       1.00800           0
      4789 W2       1597     TIP3     OH2      OT      -0.834000       15.9994           0
      4790 W2       1597     TIP3     H1       HT       0.417000       1.00800           0
      4791 W2       1597     TIP3     H2       HT       0.417000       1.00800           0
      4792 W2       1598     TIP3     OH2      OT      -0.834000       15.9994           0
      4793 W2       1598     TIP3     H1       HT       0.417000       1.00800           0
      4794 W2       1598     TIP3     H2       HT       0.417000       1.00800           0
      4795 W2       1599     TIP3     OH2      OT      -0.834000       15.9994           0
      4796 W2       1599     TIP3     H1       HT       0.417000       1.00800           0
      4797 W2       1599     TIP3     H2       HT       0.417000       1.00800           0
      4798 W2       1600     TIP3     OH2      OT      -0.834000       15.9994           0
      4799 W2       1600     TIP3     H1       HT       0.417000       1.00800           0
      4800 W2       1600     TIP3     H2       HT       0.417000       1.00800           0
      4801 W2       1601     TIP3     OH2      OT      -0.834000       15.9994           0
      4802 W2       1601     TIP3     H1       HT       0.417000       1.00800           0
      4803 W2       1601     TIP3     H2       HT       0.417000       1.00800           0
      4804 W2       1602     TIP3     OH2      OT      -0.834000       15.9994           0
      4805 W2       1602     TIP3     H1       HT       0.417000       1.00800           0
      4806 W2       1602     TIP3     H2       HT       0.417000       1.00800           0
      4807 W2       1603     TIP3     OH2      OT      -0.834000       15.9994           0
      4808 W2       1603     TIP3     H1       HT       0.417000       1.00800           0
      4809 W2       1603     TIP3     H2       HT       0.417000       1.00800           0
      4810 W2       1604     TIP3     OH2      OT      -0.834000       15.9994           0
      4811 W2       1604     TIP3     H1       HT       0.417000       1.00800           0
      4812 W2       1604     TIP3     H2       HT       0.417000       1.00800           0
      4813 W2       1605     TIP3     OH2      OT      -0.834000       15.9994           0
      4814 W2       1605     TIP3     H1       HT       0.417000       1.00800           0
      4815 W2       1605     TIP3     H2       HT       0.417000       1.00800           0
      4816 W2       1606     TIP3     OH2      OT      -0.834000       15.9994           0
      4817 W2       1606     TIP3     H1       HT       0.417000       1.00800           0
      4818 W2       1606     TIP3     H2       HT       0.417000       1.00800           0
      4819 W2       1607     TIP3     OH2      OT      -0.834000       15.9994           0
      4820 W2       1607     TIP3     H1       HT       0.417000       1.00800           0
      4821 W2       1607     TIP3     H2       HT       0.417000       1.00800           0
      4822 W2       1608     TIP3     OH2      OT      -0.834000       15.9994           0
      4823 W2       1608     TIP3     H1       HT       0.417000       1.00800           0
      4824 W2       1608     TIP3     H2       HT       0.417000       1.00800           0
      4825 W2       1609     TIP3     OH2      OT      -0.834000       15.9994           0
      4826 W2       1609     TIP3     H1       HT       0.417000       1.00800           0
      4827 W2       1609     TIP3     H2       HT       0.417000       1.00800           0
      4828 W2       1610     TIP3     OH2      OT      -0.834000       15.9994           0
      4829 W2       1610     TIP3     H1       HT       0.417000       1.00800           0
      4830 W2       1610     TIP3     H2       HT       0.417000       1.00800           0
      4831 W2       1611     TIP3     OH2      OT      -0.834000       15.9994           0
      4832 W2       1611     TIP3     H1       HT       0.417000       1.00800           0
      4833 W2       1611     TIP3     H2       HT       0.417000       1.00800           0
      4834 W2       1612     TIP3     OH2      OT      -0.834000       15.9994           0
      4835 W2       1612     TIP3     H1       HT       0.417000       1.00800           0
      4836 W2       1612     TIP3     H2       HT       0.417000       1.00800           0
      4837 W2       1613     TIP3     OH2      OT      -0.834000       15.9994           0
      4838 W2       1613     TIP3     H1       HT       0.417000       1.00800           0
      4839 W2       1613     TIP3     H2       HT       0.417000       1.00800           0
      4840 W2       1614     TIP3     OH2      OT      -0.834000       15.9994           0
      4841 W2       1614     TIP3     H1       HT       0.417000       1.00800           0
      4842 W2       1614     TIP3     H2       HT       0.417000       1.00800           0
      4843 W2       1615     TIP3     OH2      OT      -0.834000       15.9994           0
      4844 W2       1615     TIP3     H1       HT       0.417000       1.00800           0
      4845 W2       1615     TIP3     H2       HT       0.417000       1.00800           0
      4846 W2       1616     TIP3     OH2      OT      -0.834000       15.9994           0
      4847 W2       1616     TIP3     H1       HT       0.417000       1.00800           0
      4848 W2       1616     TIP3     H2       HT       0.417000       1.00800           0
      4849 W2       1617     TIP3     OH2      OT      -0.834000       15.9994           0
      4850 W2       1617     TIP3     H1       HT       0.417000       1.00800           0
      4851 W2       1617     TIP3     H2       HT       0.417000       1.00800           0
      4852 W2       1618     TIP3     OH2      OT      -0.834000       15.9994           0
      4853 W2       1618     TIP3     H1       HT       0.417000       1.00800           0
      4854 W2       1618     TIP3     H2       HT       0.417000       1.00800           0
      4855 W2       1619     TIP3     OH2      OT      -0.834000       15.9994           0
      4856 W2       1619     TIP3     H1       HT       0.417000       1.00800           0
      4857 W2       1619     TIP3     H2       HT       0.417000       1.00800           0
      4858 W2       1620     TIP3     OH2      OT      -0.834000       15.9994           0
      4859 W2       1620     TIP3     H1       HT       0.417000       1.00800           0
      4860 W2       1620     TIP3     H2       HT       0.417000       1.00800           0
      4861 W2       1621     TIP3     OH2      OT      -0.834000       15.9994           0
      4862 W2       1621     TIP3     H1       HT       0.417000       1.00800           0
      4863 W2       1621     TIP3     H2       HT       0.417000       1.00800           0
      4864 W2       1622     TIP3     OH2      OT      -0.834000       15.9994           0
      4865 W2       1622     TIP3     H1       HT       0.417000       1.00800           0
      4866 W2       1622     TIP3     H2       HT       0.417000       1.00800           0
      4867 W2       1623     TIP3     OH2      OT      -0.834000       15.9994           0
      4868 W2       1623     TIP3     H1       HT       0.417000       1.00800           0
      4869 W2       1623     TIP3     H2       HT       0.417000       1.00800           0
      4870 W2       1624     TIP3     OH2      OT      -0.834000       15.9994           0
      4871 W2       1624     TIP3     H1       HT       0.417000       1.00800           0
      4872 W2       1624     TIP3     H2       HT       0.417000       1.00800           0
      4873 W2       1625     TIP3     OH2      OT      -0.834000       15.9994           0
      4874 W2       1625     TIP3     H1       HT       0.417000       1.00800           0
      4875 W2       1625     TIP3     H2       HT       0.417000       1.00800           0
      4876 W2       1626     TIP3     OH2      OT      -0.834000       15.9994           0
      4877 W2       1626     TIP3     H1       HT       0.417000       1.00800           0
      4878 W2       1626     TIP3     H2       HT       0.417000       1.00800           0
      4879 W2       1627     TIP3     OH2      OT      -0.834000       15.9994           0
      4880 W2       1627     TIP3     H1       HT       0.417000       1.00800           0
      4881 W2       1627     TIP3     H2       HT       0.417000       1.00800           0
      4882 W2       1628     TIP3     OH2      OT      -0.834000       15.9994           0
      4883 W2       1628     TIP3     H1       HT       0.417000       1.00800           0
      4884 W2       1628     TIP3     H2       HT       0.417000       1.00800           0
      4885 W2       1629     TIP3     OH2      OT      -0.834000       15.9994           0
      4886 W2       1629     TIP3     H1       HT       0.417000       1.00800           0
      4887 W2       1629     TIP3     H2       HT       0.417000       1.00800           0
      4888 W2       1630     TIP3     OH2      OT      -0.834000       15.9994           0
      4889 W2       1630     TIP3     H1       HT       0.417000       1.00800           0
      4890 W2       1630     TIP3     H2       HT       0.417000       1.00800           0
      4891 W2       1631     TIP3     OH2      OT      -0.834000       15.9994           0
      4892 W2       1631     TIP3     H1       HT       0.417000       1.00800           0
      4893 W2       1631     TIP3     H2       HT       0.417000       1.00800           0
      4894 W2       1632     TIP3     OH2      OT      -0.834000       15.9994           0
      4895 W2       1632     TIP3     H1       HT       0.417000       1.00800           0
      4896 W2       1632     TIP3     H2       HT       0.417000       1.00800           0
      4897 W2       1633     TIP3     OH2      OT      -0.834000       15.9994           0
      4898 W2       1633     TIP3     H1       HT       0.417000       1.00800           0
      4899 W2       1633     TIP3     H2       HT       0.417000       1.00800           0
      4900 W2       1634     TIP3     OH2      OT      -0.834000       15.9994           0
      4901 W2       1634     TIP3     H1       HT       0.417000       1.00800           0
      4902 W2       1634     TIP3     H2       HT       0.417000       1.00800           0
      4903 W2       1635     TIP3     OH2      OT      -0.834000       15.9994           0
      4904 W2       1635     TIP3     H1       HT       0.417000       1.00800           0
      4905 W2       1635     TIP3     H2       HT       0.417000       1.00800           0
      4906 W2       1636     TIP3     OH2      OT      -0.834000       15.9994           0
      4907 W2       1636     TIP3     H1       HT       0.417000       1.00800           0
      4908 W2       1636     TIP3     H2       HT       0.417000       1.00800           0
      4909 W2       1637     TIP3     OH2      OT      -0.834000       15.9994           0
      4910 W2       1637     TIP3     H1       HT       0.417000       1.00800           0
      4911 W2       1637     TIP3     H2       HT       0.417000       1.00800           0
      4912 W2       1638     TIP3     OH2      OT      -0.834000       15.9994           0
      4913 W2       1638     TIP3     H1       HT       0.417000       1.00800           0
      4914 W2       1638     TIP3     H2       HT       0.417000       1.00800           0
      4915 W2       1639     TIP3     OH2      OT      -0.834000       15.9994           0
      4916 W2       1639     TIP3     H1       HT       0.417000       1.00800           0
      4917 W2       1639     TIP3     H2       HT       0.417000       1.00800           0
      4918 W2       1640     TIP3     OH2      OT      -0.834000       15.9994           0
      4919 W2       1640     TIP3     H1       HT       0.417000       1.00800           0
      4920 W2       1640     TIP3     H2       HT       0.417000       1.00800           0
      4921 W2       1641     TIP3     OH2      OT      -0.834000       15.9994           0
      4922 W2       1641     TIP3     H1       HT       0.417000       1.00800           0
      4923 W2       1641     TIP3     H2       HT       0.417000       1.00800           0
      4924 W2       1642     TIP3     OH2      OT      -0.834000       15.9994           0
      4925 W2       1642     TIP3     H1       HT       0.417000       1.00800           0
      4926 W2       1642     TIP3     H2       HT       0.417000       1.00800           0
      4927 W2       1643     TIP3     OH2      OT      -0.834000       15.9994           0
      4928 W2       1643     TIP3     H1       HT       0.417000       1.00800           0
      4929 W2       1643     TIP3     H2       HT       0.417000       1.00800           0
      4930 W2       1644     TIP3     OH2      OT      -0.834000       15.9994           0
      4931 W2       1644     TIP3     H1       HT       0.417000       1.00800           0
      4932 W2       1644     TIP3     H2       HT       0.417000       1.00800           0
      4933 W2       1645     TIP3     OH2      OT      -0.834000       15.9994           0
      4934 W2       1645     TIP3     H1       HT       0.417000       1.00800           0
      4935 W2       1645     TIP3     H2       HT       0.417000       1.00800           0
      4936 W2       1646     TIP3     OH2      OT      -0.834000       15.9994           0
      4937 W2       1646     TIP3     H1       HT       0.417000       1.00800           0
      4938 W2       1646     TIP3     H2       HT       0.417000       1.00800           0
      4939 W2       1647     TIP3     OH2      OT      -0.834000       15.9994           0
      4940 W2       1647     TIP3     H1       HT       0.417000       1.00800           0
      4941 W2       1647     TIP3     H2       HT       0.417000       1.00800           0
      4942 W2       1648     TIP3     OH2      OT      -0.834000       15.9994           0
      4943 W2       1648     TIP3     H1       HT       0.417000       1.00800           0
      4944 W2       1648     TIP3     H2       HT       0.417000       1.00800           0
      4945 W2       1649     TIP3     OH2      OT      -0.834000       15.9994           0
      4946 W2       1649     TIP3     H1       HT       0.417000       1.00800           0
      4947 W2       1649     TIP3     H2       HT       0.417000       1.00800           0
      4948 W2       1650     TIP3     OH2      OT      -0.834000       15.9994           0
      4949 W2       1650     TIP3     H1       HT       0.417000       1.00800           0
      4950 W2       1650     TIP3     H2       HT       0.417000       1.00800           0
      4951 W2       1651     TIP3     OH2      OT      -0.834000       15.9994           0
      4952 W2       1651     TIP3     H1       HT       0.417000       1.00800           0
      4953 W2       1651     TIP3     H2       HT       0.417000       1.00800           0
      4954 W2       1652     TIP3     OH2      OT      -0.834000       15.9994           0
      4955 W2       1652     TIP3     H1       HT       0.417000       1.00800           0
      4956 W2       1652     TIP3     H2       HT       0.417000       1.00800           0
      4957 W2       1653     TIP3     OH2      OT      -0.834000       15.9994           0
      4958 W2       1653     TIP3     H1       HT       0.417000       1.00800           0
      4959 W2       1653     TIP3     H2       HT       0.417000       1.00800           0
      4960 W2       1654     TIP3     OH2      OT      -0.834000       15.9994           0
      4961 W2       1654     TIP3     H1       HT       0.417000       1.00800           0
      4962 W2       1654     TIP3     H2       HT       0.417000       1.00800           0
      4963 W2       1655     TIP3     OH2      OT      -0.834000       15.9994           0
      4964 W2       1655     TIP3     H1       HT       0.417000       1.00800           0
      4965 W2       1655     TIP3     H2       HT       0.417000       1.00800           0
      4966 W2       1656     TIP3     OH2      OT      -0.834000       15.9994           0
      4967 W2       1656     TIP3     H1       HT       0.417000       1.00800           0
      4968 W2       1656     TIP3     H2       HT       0.417000       1.00800           0
      4969 W2       1657     TIP3     OH2      OT      -0.834000       15.9994           0
      4970 W2       1657     TIP3     H1       HT       0.417000       1.00800           0
      4971 W2       1657     TIP3     H2       HT       0.417000       1.00800           0
      4972 W2       1658     TIP3     OH2      OT      -0.834000       15.9994           0
      4973 W2       1658     TIP3     H1       HT       0.417000       1.00800           0
      4974 W2       1658     TIP3     H2       HT       0.417000       1.00800           0
      4975 W2       1659     TIP3     OH2      OT      -0.834000       15.9994           0
      4976 W2       1659     TIP3     H1       HT       0.417000       1.00800           0
      4977 W2       1659     TIP3     H2       HT       0.417000       1.00800           0
      4978 W2       1660     TIP3     OH2      OT      -0.834000       15.9994           0
      4979 W2       1660     TIP3     H1       HT       0.417000       1.00800           0
      4980 W2       1660     TIP3     H2       HT       0.417000       1.00800           0
      4981 W2       1661     TIP3     OH2      OT      -0.834000       15.9994           0
      4982 W2       1661     TIP3     H1       HT       0.417000       1.00800           0
      4983 W2       1661     TIP3     H2       HT       0.417000       1.00800           0
      4984 W2       1662     TIP3     OH2      OT      -0.834000       15.9994           0
      4985 W2       1662     TIP3     H1       HT       0.417000       1.00800           0
      4986 W2       1662     TIP3     H2       HT       0.417000       1.00800           0
      4987 W2       1663     TIP3     OH2      OT      -0.834000       15.9994           0
      4988 W2       1663     TIP3     H1       HT       0.417000       1.00800           0
      4989 W2       1663     TIP3     H2       HT       0.417000       1.00800           0
      4990 W2       1664     TIP3     OH2      OT      -0.834000       15.9994           0
      4991 W2       1664     TIP3     H1       HT       0.417000       1.00800           0
      4992 W2       1664     TIP3     H2       HT       0.417000       1.00800           0
      4993 W2       1665     TIP3     OH2      OT      -0.834000       15.9994           0
      4994 W2       1665     TIP3     H1       HT       0.417000       1.00800           0
      4995 W2       1665     TIP3     H2       HT       0.417000       1.00800           0
      4996 W2       1666     TIP3     OH2      OT      -0.834000       15.9994           0
      4997 W2       1666     TIP3     H1       HT       0.417000       1.00800           0
      4998 W2       1666     TIP3     H2       HT       0.417000       1.00800           0
      4999 W2       1667     TIP3     OH2      OT      -0.834000       15.9994           0
      5000 W2       1667     TIP3     H1       HT       0.417000       1.00800           0
      5001 W2       1667     TIP3     H2       HT       0.417000       1.00800           0
      5002 W2       1668     TIP3     OH2      OT      -0.834000       15.9994           0
      5003 W2       1668     TIP3     H1       HT       0.417000       1.00800           0
      5004 W2       1668     TIP3     H2       HT       0.417000       1.00800           0
      5005 W2       1669     TIP3     OH2      OT      -0.834000       15.9994           0
      5006 W2       1669     TIP3     H1       HT       0.417000       1.00800           0
      5007 W2       1669     TIP3     H2       HT       0.417000       1.00800           0
      5008 W2       1670     TIP3     OH2      OT      -0.834000       15.9994           0
      5009 W2       1670     TIP3     H1       HT       0.417000       1.00800           0
      5010 W2       1670     TIP3     H2       HT       0.417000       1.00800           0
      5011 W2       1671     TIP3     OH2      OT      -0.834000       15.9994           0
      5012 W2       1671     TIP3     H1       HT       0.417000       1.00800           0
      5013 W2       1671     TIP3     H2       HT       0.417000       1.00800           0
      5014 W2       1672     TIP3     OH2      OT      -0.834000       15.9994           0
      5015 W2       1672     TIP3     H1       HT       0.417000       1.00800           0
      5016 W2       1672     TIP3     H2       HT       0.417000       1.00800           0
      5017 W2       1673     TIP3     OH2      OT      -0.834000       15.9994           0
      5018 W2       1673     TIP3     H1       HT       0.417000       1.00800           0
      5019 W2       1673     TIP3     H2       HT       0.417000       1.00800           0
      5020 W2       1674     TIP3     OH2      OT      -0.834000       15.9994           0
      5021 W2       1674     TIP3     H1       HT       0.417000       1.00800           0
      5022 W2       1674     TIP3     H2       HT       0.417000       1.00800           0
      5023 W2       1675     TIP3     OH2      OT      -0.834000       15.9994           0
      5024 W2       1675     TIP3     H1       HT       0.417000       1.00800           0
      5025 W2       1675     TIP3     H2       HT       0.417000       1.00800           0
      5026 W2       1676     TIP3     OH2      OT      -0.834000       15.9994           0
      5027 W2       1676     TIP3     H1       HT       0.417000       1.00800           0
      5028 W2       1676     TIP3     H2       HT       0.417000       1.00800           0
      5029 W2       1677     TIP3     OH2      OT      -0.834000       15.9994           0
      5030 W2       1677     TIP3     H1       HT       0.417000       1.00800           0
      5031 W2       1677     TIP3     H2       HT       0.417000       1.00800           0
      5032 W2       1678     TIP3     OH2      OT      -0.834000       15.9994           0
      5033 W2       1678     TIP3     H1       HT       0.417000       1.00800           0
      5034 W2       1678     TIP3     H2       HT       0.417000       1.00800           0
      5035 W2       1679     TIP3     OH2      OT      -0.834000       15.9994           0
      5036 W2       1679     TIP3     H1       HT       0.417000       1.00800           0
      5037 W2       1679     TIP3     H2       HT       0.417000       1.00800           0
      5038 W2       1680     TIP3     OH2      OT      -0.834000       15.9994           0
      5039 W2       1680     TIP3     H1       HT       0.417000       1.00800           0
      5040 W2       1680     TIP3     H2       HT       0.417000       1.00800           0
      5041 W2       1681     TIP3     OH2      OT      -0.834000       15.9994           0
      5042 W2       1681     TIP3     H1       HT       0.417000       1.00800           0
      5043 W2       1681     TIP3     H2       HT       0.417000       1.00800           0
      5044 W2       1682     TIP3     OH2      OT      -0.834000       15.9994           0
      5045 W2       1682     TIP3     H1       HT       0.417000       1.00800           0
      5046 W2       1682     TIP3     H2       HT       0.417000       1.00800           0
      5047 W2       1683     TIP3     OH2      OT      -0.834000       15.9994           0
      5048 W2       1683     TIP3     H1       HT       0.417000       1.00800           0
      5049 W2       1683     TIP3     H2       HT       0.417000       1.00800           0
      5050 W2       1684     TIP3     OH2      OT      -0.834000       15.9994           0
      5051 W2       1684     TIP3     H1       HT       0.417000       1.00800           0
      5052 W2       1684     TIP3     H2       HT       0.417000       1.00800           0
      5053 W2       1685     TIP3     OH2      OT      -0.834000       15.9994           0
      5054 W2       1685     TIP3     H1       HT       0.417000       1.00800           0
      5055 W2       1685     TIP3     H2       HT       0.417000       1.00800           0
      5056 W2       1686     TIP3     OH2      OT      -0.834000       15.9994           0
      5057 W2       1686     TIP3     H1       HT       0.417000       1.00800           0
      5058 W2       1686     TIP3     H2       HT       0.417000       1.00800           0
      5059 W2       1687     TIP3     OH2      OT      -0.834000       15.9994           0
      5060 W2       1687     TIP3     H1       HT       0.417000       1.00800           0
      5061 W2       1687     TIP3     H2       HT       0.417000       1.00800           0
      5062 W2       1688     TIP3     OH2      OT      -0.834000       15.9994           0
      5063 W2       1688     TIP3     H1       HT       0.417000       1.00800           0
      5064 W2       1688     TIP3     H2       HT       0.417000       1.00800           0
      5065 W2       1689     TIP3     OH2      OT      -0.834000       15.9994           0
      5066 W2       1689     TIP3     H1       HT       0.417000       1.00800           0
      5067 W2       1689     TIP3     H2       HT       0.417000       1.00800           0
      5068 W2       1690     TIP3     OH2      OT      -0.834000       15.9994           0
      5069 W2       1690     TIP3     H1       HT       0.417000       1.00800           0
      5070 W2       1690     TIP3     H2       HT       0.417000       1.00800           0
      5071 W2       1691     TIP3     OH2      OT      -0.834000       15.9994           0
      5072 W2       1691     TIP3     H1       HT       0.417000       1.00800           0
      5073 W2       1691     TIP3     H2       HT       0.417000       1.00800           0
      5074 W2       1692     TIP3     OH2      OT      -0.834000       15.9994           0
      5075 W2       1692     TIP3     H1       HT       0.417000       1.00800           0
      5076 W2       1692     TIP3     H2       HT       0.417000       1.00800           0
      5077 W2       1693     TIP3     OH2      OT      -0.834000       15.9994           0
      5078 W2       1693     TIP3     H1       HT       0.417000       1.00800           0
      5079 W2       1693     TIP3     H2       HT       0.417000       1.00800           0
      5080 W2       1694     TIP3     OH2      OT      -0.834000       15.9994           0
      5081 W2       1694     TIP3     H1       HT       0.417000       1.00800           0
      5082 W2       1694     TIP3     H2       HT       0.417000       1.00800           0
      5083 W2       1695     TIP3     OH2      OT      -0.834000       15.9994           0
      5084 W2       1695     TIP3     H1       HT       0.417000       1.00800           0
      5085 W2       1695     TIP3     H2       HT       0.417000       1.00800           0
      5086 W2       1696     TIP3     OH2      OT      -0.834000       15.9994           0
      5087 W2       1696     TIP3     H1       HT       0.417000       1.00800           0
      5088 W2       1696     TIP3     H2       HT       0.417000       1.00800           0
      5089 W2       1697     TIP3     OH2      OT      -0.834000       15.9994           0
      5090 W2       1697     TIP3     H1       HT       0.417000       1.00800           0
      5091 W2       1697     TIP3     H2       HT       0.417000       1.00800           0
      5092 W2       1698     TIP3     OH2      OT      -0.834000       15.9994           0
      5093 W2       1698     TIP3     H1       HT       0.417000       1.00800           0
      5094 W2       1698     TIP3     H2       HT       0.417000       1.00800           0
      5095 W2       1699     TIP3     OH2      OT      -0.834000       15.9994           0
      5096 W2       1699     TIP3     H1       HT       0.417000       1.00800           0
      5097 W2       1699     TIP3     H2       HT       0.417000       1.00800           0
      5098 W2       1700     TIP3     OH2      OT      -0.834000       15.9994           0
      5099 W2       1700     TIP3     H1       HT       0.417000       1.00800           0
      5100 W2       1700     TIP3     H2       HT       0.417000       1.00800           0
      5101 W2       1701     TIP3     OH2      OT      -0.834000       15.9994           0
      5102 W2       1701     TIP3     H1       HT       0.417000       1.00800           0
      5103 W2       1701     TIP3     H2       HT       0.417000       1.00800           0
      5104 W2       1702     TIP3     OH2      OT      -0.834000       15.9994           0
      5105 W2       1702     TIP3     H1       HT       0.417000       1.00800           0
      5106 W2       1702     TIP3     H2       HT       0.417000       1.00800           0
      5107 W2       1703     TIP3     OH2      OT      -0.834000       15.9994           0
      5108 W2       1703     TIP3     H1       HT       0.417000       1.00800           0
      5109 W2       1703     TIP3     H2       HT       0.417000       1.00800           0
      5110 W2       1704     TIP3     OH2      OT      -0.834000       15.9994           0
      5111 W2       1704     TIP3     H1       HT       0.417000       1.00800           0
      5112 W2       1704     TIP3     H2       HT       0.417000       1.00800           0
      5113 W2       1705     TIP3     OH2      OT      -0.834000       15.9994           0
      5114 W2       1705     TIP3     H1       HT       0.417000       1.00800           0
      5115 W2       1705     TIP3     H2       HT       0.417000       1.00800           0
      5116 W2       1706     TIP3     OH2      OT      -0.834000       15.9994           0
      5117 W2       1706     TIP3     H1       HT       0.417000       1.00800           0
      5118 W2       1706     TIP3     H2       HT       0.417000       1.00800           0
      5119 W2       1707     TIP3     OH2      OT      -0.834000       15.9994           0
      5120 W2       1707     TIP3     H1       HT       0.417000       1.00800           0
      5121 W2       1707     TIP3     H2       HT       0.417000       1.00800           0
      5122 W2       1708     TIP3     OH2      OT      -0.834000       15.9994           0
      5123 W2       1708     TIP3     H1       HT       0.417000       1.00800           0
      5124 W2       1708     TIP3     H2       HT       0.417000       1.00800           0
      5125 W2       1709     TIP3     OH2      OT      -0.834000       15.9994           0
      5126 W2       1709     TIP3     H1       HT       0.417000       1.00800           0
      5127 W2       1709     TIP3     H2       HT       0.417000       1.00800           0
      5128 W2       1710     TIP3     OH2      OT      -0.834000       15.9994           0
      5129 W2       1710     TIP3     H1       HT       0.417000       1.00800           0
      5130 W2       1710     TIP3     H2       HT       0.417000       1.00800           0
      5131 W2       1711     TIP3     OH2      OT      -0.834000       15.9994           0
      5132 W2       1711     TIP3     H1       HT       0.417000       1.00800           0
      5133 W2       1711     TIP3     H2       HT       0.417000       1.00800           0
      5134 W2       1712     TIP3     OH2      OT      -0.834000       15.9994           0
      5135 W2       1712     TIP3     H1       HT       0.417000       1.00800           0
      5136 W2       1712     TIP3     H2       HT       0.417000       1.00800           0
      5137 W2       1713     TIP3     OH2      OT      -0.834000       15.9994           0
      5138 W2       1713     TIP3     H1       HT       0.417000       1.00800           0
      5139 W2       1713     TIP3     H2       HT       0.417000       1.00800           0
      5140 W2       1714     TIP3     OH2      OT      -0.834000       15.9994           0
      5141 W2       1714     TIP3     H1       HT       0.417000       1.00800           0
      5142 W2       1714     TIP3     H2       HT       0.417000       1.00800           0
      5143 W2       1715     TIP3     OH2      OT      -0.834000       15.9994           0
      5144 W2       1715     TIP3     H1       HT       0.417000       1.00800           0
      5145 W2       1715     TIP3     H2       HT       0.417000       1.00800           0
      5146 W2       1716     TIP3     OH2      OT      -0.834000       15.9994           0
      5147 W2       1716     TIP3     H1       HT       0.417000       1.00800           0
      5148 W2       1716     TIP3     H2       HT       0.417000       1.00800           0
      5149 W2       1717     TIP3     OH2      OT      -0.834000       15.9994           0
      5150 W2       1717     TIP3     H1       HT       0.417000       1.00800           0
      5151 W2       1717     TIP3     H2       HT       0.417000       1.00800           0
      5152 W2       1718     TIP3     OH2      OT      -0.834000       15.9994           0
      5153 W2       1718     TIP3     H1       HT       0.417000       1.00800           0
      5154 W2       1718     TIP3     H2       HT       0.417000       1.00800           0
      5155 W2       1719     TIP3     OH2      OT      -0.834000       15.9994           0
      5156 W2       1719     TIP3     H1       HT       0.417000       1.00800           0
      5157 W2       1719     TIP3     H2       HT       0.417000       1.00800           0
      5158 W2       1720     TIP3     OH2      OT      -0.834000       15.9994           0
      5159 W2       1720     TIP3     H1       HT       0.417000       1.00800           0
      5160 W2       1720     TIP3     H2       HT       0.417000       1.00800           0
      5161 W2       1721     TIP3     OH2      OT      -0.834000       15.9994           0
      5162 W2       1721     TIP3     H1       HT       0.417000       1.00800           0
      5163 W2       1721     TIP3     H2       HT       0.417000       1.00800           0
      5164 W2       1722     TIP3     OH2      OT      -0.834000       15.9994           0
      5165 W2       1722     TIP3     H1       HT       0.417000       1.00800           0
      5166 W2       1722     TIP3     H2       HT       0.417000       1.00800           0
      5167 W2       1723     TIP3     OH2      OT      -0.834000       15.9994           0
      5168 W2       1723     TIP3     H1       HT       0.417000       1.00800           0
      5169 W2       1723     TIP3     H2       HT       0.417000       1.00800           0
      5170 W2       1724     TIP3     OH2      OT      -0.834000       15.9994           0
      5171 W2       1724     TIP3     H1       HT       0.417000       1.00800           0
      5172 W2       1724     TIP3     H2       HT       0.417000       1.00800           0
      5173 W2       1725     TIP3     OH2      OT      -0.834000       15.9994           0
      5174 W2       1725     TIP3     H1       HT       0.417000       1.00800           0
      5175 W2       1725     TIP3     H2       HT       0.417000       1.00800           0
      5176 W2       1726     TIP3     OH2      OT      -0.834000       15.9994           0
      5177 W2       1726     TIP3     H1       HT       0.417000       1.00800           0
      5178 W2       1726     TIP3     H2       HT       0.417000       1.00800           0
      5179 W2       1727     TIP3     OH2      OT      -0.834000       15.9994           0
      5180 W2       1727     TIP3     H1       HT       0.417000       1.00800           0
      5181 W2       1727     TIP3     H2       HT       0.417000       1.00800           0
      5182 W2       1728     TIP3     OH2      OT      -0.834000       15.9994           0
      5183 W2       1728     TIP3     H1       HT       0.417000       1.00800           0
      5184 W2       1728     TIP3     H2       HT       0.417000       1.00800           0
      5185 W2       1729     TIP3     OH2      OT      -0.834000       15.9994           0
      5186 W2       1729     TIP3     H1       HT       0.417000       1.00800           0
      5187 W2       1729     TIP3     H2       HT       0.417000       1.00800           0
      5188 W2       1730     TIP3     OH2      OT      -0.834000       15.9994           0
      5189 W2       1730     TIP3     H1       HT       0.417000       1.00800           0
      5190 W2       1730     TIP3     H2       HT       0.417000       1.00800           0
      5191 W2       1731     TIP3     OH2      OT      -0.834000       15.9994           0
      5192 W2       1731     TIP3     H1       HT       0.417000       1.00800           0
      5193 W2       1731     TIP3     H2       HT       0.417000       1.00800           0
      5194 W2       1732     TIP3     OH2      OT      -0.834000       15.9994           0
      5195 W2       1732     TIP3     H1       HT       0.417000       1.00800           0
      5196 W2       1732     TIP3     H2       HT       0.417000       1.00800           0
      5197 W2       1733     TIP3     OH2      OT      -0.834000       15.9994           0
      5198 W2       1733     TIP3     H1       HT       0.417000       1.00800           0
      5199 W2       1733     TIP3     H2       HT       0.417000       1.00800           0
      5200 W2       1734     TIP3     OH2      OT      -0.834000       15.9994           0
      5201 W2       1734     TIP3     H1       HT       0.417000       1.00800           0
      5202 W2       1734     TIP3     H2       HT       0.417000       1.00800           0
      5203 W2       1735     TIP3     OH2      OT      -0.834000       15.9994           0
      5204 W2       1735     TIP3     H1       HT       0.417000       1.00800           0
      5205 W2       1735     TIP3     H2       HT       0.417000       1.00800           0
      5206 W2       1736     TIP3     OH2      OT      -0.834000       15.9994           0
      5207 W2       1736     TIP3     H1       HT       0.417000       1.00800           0
      5208 W2       1736     TIP3     H2       HT       0.417000       1.00800           0
      5209 W2       1737     TIP3     OH2      OT      -0.834000       15.9994           0
      5210 W2       1737     TIP3     H1       HT       0.417000       1.00800           0
      5211 W2       1737     TIP3     H2       HT       0.417000       1.00800           0
      5212 W2       1738     TIP3     OH2      OT      -0.834000       15.9994           0
      5213 W2       1738     TIP3     H1       HT       0.417000       1.00800           0
      5214 W2       1738     TIP3     H2       HT       0.417000       1.00800           0
      5215 W2       1739     TIP3     OH2      OT      -0.834000       15.9994           0
      5216 W2       1739     TIP3     H1       HT       0.417000       1.00800           0
      5217 W2       1739     TIP3     H2       HT       0.417000       1.00800           0
      5218 W2       1740     TIP3     OH2      OT      -0.834000       15.9994           0
      5219 W2       1740     TIP3     H1       HT       0.417000       1.00800           0
      5220 W2       1740     TIP3     H2       HT       0.417000       1.00800           0
      5221 W2       1741     TIP3     OH2      OT      -0.834000       15.9994           0
      5222 W2       1741     TIP3     H1       HT       0.417000       1.00800           0
      5223 W2       1741     TIP3     H2       HT       0.417000       1.00800           0
      5224 W2       1742     TIP3     OH2      OT      -0.834000       15.9994           0
      5225 W2       1742     TIP3     H1       HT       0.417000       1.00800           0
      5226 W2       1742     TIP3     H2       HT       0.417000       1.00800           0
      5227 W2       1743     TIP3     OH2      OT      -0.834000       15.9994           0
      5228 W2       1743     TIP3     H1       HT       0.417000       1.00800           0
      5229 W2       1743     TIP3     H2       HT       0.417000       1.00800           0
      5230 W2       1744     TIP3     OH2      OT      -0.834000       15.9994           0
      5231 W2       1744     TIP3     H1       HT       0.417000       1.00800           0
      5232 W2       1744     TIP3     H2       HT       0.417000       1.00800           0
      5233 W2       1745     TIP3     OH2      OT      -0.834000       15.9994           0
      5234 W2       1745     TIP3     H1       HT       0.417000       1.00800           0
      5235 W2       1745     TIP3     H2       HT       0.417000       1.00800           0
      5236 W2       1746     TIP3     OH2      OT      -0.834000       15.9994           0
      5237 W2       1746     TIP3     H1       HT       0.417000       1.00800           0
      5238 W2       1746     TIP3     H2       HT       0.417000       1.00800           0
      5239 W2       1747     TIP3     OH2      OT      -0.834000       15.9994           0
      5240 W2       1747     TIP3     H1       HT       0.417000       1.00800           0
      5241 W2       1747     TIP3     H2       HT       0.417000       1.00800           0
      5242 W2       1748     TIP3     OH2      OT      -0.834000       15.9994           0
      5243 W2       1748     TIP3     H1       HT       0.417000       1.00800           0
      5244 W2       1748     TIP3     H2       HT       0.417000       1.00800           0
      5245 W2       1749     TIP3     OH2      OT      -0.834000       15.9994           0
      5246 W2       1749     TIP3     H1       HT       0.417000       1.00800           0
      5247 W2       1749     TIP3     H2       HT       0.417000       1.00800           0
      5248 W2       1750     TIP3     OH2      OT      -0.834000       15.9994           0
      5249 W2       1750     TIP3     H1       HT       0.417000       1.00800           0
      5250 W2       1750     TIP3     H2       HT       0.417000       1.00800           0
      5251 W2       1751     TIP3     OH2      OT      -0.834000       15.9994           0
      5252 W2       1751     TIP3     H1       HT       0.417000       1.00800           0
      5253 W2       1751     TIP3     H2       HT       0.417000       1.00800           0
      5254 W2       1752     TIP3     OH2      OT      -0.834000       15.9994           0
      5255 W2       1752     TIP3     H1       HT       0.417000       1.00800           0
      5256 W2       1752     TIP3     H2       HT       0.417000       1.00800           0
      5257 W2       1753     TIP3     OH2      OT      -0.834000       15.9994           0
      5258 W2       1753     TIP3     H1       HT       0.417000       1.00800           0
      5259 W2       1753     TIP3     H2       HT       0.417000       1.00800           0
      5260 W2       1754     TIP3     OH2      OT      -0.834000       15.9994           0
      5261 W2       1754     TIP3     H1       HT       0.417000       1.00800           0
      5262 W2       1754     TIP3     H2       HT       0.417000       1.00800           0
      5263 W2       1755     TIP3     OH2      OT      -0.834000       15.9994           0
      5264 W2       1755     TIP3     H1       HT       0.417000       1.00800           0
      5265 W2       1755     TIP3     H2       HT       0.417000       1.00800           0
      5266 W2       1756     TIP3     OH2      OT      -0.834000       15.9994           0
      5267 W2       1756     TIP3     H1       HT       0.417000       1.00800           0
      5268 W2       1756     TIP3     H2       HT       0.417000       1.00800           0
      5269 W2       1757     TIP3     OH2      OT      -0.834000       15.9994           0
      5270 W2       1757     TIP3     H1       HT       0.417000       1.00800           0
      5271 W2       1757     TIP3     H2       HT       0.417000       1.00800           0
      5272 W2       1758     TIP3     OH2      OT      -0.834000       15.9994           0
      5273 W2       1758     TIP3     H1       HT       0.417000       1.00800           0
      5274 W2       1758     TIP3     H2       HT       0.417000       1.00800           0
      5275 W2       1759     TIP3     OH2      OT      -0.834000       15.9994           0
      5276 W2       1759     TIP3     H1       HT       0.417000       1.00800           0
      5277 W2       1759     TIP3     H2       HT       0.417000       1.00800           0
      5278 W2       1760     TIP3     OH2      OT      -0.834000       15.9994           0
      5279 W2       1760     TIP3     H1       HT       0.417000       1.00800           0
      5280 W2       1760     TIP3     H2       HT       0.417000       1.00800           0
      5281 W2       1761     TIP3     OH2      OT      -0.834000       15.9994           0
      5282 W2       1761     TIP3     H1       HT       0.417000       1.00800           0
      5283 W2       1761     TIP3     H2       HT       0.417000       1.00800           0
      5284 W2       1762     TIP3     OH2      OT      -0.834000       15.9994           0
      5285 W2       1762     TIP3     H1       HT       0.417000       1.00800           0
      5286 W2       1762     TIP3     H2       HT       0.417000       1.00800           0
      5287 W2       1763     TIP3     OH2      OT      -0.834000       15.9994           0
      5288 W2       1763     TIP3     H1       HT       0.417000       1.00800           0
      5289 W2       1763     TIP3     H2       HT       0.417000       1.00800           0
      5290 W2       1764     TIP3     OH2      OT      -0.834000       15.9994           0
      5291 W2       1764     TIP3     H1       HT       0.417000       1.00800           0
      5292 W2       1764     TIP3     H2       HT       0.417000       1.00800           0
      5293 W2       1765     TIP3     OH2      OT      -0.834000       15.9994           0
      5294 W2       1765     TIP3     H1       HT       0.417000       1.00800           0
      5295 W2       1765     TIP3     H2       HT       0.417000       1.00800           0
      5296 W2       1766     TIP3     OH2      OT      -0.834000       15.9994           0
      5297 W2       1766     TIP3     H1       HT       0.417000       1.00800           0
      5298 W2       1766     TIP3     H2       HT       0.417000       1.00800           0
      5299 W2       1767     TIP3     OH2      OT      -0.834000       15.9994           0
      5300 W2       1767     TIP3     H1       HT       0.417000       1.00800           0
      5301 W2       1767     TIP3     H2       HT       0.417000       1.00800           0
      5302 W2       1768     TIP3     OH2      OT      -0.834000       15.9994           0
      5303 W2       1768     TIP3     H1       HT       0.417000       1.00800           0
      5304 W2       1768     TIP3     H2       HT       0.417000       1.00800           0
      5305 W2       1769     TIP3     OH2      OT      -0.834000       15.9994           0
      5306 W2       1769     TIP3     H1       HT       0.417000       1.00800           0
      5307 W2       1769     TIP3     H2       HT       0.417000       1.00800           0
      5308 W2       1770     TIP3     OH2      OT      -0.834000       15.9994           0
      5309 W2       1770     TIP3     H1       HT       0.417000       1.00800           0
      5310 W2       1770     TIP3     H2       HT       0.417000       1.00800           0
      5311 W2       1771     TIP3     OH2      OT      -0.834000       15.9994           0
      5312 W2       1771     TIP3     H1       HT       0.417000       1.00800           0
      5313 W2       1771     TIP3     H2       HT       0.417000       1.00800           0
      5314 W2       1772     TIP3     OH2      OT      -0.834000       15.9994           0
      5315 W2       1772     TIP3     H1       HT       0.417000       1.00800           0
      5316 W2       1772     TIP3     H2       HT       0.417000       1.00800           0
      5317 W2       1773     TIP3     OH2      OT      -0.834000       15.9994           0
      5318 W2       1773     TIP3     H1       HT       0.417000       1.00800           0
      5319 W2       1773     TIP3     H2       HT       0.417000       1.00800           0
      5320 W2       1774     TIP3     OH2      OT      -0.834000       15.9994           0
      5321 W2       1774     TIP3     H1       HT       0.417000       1.00800           0
      5322 W2       1774     TIP3     H2       HT       0.417000       1.00800           0
      5323 W2       1775     TIP3     OH2      OT      -0.834000       15.9994           0
      5324 W2       1775     TIP3     H1       HT       0.417000       1.00800           0
      5325 W2       1775     TIP3     H2       HT       0.417000       1.00800           0
      5326 W2       1776     TIP3     OH2      OT      -0.834000       15.9994           0
      5327 W2       1776     TIP3     H1       HT       0.417000       1.00800           0
      5328 W2       1776     TIP3     H2       HT       0.417000       1.00800           0
      5329 W2       1777     TIP3     OH2      OT      -0.834000       15.9994           0
      5330 W2       1777     TIP3     H1       HT       0.417000       1.00800           0
      5331 W2       1777     TIP3     H2       HT       0.417000       1.00800           0
      5332 W2       1778     TIP3     OH2      OT      -0.834000       15.9994           0
      5333 W2       1778     TIP3     H1       HT       0.417000       1.00800           0
      5334 W2       1778     TIP3     H2       HT       0.417000       1.00800           0
      5335 W2       1779     TIP3     OH2      OT      -0.834000       15.9994           0
      5336 W2       1779     TIP3     H1       HT       0.417000       1.00800           0
      5337 W2       1779     TIP3     H2       HT       0.417000       1.00800           0
      5338 W2       1780     TIP3     OH2      OT      -0.834000       15.9994           0
      5339 W2       1780     TIP3     H1       HT       0.417000       1.00800           0
      5340 W2       1780     TIP3     H2       HT       0.417000       1.00800           0
      5341 W2       1781     TIP3     OH2      OT      -0.834000       15.9994           0
      5342 W2       1781     TIP3     H1       HT       0.417000       1.00800           0
      5343 W2       1781     TIP3     H2       HT       0.417000       1.00800           0
      5344 W2       1782     TIP3     OH2      OT      -0.834000       15.9994           0
      5345 W2       1782     TIP3     H1       HT       0.417000       1.00800           0
      5346 W2       1782     TIP3     H2       HT       0.417000       1.00800           0
      5347 W2       1783     TIP3     OH2      OT      -0.834000       15.9994           0
      5348 W2       1783     TIP3     H1       HT       0.417000       1.00800           0
      5349 W2       1783     TIP3     H2       HT       0.417000       1.00800           0
      5350 W2       1784     TIP3     OH2      OT      -0.834000       15.9994           0
      5351 W2       1784     TIP3     H1       HT       0.417000       1.00800           0
      5352 W2       1784     TIP3     H2       HT       0.417000       1.00800           0
      5353 W2       1785     TIP3     OH2      OT      -0.834000       15.9994           0
      5354 W2       1785     TIP3     H1       HT       0.417000       1.00800           0
      5355 W2       1785     TIP3     H2       HT       0.417000       1.00800           0
      5356 W2       1786     TIP3     OH2      OT      -0.834000       15.9994           0
      5357 W2       1786     TIP3     H1       HT       0.417000       1.00800           0
      5358 W2       1786     TIP3     H2       HT       0.417000       1.00800           0
      5359 W2       1787     TIP3     OH2      OT      -0.834000       15.9994           0
      5360 W2       1787     TIP3     H1       HT       0.417000       1.00800           0
      5361 W2       1787     TIP3     H2       HT       0.417000       1.00800           0
      5362 W2       1788     TIP3     OH2      OT      -0.834000       15.9994           0
      5363 W2       1788     TIP3     H1       HT       0.417000       1.00800           0
      5364 W2       1788     TIP3     H2       HT       0.417000       1.00800           0
      5365 W2       1789     TIP3     OH2      OT      -0.834000       15.9994           0
      5366 W2       1789     TIP3     H1       HT       0.417000       1.00800           0
      5367 W2       1789     TIP3     H2       HT       0.417000       1.00800           0
      5368 W2       1790     TIP3     OH2      OT      -0.834000       15.9994           0
      5369 W2       1790     TIP3     H1       HT       0.417000       1.00800           0
      5370 W2       1790     TIP3     H2       HT       0.417000       1.00800           0
      5371 W2       1791     TIP3     OH2      OT      -0.834000       15.9994           0
      5372 W2       1791     TIP3     H1       HT       0.417000       1.00800           0
      5373 W2       1791     TIP3     H2       HT       0.417000       1.00800           0
      5374 W2       1792     TIP3     OH2      OT      -0.834000       15.9994           0
      5375 W2       1792     TIP3     H1       HT       0.417000       1.00800           0
      5376 W2       1792     TIP3     H2       HT       0.417000       1.00800           0
      5377 W2       1793     TIP3     OH2      OT      -0.834000       15.9994           0
      5378 W2       1793     TIP3     H1       HT       0.417000       1.00800           0
      5379 W2       1793     TIP3     H2       HT       0.417000       1.00800           0
      5380 W2       1794     TIP3     OH2      OT      -0.834000       15.9994           0
      5381 W2       1794     TIP3     H1       HT       0.417000       1.00800           0
      5382 W2       1794     TIP3     H2       HT       0.417000       1.00800           0
      5383 W2       1795     TIP3     OH2      OT      -0.834000       15.9994           0
      5384 W2       1795     TIP3     H1       HT       0.417000       1.00800           0
      5385 W2       1795     TIP3     H2       HT       0.417000       1.00800           0
      5386 W2       1796     TIP3     OH2      OT      -0.834000       15.9994           0
      5387 W2       1796     TIP3     H1       HT       0.417000       1.00800           0
      5388 W2       1796     TIP3     H2       HT       0.417000       1.00800           0
      5389 W2       1797     TIP3     OH2      OT      -0.834000       15.9994           0
      5390 W2       1797     TIP3     H1       HT       0.417000       1.00800           0
      5391 W2       1797     TIP3     H2       HT       0.417000       1.00800           0
      5392 W2       1798     TIP3     OH2      OT      -0.834000       15.9994           0
      5393 W2       1798     TIP3     H1       HT       0.417000       1.00800           0
      5394 W2       1798     TIP3     H2       HT       0.417000       1.00800           0
      5395 W2       1799     TIP3     OH2      OT      -0.834000       15.9994           0
      5396 W2       1799     TIP3     H1       HT       0.417000       1.00800           0
      5397 W2       1799     TIP3     H2       HT       0.417000       1.00800           0
      5398 W2       1800     TIP3     OH2      OT      -0.834000       15.9994           0
      5399 W2       1800     TIP3     H1       HT       0.417000       1.00800           0
      5400 W2       1800     TIP3     H2       HT       0.417000       1.00800           0
      5401 W2       1801     TIP3     OH2      OT      -0.834000       15.9994           0
      5402 W2       1801     TIP3     H1       HT       0.417000       1.00800           0
      5403 W2       1801     TIP3     H2       HT       0.417000       1.00800           0
      5404 W2       1802     TIP3     OH2      OT      -0.834000       15.9994           0
      5405 W2       1802     TIP3     H1       HT       0.417000       1.00800           0
      5406 W2       1802     TIP3     H2       HT       0.417000       1.00800           0
      5407 W2       1803     TIP3     OH2      OT      -0.834000       15.9994           0
      5408 W2       1803     TIP3     H1       HT       0.417000       1.00800           0
      5409 W2       1803     TIP3     H2       HT       0.417000       1.00800           0
      5410 W2       1804     TIP3     OH2      OT      -0.834000       15.9994           0
      5411 W2       1804     TIP3     H1       HT       0.417000       1.00800           0
      5412 W2       1804     TIP3     H2       HT       0.417000       1.00800           0
      5413 W2       1805     TIP3     OH2      OT      -0.834000       15.9994           0
      5414 W2       1805     TIP3     H1       HT       0.417000       1.00800           0
      5415 W2       1805     TIP3     H2       HT       0.417000       1.00800           0
      5416 W2       1806     TIP3     OH2      OT      -0.834000       15.9994           0
      5417 W2       1806     TIP3     H1       HT       0.417000       1.00800           0
      5418 W2       1806     TIP3     H2       HT       0.417000       1.00800           0
      5419 W2       1807     TIP3     OH2      OT      -0.834000       15.9994           0
      5420 W2       1807     TIP3     H1       HT       0.417000       1.00800           0
      5421 W2       1807     TIP3     H2       HT       0.417000       1.00800           0
      5422 W2       1808     TIP3     OH2      OT      -0.834000       15.9994           0
      5423 W2       1808     TIP3     H1       HT       0.417000       1.00800           0
      5424 W2       1808     TIP3     H2       HT       0.417000       1.00800           0
      5425 W2       1809     TIP3     OH2      OT      -0.834000       15.9994           0
      5426 W2       1809     TIP3     H1       HT       0.417000       1.00800           0
      5427 W2       1809     TIP3     H2       HT       0.417000       1.00800           0
      5428 W2       1810     TIP3     OH2      OT      -0.834000       15.9994           0
      5429 W2       1810     TIP3     H1       HT       0.417000       1.00800           0
      5430 W2       1810     TIP3     H2       HT       0.417000       1.00800           0
      5431 W2       1811     TIP3     OH2      OT      -0.834000       15.9994           0
      5432 W2       1811     TIP3     H1       HT       0.417000       1.00800           0
      5433 W2       1811     TIP3     H2       HT       0.417000       1.00800           0
      5434 W2       1812     TIP3     OH2      OT      -0.834000       15.9994           0
      5435 W2       1812     TIP3     H1       HT       0.417000       1.00800           0
      5436 W2       1812     TIP3     H2       HT       0.417000       1.00800           0
      5437 W2       1813     TIP3     OH2      OT      -0.834000       15.9994           0
      5438 W2       1813     TIP3     H1       HT       0.417000       1.00800           0
      5439 W2       1813     TIP3     H2       HT       0.417000       1.00800           0
      5440 W2       1814     TIP3     OH2      OT      -0.834000       15.9994           0
      5441 W2       1814     TIP3     H1       HT       0.417000       1.00800           0
      5442 W2       1814     TIP3     H2       HT       0.417000       1.00800           0
      5443 W2       1815     TIP3     OH2      OT      -0.834000       15.9994           0
      5444 W2       1815     TIP3     H1       HT       0.417000       1.00800           0
      5445 W2       1815     TIP3     H2       HT       0.417000       1.00800           0
      5446 W2       1816     TIP3     OH2      OT      -0.834000       15.9994           0
      5447 W2       1816     TIP3     H1       HT       0.417000       1.00800           0
      5448 W2       1816     TIP3     H2       HT       0.417000       1.00800           0
      5449 W2       1817     TIP3     OH2      OT      -0.834000       15.9994           0
      5450 W2       1817     TIP3     H1       HT       0.417000       1.00800           0
      5451 W2       1817     TIP3     H2       HT       0.417000       1.00800           0
      5452 W2       1818     TIP3     OH2      OT      -0.834000       15.9994           0
      5453 W2       1818     TIP3     H1       HT       0.417000       1.00800           0
      5454 W2       1818     TIP3     H2       HT       0.417000       1.00800           0
      5455 W2       1819     TIP3     OH2      OT      -0.834000       15.9994           0
      5456 W2       1819     TIP3     H1       HT       0.417000       1.00800           0
      5457 W2       1819     TIP3     H2       HT       0.417000       1.00800           0
      5458 W2       1820     TIP3     OH2      OT      -0.834000       15.9994           0
      5459 W2       1820     TIP3     H1       HT       0.417000       1.00800           0
      5460 W2       1820     TIP3     H2       HT       0.417000       1.00800           0
      5461 W2       1821     TIP3     OH2      OT      -0.834000       15.9994           0
      5462 W2       1821     TIP3     H1       HT       0.417000       1.00800           0
      5463 W2       1821     TIP3     H2       HT       0.417000       1.00800           0
      5464 W2       1822     TIP3     OH2      OT      -0.834000       15.9994           0
      5465 W2       1822     TIP3     H1       HT       0.417000       1.00800           0
      5466 W2       1822     TIP3     H2       HT       0.417000       1.00800           0
      5467 W2       1823     TIP3     OH2      OT      -0.834000       15.9994           0
      5468 W2       1823     TIP3     H1       HT       0.417000       1.00800           0
      5469 W2       1823     TIP3     H2       HT       0.417000       1.00800           0
      5470 W2       1824     TIP3     OH2      OT      -0.834000       15.9994           0
      5471 W2       1824     TIP3     H1       HT       0.417000       1.00800           0
      5472 W2       1824     TIP3     H2       HT       0.417000       1.00800           0
      5473 W2       1825     TIP3     OH2      OT      -0.834000       15.9994           0
      5474 W2       1825     TIP3     H1       HT       0.417000       1.00800           0
      5475 W2       1825     TIP3     H2       HT       0.417000       1.00800           0
      5476 W2       1826     TIP3     OH2      OT      -0.834000       15.9994           0
      5477 W2       1826     TIP3     H1       HT       0.417000       1.00800           0
      5478 W2       1826     TIP3     H2       HT       0.417000       1.00800           0
      5479 W2       1827     TIP3     OH2      OT      -0.834000       15.9994           0
      5480 W2       1827     TIP3     H1       HT       0.417000       1.00800           0
      5481 W2       1827     TIP3     H2       HT       0.417000       1.00800           0
      5482 W2       1828     TIP3     OH2      OT      -0.834000       15.9994           0
      5483 W2       1828     TIP3     H1       HT       0.417000       1.00800           0
      5484 W2       1828     TIP3     H2       HT       0.417000       1.00800           0
      5485 W2       1829     TIP3     OH2      OT      -0.834000       15.9994           0
      5486 W2       1829     TIP3     H1       HT       0.417000       1.00800           0
      5487 W2       1829     TIP3     H2       HT       0.417000       1.00800           0
      5488 W2       1830     TIP3     OH2      OT      -0.834000       15.9994           0
      5489 W2       1830     TIP3     H1       HT       0.417000       1.00800           0
      5490 W2       1830     TIP3     H2       HT       0.417000       1.00800           0
      5491 W2       1831     TIP3     OH2      OT      -0.834000       15.9994           0
      5492 W2       1831     TIP3     H1       HT       0.417000       1.00800           0
      5493 W2       1831     TIP3     H2       HT       0.417000       1.00800           0
      5494 W2       1832     TIP3     OH2      OT      -0.834000       15.9994           0
      5495 W2       1832     TIP3     H1       HT       0.417000       1.00800           0
      5496 W2       1832     TIP3     H2       HT       0.417000       1.00800           0
      5497 W2       1833     TIP3     OH2      OT      -0.834000       15.9994           0
      5498 W2       1833     TIP3     H1       HT       0.417000       1.00800           0
      5499 W2       1833     TIP3     H2       HT       0.417000       1.00800           0
      5500 W2       1834     TIP3     OH2      OT      -0.834000       15.9994           0
      5501 W2       1834     TIP3     H1       HT       0.417000       1.00800           0
      5502 W2       1834     TIP3     H2       HT       0.417000       1.00800           0
      5503 W2       1835     TIP3     OH2      OT      -0.834000       15.9994           0
      5504 W2       1835     TIP3     H1       HT       0.417000       1.00800           0
      5505 W2       1835     TIP3     H2       HT       0.417000       1.00800           0
      5506 W2       1836     TIP3     OH2      OT      -0.834000       15.9994           0
      5507 W2       1836     TIP3     H1       HT       0.417000       1.00800           0
      5508 W2       1836     TIP3     H2       HT       0.417000       1.00800           0
      5509 W2       1837     TIP3     OH2      OT      -0.834000       15.9994           0
      5510 W2       1837     TIP3     H1       HT       0.417000       1.00800           0
      5511 W2       1837     TIP3     H2       HT       0.417000       1.00800           0
      5512 W2       1838     TIP3     OH2      OT      -0.834000       15.9994           0
      5513 W2       1838     TIP3     H1       HT       0.417000       1.00800           0
      5514 W2       1838     TIP3     H2       HT       0.417000       1.00800           0
      5515 W2       1839     TIP3     OH2      OT      -0.834000       15.9994           0
      5516 W2       1839     TIP3     H1       HT       0.417000       1.00800           0
      5517 W2       1839     TIP3     H2       HT       0.417000       1.00800           0
      5518 W2       1840     TIP3     OH2      OT      -0.834000       15.9994           0
      5519 W2       1840     TIP3     H1       HT       0.417000       1.00800           0
      5520 W2       1840     TIP3     H2       HT       0.417000       1.00800           0
      5521 W2       1841     TIP3     OH2      OT      -0.834000       15.9994           0
      5522 W2       1841     TIP3     H1       HT       0.417000       1.00800           0
      5523 W2       1841     TIP3     H2       HT       0.417000       1.00800           0
      5524 W2       1842     TIP3     OH2      OT      -0.834000       15.9994           0
      5525 W2       1842     TIP3     H1       HT       0.417000       1.00800           0
      5526 W2       1842     TIP3     H2       HT       0.417000       1.00800           0
      5527 W2       1843     TIP3     OH2      OT      -0.834000       15.9994           0
      5528 W2       1843     TIP3     H1       HT       0.417000       1.00800           0
      5529 W2       1843     TIP3     H2       HT       0.417000       1.00800           0
      5530 W2       1844     TIP3     OH2      OT      -0.834000       15.9994           0
      5531 W2       1844     TIP3     H1       HT       0.417000       1.00800           0
      5532 W2       1844     TIP3     H2       HT       0.417000       1.00800           0
      5533 W2       1845     TIP3     OH2      OT      -0.834000       15.9994           0
      5534 W2       1845     TIP3     H1       HT       0.417000       1.00800           0
      5535 W2       1845     TIP3     H2       HT       0.417000       1.00800           0
      5536 W2       1846     TIP3     OH2      OT      -0.834000       15.9994           0
      5537 W2       1846     TIP3     H1       HT       0.417000       1.00800           0
      5538 W2       1846     TIP3     H2       HT       0.417000       1.00800           0
      5539 W2       1847     TIP3     OH2      OT      -0.834000       15.9994           0
      5540 W2       1847     TIP3     H1       HT       0.417000       1.00800           0
      5541 W2       1847     TIP3     H2       HT       0.417000       1.00800           0
      5542 W2       1848     TIP3     OH2      OT      -0.834000       15.9994           0
      5543 W2       1848     TIP3     H1       HT       0.417000       1.00800           0
      5544 W2       1848     TIP3     H2       HT       0.417000       1.00800           0
      5545 W2       1849     TIP3     OH2      OT      -0.834000       15.9994           0
      5546 W2       1849     TIP3     H1       HT       0.417000       1.00800           0
      5547 W2       1849     TIP3     H2       HT       0.417000       1.00800           0
      5548 W2       1850     TIP3     OH2      OT      -0.834000       15.9994           0
      5549 W2       1850     TIP3     H1       HT       0.417000       1.00800           0
      5550 W2       1850     TIP3     H2       HT       0.417000       1.00800           0
      5551 W2       1851     TIP3     OH2      OT      -0.834000       15.9994           0
      5552 W2       1851     TIP3     H1       HT       0.417000       1.00800           0
      5553 W2       1851     TIP3     H2       HT       0.417000       1.00800           0
      5554 W2       1852     TIP3     OH2      OT      -0.834000       15.9994           0
      5555 W2       1852     TIP3     H1       HT       0.417000       1.00800           0
      5556 W2       1852     TIP3     H2       HT       0.417000       1.00800           0
      5557 W2       1853     TIP3     OH2      OT      -0.834000       15.9994           0
      5558 W2       1853     TIP3     H1       HT       0.417000       1.00800           0
      5559 W2       1853     TIP3     H2       HT       0.417000       1.00800           0
      5560 W2       1854     TIP3     OH2      OT      -0.834000       15.9994           0
      5561 W2       1854     TIP3     H1       HT       0.417000       1.00800           0
      5562 W2       1854     TIP3     H2       HT       0.417000       1.00800           0
      5563 W2       1855     TIP3     OH2      OT      -0.834000       15.9994           0
      5564 W2       1855     TIP3     H1       HT       0.417000       1.00800           0
      5565 W2       1855     TIP3     H2       HT       0.417000       1.00800           0
      5566 W2       1856     TIP3     OH2      OT      -0.834000       15.9994           0
      5567 W2       1856     TIP3     H1       HT       0.417000       1.00800           0
      5568 W2       1856     TIP3     H2       HT       0.417000       1.00800           0
      5569 W2       1857     TIP3     OH2      OT      -0.834000       15.9994           0
      5570 W2       1857     TIP3     H1       HT       0.417000       1.00800           0
      5571 W2       1857     TIP3     H2       HT       0.417000       1.00800           0
      5572 W2       1858     TIP3     OH2      OT      -0.834000       15.9994           0
      5573 W2       1858     TIP3     H1       HT       0.417000       1.00800           0
      5574 W2       1858     TIP3     H2       HT       0.417000       1.00800           0
      5575 W2       1859     TIP3     OH2      OT      -0.834000       15.9994           0
      5576 W2       1859     TIP3     H1       HT       0.417000       1.00800           0
      5577 W2       1859     TIP3     H2       HT       0.417000       1.00800           0
      5578 W2       1860     TIP3     OH2      OT      -0.834000       15.9994           0
      5579 W2       1860     TIP3     H1       HT       0.417000       1.00800           0
      5580 W2       1860     TIP3     H2       HT       0.417000       1.00800           0
      5581 W2       1861     TIP3     OH2      OT      -0.834000       15.9994           0
      5582 W2       1861     TIP3     H1       HT       0.417000       1.00800           0
      5583 W2       1861     TIP3     H2       HT       0.417000       1.00800           0
      5584 W2       1862     TIP3     OH2      OT      -0.834000       15.9994           0
      5585 W2       1862     TIP3     H1       HT       0.417000       1.00800           0
      5586 W2       1862     TIP3     H2       HT       0.417000       1.00800           0
      5587 W2       1863     TIP3     OH2      OT      -0.834000       15.9994           0
      5588 W2       1863     TIP3     H1       HT       0.417000       1.00800           0
      5589 W2       1863     TIP3     H2       HT       0.417000       1.00800           0
      5590 W2       1864     TIP3     OH2      OT      -0.834000       15.9994           0
      5591 W2       1864     TIP3     H1       HT       0.417000       1.00800           0
      5592 W2       1864     TIP3     H2       HT       0.417000       1.00800           0
      5593 W2       1865     TIP3     OH2      OT      -0.834000       15.9994           0
      5594 W2       1865     TIP3     H1       HT       0.417000       1.00800           0
      5595 W2       1865     TIP3     H2       HT       0.417000       1.00800           0
      5596 W2       1866     TIP3     OH2      OT      -0.834000       15.9994           0
      5597 W2       1866     TIP3     H1       HT       0.417000       1.00800           0
      5598 W2       1866     TIP3     H2       HT       0.417000       1.00800           0
      5599 W2       1867     TIP3     OH2      OT      -0.834000       15.9994           0
      5600 W2       1867     TIP3     H1       HT       0.417000       1.00800           0
      5601 W2       1867     TIP3     H2       HT       0.417000       1.00800           0
      5602 W2       1868     TIP3     OH2      OT      -0.834000       15.9994           0
      5603 W2       1868     TIP3     H1       HT       0.417000       1.00800           0
      5604 W2       1868     TIP3     H2       HT       0.417000       1.00800           0
      5605 W2       1869     TIP3     OH2      OT      -0.834000       15.9994           0
      5606 W2       1869     TIP3     H1       HT       0.417000       1.00800           0
      5607 W2       1869     TIP3     H2       HT       0.417000       1.00800           0
      5608 W2       1870     TIP3     OH2      OT      -0.834000       15.9994           0
      5609 W2       1870     TIP3     H1       HT       0.417000       1.00800           0
      5610 W2       1870     TIP3     H2       HT       0.417000       1.00800           0
      5611 W2       1871     TIP3     OH2      OT      -0.834000       15.9994           0
      5612 W2       1871     TIP3     H1       HT       0.417000       1.00800           0
      5613 W2       1871     TIP3     H2       HT       0.417000       1.00800           0
      5614 W2       1872     TIP3     OH2      OT      -0.834000       15.9994           0
      5615 W2       1872     TIP3     H1       HT       0.417000       1.00800           0
      5616 W2       1872     TIP3     H2       HT       0.417000       1.00800           0
      5617 W2       1873     TIP3     OH2      OT      -0.834000       15.9994           0
      5618 W2       1873     TIP3     H1       HT       0.417000       1.00800           0
      5619 W2       1873     TIP3     H2       HT       0.417000       1.00800           0
      5620 W2       1874     TIP3     OH2      OT      -0.834000       15.9994           0
      5621 W2       1874     TIP3     H1       HT       0.417000       1.00800           0
      5622 W2       1874     TIP3     H2       HT       0.417000       1.00800           0
      5623 W2       1875     TIP3     OH2      OT      -0.834000       15.9994           0
      5624 W2       1875     TIP3     H1       HT       0.417000       1.00800           0
      5625 W2       1875     TIP3     H2       HT       0.417000       1.00800           0
      5626 W2       1876     TIP3     OH2      OT      -0.834000       15.9994           0
      5627 W2       1876     TIP3     H1       HT       0.417000       1.00800           0
      5628 W2       1876     TIP3     H2       HT       0.417000       1.00800           0
      5629 W2       1877     TIP3     OH2      OT      -0.834000       15.9994           0
      5630 W2       1877     TIP3     H1       HT       0.417000       1.00800           0
      5631 W2       1877     TIP3     H2       HT       0.417000       1.00800           0
      5632 W2       1878     TIP3     OH2      OT      -0.834000       15.9994           0
      5633 W2       1878     TIP3     H1       HT       0.417000       1.00800           0
      5634 W2       1878     TIP3     H2       HT       0.417000       1.00800           0
      5635 W2       1879     TIP3     OH2      OT      -0.834000       15.9994           0
      5636 W2       1879     TIP3     H1       HT       0.417000       1.00800           0
      5637 W2       1879     TIP3     H2       HT       0.417000       1.00800           0
      5638 W2       1880     TIP3     OH2      OT      -0.834000       15.9994           0
      5639 W2       1880     TIP3     H1       HT       0.417000       1.00800           0
      5640 W2       1880     TIP3     H2       HT       0.417000       1.00800           0
      5641 W2       1881     TIP3     OH2      OT      -0.834000       15.9994           0
      5642 W2       1881     TIP3     H1       HT       0.417000       1.00800           0
      5643 W2       1881     TIP3     H2       HT       0.417000       1.00800           0
      5644 W2       1882     TIP3     OH2      OT      -0.834000       15.9994           0
      5645 W2       1882     TIP3     H1       HT       0.417000       1.00800           0
      5646 W2       1882     TIP3     H2       HT       0.417000       1.00800           0
      5647 W2       1883     TIP3     OH2      OT      -0.834000       15.9994           0
      5648 W2       1883     TIP3     H1       HT       0.417000       1.00800           0
      5649 W2       1883     TIP3     H2       HT       0.417000       1.00800           0
      5650 W2       1884     TIP3     OH2      OT      -0.834000       15.9994           0
      5651 W2       1884     TIP3     H1       HT       0.417000       1.00800           0
      5652 W2       1884     TIP3     H2       HT       0.417000       1.00800           0
      5653 W2       1885     TIP3     OH2      OT      -0.834000       15.9994           0
      5654 W2       1885     TIP3     H1       HT       0.417000       1.00800           0
      5655 W2       1885     TIP3     H2       HT       0.417000       1.00800           0
      5656 W2       1886     TIP3     OH2      OT      -0.834000       15.9994           0
      5657 W2       1886     TIP3     H1       HT       0.417000       1.00800           0
      5658 W2       1886     TIP3     H2       HT       0.417000       1.00800           0
      5659 W2       1887     TIP3     OH2      OT      -0.834000       15.9994           0
      5660 W2       1887     TIP3     H1       HT       0.417000       1.00800           0
      5661 W2       1887     TIP3     H2       HT       0.417000       1.00800           0
      5662 W2       1888     TIP3     OH2      OT      -0.834000       15.9994           0
      5663 W2       1888     TIP3     H1       HT       0.417000       1.00800           0
      5664 W2       1888     TIP3     H2       HT       0.417000       1.00800           0
      5665 W2       1889     TIP3     OH2      OT      -0.834000       15.9994           0
      5666 W2       1889     TIP3     H1       HT       0.417000       1.00800           0
      5667 W2       1889     TIP3     H2       HT       0.417000       1.00800           0
      5668 W2       1890     TIP3     OH2      OT      -0.834000       15.9994           0
      5669 W2       1890     TIP3     H1       HT       0.417000       1.00800           0
      5670 W2       1890     TIP3     H2       HT       0.417000       1.00800           0
      5671 W2       1891     TIP3     OH2      OT      -0.834000       15.9994           0
      5672 W2       1891     TIP3     H1       HT       0.417000       1.00800           0
      5673 W2       1891     TIP3     H2       HT       0.417000       1.00800           0
      5674 W2       1892     TIP3     OH2      OT      -0.834000       15.9994           0
      5675 W2       1892     TIP3     H1       HT       0.417000       1.00800           0
      5676 W2       1892     TIP3     H2       HT       0.417000       1.00800           0
      5677 W2       1893     TIP3     OH2      OT      -0.834000       15.9994           0
      5678 W2       1893     TIP3     H1       HT       0.417000       1.00800           0
      5679 W2       1893     TIP3     H2       HT       0.417000       1.00800           0
      5680 W2       1894     TIP3     OH2      OT      -0.834000       15.9994           0
      5681 W2       1894     TIP3     H1       HT       0.417000       1.00800           0
      5682 W2       1894     TIP3     H2       HT       0.417000       1.00800           0
      5683 W2       1895     TIP3     OH2      OT      -0.834000       15.9994           0
      5684 W2       1895     TIP3     H1       HT       0.417000       1.00800           0
      5685 W2       1895     TIP3     H2       HT       0.417000       1.00800           0
      5686 W2       1896     TIP3     OH2      OT      -0.834000       15.9994           0
      5687 W2       1896     TIP3     H1       HT       0.417000       1.00800           0
      5688 W2       1896     TIP3     H2       HT       0.417000       1.00800           0
      5689 W2       1897     TIP3     OH2      OT      -0.834000       15.9994           0
      5690 W2       1897     TIP3     H1       HT       0.417000       1.00800           0
      5691 W2       1897     TIP3     H2       HT       0.417000       1.00800           0
      5692 W2       1898     TIP3     OH2      OT      -0.834000       15.9994           0
      5693 W2       1898     TIP3     H1       HT       0.417000       1.00800           0
      5694 W2       1898     TIP3     H2       HT       0.417000       1.00800           0
      5695 W2       1899     TIP3     OH2      OT      -0.834000       15.9994           0
      5696 W2       1899     TIP3     H1       HT       0.417000       1.00800           0
      5697 W2       1899     TIP3     H2       HT       0.417000       1.00800           0
      5698 W2       1900     TIP3     OH2      OT      -0.834000       15.9994           0
      5699 W2       1900     TIP3     H1       HT       0.417000       1.00800           0
      5700 W2       1900     TIP3     H2       HT       0.417000       1.00800           0
      5701 W2       1901     TIP3     OH2      OT      -0.834000       15.9994           0
      5702 W2       1901     TIP3     H1       HT       0.417000       1.00800           0
      5703 W2       1901     TIP3     H2       HT       0.417000       1.00800           0
      5704 W2       1902     TIP3     OH2      OT      -0.834000       15.9994           0
      5705 W2       1902     TIP3     H1       HT       0.417000       1.00800           0
      5706 W2       1902     TIP3     H2       HT       0.417000       1.00800           0
      5707 W2       1903     TIP3     OH2      OT      -0.834000       15.9994           0
      5708 W2       1903     TIP3     H1       HT       0.417000       1.00800           0
      5709 W2       1903     TIP3     H2       HT       0.417000       1.00800           0
      5710 W2       1904     TIP3     OH2      OT      -0.834000       15.9994           0
      5711 W2       1904     TIP3     H1       HT       0.417000       1.00800           0
      5712 W2       1904     TIP3     H2       HT       0.417000       1.00800           0
      5713 W2       1905     TIP3     OH2      OT      -0.834000       15.9994           0
      5714 W2       1905     TIP3     H1       HT       0.417000       1.00800           0
      5715 W2       1905     TIP3     H2       HT       0.417000       1.00800           0
      5716 W2       1906     TIP3     OH2      OT      -0.834000       15.9994           0
      5717 W2       1906     TIP3     H1       HT       0.417000       1.00800           0
      5718 W2       1906     TIP3     H2       HT       0.417000       1.00800           0
      5719 W2       1907     TIP3     OH2      OT      -0.834000       15.9994           0
      5720 W2       1907     TIP3     H1       HT       0.417000       1.00800           0
      5721 W2       1907     TIP3     H2       HT       0.417000       1.00800           0
      5722 W2       1908     TIP3     OH2      OT      -0.834000       15.9994           0
      5723 W2       1908     TIP3     H1       HT       0.417000       1.00800           0
      5724 W2       1908     TIP3     H2       HT       0.417000       1.00800           0
      5725 W2       1909     TIP3     OH2      OT      -0.834000       15.9994           0
      5726 W2       1909     TIP3     H1       HT       0.417000       1.00800           0
      5727 W2       1909     TIP3     H2       HT       0.417000       1.00800           0
      5728 W2       1910     TIP3     OH2      OT      -0.834000       15.9994           0
      5729 W2       1910     TIP3     H1       HT       0.417000       1.00800           0
      5730 W2       1910     TIP3     H2       HT       0.417000       1.00800           0
      5731 W2       1911     TIP3     OH2      OT      -0.834000       15.9994           0
      5732 W2       1911     TIP3     H1       HT       0.417000       1.00800           0
      5733 W2       1911     TIP3     H2       HT       0.417000       1.00800           0
      5734 W2       1912     TIP3     OH2      OT      -0.834000       15.9994           0
      5735 W2       1912     TIP3     H1       HT       0.417000       1.00800           0
      5736 W2       1912     TIP3     H2       HT       0.417000       1.00800           0
      5737 W2       1913     TIP3     OH2      OT      -0.834000       15.9994           0
      5738 W2       1913     TIP3     H1       HT       0.417000       1.00800           0
      5739 W2       1913     TIP3     H2       HT       0.417000       1.00800           0
      5740 W2       1914     TIP3     OH2      OT      -0.834000       15.9994           0
      5741 W2       1914     TIP3     H1       HT       0.417000       1.00800           0
      5742 W2       1914     TIP3     H2       HT       0.417000       1.00800           0
      5743 W2       1915     TIP3     OH2      OT      -0.834000       15.9994           0
      5744 W2       1915     TIP3     H1       HT       0.417000       1.00800           0
      5745 W2       1915     TIP3     H2       HT       0.417000       1.00800           0
      5746 W2       1916     TIP3     OH2      OT      -0.834000       15.9994           0
      5747 W2       1916     TIP3     H1       HT       0.417000       1.00800           0
      5748 W2       1916     TIP3     H2       HT       0.417000       1.00800           0
      5749 W2       1917     TIP3     OH2      OT      -0.834000       15.9994           0
      5750 W2       1917     TIP3     H1       HT       0.417000       1.00800           0
      5751 W2       1917     TIP3     H2       HT       0.417000       1.00800           0
      5752 W2       1918     TIP3     OH2      OT      -0.834000       15.9994           0
      5753 W2       1918     TIP3     H1       HT       0.417000       1.00800           0
      5754 W2       1918     TIP3     H2       HT       0.417000       1.00800           0
      5755 W2       1919     TIP3     OH2      OT      -0.834000       15.9994           0
      5756 W2       1919     TIP3     H1       HT       0.417000       1.00800           0
      5757 W2       1919     TIP3     H2       HT       0.417000       1.00800           0
      5758 W2       1920     TIP3     OH2      OT      -0.834000       15.9994           0
      5759 W2       1920     TIP3     H1       HT       0.417000       1.00800           0
      5760 W2       1920     TIP3     H2       HT       0.417000       1.00800           0
      5761 W2       1921     TIP3     OH2      OT      -0.834000       15.9994           0
      5762 W2       1921     TIP3     H1       HT       0.417000       1.00800           0
      5763 W2       1921     TIP3     H2       HT       0.417000       1.00800           0
      5764 W2       1922     TIP3     OH2      OT      -0.834000       15.9994           0
      5765 W2       1922     TIP3     H1       HT       0.417000       1.00800           0
      5766 W2       1922     TIP3     H2       HT       0.417000       1.00800           0
      5767 W2       1923     TIP3     OH2      OT      -0.834000       15.9994           0
      5768 W2       1923     TIP3     H1       HT       0.417000       1.00800           0
      5769 W2       1923     TIP3     H2       HT       0.417000       1.00800           0
      5770 W2       1924     TIP3     OH2      OT      -0.834000       15.9994           0
      5771 W2       1924     TIP3     H1       HT       0.417000       1.00800           0
      5772 W2       1924     TIP3     H2       HT       0.417000       1.00800           0
      5773 W2       1925     TIP3     OH2      OT      -0.834000       15.9994           0
      5774 W2       1925     TIP3     H1       HT       0.417000       1.00800           0
      5775 W2       1925     TIP3     H2       HT       0.417000       1.00800           0
      5776 W2       1926     TIP3     OH2      OT      -0.834000       15.9994           0
      5777 W2       1926     TIP3     H1       HT       0.417000       1.00800           0
      5778 W2       1926     TIP3     H2       HT       0.417000       1.00800           0
      5779 W2       1927     TIP3     OH2      OT      -0.834000       15.9994           0
      5780 W2       1927     TIP3     H1       HT       0.417000       1.00800           0
      5781 W2       1927     TIP3     H2       HT       0.417000       1.00800           0
      5782 W2       1928     TIP3     OH2      OT      -0.834000       15.9994           0
      5783 W2       1928     TIP3     H1       HT       0.417000       1.00800           0
      5784 W2       1928     TIP3     H2       HT       0.417000       1.00800           0
      5785 W2       1929     TIP3     OH2      OT      -0.834000       15.9994           0
      5786 W2       1929     TIP3     H1       HT       0.417000       1.00800           0
      5787 W2       1929     TIP3     H2       HT       0.417000       1.00800           0
      5788 W2       1930     TIP3     OH2      OT      -0.834000       15.9994           0
      5789 W2       1930     TIP3     H1       HT       0.417000       1.00800           0
      5790 W2       1930     TIP3     H2       HT       0.417000       1.00800           0
      5791 W2       1931     TIP3     OH2      OT      -0.834000       15.9994           0
      5792 W2       1931     TIP3     H1       HT       0.417000       1.00800           0
      5793 W2       1931     TIP3     H2       HT       0.417000       1.00800           0
      5794 W2       1932     TIP3     OH2      OT      -0.834000       15.9994           0
      5795 W2       1932     TIP3     H1       HT       0.417000       1.00800           0
      5796 W2       1932     TIP3     H2       HT       0.417000       1.00800           0
      5797 W2       1933     TIP3     OH2      OT      -0.834000       15.9994           0
      5798 W2       1933     TIP3     H1       HT       0.417000       1.00800           0
      5799 W2       1933     TIP3     H2       HT       0.417000       1.00800           0
      5800 W2       1934     TIP3     OH2      OT      -0.834000       15.9994           0
      5801 W2       1934     TIP3     H1       HT       0.417000       1.00800           0
      5802 W2       1934     TIP3     H2       HT       0.417000       1.00800           0
      5803 W2       1935     TIP3     OH2      OT      -0.834000       15.9994           0
      5804 W2       1935     TIP3     H1       HT       0.417000       1.00800           0
      5805 W2       1935     TIP3     H2       HT       0.417000       1.00800           0
      5806 W2       1936     TIP3     OH2      OT      -0.834000       15.9994           0
      5807 W2       1936     TIP3     H1       HT       0.417000       1.00800           0
      5808 W2       1936     TIP3     H2       HT       0.417000       1.00800           0
      5809 W2       1937     TIP3     OH2      OT      -0.834000       15.9994           0
      5810 W2       1937     TIP3     H1       HT       0.417000       1.00800           0
      5811 W2       1937     TIP3     H2       HT       0.417000       1.00800           0
      5812 W2       1938     TIP3     OH2      OT      -0.834000       15.9994           0
      5813 W2       1938     TIP3     H1       HT       0.417000       1.00800           0
      5814 W2       1938     TIP3     H2       HT       0.417000       1.00800           0
      5815 W2       1939     TIP3     OH2      OT      -0.834000       15.9994           0
      5816 W2       1939     TIP3     H1       HT       0.417000       1.00800           0
      5817 W2       1939     TIP3     H2       HT       0.417000       1.00800           0
      5818 W2       1940     TIP3     OH2      OT      -0.834000       15.9994           0
      5819 W2       1940     TIP3     H1       HT       0.417000       1.00800           0
      5820 W2       1940     TIP3     H2       HT       0.417000       1.00800           0
      5821 W2       1941     TIP3     OH2      OT      -0.834000       15.9994           0
      5822 W2       1941     TIP3     H1       HT       0.417000       1.00800           0
      5823 W2       1941     TIP3     H2       HT       0.417000       1.00800           0
      5824 W2       1942     TIP3     OH2      OT      -0.834000       15.9994           0
      5825 W2       1942     TIP3     H1       HT       0.417000       1.00800           0
      5826 W2       1942     TIP3     H2       HT       0.417000       1.00800           0
      5827 W2       1943     TIP3     OH2      OT      -0.834000       15.9994           0
      5828 W2       1943     TIP3     H1       HT       0.417000       1.00800           0
      5829 W2       1943     TIP3     H2       HT       0.417000       1.00800           0
      5830 W2       1944     TIP3     OH2      OT      -0.834000       15.9994           0
      5831 W2       1944     TIP3     H1       HT       0.417000       1.00800           0
      5832 W2       1944     TIP3     H2       HT       0.417000       1.00800           0
      5833 W2       1945     TIP3     OH2      OT      -0.834000       15.9994           0
      5834 W2       1945     TIP3     H1       HT       0.417000       1.00800           0
      5835 W2       1945     TIP3     H2       HT       0.417000       1.00800           0
      5836 W2       1946     TIP3     OH2      OT      -0.834000       15.9994           0
      5837 W2       1946     TIP3     H1       HT       0.417000       1.00800           0
      5838 W2       1946     TIP3     H2       HT       0.417000       1.00800           0
      5839 W2       1947     TIP3     OH2      OT      -0.834000       15.9994           0
      5840 W2       1947     TIP3     H1       HT       0.417000       1.00800           0
      5841 W2       1947     TIP3     H2       HT       0.417000       1.00800           0
      5842 W2       1948     TIP3     OH2      OT      -0.834000       15.9994           0
      5843 W2       1948     TIP3     H1       HT       0.417000       1.00800           0
      5844 W2       1948     TIP3     H2       HT       0.417000       1.00800           0
      5845 W2       1949     TIP3     OH2      OT      -0.834000       15.9994           0
      5846 W2       1949     TIP3     H1       HT       0.417000       1.00800           0
      5847 W2       1949     TIP3     H2       HT       0.417000       1.00800           0
      5848 W2       1950     TIP3     OH2      OT      -0.834000       15.9994           0
      5849 W2       1950     TIP3     H1       HT       0.417000       1.00800           0
      5850 W2       1950     TIP3     H2       HT       0.417000       1.00800           0
      5851 W2       1951     TIP3     OH2      OT      -0.834000       15.9994           0
      5852 W2       1951     TIP3     H1       HT       0.417000       1.00800           0
      5853 W2       1951     TIP3     H2       HT       0.417000       1.00800           0
      5854 W2       1952     TIP3     OH2      OT      -0.834000       15.9994           0
      5855 W2       1952     TIP3     H1       HT       0.417000       1.00800           0
      5856 W2       1952     TIP3     H2       HT       0.417000       1.00800           0
      5857 W2       1953     TIP3     OH2      OT      -0.834000       15.9994           0
      5858 W2       1953     TIP3     H1       HT       0.417000       1.00800           0
      5859 W2       1953     TIP3     H2       HT       0.417000       1.00800           0
      5860 W2       1954     TIP3     OH2      OT      -0.834000       15.9994           0
      5861 W2       1954     TIP3     H1       HT       0.417000       1.00800           0
      5862 W2       1954     TIP3     H2       HT       0.417000       1.00800           0
      5863 W2       1955     TIP3     OH2      OT      -0.834000       15.9994           0
      5864 W2       1955     TIP3     H1       HT       0.417000       1.00800           0
      5865 W2       1955     TIP3     H2       HT       0.417000       1.00800           0
      5866 W2       1956     TIP3     OH2      OT      -0.834000       15.9994           0
      5867 W2       1956     TIP3     H1       HT       0.417000       1.00800           0
      5868 W2       1956     TIP3     H2       HT       0.417000       1.00800           0
      5869 W2       1957     TIP3     OH2      OT      -0.834000       15.9994           0
      5870 W2       1957     TIP3     H1       HT       0.417000       1.00800           0
      5871 W2       1957     TIP3     H2       HT       0.417000       1.00800           0
      5872 W2       1958     TIP3     OH2      OT      -0.834000       15.9994           0
      5873 W2       1958     TIP3     H1       HT       0.417000       1.00800           0
      5874 W2       1958     TIP3     H2       HT       0.417000       1.00800           0
      5875 W2       1959     TIP3     OH2      OT      -0.834000       15.9994           0
      5876 W2       1959     TIP3     H1       HT       0.417000       1.00800           0
      5877 W2       1959     TIP3     H2       HT       0.417000       1.00800           0
      5878 W2       1960     TIP3     OH2      OT      -0.834000       15.9994           0
      5879 W2       1960     TIP3     H1       HT       0.417000       1.00800           0
      5880 W2       1960     TIP3     H2       HT       0.417000       1.00800           0
      5881 W2       1961     TIP3     OH2      OT      -0.834000       15.9994           0
      5882 W2       1961     TIP3     H1       HT       0.417000       1.00800           0
      5883 W2       1961     TIP3     H2       HT       0.417000       1.00800           0
      5884 W2       1962     TIP3     OH2      OT      -0.834000       15.9994           0
      5885 W2       1962     TIP3     H1       HT       0.417000       1.00800           0
      5886 W2       1962     TIP3     H2       HT       0.417000       1.00800           0
      5887 W2       1963     TIP3     OH2      OT      -0.834000       15.9994           0
      5888 W2       1963     TIP3     H1       HT       0.417000       1.00800           0
      5889 W2       1963     TIP3     H2       HT       0.417000       1.00800           0
      5890 W2       1964     TIP3     OH2      OT      -0.834000       15.9994           0
      5891 W2       1964     TIP3     H1       HT       0.417000       1.00800           0
      5892 W2       1964     TIP3     H2       HT       0.417000       1.00800           0
      5893 W2       1965     TIP3     OH2      OT      -0.834000       15.9994           0
      5894 W2       1965     TIP3     H1       HT       0.417000       1.00800           0
      5895 W2       1965     TIP3     H2       HT       0.417000       1.00800           0
      5896 W2       1966     TIP3     OH2      OT      -0.834000       15.9994           0
      5897 W2       1966     TIP3     H1       HT       0.417000       1.00800           0
      5898 W2       1966     TIP3     H2       HT       0.417000       1.00800           0
      5899 W2       1967     TIP3     OH2      OT      -0.834000       15.9994           0
      5900 W2       1967     TIP3     H1       HT       0.417000       1.00800           0
      5901 W2       1967     TIP3     H2       HT       0.417000       1.00800           0
      5902 W2       1968     TIP3     OH2      OT      -0.834000       15.9994           0
      5903 W2       1968     TIP3     H1       HT       0.417000       1.00800           0
      5904 W2       1968     TIP3     H2       HT       0.417000       1.00800           0
      5905 W2       1969     TIP3     OH2      OT      -0.834000       15.9994           0
      5906 W2       1969     TIP3     H1       HT       0.417000       1.00800           0
      5907 W2       1969     TIP3     H2       HT       0.417000       1.00800           0
      5908 W2       1970     TIP3     OH2      OT      -0.834000       15.9994           0
      5909 W2       1970     TIP3     H1       HT       0.417000       1.00800           0
      5910 W2       1970     TIP3     H2       HT       0.417000       1.00800           0
      5911 W2       1971     TIP3     OH2      OT      -0.834000       15.9994           0
      5912 W2       1971     TIP3     H1       HT       0.417000       1.00800           0
      5913 W2       1971     TIP3     H2       HT       0.417000       1.00800           0
      5914 W2       1972     TIP3     OH2      OT      -0.834000       15.9994           0
      5915 W2       1972     TIP3     H1       HT       0.417000       1.00800           0
      5916 W2       1972     TIP3     H2       HT       0.417000       1.00800           0
      5917 W2       1973     TIP3     OH2      OT      -0.834000       15.9994           0
      5918 W2       1973     TIP3     H1       HT       0.417000       1.00800           0
      5919 W2       1973     TIP3     H2       HT       0.417000       1.00800           0
      5920 W2       1974     TIP3     OH2      OT      -0.834000       15.9994           0
      5921 W2       1974     TIP3     H1       HT       0.417000       1.00800           0
      5922 W2       1974     TIP3     H2       HT       0.417000       1.00800           0
      5923 W2       1975     TIP3     OH2      OT      -0.834000       15.9994           0
      5924 W2       1975     TIP3     H1       HT       0.417000       1.00800           0
      5925 W2       1975     TIP3     H2       HT       0.417000       1.00800           0
      5926 W2       1976     TIP3     OH2      OT      -0.834000       15.9994           0
      5927 W2       1976     TIP3     H1       HT       0.417000       1.00800           0
      5928 W2       1976     TIP3     H2       HT       0.417000       1.00800           0
      5929 W2       1977     TIP3     OH2      OT      -0.834000       15.9994           0
      5930 W2       1977     TIP3     H1       HT       0.417000       1.00800           0
      5931 W2       1977     TIP3     H2       HT       0.417000       1.00800           0
      5932 W2       1978     TIP3     OH2      OT      -0.834000       15.9994           0
      5933 W2       1978     TIP3     H1       HT       0.417000       1.00800           0
      5934 W2       1978     TIP3     H2       HT       0.417000       1.00800           0
      5935 W2       1979     TIP3     OH2      OT      -0.834000       15.9994           0
      5936 W2       1979     TIP3     H1       HT       0.417000       1.00800           0
      5937 W2       1979     TIP3     H2       HT       0.417000       1.00800           0
      5938 W2       1980     TIP3     OH2      OT      -0.834000       15.9994           0
      5939 W2       1980     TIP3     H1       HT       0.417000       1.00800           0
      5940 W2       1980     TIP3     H2       HT       0.417000       1.00800           0
      5941 W2       1981     TIP3     OH2      OT      -0.834000       15.9994           0
      5942 W2       1981     TIP3     H1       HT       0.417000       1.00800           0
      5943 W2       1981     TIP3     H2       HT       0.417000       1.00800           0
      5944 W2       1982     TIP3     OH2      OT      -0.834000       15.9994           0
      5945 W2       1982     TIP3     H1       HT       0.417000       1.00800           0
      5946 W2       1982     TIP3     H2       HT       0.417000       1.00800           0
      5947 W2       1983     TIP3     OH2      OT      -0.834000       15.9994           0
      5948 W2       1983     TIP3     H1       HT       0.417000       1.00800           0
      5949 W2       1983     TIP3     H2       HT       0.417000       1.00800           0
      5950 W2       1984     TIP3     OH2      OT      -0.834000       15.9994           0
      5951 W2       1984     TIP3     H1       HT       0.417000       1.00800           0
      5952 W2       1984     TIP3     H2       HT       0.417000       1.00800           0
      5953 W2       1985     TIP3     OH2      OT      -0.834000       15.9994           0
      5954 W2       1985     TIP3     H1       HT       0.417000       1.00800           0
      5955 W2       1985     TIP3     H2       HT       0.417000       1.00800           0
      5956 W2       1986     TIP3     OH2      OT      -0.834000       15.9994           0
      5957 W2       1986     TIP3     H1       HT       0.417000       1.00800           0
      5958 W2       1986     TIP3     H2       HT       0.417000       1.00800           0
      5959 W2       1987     TIP3     OH2      OT      -0.834000       15.9994           0
      5960 W2       1987     TIP3     H1       HT       0.417000       1.00800           0
      5961 W2       1987     TIP3     H2       HT       0.417000       1.00800           0
      5962 W2       1988     TIP3     OH2      OT      -0.834000       15.9994           0
      5963 W2       1988     TIP3     H1       HT       0.417000       1.00800           0
      5964 W2       1988     TIP3     H2       HT       0.417000       1.00800           0
      5965 W2       1989     TIP3     OH2      OT      -0.834000       15.9994           0
      5966 W2       1989     TIP3     H1       HT       0.417000       1.00800           0
      5967 W2       1989     TIP3     H2       HT       0.417000       1.00800           0
      5968 W2       1990     TIP3     OH2      OT      -0.834000       15.9994           0
      5969 W2       1990     TIP3     H1       HT       0.417000       1.00800           0
      5970 W2       1990     TIP3     H2       HT       0.417000       1.00800           0
      5971 W2       1991     TIP3     OH2      OT      -0.834000       15.9994           0
      5972 W2       1991     TIP3     H1       HT       0.417000       1.00800           0
      5973 W2       1991     TIP3     H2       HT       0.417000       1.00800           0
      5974 W2       1992     TIP3     OH2      OT      -0.834000       15.9994           0
      5975 W2       1992     TIP3     H1       HT       0.417000       1.00800           0
      5976 W2       1992     TIP3     H2       HT       0.417000       1.00800           0
      5977 W2       1993     TIP3     OH2      OT      -0.834000       15.9994           0
      5978 W2       1993     TIP3     H1       HT       0.417000       1.00800           0
      5979 W2       1993     TIP3     H2       HT       0.417000       1.00800           0
      5980 W2       1994     TIP3     OH2      OT      -0.834000       15.9994           0
      5981 W2       1994     TIP3     H1       HT       0.417000       1.00800           0
      5982 W2       1994     TIP3     H2       HT       0.417000       1.00800           0
      5983 W2       1995     TIP3     OH2      OT      -0.834000       15.9994           0
      5984 W2       1995     TIP3     H1       HT       0.417000       1.00800           0
      5985 W2       1995     TIP3     H2       HT       0.417000       1.00800           0
      5986 W2       1996     TIP3     OH2      OT      -0.834000       15.9994           0
      5987 W2       1996     TIP3     H1       HT       0.417000       1.00800           0
      5988 W2       1996     TIP3     H2       HT       0.417000       1.00800           0
      5989 W2       1997     TIP3     OH2      OT      -0.834000       15.9994           0
      5990 W2       1997     TIP3     H1       HT       0.417000       1.00800           0
      5991 W2       1997     TIP3     H2       HT       0.417000       1.00800           0
      5992 W2       1998     TIP3     OH2      OT      -0.834000       15.9994           0
      5993 W2       1998     TIP3     H1       HT       0.417000       1.00800           0
      5994 W2       1998     TIP3     H2       HT       0.417000       1.00800           0
      5995 W2       1999     TIP3     OH2      OT      -0.834000       15.9994           0
      5996 W2       1999     TIP3     H1       HT       0.417000       1.00800           0
      5997 W2       1999     TIP3     H2       HT       0.417000       1.00800           0
      5998 W2       2000     TIP3     OH2      OT      -0.834000       15.9994           0
      5999 W2       2000     TIP3     H1       HT       0.417000       1.00800           0
      6000 W2       2000     TIP3     H2       HT       0.417000       1.00800           0
      6001 W2       2001     TIP3     OH2      OT      -0.834000       15.9994           0
      6002 W2       2001     TIP3     H1       HT       0.417000       1.00800           0
      6003 W2       2001     TIP3     H2       HT       0.417000       1.00800           0
      6004 W2       2002     TIP3     OH2      OT      -0.834000       15.9994           0
      6005 W2       2002     TIP3     H1       HT       0.417000       1.00800           0
      6006 W2       2002     TIP3     H2       HT       0.417000       1.00800           0
      6007 W2       2003     TIP3     OH2      OT      -0.834000       15.9994           0
      6008 W2       2003     TIP3     H1       HT       0.417000       1.00800           0
      6009 W2       2003     TIP3     H2       HT       0.417000       1.00800           0
      6010 W2       2004     TIP3     OH2      OT      -0.834000       15.9994           0
      6011 W2       2004     TIP3     H1       HT       0.417000       1.00800           0
      6012 W2       2004     TIP3     H2       HT       0.417000       1.00800           0
      6013 W2       2005     TIP3     OH2      OT      -0.834000       15.9994           0
      6014 W2       2005     TIP3     H1       HT       0.417000       1.00800           0
      6015 W2       2005     TIP3     H2       HT       0.417000       1.00800           0
      6016 W2       2006     TIP3     OH2      OT      -0.834000       15.9994           0
      6017 W2       2006     TIP3     H1       HT       0.417000       1.00800           0
      6018 W2       2006     TIP3     H2       HT       0.417000       1.00800           0
      6019 W2       2007     TIP3     OH2      OT      -0.834000       15.9994           0
      6020 W2       2007     TIP3     H1       HT       0.417000       1.00800           0
      6021 W2       2007     TIP3     H2       HT       0.417000       1.00800           0
      6022 W2       2008     TIP3     OH2      OT      -0.834000       15.9994           0
      6023 W2       2008     TIP3     H1       HT       0.417000       1.00800           0
      6024 W2       2008     TIP3     H2       HT       0.417000       1.00800           0
      6025 W2       2009     TIP3     OH2      OT      -0.834000       15.9994           0
      6026 W2       2009     TIP3     H1       HT       0.417000       1.00800           0
      6027 W2       2009     TIP3     H2       HT       0.417000       1.00800           0
      6028 W2       2010     TIP3     OH2      OT      -0.834000       15.9994           0
      6029 W2       2010     TIP3     H1       HT       0.417000       1.00800           0
      6030 W2       2010     TIP3     H2       HT       0.417000       1.00800           0
      6031 W2       2011     TIP3     OH2      OT      -0.834000       15.9994           0
      6032 W2       2011     TIP3     H1       HT       0.417000       1.00800           0
      6033 W2       2011     TIP3     H2       HT       0.417000       1.00800           0
      6034 W2       2012     TIP3     OH2      OT      -0.834000       15.9994           0
      6035 W2       2012     TIP3     H1       HT       0.417000       1.00800           0
      6036 W2       2012     TIP3     H2       HT       0.417000       1.00800           0
      6037 W2       2013     TIP3     OH2      OT      -0.834000       15.9994           0
      6038 W2       2013     TIP3     H1       HT       0.417000       1.00800           0
      6039 W2       2013     TIP3     H2       HT       0.417000       1.00800           0
      6040 W2       2014     TIP3     OH2      OT      -0.834000       15.9994           0
      6041 W2       2014     TIP3     H1       HT       0.417000       1.00800           0
      6042 W2       2014     TIP3     H2       HT       0.417000       1.00800           0
      6043 W2       2015     TIP3     OH2      OT      -0.834000       15.9994           0
      6044 W2       2015     TIP3     H1       HT       0.417000       1.00800           0
      6045 W2       2015     TIP3     H2       HT       0.417000       1.00800           0
      6046 W2       2016     TIP3     OH2      OT      -0.834000       15.9994           0
      6047 W2       2016     TIP3     H1       HT       0.417000       1.00800           0
      6048 W2       2016     TIP3     H2       HT       0.417000       1.00800           0
      6049 W2       2017     TIP3     OH2      OT      -0.834000       15.9994           0
      6050 W2       2017     TIP3     H1       HT       0.417000       1.00800           0
      6051 W2       2017     TIP3     H2       HT       0.417000       1.00800           0
      6052 W2       2018     TIP3     OH2      OT      -0.834000       15.9994           0
      6053 W2       2018     TIP3     H1       HT       0.417000       1.00800           0
      6054 W2       2018     TIP3     H2       HT       0.417000       1.00800           0
      6055 W2       2019     TIP3     OH2      OT      -0.834000       15.9994           0
      6056 W2       2019     TIP3     H1       HT       0.417000       1.00800           0
      6057 W2       2019     TIP3     H2       HT       0.417000       1.00800           0
      6058 W2       2020     TIP3     OH2      OT      -0.834000       15.9994           0
      6059 W2       2020     TIP3     H1       HT       0.417000       1.00800           0
      6060 W2       2020     TIP3     H2       HT       0.417000       1.00800           0
      6061 W2       2021     TIP3     OH2      OT      -0.834000       15.9994           0
      6062 W2       2021     TIP3     H1       HT       0.417000       1.00800           0
      6063 W2       2021     TIP3     H2       HT       0.417000       1.00800           0
      6064 W2       2022     TIP3     OH2      OT      -0.834000       15.9994           0
      6065 W2       2022     TIP3     H1       HT       0.417000       1.00800           0
      6066 W2       2022     TIP3     H2       HT       0.417000       1.00800           0
      6067 W2       2023     TIP3     OH2      OT      -0.834000       15.9994           0
      6068 W2       2023     TIP3     H1       HT       0.417000       1.00800           0
      6069 W2       2023     TIP3     H2       HT       0.417000       1.00800           0
      6070 W2       2024     TIP3     OH2      OT      -0.834000       15.9994           0
      6071 W2       2024     TIP3     H1       HT       0.417000       1.00800           0
      6072 W2       2024     TIP3     H2       HT       0.417000       1.00800           0
      6073 W2       2025     TIP3     OH2      OT      -0.834000       15.9994           0
      6074 W2       2025     TIP3     H1       HT       0.417000       1.00800           0
      6075 W2       2025     TIP3     H2       HT       0.417000       1.00800           0
      6076 W2       2026     TIP3     OH2      OT      -0.834000       15.9994           0
      6077 W2       2026     TIP3     H1       HT       0.417000       1.00800           0
      6078 W2       2026     TIP3     H2       HT       0.417000       1.00800           0
      6079 W2       2027     TIP3     OH2      OT      -0.834000       15.9994           0
      6080 W2       2027     TIP3     H1       HT       0.417000       1.00800           0
      6081 W2       2027     TIP3     H2       HT       0.417000       1.00800           0
      6082 W2       2028     TIP3     OH2      OT      -0.834000       15.9994           0
      6083 W2       2028     TIP3     H1       HT       0.417000       1.00800           0
      6084 W2       2028     TIP3     H2       HT       0.417000       1.00800           0
      6085 W2       2029     TIP3     OH2      OT      -0.834000       15.9994           0
      6086 W2       2029     TIP3     H1       HT       0.417000       1.00800           0
      6087 W2       2029     TIP3     H2       HT       0.417000       1.00800           0
      6088 W2       2030     TIP3     OH2      OT      -0.834000       15.9994           0
      6089 W2       2030     TIP3     H1       HT       0.417000       1.00800           0
      6090 W2       2030     TIP3     H2       HT       0.417000       1.00800           0
      6091 W2       2031     TIP3     OH2      OT      -0.834000       15.9994           0
      6092 W2       2031     TIP3     H1       HT       0.417000       1.00800           0
      6093 W2       2031     TIP3     H2       HT       0.417000       1.00800           0
      6094 W2       2032     TIP3     OH2      OT      -0.834000       15.9994           0
      6095 W2       2032     TIP3     H1       HT       0.417000       1.00800           0
      6096 W2       2032     TIP3     H2       HT       0.417000       1.00800           0
      6097 W2       2033     TIP3     OH2      OT      -0.834000       15.9994           0
      6098 W2       2033     TIP3     H1       HT       0.417000       1.00800           0
      6099 W2       2033     TIP3     H2       HT       0.417000       1.00800           0
      6100 W2       2034     TIP3     OH2      OT      -0.834000       15.9994           0
      6101 W2       2034     TIP3     H1       HT       0.417000       1.00800           0
      6102 W2       2034     TIP3     H2       HT       0.417000       1.00800           0
      6103 W2       2035     TIP3     OH2      OT      -0.834000       15.9994           0
      6104 W2       2035     TIP3     H1       HT       0.417000       1.00800           0
      6105 W2       2035     TIP3     H2       HT       0.417000       1.00800           0
      6106 W2       2036     TIP3     OH2      OT      -0.834000       15.9994           0
      6107 W2       2036     TIP3     H1       HT       0.417000       1.00800           0
      6108 W2       2036     TIP3     H2       HT       0.417000       1.00800           0
      6109 W2       2037     TIP3     OH2      OT      -0.834000       15.9994           0
      6110 W2       2037     TIP3     H1       HT       0.417000       1.00800           0
      6111 W2       2037     TIP3     H2       HT       0.417000       1.00800           0
      6112 W2       2038     TIP3     OH2      OT      -0.834000       15.9994           0
      6113 W2       2038     TIP3     H1       HT       0.417000       1.00800           0
      6114 W2       2038     TIP3     H2       HT       0.417000       1.00800           0
      6115 W2       2039     TIP3     OH2      OT      -0.834000       15.9994           0
      6116 W2       2039     TIP3     H1       HT       0.417000       1.00800           0
      6117 W2       2039     TIP3     H2       HT       0.417000       1.00800           0
      6118 W2       2040     TIP3     OH2      OT      -0.834000       15.9994           0
      6119 W2       2040     TIP3     H1       HT       0.417000       1.00800           0
      6120 W2       2040     TIP3     H2       HT       0.417000       1.00800           0
      6121 W2       2041     TIP3     OH2      OT      -0.834000       15.9994           0
      6122 W2       2041     TIP3     H1       HT       0.417000       1.00800           0
      6123 W2       2041     TIP3     H2       HT       0.417000       1.00800           0
      6124 W2       2042     TIP3     OH2      OT      -0.834000       15.9994           0
      6125 W2       2042     TIP3     H1       HT       0.417000       1.00800           0
      6126 W2       2042     TIP3     H2       HT       0.417000       1.00800           0
      6127 W2       2043     TIP3     OH2      OT      -0.834000       15.9994           0
      6128 W2       2043     TIP3     H1       HT       0.417000       1.00800           0
      6129 W2       2043     TIP3     H2       HT       0.417000       1.00800           0
      6130 W2       2044     TIP3     OH2      OT      -0.834000       15.9994           0
      6131 W2       2044     TIP3     H1       HT       0.417000       1.00800           0
      6132 W2       2044     TIP3     H2       HT       0.417000       1.00800           0
      6133 W2       2045     TIP3     OH2      OT      -0.834000       15.9994           0
      6134 W2       2045     TIP3     H1       HT       0.417000       1.00800           0
      6135 W2       2045     TIP3     H2       HT       0.417000       1.00800           0
      6136 W2       2046     TIP3     OH2      OT      -0.834000       15.9994           0
      6137 W2       2046     TIP3     H1       HT       0.417000       1.00800           0
      6138 W2       2046     TIP3     H2       HT       0.417000       1.00800           0
      6139 W2       2047     TIP3     OH2      OT      -0.834000       15.9994           0
      6140 W2       2047     TIP3     H1       HT       0.417000       1.00800           0
      6141 W2       2047     TIP3     H2       HT       0.417000       1.00800           0
      6142 W2       2048     TIP3     OH2      OT      -0.834000       15.9994           0
      6143 W2       2048     TIP3     H1       HT       0.417000       1.00800           0
      6144 W2       2048     TIP3     H2       HT       0.417000       1.00800           0
      6145 W2       2049     TIP3     OH2      OT      -0.834000       15.9994           0
      6146 W2       2049     TIP3     H1       HT       0.417000       1.00800           0
      6147 W2       2049     TIP3     H2       HT       0.417000       1.00800           0
      6148 W2       2050     TIP3     OH2      OT      -0.834000       15.9994           0
      6149 W2       2050     TIP3     H1       HT       0.417000       1.00800           0
      6150 W2       2050     TIP3     H2       HT       0.417000       1.00800           0
      6151 W2       2051     TIP3     OH2      OT      -0.834000       15.9994           0
      6152 W2       2051     TIP3     H1       HT       0.417000       1.00800           0
      6153 W2       2051     TIP3     H2       HT       0.417000       1.00800           0
      6154 W2       2052     TIP3     OH2      OT      -0.834000       15.9994           0
      6155 W2       2052     TIP3     H1       HT       0.417000       1.00800           0
      6156 W2       2052     TIP3     H2       HT       0.417000       1.00800           0
      6157 W2       2053     TIP3     OH2      OT      -0.834000       15.9994           0
      6158 W2       2053     TIP3     H1       HT       0.417000       1.00800           0
      6159 W2       2053     TIP3     H2       HT       0.417000       1.00800           0
      6160 W2       2054     TIP3     OH2      OT      -0.834000       15.9994           0
      6161 W2       2054     TIP3     H1       HT       0.417000       1.00800           0
      6162 W2       2054     TIP3     H2       HT       0.417000       1.00800           0
      6163 W2       2055     TIP3     OH2      OT      -0.834000       15.9994           0
      6164 W2       2055     TIP3     H1       HT       0.417000       1.00800           0
      6165 W2       2055     TIP3     H2       HT       0.417000       1.00800           0
      6166 W2       2056     TIP3     OH2      OT      -0.834000       15.9994           0
      6167 W2       2056     TIP3     H1       HT       0.417000       1.00800           0
      6168 W2       2056     TIP3     H2       HT       0.417000       1.00800           0
      6169 W2       2057     TIP3     OH2      OT      -0.834000       15.9994           0
      6170 W2       2057     TIP3     H1       HT       0.417000       1.00800           0
      6171 W2       2057     TIP3     H2       HT       0.417000       1.00800           0
      6172 W2       2058     TIP3     OH2      OT      -0.834000       15.9994           0
      6173 W2       2058     TIP3     H1       HT       0.417000       1.00800           0
      6174 W2       2058     TIP3     H2       HT       0.417000       1.00800           0
      6175 W2       2059     TIP3     OH2      OT      -0.834000       15.9994           0
      6176 W2       2059     TIP3     H1       HT       0.417000       1.00800           0
      6177 W2       2059     TIP3     H2       HT       0.417000       1.00800           0
      6178 W2       2060     TIP3     OH2      OT      -0.834000       15.9994           0
      6179 W2       2060     TIP3     H1       HT       0.417000       1.00800           0
      6180 W2       2060     TIP3     H2       HT       0.417000       1.00800           0
      6181 W2       2061     TIP3     OH2      OT      -0.834000       15.9994           0
      6182 W2       2061     TIP3     H1       HT       0.417000       1.00800           0
      6183 W2       2061     TIP3     H2       HT       0.417000       1.00800           0
      6184 W2       2062     TIP3     OH2      OT      -0.834000       15.9994           0
      6185 W2       2062     TIP3     H1       HT       0.417000       1.00800           0
      6186 W2       2062     TIP3     H2       HT       0.417000       1.00800           0
      6187 W2       2063     TIP3     OH2      OT      -0.834000       15.9994           0
      6188 W2       2063     TIP3     H1       HT       0.417000       1.00800           0
      6189 W2       2063     TIP3     H2       HT       0.417000       1.00800           0
      6190 W2       2064     TIP3     OH2      OT      -0.834000       15.9994           0
      6191 W2       2064     TIP3     H1       HT       0.417000       1.00800           0
      6192 W2       2064     TIP3     H2       HT       0.417000       1.00800           0
      6193 W2       2065     TIP3     OH2      OT      -0.834000       15.9994           0
      6194 W2       2065     TIP3     H1       HT       0.417000       1.00800           0
      6195 W2       2065     TIP3     H2       HT       0.417000       1.00800           0
      6196 W2       2066     TIP3     OH2      OT      -0.834000       15.9994           0
      6197 W2       2066     TIP3     H1       HT       0.417000       1.00800           0
      6198 W2       2066     TIP3     H2       HT       0.417000       1.00800           0
      6199 W2       2067     TIP3     OH2      OT      -0.834000       15.9994           0
      6200 W2       2067     TIP3     H1       HT       0.417000       1.00800           0
      6201 W2       2067     TIP3     H2       HT       0.417000       1.00800           0
      6202 W2       2068     TIP3     OH2      OT      -0.834000       15.9994           0
      6203 W2       2068     TIP3     H1       HT       0.417000       1.00800           0
      6204 W2       2068     TIP3     H2       HT       0.417000       1.00800           0
      6205 W2       2069     TIP3     OH2      OT      -0.834000       15.9994           0
      6206 W2       2069     TIP3     H1       HT       0.417000       1.00800           0
      6207 W2       2069     TIP3     H2       HT       0.417000       1.00800           0
      6208 W2       2070     TIP3     OH2      OT      -0.834000       15.9994           0
      6209 W2       2070     TIP3     H1       HT       0.417000       1.00800           0
      6210 W2       2070     TIP3     H2       HT       0.417000       1.00800           0
      6211 W2       2071     TIP3     OH2      OT      -0.834000       15.9994           0
      6212 W2       2071     TIP3     H1       HT       0.417000       1.00800           0
      6213 W2       2071     TIP3     H2       HT       0.417000       1.00800           0
      6214 W2       2072     TIP3     OH2      OT      -0.834000       15.9994           0
      6215 W2       2072     TIP3     H1       HT       0.417000       1.00800           0
      6216 W2       2072     TIP3     H2       HT       0.417000       1.00800           0
      6217 W2       2073     TIP3     OH2      OT      -0.834000       15.9994           0
      6218 W2       2073     TIP3     H1       HT       0.417000       1.00800           0
      6219 W2       2073     TIP3     H2       HT       0.417000       1.00800           0
      6220 W2       2074     TIP3     OH2      OT      -0.834000       15.9994           0
      6221 W2       2074     TIP3     H1       HT       0.417000       1.00800           0
      6222 W2       2074     TIP3     H2       HT       0.417000       1.00800           0
      6223 W2       2075     TIP3     OH2      OT      -0.834000       15.9994           0
      6224 W2       2075     TIP3     H1       HT       0.417000       1.00800           0
      6225 W2       2075     TIP3     H2       HT       0.417000       1.00800           0
      6226 W2       2076     TIP3     OH2      OT      -0.834000       15.9994           0
      6227 W2       2076     TIP3     H1       HT       0.417000       1.00800           0
      6228 W2       2076     TIP3     H2       HT       0.417000       1.00800           0
      6229 W2       2077     TIP3     OH2      OT      -0.834000       15.9994           0
      6230 W2       2077     TIP3     H1       HT       0.417000       1.00800           0
      6231 W2       2077     TIP3     H2       HT       0.417000       1.00800           0
      6232 W2       2078     TIP3     OH2      OT      -0.834000       15.9994           0
      6233 W2       2078     TIP3     H1       HT       0.417000       1.00800           0
      6234 W2       2078     TIP3     H2       HT       0.417000       1.00800           0
      6235 W2       2079     TIP3     OH2      OT      -0.834000       15.9994           0
      6236 W2       2079     TIP3     H1       HT       0.417000       1.00800           0
      6237 W2       2079     TIP3     H2       HT       0.417000       1.00800           0
      6238 W2       2080     TIP3     OH2      OT      -0.834000       15.9994           0
      6239 W2       2080     TIP3     H1       HT       0.417000       1.00800           0
      6240 W2       2080     TIP3     H2       HT       0.417000       1.00800           0
      6241 W2       2081     TIP3     OH2      OT      -0.834000       15.9994           0
      6242 W2       2081     TIP3     H1       HT       0.417000       1.00800           0
      6243 W2       2081     TIP3     H2       HT       0.417000       1.00800           0
      6244 W2       2082     TIP3     OH2      OT      -0.834000       15.9994           0
      6245 W2       2082     TIP3     H1       HT       0.417000       1.00800           0
      6246 W2       2082     TIP3     H2       HT       0.417000       1.00800           0
      6247 W2       2083     TIP3     OH2      OT      -0.834000       15.9994           0
      6248 W2       2083     TIP3     H1       HT       0.417000       1.00800           0
      6249 W2       2083     TIP3     H2       HT       0.417000       1.00800           0
      6250 W2       2084     TIP3     OH2      OT      -0.834000       15.9994           0
      6251 W2       2084     TIP3     H1       HT       0.417000       1.00800           0
      6252 W2       2084     TIP3     H2       HT       0.417000       1.00800           0
      6253 W2       2085     TIP3     OH2      OT      -0.834000       15.9994           0
      6254 W2       2085     TIP3     H1       HT       0.417000       1.00800           0
      6255 W2       2085     TIP3     H2       HT       0.417000       1.00800           0
      6256 W2       2086     TIP3     OH2      OT      -0.834000       15.9994           0
      6257 W2       2086     TIP3     H1       HT       0.417000       1.00800           0
      6258 W2       2086     TIP3     H2       HT       0.417000       1.00800           0
      6259 W2       2087     TIP3     OH2      OT      -0.834000       15.9994           0
      6260 W2       2087     TIP3     H1       HT       0.417000       1.00800           0
      6261 W2       2087     TIP3     H2       HT       0.417000       1.00800           0
      6262 W2       2088     TIP3     OH2      OT      -0.834000       15.9994           0
      6263 W2       2088     TIP3     H1       HT       0.417000       1.00800           0
      6264 W2       2088     TIP3     H2       HT       0.417000       1.00800           0
      6265 W2       2089     TIP3     OH2      OT      -0.834000       15.9994           0
      6266 W2       2089     TIP3     H1       HT       0.417000       1.00800           0
      6267 W2       2089     TIP3     H2       HT       0.417000       1.00800           0
      6268 W2       2090     TIP3     OH2      OT      -0.834000       15.9994           0
      6269 W2       2090     TIP3     H1       HT       0.417000       1.00800           0
      6270 W2       2090     TIP3     H2       HT       0.417000       1.00800           0
      6271 W2       2091     TIP3     OH2      OT      -0.834000       15.9994           0
      6272 W2       2091     TIP3     H1       HT       0.417000       1.00800           0
      6273 W2       2091     TIP3     H2       HT       0.417000       1.00800           0
      6274 W2       2092     TIP3     OH2      OT      -0.834000       15.9994           0
      6275 W2       2092     TIP3     H1       HT       0.417000       1.00800           0
      6276 W2       2092     TIP3     H2       HT       0.417000       1.00800           0
      6277 W2       2093     TIP3     OH2      OT      -0.834000       15.9994           0
      6278 W2       2093     TIP3     H1       HT       0.417000       1.00800           0
      6279 W2       2093     TIP3     H2       HT       0.417000       1.00800           0
      6280 W2       2094     TIP3     OH2      OT      -0.834000       15.9994           0
      6281 W2       2094     TIP3     H1       HT       0.417000       1.00800           0
      6282 W2       2094     TIP3     H2       HT       0.417000       1.00800           0
      6283 W2       2095     TIP3     OH2      OT      -0.834000       15.9994           0
      6284 W2       2095     TIP3     H1       HT       0.417000       1.00800           0
      6285 W2       2095     TIP3     H2       HT       0.417000       1.00800           0
      6286 W2       2096     TIP3     OH2      OT      -0.834000       15.9994           0
      6287 W2       2096     TIP3     H1       HT       0.417000       1.00800           0
      6288 W2       2096     TIP3     H2       HT       0.417000       1.00800           0
      6289 W2       2097     TIP3     OH2      OT      -0.834000       15.9994           0
      6290 W2       2097     TIP3     H1       HT       0.417000       1.00800           0
      6291 W2       2097     TIP3     H2       HT       0.417000       1.00800           0
      6292 W2       2098     TIP3     OH2      OT      -0.834000       15.9994           0
      6293 W2       2098     TIP3     H1       HT       0.417000       1.00800           0
      6294 W2       2098     TIP3     H2       HT       0.417000       1.00800           0
      6295 W2       2099     TIP3     OH2      OT      -0.834000       15.9994           0
      6296 W2       2099     TIP3     H1       HT       0.417000       1.00800           0
      6297 W2       2099     TIP3     H2       HT       0.417000       1.00800           0
      6298 W2       2100     TIP3     OH2      OT      -0.834000       15.9994           0
      6299 W2       2100     TIP3     H1       HT       0.417000       1.00800           0
      6300 W2       2100     TIP3     H2       HT       0.417000       1.00800           0
      6301 W2       2101     TIP3     OH2      OT      -0.834000       15.9994           0
      6302 W2       2101     TIP3     H1       HT       0.417000       1.00800           0
      6303 W2       2101     TIP3     H2       HT       0.417000       1.00800           0
      6304 W2       2102     TIP3     OH2      OT      -0.834000       15.9994           0
      6305 W2       2102     TIP3     H1       HT       0.417000       1.00800           0
      6306 W2       2102     TIP3     H2       HT       0.417000       1.00800           0
      6307 W2       2103     TIP3     OH2      OT      -0.834000       15.9994           0
      6308 W2       2103     TIP3     H1       HT       0.417000       1.00800           0
      6309 W2       2103     TIP3     H2       HT       0.417000       1.00800           0
      6310 W2       2104     TIP3     OH2      OT      -0.834000       15.9994           0
      6311 W2       2104     TIP3     H1       HT       0.417000       1.00800           0
      6312 W2       2104     TIP3     H2       HT       0.417000       1.00800           0
      6313 W2       2105     TIP3     OH2      OT      -0.834000       15.9994           0
      6314 W2       2105     TIP3     H1       HT       0.417000       1.00800           0
      6315 W2       2105     TIP3     H2       HT       0.417000       1.00800           0
      6316 W2       2106     TIP3     OH2      OT      -0.834000       15.9994           0
      6317 W2       2106     TIP3     H1       HT       0.417000       1.00800           0
      6318 W2       2106     TIP3     H2       HT       0.417000       1.00800           0
      6319 W2       2107     TIP3     OH2      OT      -0.834000       15.9994           0
      6320 W2       2107     TIP3     H1       HT       0.417000       1.00800           0
      6321 W2       2107     TIP3     H2       HT       0.417000       1.00800           0
      6322 W2       2108     TIP3     OH2      OT      -0.834000       15.9994           0
      6323 W2       2108     TIP3     H1       HT       0.417000       1.00800           0
      6324 W2       2108     TIP3     H2       HT       0.417000       1.00800           0
      6325 W2       2109     TIP3     OH2      OT      -0.834000       15.9994           0
      6326 W2       2109     TIP3     H1       HT       0.417000       1.00800           0
      6327 W2       2109     TIP3     H2       HT       0.417000       1.00800           0
      6328 W2       2110     TIP3     OH2      OT      -0.834000       15.9994           0
      6329 W2       2110     TIP3     H1       HT       0.417000       1.00800           0
      6330 W2       2110     TIP3     H2       HT       0.417000       1.00800           0
      6331 W2       2111     TIP3     OH2      OT      -0.834000       15.9994           0
      6332 W2       2111     TIP3     H1       HT       0.417000       1.00800           0
      6333 W2       2111     TIP3     H2       HT       0.417000       1.00800           0
      6334 W2       2112     TIP3     OH2      OT      -0.834000       15.9994           0
      6335 W2       2112     TIP3     H1       HT       0.417000       1.00800           0
      6336 W2       2112     TIP3     H2       HT       0.417000       1.00800           0
      6337 W2       2113     TIP3     OH2      OT      -0.834000       15.9994           0
      6338 W2       2113     TIP3     H1       HT       0.417000       1.00800           0
      6339 W2       2113     TIP3     H2       HT       0.417000       1.00800           0
      6340 W2       2114     TIP3     OH2      OT      -0.834000       15.9994           0
      6341 W2       2114     TIP3     H1       HT       0.417000       1.00800           0
      6342 W2       2114     TIP3     H2       HT       0.417000       1.00800           0
      6343 W2       2115     TIP3     OH2      OT      -0.834000       15.9994           0
      6344 W2       2115     TIP3     H1       HT       0.417000       1.00800           0
      6345 W2       2115     TIP3     H2       HT       0.417000       1.00800           0
      6346 W2       2116     TIP3     OH2      OT      -0.834000       15.9994           0
      6347 W2       2116     TIP3     H1       HT       0.417000       1.00800           0
      6348 W2       2116     TIP3     H2       HT       0.417000       1.00800           0
      6349 W2       2117     TIP3     OH2      OT      -0.834000       15.9994           0
      6350 W2       2117     TIP3     H1       HT       0.417000       1.00800           0
      6351 W2       2117     TIP3     H2       HT       0.417000       1.00800           0
      6352 W2       2118     TIP3     OH2      OT      -0.834000       15.9994           0
      6353 W2       2118     TIP3     H1       HT       0.417000       1.00800           0
      6354 W2       2118     TIP3     H2       HT       0.417000       1.00800           0
      6355 W2       2119     TIP3     OH2      OT      -0.834000       15.9994           0
      6356 W2       2119     TIP3     H1       HT       0.417000       1.00800           0
      6357 W2       2119     TIP3     H2       HT       0.417000       1.00800           0
      6358 W2       2120     TIP3     OH2      OT      -0.834000       15.9994           0
      6359 W2       2120     TIP3     H1       HT       0.417000       1.00800           0
      6360 W2       2120     TIP3     H2       HT       0.417000       1.00800           0
      6361 W2       2121     TIP3     OH2      OT      -0.834000       15.9994           0
      6362 W2       2121     TIP3     H1       HT       0.417000       1.00800           0
      6363 W2       2121     TIP3     H2       HT       0.417000       1.00800           0
      6364 W2       2122     TIP3     OH2      OT      -0.834000       15.9994           0
      6365 W2       2122     TIP3     H1       HT       0.417000       1.00800           0
      6366 W2       2122     TIP3     H2       HT       0.417000       1.00800           0
      6367 W2       2123     TIP3     OH2      OT      -0.834000       15.9994           0
      6368 W2       2123     TIP3     H1       HT       0.417000       1.00800           0
      6369 W2       2123     TIP3     H2       HT       0.417000       1.00800           0
      6370 W2       2124     TIP3     OH2      OT      -0.834000       15.9994           0
      6371 W2       2124     TIP3     H1       HT       0.417000       1.00800           0
      6372 W2       2124     TIP3     H2       HT       0.417000       1.00800           0
      6373 W2       2125     TIP3     OH2      OT      -0.834000       15.9994           0
      6374 W2       2125     TIP3     H1       HT       0.417000       1.00800           0
      6375 W2       2125     TIP3     H2       HT       0.417000       1.00800           0
      6376 W2       2126     TIP3     OH2      OT      -0.834000       15.9994           0
      6377 W2       2126     TIP3     H1       HT       0.417000       1.00800           0
      6378 W2       2126     TIP3     H2       HT       0.417000       1.00800           0
      6379 W2       2127     TIP3     OH2      OT      -0.834000       15.9994           0
      6380 W2       2127     TIP3     H1       HT       0.417000       1.00800           0
      6381 W2       2127     TIP3     H2       HT       0.417000       1.00800           0
      6382 W2       2128     TIP3     OH2      OT      -0.834000       15.9994           0
      6383 W2       2128     TIP3     H1       HT       0.417000       1.00800           0
      6384 W2       2128     TIP3     H2       HT       0.417000       1.00800           0
      6385 W2       2129     TIP3     OH2      OT      -0.834000       15.9994           0
      6386 W2       2129     TIP3     H1       HT       0.417000       1.00800           0
      6387 W2       2129     TIP3     H2       HT       0.417000       1.00800           0
      6388 W2       2130     TIP3     OH2      OT      -0.834000       15.9994           0
      6389 W2       2130     TIP3     H1       HT       0.417000       1.00800           0
      6390 W2       2130     TIP3     H2       HT       0.417000       1.00800           0
      6391 W2       2131     TIP3     OH2      OT      -0.834000       15.9994           0
      6392 W2       2131     TIP3     H1       HT       0.417000       1.00800           0
      6393 W2       2131     TIP3     H2       HT       0.417000       1.00800           0
      6394 W2       2132     TIP3     OH2      OT      -0.834000       15.9994           0
      6395 W2       2132     TIP3     H1       HT       0.417000       1.00800           0
      6396 W2       2132     TIP3     H2       HT       0.417000       1.00800           0
      6397 W2       2133     TIP3     OH2      OT      -0.834000       15.9994           0
      6398 W2       2133     TIP3     H1       HT       0.417000       1.00800           0
      6399 W2       2133     TIP3     H2       HT       0.417000       1.00800           0
      6400 W2       2134     TIP3     OH2      OT      -0.834000       15.9994           0
      6401 W2       2134     TIP3     H1       HT       0.417000       1.00800           0
      6402 W2       2134     TIP3     H2       HT       0.417000       1.00800           0
      6403 W2       2135     TIP3     OH2      OT      -0.834000       15.9994           0
      6404 W2       2135     TIP3     H1       HT       0.417000       1.00800           0
      6405 W2       2135     TIP3     H2       HT       0.417000       1.00800           0
      6406 W2       2136     TIP3     OH2      OT      -0.834000       15.9994           0
      6407 W2       2136     TIP3     H1       HT       0.417000       1.00800           0
      6408 W2       2136     TIP3     H2       HT       0.417000       1.00800           0
      6409 W2       2137     TIP3     OH2      OT      -0.834000       15.9994           0
      6410 W2       2137     TIP3     H1       HT       0.417000       1.00800           0
      6411 W2       2137     TIP3     H2       HT       0.417000       1.00800           0
      6412 W2       2138     TIP3     OH2      OT      -0.834000       15.9994           0
      6413 W2       2138     TIP3     H1       HT       0.417000       1.00800           0
      6414 W2       2138     TIP3     H2       HT       0.417000       1.00800           0
      6415 W2       2139     TIP3     OH2      OT      -0.834000       15.9994           0
      6416 W2       2139     TIP3     H1       HT       0.417000       1.00800           0
      6417 W2       2139     TIP3     H2       HT       0.417000       1.00800           0
      6418 W2       2140     TIP3     OH2      OT      -0.834000       15.9994           0
      6419 W2       2140     TIP3     H1       HT       0.417000       1.00800           0
      6420 W2       2140     TIP3     H2       HT       0.417000       1.00800           0
      6421 W2       2141     TIP3     OH2      OT      -0.834000       15.9994           0
      6422 W2       2141     TIP3     H1       HT       0.417000       1.00800           0
      6423 W2       2141     TIP3     H2       HT       0.417000       1.00800           0
      6424 W2       2142     TIP3     OH2      OT      -0.834000       15.9994           0
      6425 W2       2142     TIP3     H1       HT       0.417000       1.00800           0
      6426 W2       2142     TIP3     H2       HT       0.417000       1.00800           0
      6427 W2       2143     TIP3     OH2      OT      -0.834000       15.9994           0
      6428 W2       2143     TIP3     H1       HT       0.417000       1.00800           0
      6429 W2       2143     TIP3     H2       HT       0.417000       1.00800           0
      6430 W2       2144     TIP3     OH2      OT      -0.834000       15.9994           0
      6431 W2       2144     TIP3     H1       HT       0.417000       1.00800           0
      6432 W2       2144     TIP3     H2       HT       0.417000       1.00800           0
      6433 W2       2145     TIP3     OH2      OT      -0.834000       15.9994           0
      6434 W2       2145     TIP3     H1       HT       0.417000       1.00800           0
      6435 W2       2145     TIP3     H2       HT       0.417000       1.00800           0
      6436 W2       2146     TIP3     OH2      OT      -0.834000       15.9994           0
      6437 W2       2146     TIP3     H1       HT       0.417000       1.00800           0
      6438 W2       2146     TIP3     H2       HT       0.417000       1.00800           0
      6439 W2       2147     TIP3     OH2      OT      -0.834000       15.9994           0
      6440 W2       2147     TIP3     H1       HT       0.417000       1.00800           0
      6441 W2       2147     TIP3     H2       HT       0.417000       1.00800           0
      6442 W2       2148     TIP3     OH2      OT      -0.834000       15.9994           0
      6443 W2       2148     TIP3     H1       HT       0.417000       1.00800           0
      6444 W2       2148     TIP3     H2       HT       0.417000       1.00800           0
      6445 W2       2149     TIP3     OH2      OT      -0.834000       15.9994           0
      6446 W2       2149     TIP3     H1       HT       0.417000       1.00800           0
      6447 W2       2149     TIP3     H2       HT       0.417000       1.00800           0
      6448 W2       2150     TIP3     OH2      OT      -0.834000       15.9994           0
      6449 W2       2150     TIP3     H1       HT       0.417000       1.00800           0
      6450 W2       2150     TIP3     H2       HT       0.417000       1.00800           0
      6451 W2       2151     TIP3     OH2      OT      -0.834000       15.9994           0
      6452 W2       2151     TIP3     H1       HT       0.417000       1.00800           0
      6453 W2       2151     TIP3     H2       HT       0.417000       1.00800           0
      6454 W2       2152     TIP3     OH2      OT      -0.834000       15.9994           0
      6455 W2       2152     TIP3     H1       HT       0.417000       1.00800           0
      6456 W2       2152     TIP3     H2       HT       0.417000       1.00800           0
      6457 W2       2153     TIP3     OH2      OT      -0.834000       15.9994           0
      6458 W2       2153     TIP3     H1       HT       0.417000       1.00800           0
      6459 W2       2153     TIP3     H2       HT       0.417000       1.00800           0
      6460 W2       2154     TIP3     OH2      OT      -0.834000       15.9994           0
      6461 W2       2154     TIP3     H1       HT       0.417000       1.00800           0
      6462 W2       2154     TIP3     H2       HT       0.417000       1.00800           0
      6463 W2       2155     TIP3     OH2      OT      -0.834000       15.9994           0
      6464 W2       2155     TIP3     H1       HT       0.417000       1.00800           0
      6465 W2       2155     TIP3     H2       HT       0.417000       1.00800           0
      6466 W2       2156     TIP3     OH2      OT      -0.834000       15.9994           0
      6467 W2       2156     TIP3     H1       HT       0.417000       1.00800           0
      6468 W2       2156     TIP3     H2       HT       0.417000       1.00800           0
      6469 W2       2157     TIP3     OH2      OT      -0.834000       15.9994           0
      6470 W2       2157     TIP3     H1       HT       0.417000       1.00800           0
      6471 W2       2157     TIP3     H2       HT       0.417000       1.00800           0
      6472 W2       2158     TIP3     OH2      OT      -0.834000       15.9994           0
      6473 W2       2158     TIP3     H1       HT       0.417000       1.00800           0
      6474 W2       2158     TIP3     H2       HT       0.417000       1.00800           0
      6475 W2       2159     TIP3     OH2      OT      -0.834000       15.9994           0
      6476 W2       2159     TIP3     H1       HT       0.417000       1.00800           0
      6477 W2       2159     TIP3     H2       HT       0.417000       1.00800           0
      6478 W2       2160     TIP3     OH2      OT      -0.834000       15.9994           0
      6479 W2       2160     TIP3     H1       HT       0.417000       1.00800           0
      6480 W2       2160     TIP3     H2       HT       0.417000       1.00800           0
      6481 W2       2161     TIP3     OH2      OT      -0.834000       15.9994           0
      6482 W2       2161     TIP3     H1       HT       0.417000       1.00800           0
      6483 W2       2161     TIP3     H2       HT       0.417000       1.00800           0
      6484 W2       2162     TIP3     OH2      OT      -0.834000       15.9994           0
      6485 W2       2162     TIP3     H1       HT       0.417000       1.00800           0
      6486 W2       2162     TIP3     H2       HT       0.417000       1.00800           0
      6487 W2       2163     TIP3     OH2      OT      -0.834000       15.9994           0
      6488 W2       2163     TIP3     H1       HT       0.417000       1.00800           0
      6489 W2       2163     TIP3     H2       HT       0.417000       1.00800           0
      6490 W2       2164     TIP3     OH2      OT      -0.834000       15.9994           0
      6491 W2       2164     TIP3     H1       HT       0.417000       1.00800           0
      6492 W2       2164     TIP3     H2       HT       0.417000       1.00800           0
      6493 W2       2165     TIP3     OH2      OT      -0.834000       15.9994           0
      6494 W2       2165     TIP3     H1       HT       0.417000       1.00800           0
      6495 W2       2165     TIP3     H2       HT       0.417000       1.00800           0
      6496 W2       2166     TIP3     OH2      OT      -0.834000       15.9994           0
      6497 W2       2166     TIP3     H1       HT       0.417000       1.00800           0
      6498 W2       2166     TIP3     H2       HT       0.417000       1.00800           0
      6499 W2       2167     TIP3     OH2      OT      -0.834000       15.9994           0
      6500 W2       2167     TIP3     H1       HT       0.417000       1.00800           0
      6501 W2       2167     TIP3     H2       HT       0.417000       1.00800           0
      6502 W2       2168     TIP3     OH2      OT      -0.834000       15.9994           0
      6503 W2       2168     TIP3     H1       HT       0.417000       1.00800           0
      6504 W2       2168     TIP3     H2       HT       0.417000       1.00800           0
      6505 W2       2169     TIP3     OH2      OT      -0.834000       15.9994           0
      6506 W2       2169     TIP3     H1       HT       0.417000       1.00800           0
      6507 W2       2169     TIP3     H2       HT       0.417000       1.00800           0
      6508 W2       2170     TIP3     OH2      OT      -0.834000       15.9994           0
      6509 W2       2170     TIP3     H1       HT       0.417000       1.00800           0
      6510 W2       2170     TIP3     H2       HT       0.417000       1.00800           0
      6511 W2       2171     TIP3     OH2      OT      -0.834000       15.9994           0
      6512 W2       2171     TIP3     H1       HT       0.417000       1.00800           0
      6513 W2       2171     TIP3     H2       HT       0.417000       1.00800           0
      6514 W2       2172     TIP3     OH2      OT      -0.834000       15.9994           0
      6515 W2       2172     TIP3     H1       HT       0.417000       1.00800           0
      6516 W2       2172     TIP3     H2       HT       0.417000       1.00800           0
      6517 W2       2173     TIP3     OH2      OT      -0.834000       15.9994           0
      6518 W2       2173     TIP3     H1       HT       0.417000       1.00800           0
      6519 W2       2173     TIP3     H2       HT       0.417000       1.00800           0
      6520 W2       2174     TIP3     OH2      OT      -0.834000       15.9994           0
      6521 W2       2174     TIP3     H1       HT       0.417000       1.00800           0
      6522 W2       2174     TIP3     H2       HT       0.417000       1.00800           0
      6523 W2       2175     TIP3     OH2      OT      -0.834000       15.9994           0
      6524 W2       2175     TIP3     H1       HT       0.417000       1.00800           0
      6525 W2       2175     TIP3     H2       HT       0.417000       1.00800           0
      6526 W2       2176     TIP3     OH2      OT      -0.834000       15.9994           0
      6527 W2       2176     TIP3     H1       HT       0.417000       1.00800           0
      6528 W2       2176     TIP3     H2       HT       0.417000       1.00800           0
      6529 W2       2177     TIP3     OH2      OT      -0.834000       15.9994           0
      6530 W2       2177     TIP3     H1       HT       0.417000       1.00800           0
      6531 W2       2177     TIP3     H2       HT       0.417000       1.00800           0
      6532 W2       2178     TIP3     OH2      OT      -0.834000       15.9994           0
      6533 W2       2178     TIP3     H1       HT       0.417000       1.00800           0
      6534 W2       2178     TIP3     H2       HT       0.417000       1.00800           0
      6535 W2       2179     TIP3     OH2      OT      -0.834000       15.9994           0
      6536 W2       2179     TIP3     H1       HT       0.417000       1.00800           0
      6537 W2       2179     TIP3     H2       HT       0.417000       1.00800           0
      6538 W2       2180     TIP3     OH2      OT      -0.834000       15.9994           0
      6539 W2       2180     TIP3     H1       HT       0.417000       1.00800           0
      6540 W2       2180     TIP3     H2       HT       0.417000       1.00800           0
      6541 W2       2181     TIP3     OH2      OT      -0.834000       15.9994           0
      6542 W2       2181     TIP3     H1       HT       0.417000       1.00800           0
      6543 W2       2181     TIP3     H2       HT       0.417000       1.00800           0
      6544 W2       2182     TIP3     OH2      OT      -0.834000       15.9994           0
      6545 W2       2182     TIP3     H1       HT       0.417000       1.00800           0
      6546 W2       2182     TIP3     H2       HT       0.417000       1.00800           0
      6547 W2       2183     TIP3     OH2      OT      -0.834000       15.9994           0
      6548 W2       2183     TIP3     H1       HT       0.417000       1.00800           0
      6549 W2       2183     TIP3     H2       HT       0.417000       1.00800           0
      6550 W2       2184     TIP3     OH2      OT      -0.834000       15.9994           0
      6551 W2       2184     TIP3     H1       HT       0.417000       1.00800           0
      6552 W2       2184     TIP3     H2       HT       0.417000       1.00800           0
      6553 W2       2185     TIP3     OH2      OT      -0.834000       15.9994           0
      6554 W2       2185     TIP3     H1       HT       0.417000       1.00800           0
      6555 W2       2185     TIP3     H2       HT       0.417000       1.00800           0
      6556 W2       2186     TIP3     OH2      OT      -0.834000       15.9994           0
      6557 W2       2186     TIP3     H1       HT       0.417000       1.00800           0
      6558 W2       2186     TIP3     H2       HT       0.417000       1.00800           0
      6559 W2       2187     TIP3     OH2      OT      -0.834000       15.9994           0
      6560 W2       2187     TIP3     H1       HT       0.417000       1.00800           0
      6561 W2       2187     TIP3     H2       HT       0.417000       1.00800           0
      6562 W2       2188     TIP3     OH2      OT      -0.834000       15.9994           0
      6563 W2       2188     TIP3     H1       HT       0.417000       1.00800           0
      6564 W2       2188     TIP3     H2       HT       0.417000       1.00800           0
      6565 W2       2189     TIP3     OH2      OT      -0.834000       15.9994           0
      6566 W2       2189     TIP3     H1       HT       0.417000       1.00800           0
      6567 W2       2189     TIP3     H2       HT       0.417000       1.00800           0
      6568 W2       2190     TIP3     OH2      OT      -0.834000       15.9994           0
      6569 W2       2190     TIP3     H1       HT       0.417000       1.00800           0
      6570 W2       2190     TIP3     H2       HT       0.417000       1.00800           0
      6571 W2       2191     TIP3     OH2      OT      -0.834000       15.9994           0
      6572 W2       2191     TIP3     H1       HT       0.417000       1.00800           0
      6573 W2       2191     TIP3     H2       HT       0.417000       1.00800           0
      6574 W2       2192     TIP3     OH2      OT      -0.834000       15.9994           0
      6575 W2       2192     TIP3     H1       HT       0.417000       1.00800           0
      6576 W2       2192     TIP3     H2       HT       0.417000       1.00800           0
      6577 W2       2193     TIP3     OH2      OT      -0.834000       15.9994           0
      6578 W2       2193     TIP3     H1       HT       0.417000       1.00800           0
      6579 W2       2193     TIP3     H2       HT       0.417000       1.00800           0
      6580 W2       2194     TIP3     OH2      OT      -0.834000       15.9994           0
      6581 W2       2194     TIP3     H1       HT       0.417000       1.00800           0
      6582 W2       2194     TIP3     H2       HT       0.417000       1.00800           0
      6583 W2       2195     TIP3     OH2      OT      -0.834000       15.9994           0
      6584 W2       2195     TIP3     H1       HT       0.417000       1.00800           0
      6585 W2       2195     TIP3     H2       HT       0.417000       1.00800           0
      6586 W2       2196     TIP3     OH2      OT      -0.834000       15.9994           0
      6587 W2       2196     TIP3     H1       HT       0.417000       1.00800           0
      6588 W2       2196     TIP3     H2       HT       0.417000       1.00800           0
      6589 W2       2197     TIP3     OH2      OT      -0.834000       15.9994           0
      6590 W2       2197     TIP3     H1       HT       0.417000       1.00800           0
      6591 W2       2197     TIP3     H2       HT       0.417000       1.00800           0
      6592 W2       2198     TIP3     OH2      OT      -0.834000       15.9994           0
      6593 W2       2198     TIP3     H1       HT       0.417000       1.00800           0
      6594 W2       2198     TIP3     H2       HT       0.417000       1.00800           0
      6595 W2       2199     TIP3     OH2      OT      -0.834000       15.9994           0
      6596 W2       2199     TIP3     H1       HT       0.417000       1.00800           0
      6597 W2       2199     TIP3     H2       HT       0.417000       1.00800           0
      6598 W2       2200     TIP3     OH2      OT      -0.834000       15.9994           0
      6599 W2       2200     TIP3     H1       HT       0.417000       1.00800           0
      6600 W2       2200     TIP3     H2       HT       0.417000       1.00800           0
      6601 W2       2201     TIP3     OH2      OT      -0.834000       15.9994           0
      6602 W2       2201     TIP3     H1       HT       0.417000       1.00800           0
      6603 W2       2201     TIP3     H2       HT       0.417000       1.00800           0
      6604 W2       2202     TIP3     OH2      OT      -0.834000       15.9994           0
      6605 W2       2202     TIP3     H1       HT       0.417000       1.00800           0
      6606 W2       2202     TIP3     H2       HT       0.417000       1.00800           0
      6607 W2       2203     TIP3     OH2      OT      -0.834000       15.9994           0
      6608 W2       2203     TIP3     H1       HT       0.417000       1.00800           0
      6609 W2       2203     TIP3     H2       HT       0.417000       1.00800           0
      6610 W2       2204     TIP3     OH2      OT      -0.834000       15.9994           0
      6611 W2       2204     TIP3     H1       HT       0.417000       1.00800           0
      6612 W2       2204     TIP3     H2       HT       0.417000       1.00800           0
      6613 W2       2205     TIP3     OH2      OT      -0.834000       15.9994           0
      6614 W2       2205     TIP3     H1       HT       0.417000       1.00800           0
      6615 W2       2205     TIP3     H2       HT       0.417000       1.00800           0
      6616 W2       2206     TIP3     OH2      OT      -0.834000       15.9994           0
      6617 W2       2206     TIP3     H1       HT       0.417000       1.00800           0
      6618 W2       2206     TIP3     H2       HT       0.417000       1.00800           0
      6619 W2       2207     TIP3     OH2      OT      -0.834000       15.9994           0
      6620 W2       2207     TIP3     H1       HT       0.417000       1.00800           0
      6621 W2       2207     TIP3     H2       HT       0.417000       1.00800           0
      6622 W2       2208     TIP3     OH2      OT      -0.834000       15.9994           0
      6623 W2       2208     TIP3     H1       HT       0.417000       1.00800           0
      6624 W2       2208     TIP3     H2       HT       0.417000       1.00800           0
      6625 W2       2209     TIP3     OH2      OT      -0.834000       15.9994           0
      6626 W2       2209     TIP3     H1       HT       0.417000       1.00800           0
      6627 W2       2209     TIP3     H2       HT       0.417000       1.00800           0
      6628 W2       2210     TIP3     OH2      OT      -0.834000       15.9994           0
      6629 W2       2210     TIP3     H1       HT       0.417000       1.00800           0
      6630 W2       2210     TIP3     H2       HT       0.417000       1.00800           0
      6631 W2       2211     TIP3     OH2      OT      -0.834000       15.9994           0
      6632 W2       2211     TIP3     H1       HT       0.417000       1.00800           0
      6633 W2       2211     TIP3     H2       HT       0.417000       1.00800           0
      6634 W2       2212     TIP3     OH2      OT      -0.834000       15.9994           0
      6635 W2       2212     TIP3     H1       HT       0.417000       1.00800           0
      6636 W2       2212     TIP3     H2       HT       0.417000       1.00800           0
      6637 W2       2213     TIP3     OH2      OT      -0.834000       15.9994           0
      6638 W2       2213     TIP3     H1       HT       0.417000       1.00800           0
      6639 W2       2213     TIP3     H2       HT       0.417000       1.00800           0
      6640 W2       2214     TIP3     OH2      OT      -0.834000       15.9994           0
      6641 W2       2214     TIP3     H1       HT       0.417000       1.00800           0
      6642 W2       2214     TIP3     H2       HT       0.417000       1.00800           0
      6643 W2       2215     TIP3     OH2      OT      -0.834000       15.9994           0
      6644 W2       2215     TIP3     H1       HT       0.417000       1.00800           0
      6645 W2       2215     TIP3     H2       HT       0.417000       1.00800           0
      6646 W2       2216     TIP3     OH2      OT      -0.834000       15.9994           0
      6647 W2       2216     TIP3     H1       HT       0.417000       1.00800           0
      6648 W2       2216     TIP3     H2       HT       0.417000       1.00800           0
      6649 W2       2217     TIP3     OH2      OT      -0.834000       15.9994           0
      6650 W2       2217     TIP3     H1       HT       0.417000       1.00800           0
      6651 W2       2217     TIP3     H2       HT       0.417000       1.00800           0
      6652 W2       2218     TIP3     OH2      OT      -0.834000       15.9994           0
      6653 W2       2218     TIP3     H1       HT       0.417000       1.00800           0
      6654 W2       2218     TIP3     H2       HT       0.417000       1.00800           0
      6655 W2       2219     TIP3     OH2      OT      -0.834000       15.9994           0
      6656 W2       2219     TIP3     H1       HT       0.417000       1.00800           0
      6657 W2       2219     TIP3     H2       HT       0.417000       1.00800           0
      6658 W2       2220     TIP3     OH2      OT      -0.834000       15.9994           0
      6659 W2       2220     TIP3     H1       HT       0.417000       1.00800           0
      6660 W2       2220     TIP3     H2       HT       0.417000       1.00800           0
      6661 W2       2221     TIP3     OH2      OT      -0.834000       15.9994           0
      6662 W2       2221     TIP3     H1       HT       0.417000       1.00800           0
      6663 W2       2221     TIP3     H2       HT       0.417000       1.00800           0
      6664 W2       2222     TIP3     OH2      OT      -0.834000       15.9994           0
      6665 W2       2222     TIP3     H1       HT       0.417000       1.00800           0
      6666 W2       2222     TIP3     H2       HT       0.417000       1.00800           0
      6667 W2       2223     TIP3     OH2      OT      -0.834000       15.9994           0
      6668 W2       2223     TIP3     H1       HT       0.417000       1.00800           0
      6669 W2       2223     TIP3     H2       HT       0.417000       1.00800           0
      6670 W2       2224     TIP3     OH2      OT      -0.834000       15.9994           0
      6671 W2       2224     TIP3     H1       HT       0.417000       1.00800           0
      6672 W2       2224     TIP3     H2       HT       0.417000       1.00800           0
      6673 W2       2225     TIP3     OH2      OT      -0.834000       15.9994           0
      6674 W2       2225     TIP3     H1       HT       0.417000       1.00800           0
      6675 W2       2225     TIP3     H2       HT       0.417000       1.00800           0
      6676 W2       2226     TIP3     OH2      OT      -0.834000       15.9994           0
      6677 W2       2226     TIP3     H1       HT       0.417000       1.00800           0
      6678 W2       2226     TIP3     H2       HT       0.417000       1.00800           0
      6679 W2       2227     TIP3     OH2      OT      -0.834000       15.9994           0
      6680 W2       2227     TIP3     H1       HT       0.417000       1.00800           0
      6681 W2       2227     TIP3     H2       HT       0.417000       1.00800           0
      6682 W2       2228     TIP3     OH2      OT      -0.834000       15.9994           0
      6683 W2       2228     TIP3     H1       HT       0.417000       1.00800           0
      6684 W2       2228     TIP3     H2       HT       0.417000       1.00800           0
      6685 W2       2229     TIP3     OH2      OT      -0.834000       15.9994           0
      6686 W2       2229     TIP3     H1       HT       0.417000       1.00800           0
      6687 W2       2229     TIP3     H2       HT       0.417000       1.00800           0
      6688 W2       2230     TIP3     OH2      OT      -0.834000       15.9994           0
      6689 W2       2230     TIP3     H1       HT       0.417000       1.00800           0
      6690 W2       2230     TIP3     H2       HT       0.417000       1.00800           0
      6691 W2       2231     TIP3     OH2      OT      -0.834000       15.9994           0
      6692 W2       2231     TIP3     H1       HT       0.417000       1.00800           0
      6693 W2       2231     TIP3     H2       HT       0.417000       1.00800           0
      6694 W2       2232     TIP3     OH2      OT      -0.834000       15.9994           0
      6695 W2       2232     TIP3     H1       HT       0.417000       1.00800           0
      6696 W2       2232     TIP3     H2       HT       0.417000       1.00800           0
      6697 W2       2233     TIP3     OH2      OT      -0.834000       15.9994           0
      6698 W2       2233     TIP3     H1       HT       0.417000       1.00800           0
      6699 W2       2233     TIP3     H2       HT       0.417000       1.00800           0
      6700 W2       2234     TIP3     OH2      OT      -0.834000       15.9994           0
      6701 W2       2234     TIP3     H1       HT       0.417000       1.00800           0
      6702 W2       2234     TIP3     H2       HT       0.417000       1.00800           0
      6703 W2       2235     TIP3     OH2      OT      -0.834000       15.9994           0
      6704 W2       2235     TIP3     H1       HT       0.417000       1.00800           0
      6705 W2       2235     TIP3     H2       HT       0.417000       1.00800           0
      6706 W2       2236     TIP3     OH2      OT      -0.834000       15.9994           0
      6707 W2       2236     TIP3     H1       HT       0.417000       1.00800           0
      6708 W2       2236     TIP3     H2       HT       0.417000       1.00800           0
      6709 W2       2237     TIP3     OH2      OT      -0.834000       15.9994           0
      6710 W2       2237     TIP3     H1       HT       0.417000       1.00800           0
      6711 W2       2237     TIP3     H2       HT       0.417000       1.00800           0
      6712 W2       2238     TIP3     OH2      OT      -0.834000       15.9994           0
      6713 W2       2238     TIP3     H1       HT       0.417000       1.00800           0
      6714 W2       2238     TIP3     H2       HT       0.417000       1.00800           0
      6715 W2       2239     TIP3     OH2      OT      -0.834000       15.9994           0
      6716 W2       2239     TIP3     H1       HT       0.417000       1.00800           0
      6717 W2       2239     TIP3     H2       HT       0.417000       1.00800           0
      6718 W2       2240     TIP3     OH2      OT      -0.834000       15.9994           0
      6719 W2       2240     TIP3     H1       HT       0.417000       1.00800           0
      6720 W2       2240     TIP3     H2       HT       0.417000       1.00800           0
      6721 W2       2241     TIP3     OH2      OT      -0.834000       15.9994           0
      6722 W2       2241     TIP3     H1       HT       0.417000       1.00800           0
      6723 W2       2241     TIP3     H2       HT       0.417000       1.00800           0
      6724 W2       2242     TIP3     OH2      OT      -0.834000       15.9994           0
      6725 W2       2242     TIP3     H1       HT       0.417000       1.00800           0
      6726 W2       2242     TIP3     H2       HT       0.417000       1.00800           0
      6727 W2       2243     TIP3     OH2      OT      -0.834000       15.9994           0
      6728 W2       2243     TIP3     H1       HT       0.417000       1.00800           0
      6729 W2       2243     TIP3     H2       HT       0.417000       1.00800           0
      6730 W2       2244     TIP3     OH2      OT      -0.834000       15.9994           0
      6731 W2       2244     TIP3     H1       HT       0.417000       1.00800           0
      6732 W2       2244     TIP3     H2       HT       0.417000       1.00800           0
      6733 W2       2245     TIP3     OH2      OT      -0.834000       15.9994           0
      6734 W2       2245     TIP3     H1       HT       0.417000       1.00800           0
      6735 W2       2245     TIP3     H2       HT       0.417000       1.00800           0
      6736 W2       2246     TIP3     OH2      OT      -0.834000       15.9994           0
      6737 W2       2246     TIP3     H1       HT       0.417000       1.00800           0
      6738 W2       2246     TIP3     H2       HT       0.417000       1.00800           0
      6739 W2       2247     TIP3     OH2      OT      -0.834000       15.9994           0
      6740 W2       2247     TIP3     H1       HT       0.417000       1.00800           0
      6741 W2       2247     TIP3     H2       HT       0.417000       1.00800           0
      6742 W2       2248     TIP3     OH2      OT      -0.834000       15.9994           0
      6743 W2       2248     TIP3     H1       HT       0.417000       1.00800           0
      6744 W2       2248     TIP3     H2       HT       0.417000       1.00800           0
      6745 W2       2249     TIP3     OH2      OT      -0.834000       15.9994           0
      6746 W2       2249     TIP3     H1       HT       0.417000       1.00800           0
      6747 W2       2249     TIP3     H2       HT       0.417000       1.00800           0
      6748 W2       2250     TIP3     OH2      OT      -0.834000       15.9994           0
      6749 W2       2250     TIP3     H1       HT       0.417000       1.00800           0
      6750 W2       2250     TIP3     H2       HT       0.417000       1.00800           0
      6751 W2       2251     TIP3     OH2      OT      -0.834000       15.9994           0
      6752 W2       2251     TIP3     H1       HT       0.417000       1.00800           0
      6753 W2       2251     TIP3     H2       HT       0.417000       1.00800           0
      6754 W2       2252     TIP3     OH2      OT      -0.834000       15.9994           0
      6755 W2       2252     TIP3     H1       HT       0.417000       1.00800           0
      6756 W2       2252     TIP3     H2       HT       0.417000       1.00800           0
      6757 W2       2253     TIP3     OH2      OT      -0.834000       15.9994           0
      6758 W2       2253     TIP3     H1       HT       0.417000       1.00800           0
      6759 W2       2253     TIP3     H2       HT       0.417000       1.00800           0
      6760 W2       2254     TIP3     OH2      OT      -0.834000       15.9994           0
      6761 W2       2254     TIP3     H1       HT       0.417000       1.00800           0
      6762 W2       2254     TIP3     H2       HT       0.417000       1.00800           0
      6763 W2       2255     TIP3     OH2      OT      -0.834000       15.9994           0
      6764 W2       2255     TIP3     H1       HT       0.417000       1.00800           0
      6765 W2       2255     TIP3     H2       HT       0.417000       1.00800           0
      6766 W2       2256     TIP3     OH2      OT      -0.834000       15.9994           0
      6767 W2       2256     TIP3     H1       HT       0.417000       1.00800           0
      6768 W2       2256     TIP3     H2       HT       0.417000       1.00800           0
      6769 W2       2257     TIP3     OH2      OT      -0.834000       15.9994           0
      6770 W2       2257     TIP3     H1       HT       0.417000       1.00800           0
      6771 W2       2257     TIP3     H2       HT       0.417000       1.00800           0
      6772 W2       2258     TIP3     OH2      OT      -0.834000       15.9994           0
      6773 W2       2258     TIP3     H1       HT       0.417000       1.00800           0
      6774 W2       2258     TIP3     H2       HT       0.417000       1.00800           0
      6775 W2       2259     TIP3     OH2      OT      -0.834000       15.9994           0
      6776 W2       2259     TIP3     H1       HT       0.417000       1.00800           0
      6777 W2       2259     TIP3     H2       HT       0.417000       1.00800           0
      6778 W2       2260     TIP3     OH2      OT      -0.834000       15.9994           0
      6779 W2       2260     TIP3     H1       HT       0.417000       1.00800           0
      6780 W2       2260     TIP3     H2       HT       0.417000       1.00800           0
      6781 W2       2261     TIP3     OH2      OT      -0.834000       15.9994           0
      6782 W2       2261     TIP3     H1       HT       0.417000       1.00800           0
      6783 W2       2261     TIP3     H2       HT       0.417000       1.00800           0
      6784 W2       2262     TIP3     OH2      OT      -0.834000       15.9994           0
      6785 W2       2262     TIP3     H1       HT       0.417000       1.00800           0
      6786 W2       2262     TIP3     H2       HT       0.417000       1.00800           0
      6787 W2       2263     TIP3     OH2      OT      -0.834000       15.9994           0
      6788 W2       2263     TIP3     H1       HT       0.417000       1.00800           0
      6789 W2       2263     TIP3     H2       HT       0.417000       1.00800           0
      6790 W2       2264     TIP3     OH2      OT      -0.834000       15.9994           0
      6791 W2       2264     TIP3     H1       HT       0.417000       1.00800           0
      6792 W2       2264     TIP3     H2       HT       0.417000       1.00800           0
      6793 W2       2265     TIP3     OH2      OT      -0.834000       15.9994           0
      6794 W2       2265     TIP3     H1       HT       0.417000       1.00800           0
      6795 W2       2265     TIP3     H2       HT       0.417000       1.00800           0
      6796 W2       2266     TIP3     OH2      OT      -0.834000       15.9994           0
      6797 W2       2266     TIP3     H1       HT       0.417000       1.00800           0
      6798 W2       2266     TIP3     H2       HT       0.417000       1.00800           0
      6799 W2       2267     TIP3     OH2      OT      -0.834000       15.9994           0
      6800 W2       2267     TIP3     H1       HT       0.417000       1.00800           0
      6801 W2       2267     TIP3     H2       HT       0.417000       1.00800           0
      6802 W2       2268     TIP3     OH2      OT      -0.834000       15.9994           0
      6803 W2       2268     TIP3     H1       HT       0.417000       1.00800           0
      6804 W2       2268     TIP3     H2       HT       0.417000       1.00800           0
      6805 W2       2269     TIP3     OH2      OT      -0.834000       15.9994           0
      6806 W2       2269     TIP3     H1       HT       0.417000       1.00800           0
      6807 W2       2269     TIP3     H2       HT       0.417000       1.00800           0
      6808 W2       2270     TIP3     OH2      OT      -0.834000       15.9994           0
      6809 W2       2270     TIP3     H1       HT       0.417000       1.00800           0
      6810 W2       2270     TIP3     H2       HT       0.417000       1.00800           0
      6811 W2       2271     TIP3     OH2      OT      -0.834000       15.9994           0
      6812 W2       2271     TIP3     H1       HT       0.417000       1.00800           0
      6813 W2       2271     TIP3     H2       HT       0.417000       1.00800           0
      6814 W2       2272     TIP3     OH2      OT      -0.834000       15.9994           0
      6815 W2       2272     TIP3     H1       HT       0.417000       1.00800           0
      6816 W2       2272     TIP3     H2       HT       0.417000       1.00800           0
      6817 W2       2273     TIP3     OH2      OT      -0.834000       15.9994           0
      6818 W2       2273     TIP3     H1       HT       0.417000       1.00800           0
      6819 W2       2273     TIP3     H2       HT       0.417000       1.00800           0
      6820 W2       2274     TIP3     OH2      OT      -0.834000       15.9994           0
      6821 W2       2274     TIP3     H1       HT       0.417000       1.00800           0
      6822 W2       2274     TIP3     H2       HT       0.417000       1.00800           0
      6823 W2       2275     TIP3     OH2      OT      -0.834000       15.9994           0
      6824 W2       2275     TIP3     H1       HT       0.417000       1.00800           0
      6825 W2       2275     TIP3     H2       HT       0.417000       1.00800           0
      6826 W2       2276     TIP3     OH2      OT      -0.834000       15.9994           0
      6827 W2       2276     TIP3     H1       HT       0.417000       1.00800           0
      6828 W2       2276     TIP3     H2       HT       0.417000       1.00800           0
      6829 W2       2277     TIP3     OH2      OT      -0.834000       15.9994           0
      6830 W2       2277     TIP3     H1       HT       0.417000       1.00800           0
      6831 W2       2277     TIP3     H2       HT       0.417000       1.00800           0
      6832 W2       2278     TIP3     OH2      OT      -0.834000       15.9994           0
      6833 W2       2278     TIP3     H1       HT       0.417000       1.00800           0
      6834 W2       2278     TIP3     H2       HT       0.417000       1.00800           0
      6835 W2       2279     TIP3     OH2      OT      -0.834000       15.9994           0
      6836 W2       2279     TIP3     H1       HT       0.417000       1.00800           0
      6837 W2       2279     TIP3     H2       HT       0.417000       1.00800           0
      6838 W2       2280     TIP3     OH2      OT      -0.834000       15.9994           0
      6839 W2       2280     TIP3     H1       HT       0.417000       1.00800           0
      6840 W2       2280     TIP3     H2       HT       0.417000       1.00800           0
      6841 W2       2281     TIP3     OH2      OT      -0.834000       15.9994           0
      6842 W2       2281     TIP3     H1       HT       0.417000       1.00800           0
      6843 W2       2281     TIP3     H2       HT       0.417000       1.00800           0
      6844 W2       2282     TIP3     OH2      OT      -0.834000       15.9994           0
      6845 W2       2282     TIP3     H1       HT       0.417000       1.00800           0
      6846 W2       2282     TIP3     H2       HT       0.417000       1.00800           0
      6847 W2       2283     TIP3     OH2      OT      -0.834000       15.9994           0
      6848 W2       2283     TIP3     H1       HT       0.417000       1.00800           0
      6849 W2       2283     TIP3     H2       HT       0.417000       1.00800           0
      6850 W2       2284     TIP3     OH2      OT      -0.834000       15.9994           0
      6851 W2       2284     TIP3     H1       HT       0.417000       1.00800           0
      6852 W2       2284     TIP3     H2       HT       0.417000       1.00800           0
      6853 W2       2285     TIP3     OH2      OT      -0.834000       15.9994           0
      6854 W2       2285     TIP3     H1       HT       0.417000       1.00800           0
      6855 W2       2285     TIP3     H2       HT       0.417000       1.00800           0
      6856 W2       2286     TIP3     OH2      OT      -0.834000       15.9994           0
      6857 W2       2286     TIP3     H1       HT       0.417000       1.00800           0
      6858 W2       2286     TIP3     H2       HT       0.417000       1.00800           0
      6859 W2       2287     TIP3     OH2      OT      -0.834000       15.9994           0
      6860 W2       2287     TIP3     H1       HT       0.417000       1.00800           0
      6861 W2       2287     TIP3     H2       HT       0.417000       1.00800           0
      6862 W2       2288     TIP3     OH2      OT      -0.834000       15.9994           0
      6863 W2       2288     TIP3     H1       HT       0.417000       1.00800           0
      6864 W2       2288     TIP3     H2       HT       0.417000       1.00800           0
      6865 W2       2289     TIP3     OH2      OT      -0.834000       15.9994           0
      6866 W2       2289     TIP3     H1       HT       0.417000       1.00800           0
      6867 W2       2289     TIP3     H2       HT       0.417000       1.00800           0
      6868 W2       2290     TIP3     OH2      OT      -0.834000       15.9994           0
      6869 W2       2290     TIP3     H1       HT       0.417000       1.00800           0
      6870 W2       2290     TIP3     H2       HT       0.417000       1.00800           0
      6871 W2       2291     TIP3     OH2      OT      -0.834000       15.9994           0
      6872 W2       2291     TIP3     H1       HT       0.417000       1.00800           0
      6873 W2       2291     TIP3     H2       HT       0.417000       1.00800           0
      6874 W2       2292     TIP3     OH2      OT      -0.834000       15.9994           0
      6875 W2       2292     TIP3     H1       HT       0.417000       1.00800           0
      6876 W2       2292     TIP3     H2       HT       0.417000       1.00800           0
      6877 W2       2293     TIP3     OH2      OT      -0.834000       15.9994           0
      6878 W2       2293     TIP3     H1       HT       0.417000       1.00800           0
      6879 W2       2293     TIP3     H2       HT       0.417000       1.00800           0
      6880 W2       2294     TIP3     OH2      OT      -0.834000       15.9994           0
      6881 W2       2294     TIP3     H1       HT       0.417000       1.00800           0
      6882 W2       2294     TIP3     H2       HT       0.417000       1.00800           0
      6883 W2       2295     TIP3     OH2      OT      -0.834000       15.9994           0
      6884 W2       2295     TIP3     H1       HT       0.417000       1.00800           0
      6885 W2       2295     TIP3     H2       HT       0.417000       1.00800           0
      6886 W2       2296     TIP3     OH2      OT      -0.834000       15.9994           0
      6887 W2       2296     TIP3     H1       HT       0.417000       1.00800           0
      6888 W2       2296     TIP3     H2       HT       0.417000       1.00800           0
      6889 W2       2297     TIP3     OH2      OT      -0.834000       15.9994           0
      6890 W2       2297     TIP3     H1       HT       0.417000       1.00800           0
      6891 W2       2297     TIP3     H2       HT       0.417000       1.00800           0
      6892 W2       2298     TIP3     OH2      OT      -0.834000       15.9994           0
      6893 W2       2298     TIP3     H1       HT       0.417000       1.00800           0
      6894 W2       2298     TIP3     H2       HT       0.417000       1.00800           0
      6895 W2       2299     TIP3     OH2      OT      -0.834000       15.9994           0
      6896 W2       2299     TIP3     H1       HT       0.417000       1.00800           0
      6897 W2       2299     TIP3     H2       HT       0.417000       1.00800           0
      6898 W2       2300     TIP3     OH2      OT      -0.834000       15.9994           0
      6899 W2       2300     TIP3     H1       HT       0.417000       1.00800           0
      6900 W2       2300     TIP3     H2       HT       0.417000       1.00800           0
      6901 W2       2301     TIP3     OH2      OT      -0.834000       15.9994           0
      6902 W2       2301     TIP3     H1       HT       0.417000       1.00800           0
      6903 W2       2301     TIP3     H2       HT       0.417000       1.00800           0
      6904 W2       2302     TIP3     OH2      OT      -0.834000       15.9994           0
      6905 W2       2302     TIP3     H1       HT       0.417000       1.00800           0
      6906 W2       2302     TIP3     H2       HT       0.417000       1.00800           0
      6907 W2       2303     TIP3     OH2      OT      -0.834000       15.9994           0
      6908 W2       2303     TIP3     H1       HT       0.417000       1.00800           0
      6909 W2       2303     TIP3     H2       HT       0.417000       1.00800           0
      6910 W2       2304     TIP3     OH2      OT      -0.834000       15.9994           0
      6911 W2       2304     TIP3     H1       HT       0.417000       1.00800           0
      6912 W2       2304     TIP3     H2       HT       0.417000       1.00800           0
      6913 W2       2305     TIP3     OH2      OT      -0.834000       15.9994           0
      6914 W2       2305     TIP3     H1       HT       0.417000       1.00800           0
      6915 W2       2305     TIP3     H2       HT       0.417000       1.00800           0
      6916 W2       2306     TIP3     OH2      OT      -0.834000       15.9994           0
      6917 W2       2306     TIP3     H1       HT       0.417000       1.00800           0
      6918 W2       2306     TIP3     H2       HT       0.417000       1.00800           0
      6919 W2       2307     TIP3     OH2      OT      -0.834000       15.9994           0
      6920 W2       2307     TIP3     H1       HT       0.417000       1.00800           0
      6921 W2       2307     TIP3     H2       HT       0.417000       1.00800           0
      6922 W2       2308     TIP3     OH2      OT      -0.834000       15.9994           0
      6923 W2       2308     TIP3     H1       HT       0.417000       1.00800           0
      6924 W2       2308     TIP3     H2       HT       0.417000       1.00800           0
      6925 W2       2309     TIP3     OH2      OT      -0.834000       15.9994           0
      6926 W2       2309     TIP3     H1       HT       0.417000       1.00800           0
      6927 W2       2309     TIP3     H2       HT       0.417000       1.00800           0
      6928 W2       2310     TIP3     OH2      OT      -0.834000       15.9994           0
      6929 W2       2310     TIP3     H1       HT       0.417000       1.00800           0
      6930 W2       2310     TIP3     H2       HT       0.417000       1.00800           0
      6931 W2       2311     TIP3     OH2      OT      -0.834000       15.9994           0
      6932 W2       2311     TIP3     H1       HT       0.417000       1.00800           0
      6933 W2       2311     TIP3     H2       HT       0.417000       1.00800           0
      6934 W2       2312     TIP3     OH2      OT      -0.834000       15.9994           0
      6935 W2       2312     TIP3     H1       HT       0.417000       1.00800           0
      6936 W2       2312     TIP3     H2       HT       0.417000       1.00800           0
      6937 W2       2313     TIP3     OH2      OT      -0.834000       15.9994           0
      6938 W2       2313     TIP3     H1       HT       0.417000       1.00800           0
      6939 W2       2313     TIP3     H2       HT       0.417000       1.00800           0
      6940 W2       2314     TIP3     OH2      OT      -0.834000       15.9994           0
      6941 W2       2314     TIP3     H1       HT       0.417000       1.00800           0
      6942 W2       2314     TIP3     H2       HT       0.417000       1.00800           0
      6943 W2       2315     TIP3     OH2      OT      -0.834000       15.9994           0
      6944 W2       2315     TIP3     H1       HT       0.417000       1.00800           0
      6945 W2       2315     TIP3     H2       HT       0.417000       1.00800           0
      6946 W2       2316     TIP3     OH2      OT      -0.834000       15.9994           0
      6947 W2       2316     TIP3     H1       HT       0.417000       1.00800           0
      6948 W2       2316     TIP3     H2       HT       0.417000       1.00800           0
      6949 W2       2317     TIP3     OH2      OT      -0.834000       15.9994           0
      6950 W2       2317     TIP3     H1       HT       0.417000       1.00800           0
      6951 W2       2317     TIP3     H2       HT       0.417000       1.00800           0
      6952 W2       2318     TIP3     OH2      OT      -0.834000       15.9994           0
      6953 W2       2318     TIP3     H1       HT       0.417000       1.00800           0
      6954 W2       2318     TIP3     H2       HT       0.417000       1.00800           0
      6955 W2       2319     TIP3     OH2      OT      -0.834000       15.9994           0
      6956 W2       2319     TIP3     H1       HT       0.417000       1.00800           0
      6957 W2       2319     TIP3     H2       HT       0.417000       1.00800           0
      6958 W2       2320     TIP3     OH2      OT      -0.834000       15.9994           0
      6959 W2       2320     TIP3     H1       HT       0.417000       1.00800           0
      6960 W2       2320     TIP3     H2       HT       0.417000       1.00800           0
      6961 W2       2321     TIP3     OH2      OT      -0.834000       15.9994           0
      6962 W2       2321     TIP3     H1       HT       0.417000       1.00800           0
      6963 W2       2321     TIP3     H2       HT       0.417000       1.00800           0
      6964 W2       2322     TIP3     OH2      OT      -0.834000       15.9994           0
      6965 W2       2322     TIP3     H1       HT       0.417000       1.00800           0
      6966 W2       2322     TIP3     H2       HT       0.417000       1.00800           0
      6967 W2       2323     TIP3     OH2      OT      -0.834000       15.9994           0
      6968 W2       2323     TIP3     H1       HT       0.417000       1.00800           0
      6969 W2       2323     TIP3     H2       HT       0.417000       1.00800           0
      6970 W2       2324     TIP3     OH2      OT      -0.834000       15.9994           0
      6971 W2       2324     TIP3     H1       HT       0.417000       1.00800           0
      6972 W2       2324     TIP3     H2       HT       0.417000       1.00800           0
      6973 W2       2325     TIP3     OH2      OT      -0.834000       15.9994           0
      6974 W2       2325     TIP3     H1       HT       0.417000       1.00800           0
      6975 W2       2325     TIP3     H2       HT       0.417000       1.00800           0
      6976 W2       2326     TIP3     OH2      OT      -0.834000       15.9994           0
      6977 W2       2326     TIP3     H1       HT       0.417000       1.00800           0
      6978 W2       2326     TIP3     H2       HT       0.417000       1.00800           0
      6979 W2       2327     TIP3     OH2      OT      -0.834000       15.9994           0
      6980 W2       2327     TIP3     H1       HT       0.417000       1.00800           0
      6981 W2       2327     TIP3     H2       HT       0.417000       1.00800           0
      6982 W2       2328     TIP3     OH2      OT      -0.834000       15.9994           0
      6983 W2       2328     TIP3     H1       HT       0.417000       1.00800           0
      6984 W2       2328     TIP3     H2       HT       0.417000       1.00800           0
      6985 W2       2329     TIP3     OH2      OT      -0.834000       15.9994           0
      6986 W2       2329     TIP3     H1       HT       0.417000       1.00800           0
      6987 W2       2329     TIP3     H2       HT       0.417000       1.00800           0
      6988 W2       2330     TIP3     OH2      OT      -0.834000       15.9994           0
      6989 W2       2330     TIP3     H1       HT       0.417000       1.00800           0
      6990 W2       2330     TIP3     H2       HT       0.417000       1.00800           0
      6991 W2       2331     TIP3     OH2      OT      -0.834000       15.9994           0
      6992 W2       2331     TIP3     H1       HT       0.417000       1.00800           0
      6993 W2       2331     TIP3     H2       HT       0.417000       1.00800           0
      6994 W2       2332     TIP3     OH2      OT      -0.834000       15.9994           0
      6995 W2       2332     TIP3     H1       HT       0.417000       1.00800           0
      6996 W2       2332     TIP3     H2       HT       0.417000       1.00800           0
      6997 W2       2333     TIP3     OH2      OT      -0.834000       15.9994           0
      6998 W2       2333     TIP3     H1       HT       0.417000       1.00800           0
      6999 W2       2333     TIP3     H2       HT       0.417000       1.00800           0
      7000 W2       2334     TIP3     OH2      OT      -0.834000       15.9994           0
      7001 W2       2334     TIP3     H1       HT       0.417000       1.00800           0
      7002 W2       2334     TIP3     H2       HT       0.417000       1.00800           0
      7003 W2       2335     TIP3     OH2      OT      -0.834000       15.9994           0
      7004 W2       2335     TIP3     H1       HT       0.417000       1.00800           0
      7005 W2       2335     TIP3     H2       HT       0.417000       1.00800           0
      7006 W2       2336     TIP3     OH2      OT      -0.834000       15.9994           0
      7007 W2       2336     TIP3     H1       HT       0.417000       1.00800           0
      7008 W2       2336     TIP3     H2       HT       0.417000       1.00800           0
      7009 W2       2337     TIP3     OH2      OT      -0.834000       15.9994           0
      7010 W2       2337     TIP3     H1       HT       0.417000       1.00800           0
      7011 W2       2337     TIP3     H2       HT       0.417000       1.00800           0
      7012 W2       2338     TIP3     OH2      OT      -0.834000       15.9994           0
      7013 W2       2338     TIP3     H1       HT       0.417000       1.00800           0
      7014 W2       2338     TIP3     H2       HT       0.417000       1.00800           0
      7015 W2       2339     TIP3     OH2      OT      -0.834000       15.9994           0
      7016 W2       2339     TIP3     H1       HT       0.417000       1.00800           0
      7017 W2       2339     TIP3     H2       HT       0.417000       1.00800           0
      7018 W2       2340     TIP3     OH2      OT      -0.834000       15.9994           0
      7019 W2       2340     TIP3     H1       HT       0.417000       1.00800           0
      7020 W2       2340     TIP3     H2       HT       0.417000       1.00800           0
      7021 W2       2341     TIP3     OH2      OT      -0.834000       15.9994           0
      7022 W2       2341     TIP3     H1       HT       0.417000       1.00800           0
      7023 W2       2341     TIP3     H2       HT       0.417000       1.00800           0
      7024 W2       2342     TIP3     OH2      OT      -0.834000       15.9994           0
      7025 W2       2342     TIP3     H1       HT       0.417000       1.00800           0
      7026 W2       2342     TIP3     H2       HT       0.417000       1.00800           0
      7027 W2       2343     TIP3     OH2      OT      -0.834000       15.9994           0
      7028 W2       2343     TIP3     H1       HT       0.417000       1.00800           0
      7029 W2       2343     TIP3     H2       HT       0.417000       1.00800           0
      7030 W2       2344     TIP3     OH2      OT      -0.834000       15.9994           0
      7031 W2       2344     TIP3     H1       HT       0.417000       1.00800           0
      7032 W2       2344     TIP3     H2       HT       0.417000       1.00800           0
      7033 W2       2345     TIP3     OH2      OT      -0.834000       15.9994           0
      7034 W2       2345     TIP3     H1       HT       0.417000       1.00800           0
      7035 W2       2345     TIP3     H2       HT       0.417000       1.00800           0
      7036 W2       2346     TIP3     OH2      OT      -0.834000       15.9994           0
      7037 W2       2346     TIP3     H1       HT       0.417000       1.00800           0
      7038 W2       2346     TIP3     H2       HT       0.417000       1.00800           0
      7039 W2       2347     TIP3     OH2      OT      -0.834000       15.9994           0
      7040 W2       2347     TIP3     H1       HT       0.417000       1.00800           0
      7041 W2       2347     TIP3     H2       HT       0.417000       1.00800           0
      7042 W2       2348     TIP3     OH2      OT      -0.834000       15.9994           0
      7043 W2       2348     TIP3     H1       HT       0.417000       1.00800           0
      7044 W2       2348     TIP3     H2       HT       0.417000       1.00800           0
      7045 W2       2349     TIP3     OH2      OT      -0.834000       15.9994           0
      7046 W2       2349     TIP3     H1       HT       0.417000       1.00800           0
      7047 W2       2349     TIP3     H2       HT       0.417000       1.00800           0
      7048 W2       2350     TIP3     OH2      OT      -0.834000       15.9994           0
      7049 W2       2350     TIP3     H1       HT       0.417000       1.00800           0
      7050 W2       2350     TIP3     H2       HT       0.417000       1.00800           0
      7051 W2       2351     TIP3     OH2      OT      -0.834000       15.9994           0
      7052 W2       2351     TIP3     H1       HT       0.417000       1.00800           0
      7053 W2       2351     TIP3     H2       HT       0.417000       1.00800           0
      7054 W2       2352     TIP3     OH2      OT      -0.834000       15.9994           0
      7055 W2       2352     TIP3     H1       HT       0.417000       1.00800           0
      7056 W2       2352     TIP3     H2       HT       0.417000       1.00800           0
      7057 W2       2353     TIP3     OH2      OT      -0.834000       15.9994           0
      7058 W2       2353     TIP3     H1       HT       0.417000       1.00800           0
      7059 W2       2353     TIP3     H2       HT       0.417000       1.00800           0
      7060 W2       2354     TIP3     OH2      OT      -0.834000       15.9994           0
      7061 W2       2354     TIP3     H1       HT       0.417000       1.00800           0
      7062 W2       2354     TIP3     H2       HT       0.417000       1.00800           0
      7063 W2       2355     TIP3     OH2      OT      -0.834000       15.9994           0
      7064 W2       2355     TIP3     H1       HT       0.417000       1.00800           0
      7065 W2       2355     TIP3     H2       HT       0.417000       1.00800           0
      7066 W2       2356     TIP3     OH2      OT      -0.834000       15.9994           0
      7067 W2       2356     TIP3     H1       HT       0.417000       1.00800           0
      7068 W2       2356     TIP3     H2       HT       0.417000       1.00800           0
      7069 W2       2357     TIP3     OH2      OT      -0.834000       15.9994           0
      7070 W2       2357     TIP3     H1       HT       0.417000       1.00800           0
      7071 W2       2357     TIP3     H2       HT       0.417000       1.00800           0
      7072 W2       2358     TIP3     OH2      OT      -0.834000       15.9994           0
      7073 W2       2358     TIP3     H1       HT       0.417000       1.00800           0
      7074 W2       2358     TIP3     H2       HT       0.417000       1.00800           0
      7075 W2       2359     TIP3     OH2      OT      -0.834000       15.9994           0
      7076 W2       2359     TIP3     H1       HT       0.417000       1.00800           0
      7077 W2       2359     TIP3     H2       HT       0.417000       1.00800           0
      7078 W2       2360     TIP3     OH2      OT      -0.834000       15.9994           0
      7079 W2       2360     TIP3     H1       HT       0.417000       1.00800           0
      7080 W2       2360     TIP3     H2       HT       0.417000       1.00800           0
      7081 W2       2361     TIP3     OH2      OT      -0.834000       15.9994           0
      7082 W2       2361     TIP3     H1       HT       0.417000       1.00800           0
      7083 W2       2361     TIP3     H2       HT       0.417000       1.00800           0
      7084 W2       2362     TIP3     OH2      OT      -0.834000       15.9994           0
      7085 W2       2362     TIP3     H1       HT       0.417000       1.00800           0
      7086 W2       2362     TIP3     H2       HT       0.417000       1.00800           0
      7087 W2       2363     TIP3     OH2      OT      -0.834000       15.9994           0
      7088 W2       2363     TIP3     H1       HT       0.417000       1.00800           0
      7089 W2       2363     TIP3     H2       HT       0.417000       1.00800           0
      7090 W2       2364     TIP3     OH2      OT      -0.834000       15.9994           0
      7091 W2       2364     TIP3     H1       HT       0.417000       1.00800           0
      7092 W2       2364     TIP3     H2       HT       0.417000       1.00800           0
      7093 W2       2365     TIP3     OH2      OT      -0.834000       15.9994           0
      7094 W2       2365     TIP3     H1       HT       0.417000       1.00800           0
      7095 W2       2365     TIP3     H2       HT       0.417000       1.00800           0
      7096 W2       2366     TIP3     OH2      OT      -0.834000       15.9994           0
      7097 W2       2366     TIP3     H1       HT       0.417000       1.00800           0
      7098 W2       2366     TIP3     H2       HT       0.417000       1.00800           0
      7099 W2       2367     TIP3     OH2      OT      -0.834000       15.9994           0
      7100 W2       2367     TIP3     H1       HT       0.417000       1.00800           0
      7101 W2       2367     TIP3     H2       HT       0.417000       1.00800           0
      7102 W2       2368     TIP3     OH2      OT      -0.834000       15.9994           0
      7103 W2       2368     TIP3     H1       HT       0.417000       1.00800           0
      7104 W2       2368     TIP3     H2       HT       0.417000       1.00800           0
      7105 W2       2369     TIP3     OH2      OT      -0.834000       15.9994           0
      7106 W2       2369     TIP3     H1       HT       0.417000       1.00800           0
      7107 W2       2369     TIP3     H2       HT       0.417000       1.00800           0
      7108 W2       2370     TIP3     OH2      OT      -0.834000       15.9994           0
      7109 W2       2370     TIP3     H1       HT       0.417000       1.00800           0
      7110 W2       2370     TIP3     H2       HT       0.417000       1.00800           0
      7111 W2       2371     TIP3     OH2      OT      -0.834000       15.9994           0
      7112 W2       2371     TIP3     H1       HT       0.417000       1.00800           0
      7113 W2       2371     TIP3     H2       HT       0.417000       1.00800           0
      7114 W2       2372     TIP3     OH2      OT      -0.834000       15.9994           0
      7115 W2       2372     TIP3     H1       HT       0.417000       1.00800           0
      7116 W2       2372     TIP3     H2       HT       0.417000       1.00800           0
      7117 W2       2373     TIP3     OH2      OT      -0.834000       15.9994           0
      7118 W2       2373     TIP3     H1       HT       0.417000       1.00800           0
      7119 W2       2373     TIP3     H2       HT       0.417000       1.00800           0
      7120 W2       2374     TIP3     OH2      OT      -0.834000       15.9994           0
      7121 W2       2374     TIP3     H1       HT       0.417000       1.00800           0
      7122 W2       2374     TIP3     H2       HT       0.417000       1.00800           0
      7123 W2       2375     TIP3     OH2      OT      -0.834000       15.9994           0
      7124 W2       2375     TIP3     H1       HT       0.417000       1.00800           0
      7125 W2       2375     TIP3     H2       HT       0.417000       1.00800           0
      7126 W2       2376     TIP3     OH2      OT      -0.834000       15.9994           0
      7127 W2       2376     TIP3     H1       HT       0.417000       1.00800           0
      7128 W2       2376     TIP3     H2       HT       0.417000       1.00800           0
      7129 W2       2377     TIP3     OH2      OT      -0.834000       15.9994           0
      7130 W2       2377     TIP3     H1       HT       0.417000       1.00800           0
      7131 W2       2377     TIP3     H2       HT       0.417000       1.00800           0
      7132 W2       2378     TIP3     OH2      OT      -0.834000       15.9994           0
      7133 W2       2378     TIP3     H1       HT       0.417000       1.00800           0
      7134 W2       2378     TIP3     H2       HT       0.417000       1.00800           0
      7135 W2       2379     TIP3     OH2      OT      -0.834000       15.9994           0
      7136 W2       2379     TIP3     H1       HT       0.417000       1.00800           0
      7137 W2       2379     TIP3     H2       HT       0.417000       1.00800           0
      7138 W2       2380     TIP3     OH2      OT      -0.834000       15.9994           0
      7139 W2       2380     TIP3     H1       HT       0.417000       1.00800           0
      7140 W2       2380     TIP3     H2       HT       0.417000       1.00800           0
      7141 W2       2381     TIP3     OH2      OT      -0.834000       15.9994           0
      7142 W2       2381     TIP3     H1       HT       0.417000       1.00800           0
      7143 W2       2381     TIP3     H2       HT       0.417000       1.00800           0
      7144 W2       2382     TIP3     OH2      OT      -0.834000       15.9994           0
      7145 W2       2382     TIP3     H1       HT       0.417000       1.00800           0
      7146 W2       2382     TIP3     H2       HT       0.417000       1.00800           0
      7147 W2       2383     TIP3     OH2      OT      -0.834000       15.9994           0
      7148 W2       2383     TIP3     H1       HT       0.417000       1.00800           0
      7149 W2       2383     TIP3     H2       HT       0.417000       1.00800           0
      7150 W2       2384     TIP3     OH2      OT      -0.834000       15.9994           0
      7151 W2       2384     TIP3     H1       HT       0.417000       1.00800           0
      7152 W2       2384     TIP3     H2       HT       0.417000       1.00800           0
      7153 W2       2385     TIP3     OH2      OT      -0.834000       15.9994           0
      7154 W2       2385     TIP3     H1       HT       0.417000       1.00800           0
      7155 W2       2385     TIP3     H2       HT       0.417000       1.00800           0
      7156 W2       2386     TIP3     OH2      OT      -0.834000       15.9994           0
      7157 W2       2386     TIP3     H1       HT       0.417000       1.00800           0
      7158 W2       2386     TIP3     H2       HT       0.417000       1.00800           0
      7159 W2       2387     TIP3     OH2      OT      -0.834000       15.9994           0
      7160 W2       2387     TIP3     H1       HT       0.417000       1.00800           0
      7161 W2       2387     TIP3     H2       HT       0.417000       1.00800           0
      7162 W2       2388     TIP3     OH2      OT      -0.834000       15.9994           0
      7163 W2       2388     TIP3     H1       HT       0.417000       1.00800           0
      7164 W2       2388     TIP3     H2       HT       0.417000       1.00800           0
      7165 W2       2389     TIP3     OH2      OT      -0.834000       15.9994           0
      7166 W2       2389     TIP3     H1       HT       0.417000       1.00800           0
      7167 W2       2389     TIP3     H2       HT       0.417000       1.00800           0
      7168 W2       2390     TIP3     OH2      OT      -0.834000       15.9994           0
      7169 W2       2390     TIP3     H1       HT       0.417000       1.00800           0
      7170 W2       2390     TIP3     H2       HT       0.417000       1.00800           0
      7171 W2       2391     TIP3     OH2      OT      -0.834000       15.9994           0
      7172 W2       2391     TIP3     H1       HT       0.417000       1.00800           0
      7173 W2       2391     TIP3     H2       HT       0.417000       1.00800           0
      7174 W2       2392     TIP3     OH2      OT      -0.834000       15.9994           0
      7175 W2       2392     TIP3     H1       HT       0.417000       1.00800           0
      7176 W2       2392     TIP3     H2       HT       0.417000       1.00800           0
      7177 W2       2393     TIP3     OH2      OT      -0.834000       15.9994           0
      7178 W2       2393     TIP3     H1       HT       0.417000       1.00800           0
      7179 W2       2393     TIP3     H2       HT       0.417000       1.00800           0
      7180 W2       2394     TIP3     OH2      OT      -0.834000       15.9994           0
      7181 W2       2394     TIP3     H1       HT       0.417000       1.00800           0
      7182 W2       2394     TIP3     H2       HT       0.417000       1.00800           0
      7183 W2       2395     TIP3     OH2      OT      -0.834000       15.9994           0
      7184 W2       2395     TIP3     H1       HT       0.417000       1.00800           0
      7185 W2       2395     TIP3     H2       HT       0.417000       1.00800           0
      7186 W2       2396     TIP3     OH2      OT      -0.834000       15.9994           0
      7187 W2       2396     TIP3     H1       HT       0.417000       1.00800           0
      7188 W2       2396     TIP3     H2       HT       0.417000       1.00800           0
      7189 W2       2397     TIP3     OH2      OT      -0.834000       15.9994           0
      7190 W2       2397     TIP3     H1       HT       0.417000       1.00800           0
      7191 W2       2397     TIP3     H2       HT       0.417000       1.00800           0
      7192 W2       2398     TIP3     OH2      OT      -0.834000       15.9994           0
      7193 W2       2398     TIP3     H1       HT       0.417000       1.00800           0
      7194 W2       2398     TIP3     H2       HT       0.417000       1.00800           0
      7195 W2       2399     TIP3     OH2      OT      -0.834000       15.9994           0
      7196 W2       2399     TIP3     H1       HT       0.417000       1.00800           0
      7197 W2       2399     TIP3     H2       HT       0.417000       1.00800           0
      7198 W2       2400     TIP3     OH2      OT      -0.834000       15.9994           0
      7199 W2       2400     TIP3     H1       HT       0.417000       1.00800           0
      7200 W2       2400     TIP3     H2       HT       0.417000       1.00800           0
      7201 W2       2401     TIP3     OH2      OT      -0.834000       15.9994           0
      7202 W2       2401     TIP3     H1       HT       0.417000       1.00800           0
      7203 W2       2401     TIP3     H2       HT       0.417000       1.00800           0
      7204 W2       2402     TIP3     OH2      OT      -0.834000       15.9994           0
      7205 W2       2402     TIP3     H1       HT       0.417000       1.00800           0
      7206 W2       2402     TIP3     H2       HT       0.417000       1.00800           0
      7207 W2       2403     TIP3     OH2      OT      -0.834000       15.9994           0
      7208 W2       2403     TIP3     H1       HT       0.417000       1.00800           0
      7209 W2       2403     TIP3     H2       HT       0.417000       1.00800           0
      7210 W2       2404     TIP3     OH2      OT      -0.834000       15.9994           0
      7211 W2       2404     TIP3     H1       HT       0.417000       1.00800           0
      7212 W2       2404     TIP3     H2       HT       0.417000       1.00800           0
      7213 W2       2405     TIP3     OH2      OT      -0.834000       15.9994           0
      7214 W2       2405     TIP3     H1       HT       0.417000       1.00800           0
      7215 W2       2405     TIP3     H2       HT       0.417000       1.00800           0
      7216 W2       2406     TIP3     OH2      OT      -0.834000       15.9994           0
      7217 W2       2406     TIP3     H1       HT       0.417000       1.00800           0
      7218 W2       2406     TIP3     H2       HT       0.417000       1.00800           0
      7219 W2       2407     TIP3     OH2      OT      -0.834000       15.9994           0
      7220 W2       2407     TIP3     H1       HT       0.417000       1.00800           0
      7221 W2       2407     TIP3     H2       HT       0.417000       1.00800           0
      7222 W2       2408     TIP3     OH2      OT      -0.834000       15.9994           0
      7223 W2       2408     TIP3     H1       HT       0.417000       1.00800           0
      7224 W2       2408     TIP3     H2       HT       0.417000       1.00800           0
      7225 W2       2409     TIP3     OH2      OT      -0.834000       15.9994           0
      7226 W2       2409     TIP3     H1       HT       0.417000       1.00800           0
      7227 W2       2409     TIP3     H2       HT       0.417000       1.00800           0
      7228 W2       2410     TIP3     OH2      OT      -0.834000       15.9994           0
      7229 W2       2410     TIP3     H1       HT       0.417000       1.00800           0
      7230 W2       2410     TIP3     H2       HT       0.417000       1.00800           0
      7231 W2       2411     TIP3     OH2      OT      -0.834000       15.9994           0
      7232 W2       2411     TIP3     H1       HT       0.417000       1.00800           0
      7233 W2       2411     TIP3     H2       HT       0.417000       1.00800           0
      7234 W2       2412     TIP3     OH2      OT      -0.834000       15.9994           0
      7235 W2       2412     TIP3     H1       HT       0.417000       1.00800           0
      7236 W2       2412     TIP3     H2       HT       0.417000       1.00800           0
      7237 W2       2413     TIP3     OH2      OT      -0.834000       15.9994           0
      7238 W2       2413     TIP3     H1       HT       0.417000       1.00800           0
      7239 W2       2413     TIP3     H2       HT       0.417000       1.00800           0
      7240 W2       2414     TIP3     OH2      OT      -0.834000       15.9994           0
      7241 W2       2414     TIP3     H1       HT       0.417000       1.00800           0
      7242 W2       2414     TIP3     H2       HT       0.417000       1.00800           0
      7243 W2       2415     TIP3     OH2      OT      -0.834000       15.9994           0
      7244 W2       2415     TIP3     H1       HT       0.417000       1.00800           0
      7245 W2       2415     TIP3     H2       HT       0.417000       1.00800           0
      7246 W2       2416     TIP3     OH2      OT      -0.834000       15.9994           0
      7247 W2       2416     TIP3     H1       HT       0.417000       1.00800           0
      7248 W2       2416     TIP3     H2       HT       0.417000       1.00800           0
      7249 W2       2417     TIP3     OH2      OT      -0.834000       15.9994           0
      7250 W2       2417     TIP3     H1       HT       0.417000       1.00800           0
      7251 W2       2417     TIP3     H2       HT       0.417000       1.00800           0
      7252 W2       2418     TIP3     OH2      OT      -0.834000       15.9994           0
      7253 W2       2418     TIP3     H1       HT       0.417000       1.00800           0
      7254 W2       2418     TIP3     H2       HT       0.417000       1.00800           0
      7255 W2       2419     TIP3     OH2      OT      -0.834000       15.9994           0
      7256 W2       2419     TIP3     H1       HT       0.417000       1.00800           0
      7257 W2       2419     TIP3     H2       HT       0.417000       1.00800           0
      7258 W2       2420     TIP3     OH2      OT      -0.834000       15.9994           0
      7259 W2       2420     TIP3     H1       HT       0.417000       1.00800           0
      7260 W2       2420     TIP3     H2       HT       0.417000       1.00800           0
      7261 W2       2421     TIP3     OH2      OT      -0.834000       15.9994           0
      7262 W2       2421     TIP3     H1       HT       0.417000       1.00800           0
      7263 W2       2421     TIP3     H2       HT       0.417000       1.00800           0
      7264 W2       2422     TIP3     OH2      OT      -0.834000       15.9994           0
      7265 W2       2422     TIP3     H1       HT       0.417000       1.00800           0
      7266 W2       2422     TIP3     H2       HT       0.417000       1.00800           0
      7267 W2       2423     TIP3     OH2      OT      -0.834000       15.9994           0
      7268 W2       2423     TIP3     H1       HT       0.417000       1.00800           0
      7269 W2       2423     TIP3     H2       HT       0.417000       1.00800           0
      7270 W2       2424     TIP3     OH2      OT      -0.834000       15.9994           0
      7271 W2       2424     TIP3     H1       HT       0.417000       1.00800           0
      7272 W2       2424     TIP3     H2       HT       0.417000       1.00800           0
      7273 W2       2425     TIP3     OH2      OT      -0.834000       15.9994           0
      7274 W2       2425     TIP3     H1       HT       0.417000       1.00800           0
      7275 W2       2425     TIP3     H2       HT       0.417000       1.00800           0
      7276 W2       2426     TIP3     OH2      OT      -0.834000       15.9994           0
      7277 W2       2426     TIP3     H1       HT       0.417000       1.00800           0
      7278 W2       2426     TIP3     H2       HT       0.417000       1.00800           0
      7279 W2       2427     TIP3     OH2      OT      -0.834000       15.9994           0
      7280 W2       2427     TIP3     H1       HT       0.417000       1.00800           0
      7281 W2       2427     TIP3     H2       HT       0.417000       1.00800           0
      7282 W2       2428     TIP3     OH2      OT      -0.834000       15.9994           0
      7283 W2       2428     TIP3     H1       HT       0.417000       1.00800           0
      7284 W2       2428     TIP3     H2       HT       0.417000       1.00800           0
      7285 W2       2429     TIP3     OH2      OT      -0.834000       15.9994           0
      7286 W2       2429     TIP3     H1       HT       0.417000       1.00800           0
      7287 W2       2429     TIP3     H2       HT       0.417000       1.00800           0
      7288 W2       2430     TIP3     OH2      OT      -0.834000       15.9994           0
      7289 W2       2430     TIP3     H1       HT       0.417000       1.00800           0
      7290 W2       2430     TIP3     H2       HT       0.417000       1.00800           0
      7291 W2       2431     TIP3     OH2      OT      -0.834000       15.9994           0
      7292 W2       2431     TIP3     H1       HT       0.417000       1.00800           0
      7293 W2       2431     TIP3     H2       HT       0.417000       1.00800           0
      7294 W2       2432     TIP3     OH2      OT      -0.834000       15.9994           0
      7295 W2       2432     TIP3     H1       HT       0.417000       1.00800           0
      7296 W2       2432     TIP3     H2       HT       0.417000       1.00800           0
      7297 W2       2433     TIP3     OH2      OT      -0.834000       15.9994           0
      7298 W2       2433     TIP3     H1       HT       0.417000       1.00800           0
      7299 W2       2433     TIP3     H2       HT       0.417000       1.00800           0
      7300 W2       2434     TIP3     OH2      OT      -0.834000       15.9994           0
      7301 W2       2434     TIP3     H1       HT       0.417000       1.00800           0
      7302 W2       2434     TIP3     H2       HT       0.417000       1.00800           0
      7303 W2       2435     TIP3     OH2      OT      -0.834000       15.9994           0
      7304 W2       2435     TIP3     H1       HT       0.417000       1.00800           0
      7305 W2       2435     TIP3     H2       HT       0.417000       1.00800           0
      7306 W2       2436     TIP3     OH2      OT      -0.834000       15.9994           0
      7307 W2       2436     TIP3     H1       HT       0.417000       1.00800           0
      7308 W2       2436     TIP3     H2       HT       0.417000       1.00800           0
      7309 W2       2437     TIP3     OH2      OT      -0.834000       15.9994           0
      7310 W2       2437     TIP3     H1       HT       0.417000       1.00800           0
      7311 W2       2437     TIP3     H2       HT       0.417000       1.00800           0
      7312 W2       2438     TIP3     OH2      OT      -0.834000       15.9994           0
      7313 W2       2438     TIP3     H1       HT       0.417000       1.00800           0
      7314 W2       2438     TIP3     H2       HT       0.417000       1.00800           0
      7315 W2       2439     TIP3     OH2      OT      -0.834000       15.9994           0
      7316 W2       2439     TIP3     H1       HT       0.417000       1.00800           0
      7317 W2       2439     TIP3     H2       HT       0.417000       1.00800           0
      7318 W2       2440     TIP3     OH2      OT      -0.834000       15.9994           0
      7319 W2       2440     TIP3     H1       HT       0.417000       1.00800           0
      7320 W2       2440     TIP3     H2       HT       0.417000       1.00800           0
      7321 W2       2441     TIP3     OH2      OT      -0.834000       15.9994           0
      7322 W2       2441     TIP3     H1       HT       0.417000       1.00800           0
      7323 W2       2441     TIP3     H2       HT       0.417000       1.00800           0
      7324 W2       2442     TIP3     OH2      OT      -0.834000       15.9994           0
      7325 W2       2442     TIP3     H1       HT       0.417000       1.00800           0
      7326 W2       2442     TIP3     H2       HT       0.417000       1.00800           0
      7327 W2       2443     TIP3     OH2      OT      -0.834000       15.9994           0
      7328 W2       2443     TIP3     H1       HT       0.417000       1.00800           0
      7329 W2       2443     TIP3     H2       HT       0.417000       1.00800           0
      7330 W2       2444     TIP3     OH2      OT      -0.834000       15.9994           0
      7331 W2       2444     TIP3     H1       HT       0.417000       1.00800           0
      7332 W2       2444     TIP3     H2       HT       0.417000       1.00800           0
      7333 W2       2445     TIP3     OH2      OT      -0.834000       15.9994           0
      7334 W2       2445     TIP3     H1       HT       0.417000       1.00800           0
      7335 W2       2445     TIP3     H2       HT       0.417000       1.00800           0
      7336 W2       2446     TIP3     OH2      OT      -0.834000       15.9994           0
      7337 W2       2446     TIP3     H1       HT       0.417000       1.00800           0
      7338 W2       2446     TIP3     H2       HT       0.417000       1.00800           0
      7339 W2       2447     TIP3     OH2      OT      -0.834000       15.9994           0
      7340 W2       2447     TIP3     H1       HT       0.417000       1.00800           0
      7341 W2       2447     TIP3     H2       HT       0.417000       1.00800           0
      7342 W2       2448     TIP3     OH2      OT      -0.834000       15.9994           0
      7343 W2       2448     TIP3     H1       HT       0.417000       1.00800           0
      7344 W2       2448     TIP3     H2       HT       0.417000       1.00800           0
      7345 W2       2449     TIP3     OH2      OT      -0.834000       15.9994           0
      7346 W2       2449     TIP3     H1       HT       0.417000       1.00800           0
      7347 W2       2449     TIP3     H2       HT       0.417000       1.00800           0
      7348 W2       2450     TIP3     OH2      OT      -0.834000       15.9994           0
      7349 W2       2450     TIP3     H1       HT       0.417000       1.00800           0
      7350 W2       2450     TIP3     H2       HT       0.417000       1.00800           0
      7351 W2       2451     TIP3     OH2      OT      -0.834000       15.9994           0
      7352 W2       2451     TIP3     H1       HT       0.417000       1.00800           0
      7353 W2       2451     TIP3     H2       HT       0.417000       1.00800           0
      7354 W2       2452     TIP3     OH2      OT      -0.834000       15.9994           0
      7355 W2       2452     TIP3     H1       HT       0.417000       1.00800           0
      7356 W2       2452     TIP3     H2       HT       0.417000       1.00800           0
      7357 W2       2453     TIP3     OH2      OT      -0.834000       15.9994           0
      7358 W2       2453     TIP3     H1       HT       0.417000       1.00800           0
      7359 W2       2453     TIP3     H2       HT       0.417000       1.00800           0
      7360 W2       2454     TIP3     OH2      OT      -0.834000       15.9994           0
      7361 W2       2454     TIP3     H1       HT       0.417000       1.00800           0
      7362 W2       2454     TIP3     H2       HT       0.417000       1.00800           0
      7363 W2       2455     TIP3     OH2      OT      -0.834000       15.9994           0
      7364 W2       2455     TIP3     H1       HT       0.417000       1.00800           0
      7365 W2       2455     TIP3     H2       HT       0.417000       1.00800           0
      7366 W2       2456     TIP3     OH2      OT      -0.834000       15.9994           0
      7367 W2       2456     TIP3     H1       HT       0.417000       1.00800           0
      7368 W2       2456     TIP3     H2       HT       0.417000       1.00800           0
      7369 W2       2457     TIP3     OH2      OT      -0.834000       15.9994           0
      7370 W2       2457     TIP3     H1       HT       0.417000       1.00800           0
      7371 W2       2457     TIP3     H2       HT       0.417000       1.00800           0
      7372 W2       2458     TIP3     OH2      OT      -0.834000       15.9994           0
      7373 W2       2458     TIP3     H1       HT       0.417000       1.00800           0
      7374 W2       2458     TIP3     H2       HT       0.417000       1.00800           0
      7375 W2       2459     TIP3     OH2      OT      -0.834000       15.9994           0
      7376 W2       2459     TIP3     H1       HT       0.417000       1.00800           0
      7377 W2       2459     TIP3     H2       HT       0.417000       1.00800           0
      7378 W2       2460     TIP3     OH2      OT      -0.834000       15.9994           0
      7379 W2       2460     TIP3     H1       HT       0.417000       1.00800           0
      7380 W2       2460     TIP3     H2       HT       0.417000       1.00800           0
      7381 W2       2461     TIP3     OH2      OT      -0.834000       15.9994           0
      7382 W2       2461     TIP3     H1       HT       0.417000       1.00800           0
      7383 W2       2461     TIP3     H2       HT       0.417000       1.00800           0
      7384 W2       2462     TIP3     OH2      OT      -0.834000       15.9994           0
      7385 W2       2462     TIP3     H1       HT       0.417000       1.00800           0
      7386 W2       2462     TIP3     H2       HT       0.417000       1.00800           0
      7387 W2       2463     TIP3     OH2      OT      -0.834000       15.9994           0
      7388 W2       2463     TIP3     H1       HT       0.417000       1.00800           0
      7389 W2       2463     TIP3     H2       HT       0.417000       1.00800           0
      7390 W2       2464     TIP3     OH2      OT      -0.834000       15.9994           0
      7391 W2       2464     TIP3     H1       HT       0.417000       1.00800           0
      7392 W2       2464     TIP3     H2       HT       0.417000       1.00800           0
      7393 W2       2465     TIP3     OH2      OT      -0.834000       15.9994           0
      7394 W2       2465     TIP3     H1       HT       0.417000       1.00800           0
      7395 W2       2465     TIP3     H2       HT       0.417000       1.00800           0
      7396 W2       2466     TIP3     OH2      OT      -0.834000       15.9994           0
      7397 W2       2466     TIP3     H1       HT       0.417000       1.00800           0
      7398 W2       2466     TIP3     H2       HT       0.417000       1.00800           0
      7399 W2       2467     TIP3     OH2      OT      -0.834000       15.9994           0
      7400 W2       2467     TIP3     H1       HT       0.417000       1.00800           0
      7401 W2       2467     TIP3     H2       HT       0.417000       1.00800           0
      7402 W2       2468     TIP3     OH2      OT      -0.834000       15.9994           0
      7403 W2       2468     TIP3     H1       HT       0.417000       1.00800           0
      7404 W2       2468     TIP3     H2       HT       0.417000       1.00800           0
      7405 W2       2469     TIP3     OH2      OT      -0.834000       15.9994           0
      7406 W2       2469     TIP3     H1       HT       0.417000       1.00800           0
      7407 W2       2469     TIP3     H2       HT       0.417000       1.00800           0
      7408 W2       2470     TIP3     OH2      OT      -0.834000       15.9994           0
      7409 W2       2470     TIP3     H1       HT       0.417000       1.00800           0
      7410 W2       2470     TIP3     H2       HT       0.417000       1.00800           0
      7411 W2       2471     TIP3     OH2      OT      -0.834000       15.9994           0
      7412 W2       2471     TIP3     H1       HT       0.417000       1.00800           0
      7413 W2       2471     TIP3     H2       HT       0.417000       1.00800           0
      7414 W2       2472     TIP3     OH2      OT      -0.834000       15.9994           0
      7415 W2       2472     TIP3     H1       HT       0.417000       1.00800           0
      7416 W2       2472     TIP3     H2       HT       0.417000       1.00800           0
      7417 W2       2473     TIP3     OH2      OT      -0.834000       15.9994           0
      7418 W2       2473     TIP3     H1       HT       0.417000       1.00800           0
      7419 W2       2473     TIP3     H2       HT       0.417000       1.00800           0
      7420 W2       2474     TIP3     OH2      OT      -0.834000       15.9994           0
      7421 W2       2474     TIP3     H1       HT       0.417000       1.00800           0
      7422 W2       2474     TIP3     H2       HT       0.417000       1.00800           0
      7423 W2       2475     TIP3     OH2      OT      -0.834000       15.9994           0
      7424 W2       2475     TIP3     H1       HT       0.417000       1.00800           0
      7425 W2       2475     TIP3     H2       HT       0.417000       1.00800           0
      7426 W2       2476     TIP3     OH2      OT      -0.834000       15.9994           0
      7427 W2       2476     TIP3     H1       HT       0.417000       1.00800           0
      7428 W2       2476     TIP3     H2       HT       0.417000       1.00800           0
      7429 W2       2477     TIP3     OH2      OT      -0.834000       15.9994           0
      7430 W2       2477     TIP3     H1       HT       0.417000       1.00800           0
      7431 W2       2477     TIP3     H2       HT       0.417000       1.00800           0
      7432 W2       2478     TIP3     OH2      OT      -0.834000       15.9994           0
      7433 W2       2478     TIP3     H1       HT       0.417000       1.00800           0
      7434 W2       2478     TIP3     H2       HT       0.417000       1.00800           0
      7435 W2       2479     TIP3     OH2      OT      -0.834000       15.9994           0
      7436 W2       2479     TIP3     H1       HT       0.417000       1.00800           0
      7437 W2       2479     TIP3     H2       HT       0.417000       1.00800           0
      7438 W2       2480     TIP3     OH2      OT      -0.834000       15.9994           0
      7439 W2       2480     TIP3     H1       HT       0.417000       1.00800           0
      7440 W2       2480     TIP3     H2       HT       0.417000       1.00800           0
      7441 W2       2481     TIP3     OH2      OT      -0.834000       15.9994           0
      7442 W2       2481     TIP3     H1       HT       0.417000       1.00800           0
      7443 W2       2481     TIP3     H2       HT       0.417000       1.00800           0
      7444 W2       2482     TIP3     OH2      OT      -0.834000       15.9994           0
      7445 W2       2482     TIP3     H1       HT       0.417000       1.00800           0
      7446 W2       2482     TIP3     H2       HT       0.417000       1.00800           0
      7447 W2       2483     TIP3     OH2      OT      -0.834000       15.9994           0
      7448 W2       2483     TIP3     H1       HT       0.417000       1.00800           0
      7449 W2       2483     TIP3     H2       HT       0.417000       1.00800           0
      7450 W2       2484     TIP3     OH2      OT      -0.834000       15.9994           0
      7451 W2       2484     TIP3     H1       HT       0.417000       1.00800           0
      7452 W2       2484     TIP3     H2       HT       0.417000       1.00800           0
      7453 W2       2485     TIP3     OH2      OT      -0.834000       15.9994           0
      7454 W2       2485     TIP3     H1       HT       0.417000       1.00800           0
      7455 W2       2485     TIP3     H2       HT       0.417000       1.00800           0
      7456 W2       2486     TIP3     OH2      OT      -0.834000       15.9994           0
      7457 W2       2486     TIP3     H1       HT       0.417000       1.00800           0
      7458 W2       2486     TIP3     H2       HT       0.417000       1.00800           0
      7459 W2       2487     TIP3     OH2      OT      -0.834000       15.9994           0
      7460 W2       2487     TIP3     H1       HT       0.417000       1.00800           0
      7461 W2       2487     TIP3     H2       HT       0.417000       1.00800           0
      7462 W2       2488     TIP3     OH2      OT      -0.834000       15.9994           0
      7463 W2       2488     TIP3     H1       HT       0.417000       1.00800           0
      7464 W2       2488     TIP3     H2       HT       0.417000       1.00800           0
      7465 W2       2489     TIP3     OH2      OT      -0.834000       15.9994           0
      7466 W2       2489     TIP3     H1       HT       0.417000       1.00800           0
      7467 W2       2489     TIP3     H2       HT       0.417000       1.00800           0
      7468 W2       2490     TIP3     OH2      OT      -0.834000       15.9994           0
      7469 W2       2490     TIP3     H1       HT       0.417000       1.00800           0
      7470 W2       2490     TIP3     H2       HT       0.417000       1.00800           0
      7471 W2       2491     TIP3     OH2      OT      -0.834000       15.9994           0
      7472 W2       2491     TIP3     H1       HT       0.417000       1.00800           0
      7473 W2       2491     TIP3     H2       HT       0.417000       1.00800           0
      7474 W2       2492     TIP3     OH2      OT      -0.834000       15.9994           0
      7475 W2       2492     TIP3     H1       HT       0.417000       1.00800           0
      7476 W2       2492     TIP3     H2       HT       0.417000       1.00800           0
      7477 W2       2493     TIP3     OH2      OT      -0.834000       15.9994           0
      7478 W2       2493     TIP3     H1       HT       0.417000       1.00800           0
      7479 W2       2493     TIP3     H2       HT       0.417000       1.00800           0
      7480 W2       2494     TIP3     OH2      OT      -0.834000       15.9994           0
      7481 W2       2494     TIP3     H1       HT       0.417000       1.00800           0
      7482 W2       2494     TIP3     H2       HT       0.417000       1.00800           0
      7483 W2       2495     TIP3     OH2      OT      -0.834000       15.9994           0
      7484 W2       2495     TIP3     H1       HT       0.417000       1.00800           0
      7485 W2       2495     TIP3     H2       HT       0.417000       1.00800           0
      7486 W2       2496     TIP3     OH2      OT      -0.834000       15.9994           0
      7487 W2       2496     TIP3     H1       HT       0.417000       1.00800           0
      7488 W2       2496     TIP3     H2       HT       0.417000       1.00800           0
      7489 W2       2497     TIP3     OH2      OT      -0.834000       15.9994           0
      7490 W2       2497     TIP3     H1       HT       0.417000       1.00800           0
      7491 W2       2497     TIP3     H2       HT       0.417000       1.00800           0
      7492 W2       2498     TIP3     OH2      OT      -0.834000       15.9994           0
      7493 W2       2498     TIP3     H1       HT       0.417000       1.00800           0
      7494 W2       2498     TIP3     H2       HT       0.417000       1.00800           0
      7495 W2       2499     TIP3     OH2      OT      -0.834000       15.9994           0
      7496 W2       2499     TIP3     H1       HT       0.417000       1.00800           0
      7497 W2       2499     TIP3     H2       HT       0.417000       1.00800           0
      7498 W2       2500     TIP3     OH2      OT      -0.834000       15.9994           0
      7499 W2       2500     TIP3     H1       HT       0.417000       1.00800           0
      7500 W2       2500     TIP3     H2       HT       0.417000       1.00800           0
      7501 W2       2501     TIP3     OH2      OT      -0.834000       15.9994           0
      7502 W2       2501     TIP3     H1       HT       0.417000       1.00800           0
      7503 W2       2501     TIP3     H2       HT       0.417000       1.00800           0
      7504 W2       2502     TIP3     OH2      OT      -0.834000       15.9994           0
      7505 W2       2502     TIP3     H1       HT       0.417000       1.00800           0
      7506 W2       2502     TIP3     H2       HT       0.417000       1.00800           0
      7507 W2       2503     TIP3     OH2      OT      -0.834000       15.9994           0
      7508 W2       2503     TIP3     H1       HT       0.417000       1.00800           0
      7509 W2       2503     TIP3     H2       HT       0.417000       1.00800           0
      7510 W2       2504     TIP3     OH2      OT      -0.834000       15.9994           0
      7511 W2       2504     TIP3     H1       HT       0.417000       1.00800           0
      7512 W2       2504     TIP3     H2       HT       0.417000       1.00800           0
      7513 W2       2505     TIP3     OH2      OT      -0.834000       15.9994           0
      7514 W2       2505     TIP3     H1       HT       0.417000       1.00800           0
      7515 W2       2505     TIP3     H2       HT       0.417000       1.00800           0
      7516 W2       2506     TIP3     OH2      OT      -0.834000       15.9994           0
      7517 W2       2506     TIP3     H1       HT       0.417000       1.00800           0
      7518 W2       2506     TIP3     H2       HT       0.417000       1.00800           0
      7519 W2       2507     TIP3     OH2      OT      -0.834000       15.9994           0
      7520 W2       2507     TIP3     H1       HT       0.417000       1.00800           0
      7521 W2       2507     TIP3     H2       HT       0.417000       1.00800           0
      7522 W2       2508     TIP3     OH2      OT      -0.834000       15.9994           0
      7523 W2       2508     TIP3     H1       HT       0.417000       1.00800           0
      7524 W2       2508     TIP3     H2       HT       0.417000       1.00800           0
      7525 W2       2509     TIP3     OH2      OT      -0.834000       15.9994           0
      7526 W2       2509     TIP3     H1       HT       0.417000       1.00800           0
      7527 W2       2509     TIP3     H2       HT       0.417000       1.00800           0
      7528 W2       2510     TIP3     OH2      OT      -0.834000       15.9994           0
      7529 W2       2510     TIP3     H1       HT       0.417000       1.00800           0
      7530 W2       2510     TIP3     H2       HT       0.417000       1.00800           0
      7531 W2       2511     TIP3     OH2      OT      -0.834000       15.9994           0
      7532 W2       2511     TIP3     H1       HT       0.417000       1.00800           0
      7533 W2       2511     TIP3     H2       HT       0.417000       1.00800           0
      7534 W2       2512     TIP3     OH2      OT      -0.834000       15.9994           0
      7535 W2       2512     TIP3     H1       HT       0.417000       1.00800           0
      7536 W2       2512     TIP3     H2       HT       0.417000       1.00800           0
      7537 W2       2513     TIP3     OH2      OT      -0.834000       15.9994           0
      7538 W2       2513     TIP3     H1       HT       0.417000       1.00800           0
      7539 W2       2513     TIP3     H2       HT       0.417000       1.00800           0
      7540 W2       2514     TIP3     OH2      OT      -0.834000       15.9994           0
      7541 W2       2514     TIP3     H1       HT       0.417000       1.00800           0
      7542 W2       2514     TIP3     H2       HT       0.417000       1.00800           0
      7543 W2       2515     TIP3     OH2      OT      -0.834000       15.9994           0
      7544 W2       2515     TIP3     H1       HT       0.417000       1.00800           0
      7545 W2       2515     TIP3     H2       HT       0.417000       1.00800           0
      7546 W2       2516     TIP3     OH2      OT      -0.834000       15.9994           0
      7547 W2       2516     TIP3     H1       HT       0.417000       1.00800           0
      7548 W2       2516     TIP3     H2       HT       0.417000       1.00800           0
      7549 W2       2517     TIP3     OH2      OT      -0.834000       15.9994           0
      7550 W2       2517     TIP3     H1       HT       0.417000       1.00800           0
      7551 W2       2517     TIP3     H2       HT       0.417000       1.00800           0
      7552 W2       2518     TIP3     OH2      OT      -0.834000       15.9994           0
      7553 W2       2518     TIP3     H1       HT       0.417000       1.00800           0
      7554 W2       2518     TIP3     H2       HT       0.417000       1.00800           0
      7555 W2       2519     TIP3     OH2      OT      -0.834000       15.9994           0
      7556 W2       2519     TIP3     H1       HT       0.417000       1.00800           0
      7557 W2       2519     TIP3     H2       HT       0.417000       1.00800           0
      7558 W2       2520     TIP3     OH2      OT      -0.834000       15.9994           0
      7559 W2       2520     TIP3     H1       HT       0.417000       1.00800           0
      7560 W2       2520     TIP3     H2       HT       0.417000       1.00800           0
      7561 W2       2521     TIP3     OH2      OT      -0.834000       15.9994           0
      7562 W2       2521     TIP3     H1       HT       0.417000       1.00800           0
      7563 W2       2521     TIP3     H2       HT       0.417000       1.00800           0
      7564 W2       2522     TIP3     OH2      OT      -0.834000       15.9994           0
      7565 W2       2522     TIP3     H1       HT       0.417000       1.00800           0
      7566 W2       2522     TIP3     H2       HT       0.417000       1.00800           0
      7567 W2       2523     TIP3     OH2      OT      -0.834000       15.9994           0
      7568 W2       2523     TIP3     H1       HT       0.417000       1.00800           0
      7569 W2       2523     TIP3     H2       HT       0.417000       1.00800           0
      7570 W2       2524     TIP3     OH2      OT      -0.834000       15.9994           0
      7571 W2       2524     TIP3     H1       HT       0.417000       1.00800           0
      7572 W2       2524     TIP3     H2       HT       0.417000       1.00800           0
      7573 W2       2525     TIP3     OH2      OT      -0.834000       15.9994           0
      7574 W2       2525     TIP3     H1       HT       0.417000       1.00800           0
      7575 W2       2525     TIP3     H2       HT       0.417000       1.00800           0
      7576 W2       2526     TIP3     OH2      OT      -0.834000       15.9994           0
      7577 W2       2526     TIP3     H1       HT       0.417000       1.00800           0
      7578 W2       2526     TIP3     H2       HT       0.417000       1.00800           0
      7579 W2       2527     TIP3     OH2      OT      -0.834000       15.9994           0
      7580 W2       2527     TIP3     H1       HT       0.417000       1.00800           0
      7581 W2       2527     TIP3     H2       HT       0.417000       1.00800           0
      7582 W2       2528     TIP3     OH2      OT      -0.834000       15.9994           0
      7583 W2       2528     TIP3     H1       HT       0.417000       1.00800           0
      7584 W2       2528     TIP3     H2       HT       0.417000       1.00800           0
      7585 W2       2529     TIP3     OH2      OT      -0.834000       15.9994           0
      7586 W2       2529     TIP3     H1       HT       0.417000       1.00800           0
      7587 W2       2529     TIP3     H2       HT       0.417000       1.00800           0
      7588 W2       2530     TIP3     OH2      OT      -0.834000       15.9994           0
      7589 W2       2530     TIP3     H1       HT       0.417000       1.00800           0
      7590 W2       2530     TIP3     H2       HT       0.417000       1.00800           0
      7591 W2       2531     TIP3     OH2      OT      -0.834000       15.9994           0
      7592 W2       2531     TIP3     H1       HT       0.417000       1.00800           0
      7593 W2       2531     TIP3     H2       HT       0.417000       1.00800           0
      7594 W2       2532     TIP3     OH2      OT      -0.834000       15.9994           0
      7595 W2       2532     TIP3     H1       HT       0.417000       1.00800           0
      7596 W2       2532     TIP3     H2       HT       0.417000       1.00800           0
      7597 W2       2533     TIP3     OH2      OT      -0.834000       15.9994           0
      7598 W2       2533     TIP3     H1       HT       0.417000       1.00800           0
      7599 W2       2533     TIP3     H2       HT       0.417000       1.00800           0
      7600 W2       2534     TIP3     OH2      OT      -0.834000       15.9994           0
      7601 W2       2534     TIP3     H1       HT       0.417000       1.00800           0
      7602 W2       2534     TIP3     H2       HT       0.417000       1.00800           0
      7603 W2       2535     TIP3     OH2      OT      -0.834000       15.9994           0
      7604 W2       2535     TIP3     H1       HT       0.417000       1.00800           0
      7605 W2       2535     TIP3     H2       HT       0.417000       1.00800           0
      7606 W2       2536     TIP3     OH2      OT      -0.834000       15.9994           0
      7607 W2       2536     TIP3     H1       HT       0.417000       1.00800           0
      7608 W2       2536     TIP3     H2       HT       0.417000       1.00800           0
      7609 W2       2537     TIP3     OH2      OT      -0.834000       15.9994           0
      7610 W2       2537     TIP3     H1       HT       0.417000       1.00800           0
      7611 W2       2537     TIP3     H2       HT       0.417000       1.00800           0
      7612 W2       2538     TIP3     OH2      OT      -0.834000       15.9994           0
      7613 W2       2538     TIP3     H1       HT       0.417000       1.00800           0
      7614 W2       2538     TIP3     H2       HT       0.417000       1.00800           0
      7615 W2       2539     TIP3     OH2      OT      -0.834000       15.9994           0
      7616 W2       2539     TIP3     H1       HT       0.417000       1.00800           0
      7617 W2       2539     TIP3     H2       HT       0.417000       1.00800           0
      7618 W2       2540     TIP3     OH2      OT      -0.834000       15.9994           0
      7619 W2       2540     TIP3     H1       HT       0.417000       1.00800           0
      7620 W2       2540     TIP3     H2       HT       0.417000       1.00800           0
      7621 W2       2541     TIP3     OH2      OT      -0.834000       15.9994           0
      7622 W2       2541     TIP3     H1       HT       0.417000       1.00800           0
      7623 W2       2541     TIP3     H2       HT       0.417000       1.00800           0
      7624 W2       2542     TIP3     OH2      OT      -0.834000       15.9994           0
      7625 W2       2542     TIP3     H1       HT       0.417000       1.00800           0
      7626 W2       2542     TIP3     H2       HT       0.417000       1.00800           0
      7627 W2       2543     TIP3     OH2      OT      -0.834000       15.9994           0
      7628 W2       2543     TIP3     H1       HT       0.417000       1.00800           0
      7629 W2       2543     TIP3     H2       HT       0.417000       1.00800           0
      7630 W2       2544     TIP3     OH2      OT      -0.834000       15.9994           0
      7631 W2       2544     TIP3     H1       HT       0.417000       1.00800           0
      7632 W2       2544     TIP3     H2       HT       0.417000       1.00800           0
      7633 W2       2545     TIP3     OH2      OT      -0.834000       15.9994           0
      7634 W2       2545     TIP3     H1       HT       0.417000       1.00800           0
      7635 W2       2545     TIP3     H2       HT       0.417000       1.00800           0
      7636 W2       2546     TIP3     OH2      OT      -0.834000       15.9994           0
      7637 W2       2546     TIP3     H1       HT       0.417000       1.00800           0
      7638 W2       2546     TIP3     H2       HT       0.417000       1.00800           0
      7639 W2       2547     TIP3     OH2      OT      -0.834000       15.9994           0
      7640 W2       2547     TIP3     H1       HT       0.417000       1.00800           0
      7641 W2       2547     TIP3     H2       HT       0.417000       1.00800           0
      7642 W2       2548     TIP3     OH2      OT      -0.834000       15.9994           0
      7643 W2       2548     TIP3     H1       HT       0.417000       1.00800           0
      7644 W2       2548     TIP3     H2       HT       0.417000       1.00800           0
      7645 W2       2549     TIP3     OH2      OT      -0.834000       15.9994           0
      7646 W2       2549     TIP3     H1       HT       0.417000       1.00800           0
      7647 W2       2549     TIP3     H2       HT       0.417000       1.00800           0
      7648 W2       2550     TIP3     OH2      OT      -0.834000       15.9994           0
      7649 W2       2550     TIP3     H1       HT       0.417000       1.00800           0
      7650 W2       2550     TIP3     H2       HT       0.417000       1.00800           0
      7651 W2       2551     TIP3     OH2      OT      -0.834000       15.9994           0
      7652 W2       2551     TIP3     H1       HT       0.417000       1.00800           0
      7653 W2       2551     TIP3     H2       HT       0.417000       1.00800           0
      7654 W2       2552     TIP3     OH2      OT      -0.834000       15.9994           0
      7655 W2       2552     TIP3     H1       HT       0.417000       1.00800           0
      7656 W2       2552     TIP3     H2       HT       0.417000       1.00800           0
      7657 W2       2553     TIP3     OH2      OT      -0.834000       15.9994           0
      7658 W2       2553     TIP3     H1       HT       0.417000       1.00800           0
      7659 W2       2553     TIP3     H2       HT       0.417000       1.00800           0
      7660 W2       2554     TIP3     OH2      OT      -0.834000       15.9994           0
      7661 W2       2554     TIP3     H1       HT       0.417000       1.00800           0
      7662 W2       2554     TIP3     H2       HT       0.417000       1.00800           0
      7663 W2       2555     TIP3     OH2      OT      -0.834000       15.9994           0
      7664 W2       2555     TIP3     H1       HT       0.417000       1.00800           0
      7665 W2       2555     TIP3     H2       HT       0.417000       1.00800           0
      7666 W2       2556     TIP3     OH2      OT      -0.834000       15.9994           0
      7667 W2       2556     TIP3     H1       HT       0.417000       1.00800           0
      7668 W2       2556     TIP3     H2       HT       0.417000       1.00800           0
      7669 W2       2557     TIP3     OH2      OT      -0.834000       15.9994           0
      7670 W2       2557     TIP3     H1       HT       0.417000       1.00800           0
      7671 W2       2557     TIP3     H2       HT       0.417000       1.00800           0
      7672 W2       2558     TIP3     OH2      OT      -0.834000       15.9994           0
      7673 W2       2558     TIP3     H1       HT       0.417000       1.00800           0
      7674 W2       2558     TIP3     H2       HT       0.417000       1.00800           0
      7675 W2       2559     TIP3     OH2      OT      -0.834000       15.9994           0
      7676 W2       2559     TIP3     H1       HT       0.417000       1.00800           0
      7677 W2       2559     TIP3     H2       HT       0.417000       1.00800           0
      7678 W2       2560     TIP3     OH2      OT      -0.834000       15.9994           0
      7679 W2       2560     TIP3     H1       HT       0.417000       1.00800           0
      7680 W2       2560     TIP3     H2       HT       0.417000       1.00800           0
      7681 W2       2561     TIP3     OH2      OT      -0.834000       15.9994           0
      7682 W2       2561     TIP3     H1       HT       0.417000       1.00800           0
      7683 W2       2561     TIP3     H2       HT       0.417000       1.00800           0
      7684 W2       2562     TIP3     OH2      OT      -0.834000       15.9994           0
      7685 W2       2562     TIP3     H1       HT       0.417000       1.00800           0
      7686 W2       2562     TIP3     H2       HT       0.417000       1.00800           0
      7687 W2       2563     TIP3     OH2      OT      -0.834000       15.9994           0
      7688 W2       2563     TIP3     H1       HT       0.417000       1.00800           0
      7689 W2       2563     TIP3     H2       HT       0.417000       1.00800           0
      7690 W2       2564     TIP3     OH2      OT      -0.834000       15.9994           0
      7691 W2       2564     TIP3     H1       HT       0.417000       1.00800           0
      7692 W2       2564     TIP3     H2       HT       0.417000       1.00800           0
      7693 W2       2565     TIP3     OH2      OT      -0.834000       15.9994           0
      7694 W2       2565     TIP3     H1       HT       0.417000       1.00800           0
      7695 W2       2565     TIP3     H2       HT       0.417000       1.00800           0
      7696 W2       2566     TIP3     OH2      OT      -0.834000       15.9994           0
      7697 W2       2566     TIP3     H1       HT       0.417000       1.00800           0
      7698 W2       2566     TIP3     H2       HT       0.417000       1.00800           0
      7699 W2       2567     TIP3     OH2      OT      -0.834000       15.9994           0
      7700 W2       2567     TIP3     H1       HT       0.417000       1.00800           0
      7701 W2       2567     TIP3     H2       HT       0.417000       1.00800           0
      7702 W2       2568     TIP3     OH2      OT      -0.834000       15.9994           0
      7703 W2       2568     TIP3     H1       HT       0.417000       1.00800           0
      7704 W2       2568     TIP3     H2       HT       0.417000       1.00800           0
      7705 W2       2569     TIP3     OH2      OT      -0.834000       15.9994           0
      7706 W2       2569     TIP3     H1       HT       0.417000       1.00800           0
      7707 W2       2569     TIP3     H2       HT       0.417000       1.00800           0
      7708 W2       2570     TIP3     OH2      OT      -0.834000       15.9994           0
      7709 W2       2570     TIP3     H1       HT       0.417000       1.00800           0
      7710 W2       2570     TIP3     H2       HT       0.417000       1.00800           0
      7711 W2       2571     TIP3     OH2      OT      -0.834000       15.9994           0
      7712 W2       2571     TIP3     H1       HT       0.417000       1.00800           0
      7713 W2       2571     TIP3     H2       HT       0.417000       1.00800           0
      7714 W2       2572     TIP3     OH2      OT      -0.834000       15.9994           0
      7715 W2       2572     TIP3     H1       HT       0.417000       1.00800           0
      7716 W2       2572     TIP3     H2       HT       0.417000       1.00800           0
      7717 W2       2573     TIP3     OH2      OT      -0.834000       15.9994           0
      7718 W2       2573     TIP3     H1       HT       0.417000       1.00800           0
      7719 W2       2573     TIP3     H2       HT       0.417000       1.00800           0
      7720 W2       2574     TIP3     OH2      OT      -0.834000       15.9994           0
      7721 W2       2574     TIP3     H1       HT       0.417000       1.00800           0
      7722 W2       2574     TIP3     H2       HT       0.417000       1.00800           0
      7723 W2       2575     TIP3     OH2      OT      -0.834000       15.9994           0
      7724 W2       2575     TIP3     H1       HT       0.417000       1.00800           0
      7725 W2       2575     TIP3     H2       HT       0.417000       1.00800           0
      7726 W2       2576     TIP3     OH2      OT      -0.834000       15.9994           0
      7727 W2       2576     TIP3     H1       HT       0.417000       1.00800           0
      7728 W2       2576     TIP3     H2       HT       0.417000       1.00800           0
      7729 W2       2577     TIP3     OH2      OT      -0.834000       15.9994           0
      7730 W2       2577     TIP3     H1       HT       0.417000       1.00800           0
      7731 W2       2577     TIP3     H2       HT       0.417000       1.00800           0
      7732 W2       2578     TIP3     OH2      OT      -0.834000       15.9994           0
      7733 W2       2578     TIP3     H1       HT       0.417000       1.00800           0
      7734 W2       2578     TIP3     H2       HT       0.417000       1.00800           0
      7735 W2       2579     TIP3     OH2      OT      -0.834000       15.9994           0
      7736 W2       2579     TIP3     H1       HT       0.417000       1.00800           0
      7737 W2       2579     TIP3     H2       HT       0.417000       1.00800           0
      7738 W2       2580     TIP3     OH2      OT      -0.834000       15.9994           0
      7739 W2       2580     TIP3     H1       HT       0.417000       1.00800           0
      7740 W2       2580     TIP3     H2       HT       0.417000       1.00800           0
      7741 W2       2581     TIP3     OH2      OT      -0.834000       15.9994           0
      7742 W2       2581     TIP3     H1       HT       0.417000       1.00800           0
      7743 W2       2581     TIP3     H2       HT       0.417000       1.00800           0
      7744 W2       2582     TIP3     OH2      OT      -0.834000       15.9994           0
      7745 W2       2582     TIP3     H1       HT       0.417000       1.00800           0
      7746 W2       2582     TIP3     H2       HT       0.417000       1.00800           0
      7747 W2       2583     TIP3     OH2      OT      -0.834000       15.9994           0
      7748 W2       2583     TIP3     H1       HT       0.417000       1.00800           0
      7749 W2       2583     TIP3     H2       HT       0.417000       1.00800           0
      7750 W2       2584     TIP3     OH2      OT      -0.834000       15.9994           0
      7751 W2       2584     TIP3     H1       HT       0.417000       1.00800           0
      7752 W2       2584     TIP3     H2       HT       0.417000       1.00800           0
      7753 W2       2585     TIP3     OH2      OT      -0.834000       15.9994           0
      7754 W2       2585     TIP3     H1       HT       0.417000       1.00800           0
      7755 W2       2585     TIP3     H2       HT       0.417000       1.00800           0
      7756 W2       2586     TIP3     OH2      OT      -0.834000       15.9994           0
      7757 W2       2586     TIP3     H1       HT       0.417000       1.00800           0
      7758 W2       2586     TIP3     H2       HT       0.417000       1.00800           0
      7759 W2       2587     TIP3     OH2      OT      -0.834000       15.9994           0
      7760 W2       2587     TIP3     H1       HT       0.417000       1.00800           0
      7761 W2       2587     TIP3     H2       HT       0.417000       1.00800           0
      7762 W2       2588     TIP3     OH2      OT      -0.834000       15.9994           0
      7763 W2       2588     TIP3     H1       HT       0.417000       1.00800           0
      7764 W2       2588     TIP3     H2       HT       0.417000       1.00800           0
      7765 W2       2589     TIP3     OH2      OT      -0.834000       15.9994           0
      7766 W2       2589     TIP3     H1       HT       0.417000       1.00800           0
      7767 W2       2589     TIP3     H2       HT       0.417000       1.00800           0
      7768 W2       2590     TIP3     OH2      OT      -0.834000       15.9994           0
      7769 W2       2590     TIP3     H1       HT       0.417000       1.00800           0
      7770 W2       2590     TIP3     H2       HT       0.417000       1.00800           0
      7771 W2       2591     TIP3     OH2      OT      -0.834000       15.9994           0
      7772 W2       2591     TIP3     H1       HT       0.417000       1.00800           0
      7773 W2       2591     TIP3     H2       HT       0.417000       1.00800           0
      7774 W2       2592     TIP3     OH2      OT      -0.834000       15.9994           0
      7775 W2       2592     TIP3     H1       HT       0.417000       1.00800           0
      7776 W2       2592     TIP3     H2       HT       0.417000       1.00800           0
      7777 W2       2593     TIP3     OH2      OT      -0.834000       15.9994           0
      7778 W2       2593     TIP3     H1       HT       0.417000       1.00800           0
      7779 W2       2593     TIP3     H2       HT       0.417000       1.00800           0
      7780 W2       2594     TIP3     OH2      OT      -0.834000       15.9994           0
      7781 W2       2594     TIP3     H1       HT       0.417000       1.00800           0
      7782 W2       2594     TIP3     H2       HT       0.417000       1.00800           0
      7783 W2       2595     TIP3     OH2      OT      -0.834000       15.9994           0
      7784 W2       2595     TIP3     H1       HT       0.417000       1.00800           0
      7785 W2       2595     TIP3     H2       HT       0.417000       1.00800           0
      7786 W2       2596     TIP3     OH2      OT      -0.834000       15.9994           0
      7787 W2       2596     TIP3     H1       HT       0.417000       1.00800           0
      7788 W2       2596     TIP3     H2       HT       0.417000       1.00800           0
      7789 W2       2597     TIP3     OH2      OT      -0.834000       15.9994           0
      7790 W2       2597     TIP3     H1       HT       0.417000       1.00800           0
      7791 W2       2597     TIP3     H2       HT       0.417000       1.00800           0
      7792 W2       2598     TIP3     OH2      OT      -0.834000       15.9994           0
      7793 W2       2598     TIP3     H1       HT       0.417000       1.00800           0
      7794 W2       2598     TIP3     H2       HT       0.417000       1.00800           0
      7795 W2       2599     TIP3     OH2      OT      -0.834000       15.9994           0
      7796 W2       2599     TIP3     H1       HT       0.417000       1.00800           0
      7797 W2       2599     TIP3     H2       HT       0.417000       1.00800           0
      7798 W2       2600     TIP3     OH2      OT      -0.834000       15.9994           0
      7799 W2       2600     TIP3     H1       HT       0.417000       1.00800           0
      7800 W2       2600     TIP3     H2       HT       0.417000       1.00800           0
      7801 W2       2601     TIP3     OH2      OT      -0.834000       15.9994           0
      7802 W2       2601     TIP3     H1       HT       0.417000       1.00800           0
      7803 W2       2601     TIP3     H2       HT       0.417000       1.00800           0
      7804 W2       2602     TIP3     OH2      OT      -0.834000       15.9994           0
      7805 W2       2602     TIP3     H1       HT       0.417000       1.00800           0
      7806 W2       2602     TIP3     H2       HT       0.417000       1.00800           0
      7807 W2       2603     TIP3     OH2      OT      -0.834000       15.9994           0
      7808 W2       2603     TIP3     H1       HT       0.417000       1.00800           0
      7809 W2       2603     TIP3     H2       HT       0.417000       1.00800           0
      7810 W2       2604     TIP3     OH2      OT      -0.834000       15.9994           0
      7811 W2       2604     TIP3     H1       HT       0.417000       1.00800           0
      7812 W2       2604     TIP3     H2       HT       0.417000       1.00800           0
      7813 W2       2605     TIP3     OH2      OT      -0.834000       15.9994           0
      7814 W2       2605     TIP3     H1       HT       0.417000       1.00800           0
      7815 W2       2605     TIP3     H2       HT       0.417000       1.00800           0
      7816 W2       2606     TIP3     OH2      OT      -0.834000       15.9994           0
      7817 W2       2606     TIP3     H1       HT       0.417000       1.00800           0
      7818 W2       2606     TIP3     H2       HT       0.417000       1.00800           0
      7819 W2       2607     TIP3     OH2      OT      -0.834000       15.9994           0
      7820 W2       2607     TIP3     H1       HT       0.417000       1.00800           0
      7821 W2       2607     TIP3     H2       HT       0.417000       1.00800           0
      7822 W2       2608     TIP3     OH2      OT      -0.834000       15.9994           0
      7823 W2       2608     TIP3     H1       HT       0.417000       1.00800           0
      7824 W2       2608     TIP3     H2       HT       0.417000       1.00800           0
      7825 W2       2609     TIP3     OH2      OT      -0.834000       15.9994           0
      7826 W2       2609     TIP3     H1       HT       0.417000       1.00800           0
      7827 W2       2609     TIP3     H2       HT       0.417000       1.00800           0
      7828 W2       2610     TIP3     OH2      OT      -0.834000       15.9994           0
      7829 W2       2610     TIP3     H1       HT       0.417000       1.00800           0
      7830 W2       2610     TIP3     H2       HT       0.417000       1.00800           0
      7831 W2       2611     TIP3     OH2      OT      -0.834000       15.9994           0
      7832 W2       2611     TIP3     H1       HT       0.417000       1.00800           0
      7833 W2       2611     TIP3     H2       HT       0.417000       1.00800           0
      7834 W2       2612     TIP3     OH2      OT      -0.834000       15.9994           0
      7835 W2       2612     TIP3     H1       HT       0.417000       1.00800           0
      7836 W2       2612     TIP3     H2       HT       0.417000       1.00800           0
      7837 W2       2613     TIP3     OH2      OT      -0.834000       15.9994           0
      7838 W2       2613     TIP3     H1       HT       0.417000       1.00800           0
      7839 W2       2613     TIP3     H2       HT       0.417000       1.00800           0
      7840 W2       2614     TIP3     OH2      OT      -0.834000       15.9994           0
      7841 W2       2614     TIP3     H1       HT       0.417000       1.00800           0
      7842 W2       2614     TIP3     H2       HT       0.417000       1.00800           0
      7843 W2       2615     TIP3     OH2      OT      -0.834000       15.9994           0
      7844 W2       2615     TIP3     H1       HT       0.417000       1.00800           0
      7845 W2       2615     TIP3     H2       HT       0.417000       1.00800           0
      7846 W2       2616     TIP3     OH2      OT      -0.834000       15.9994           0
      7847 W2       2616     TIP3     H1       HT       0.417000       1.00800           0
      7848 W2       2616     TIP3     H2       HT       0.417000       1.00800           0
      7849 W2       2617     TIP3     OH2      OT      -0.834000       15.9994           0
      7850 W2       2617     TIP3     H1       HT       0.417000       1.00800           0
      7851 W2       2617     TIP3     H2       HT       0.417000       1.00800           0
      7852 W2       2618     TIP3     OH2      OT      -0.834000       15.9994           0
      7853 W2       2618     TIP3     H1       HT       0.417000       1.00800           0
      7854 W2       2618     TIP3     H2       HT       0.417000       1.00800           0
      7855 W2       2619     TIP3     OH2      OT      -0.834000       15.9994           0
      7856 W2       2619     TIP3     H1       HT       0.417000       1.00800           0
      7857 W2       2619     TIP3     H2       HT       0.417000       1.00800           0
      7858 W2       2620     TIP3     OH2      OT      -0.834000       15.9994           0
      7859 W2       2620     TIP3     H1       HT       0.417000       1.00800           0
      7860 W2       2620     TIP3     H2       HT       0.417000       1.00800           0
      7861 W2       2621     TIP3     OH2      OT      -0.834000       15.9994           0
      7862 W2       2621     TIP3     H1       HT       0.417000       1.00800           0
      7863 W2       2621     TIP3     H2       HT       0.417000       1.00800           0
      7864 W2       2622     TIP3     OH2      OT      -0.834000       15.9994           0
      7865 W2       2622     TIP3     H1       HT       0.417000       1.00800           0
      7866 W2       2622     TIP3     H2       HT       0.417000       1.00800           0
      7867 W2       2623     TIP3     OH2      OT      -0.834000       15.9994           0
      7868 W2       2623     TIP3     H1       HT       0.417000       1.00800           0
      7869 W2       2623     TIP3     H2       HT       0.417000       1.00800           0
      7870 W2       2624     TIP3     OH2      OT      -0.834000       15.9994           0
      7871 W2       2624     TIP3     H1       HT       0.417000       1.00800           0
      7872 W2       2624     TIP3     H2       HT       0.417000       1.00800           0
      7873 W2       2625     TIP3     OH2      OT      -0.834000       15.9994           0
      7874 W2       2625     TIP3     H1       HT       0.417000       1.00800           0
      7875 W2       2625     TIP3     H2       HT       0.417000       1.00800           0
      7876 W2       2626     TIP3     OH2      OT      -0.834000       15.9994           0
      7877 W2       2626     TIP3     H1       HT       0.417000       1.00800           0
      7878 W2       2626     TIP3     H2       HT       0.417000       1.00800           0
      7879 W2       2627     TIP3     OH2      OT      -0.834000       15.9994           0
      7880 W2       2627     TIP3     H1       HT       0.417000       1.00800           0
      7881 W2       2627     TIP3     H2       HT       0.417000       1.00800           0
      7882 W2       2628     TIP3     OH2      OT      -0.834000       15.9994           0
      7883 W2       2628     TIP3     H1       HT       0.417000       1.00800           0
      7884 W2       2628     TIP3     H2       HT       0.417000       1.00800           0
      7885 W2       2629     TIP3     OH2      OT      -0.834000       15.9994           0
      7886 W2       2629     TIP3     H1       HT       0.417000       1.00800           0
      7887 W2       2629     TIP3     H2       HT       0.417000       1.00800           0
      7888 W2       2630     TIP3     OH2      OT      -0.834000       15.9994           0
      7889 W2       2630     TIP3     H1       HT       0.417000       1.00800           0
      7890 W2       2630     TIP3     H2       HT       0.417000       1.00800           0
      7891 W2       2631     TIP3     OH2      OT      -0.834000       15.9994           0
      7892 W2       2631     TIP3     H1       HT       0.417000       1.00800           0
      7893 W2       2631     TIP3     H2       HT       0.417000       1.00800           0
      7894 W2       2632     TIP3     OH2      OT      -0.834000       15.9994           0
      7895 W2       2632     TIP3     H1       HT       0.417000       1.00800           0
      7896 W2       2632     TIP3     H2       HT       0.417000       1.00800           0
      7897 W2       2633     TIP3     OH2      OT      -0.834000       15.9994           0
      7898 W2       2633     TIP3     H1       HT       0.417000       1.00800           0
      7899 W2       2633     TIP3     H2       HT       0.417000       1.00800           0
      7900 W2       2634     TIP3     OH2      OT      -0.834000       15.9994           0
      7901 W2       2634     TIP3     H1       HT       0.417000       1.00800           0
      7902 W2       2634     TIP3     H2       HT       0.417000       1.00800           0
      7903 W2       2635     TIP3     OH2      OT      -0.834000       15.9994           0
      7904 W2       2635     TIP3     H1       HT       0.417000       1.00800           0
      7905 W2       2635     TIP3     H2       HT       0.417000       1.00800           0
      7906 W2       2636     TIP3     OH2      OT      -0.834000       15.9994           0
      7907 W2       2636     TIP3     H1       HT       0.417000       1.00800           0
      7908 W2       2636     TIP3     H2       HT       0.417000       1.00800           0
      7909 W2       2637     TIP3     OH2      OT      -0.834000       15.9994           0
      7910 W2       2637     TIP3     H1       HT       0.417000       1.00800           0
      7911 W2       2637     TIP3     H2       HT       0.417000       1.00800           0
      7912 W2       2638     TIP3     OH2      OT      -0.834000       15.9994           0
      7913 W2       2638     TIP3     H1       HT       0.417000       1.00800           0
      7914 W2       2638     TIP3     H2       HT       0.417000       1.00800           0
      7915 W2       2639     TIP3     OH2      OT      -0.834000       15.9994           0
      7916 W2       2639     TIP3     H1       HT       0.417000       1.00800           0
      7917 W2       2639     TIP3     H2       HT       0.417000       1.00800           0
      7918 W2       2640     TIP3     OH2      OT      -0.834000       15.9994           0
      7919 W2       2640     TIP3     H1       HT       0.417000       1.00800           0
      7920 W2       2640     TIP3     H2       HT       0.417000       1.00800           0
      7921 W2       2641     TIP3     OH2      OT      -0.834000       15.9994           0
      7922 W2       2641     TIP3     H1       HT       0.417000       1.00800           0
      7923 W2       2641     TIP3     H2       HT       0.417000       1.00800           0
      7924 W2       2642     TIP3     OH2      OT      -0.834000       15.9994           0
      7925 W2       2642     TIP3     H1       HT       0.417000       1.00800           0
      7926 W2       2642     TIP3     H2       HT       0.417000       1.00800           0
      7927 W2       2643     TIP3     OH2      OT      -0.834000       15.9994           0
      7928 W2       2643     TIP3     H1       HT       0.417000       1.00800           0
      7929 W2       2643     TIP3     H2       HT       0.417000       1.00800           0
      7930 W2       2644     TIP3     OH2      OT      -0.834000       15.9994           0
      7931 W2       2644     TIP3     H1       HT       0.417000       1.00800           0
      7932 W2       2644     TIP3     H2       HT       0.417000       1.00800           0
      7933 W2       2645     TIP3     OH2      OT      -0.834000       15.9994           0
      7934 W2       2645     TIP3     H1       HT       0.417000       1.00800           0
      7935 W2       2645     TIP3     H2       HT       0.417000       1.00800           0
      7936 W2       2646     TIP3     OH2      OT      -0.834000       15.9994           0
      7937 W2       2646     TIP3     H1       HT       0.417000       1.00800           0
      7938 W2       2646     TIP3     H2       HT       0.417000       1.00800           0
      7939 W2       2647     TIP3     OH2      OT      -0.834000       15.9994           0
      7940 W2       2647     TIP3     H1       HT       0.417000       1.00800           0
      7941 W2       2647     TIP3     H2       HT       0.417000       1.00800           0
      7942 W2       2648     TIP3     OH2      OT      -0.834000       15.9994           0
      7943 W2       2648     TIP3     H1       HT       0.417000       1.00800           0
      7944 W2       2648     TIP3     H2       HT       0.417000       1.00800           0
      7945 W2       2649     TIP3     OH2      OT      -0.834000       15.9994           0
      7946 W2       2649     TIP3     H1       HT       0.417000       1.00800           0
      7947 W2       2649     TIP3     H2       HT       0.417000       1.00800           0
      7948 W2       2650     TIP3     OH2      OT      -0.834000       15.9994           0
      7949 W2       2650     TIP3     H1       HT       0.417000       1.00800           0
      7950 W2       2650     TIP3     H2       HT       0.417000       1.00800           0
      7951 W2       2651     TIP3     OH2      OT      -0.834000       15.9994           0
      7952 W2       2651     TIP3     H1       HT       0.417000       1.00800           0
      7953 W2       2651     TIP3     H2       HT       0.417000       1.00800           0
      7954 W2       2652     TIP3     OH2      OT      -0.834000       15.9994           0
      7955 W2       2652     TIP3     H1       HT       0.417000       1.00800           0
      7956 W2       2652     TIP3     H2       HT       0.417000       1.00800           0
      7957 W2       2653     TIP3     OH2      OT      -0.834000       15.9994           0
      7958 W2       2653     TIP3     H1       HT       0.417000       1.00800           0
      7959 W2       2653     TIP3     H2       HT       0.417000       1.00800           0
      7960 W2       2654     TIP3     OH2      OT      -0.834000       15.9994           0
      7961 W2       2654     TIP3     H1       HT       0.417000       1.00800           0
      7962 W2       2654     TIP3     H2       HT       0.417000       1.00800           0
      7963 W2       2655     TIP3     OH2      OT      -0.834000       15.9994           0
      7964 W2       2655     TIP3     H1       HT       0.417000       1.00800           0
      7965 W2       2655     TIP3     H2       HT       0.417000       1.00800           0
      7966 W2       2656     TIP3     OH2      OT      -0.834000       15.9994           0
      7967 W2       2656     TIP3     H1       HT       0.417000       1.00800           0
      7968 W2       2656     TIP3     H2       HT       0.417000       1.00800           0
      7969 W2       2657     TIP3     OH2      OT      -0.834000       15.9994           0
      7970 W2       2657     TIP3     H1       HT       0.417000       1.00800           0
      7971 W2       2657     TIP3     H2       HT       0.417000       1.00800           0
      7972 W2       2658     TIP3     OH2      OT      -0.834000       15.9994           0
      7973 W2       2658     TIP3     H1       HT       0.417000       1.00800           0
      7974 W2       2658     TIP3     H2       HT       0.417000       1.00800           0
      7975 W2       2659     TIP3     OH2      OT      -0.834000       15.9994           0
      7976 W2       2659     TIP3     H1       HT       0.417000       1.00800           0
      7977 W2       2659     TIP3     H2       HT       0.417000       1.00800           0
      7978 W2       2660     TIP3     OH2      OT      -0.834000       15.9994           0
      7979 W2       2660     TIP3     H1       HT       0.417000       1.00800           0
      7980 W2       2660     TIP3     H2       HT       0.417000       1.00800           0
      7981 W2       2661     TIP3     OH2      OT      -0.834000       15.9994           0
      7982 W2       2661     TIP3     H1       HT       0.417000       1.00800           0
      7983 W2       2661     TIP3     H2       HT       0.417000       1.00800           0
      7984 W2       2662     TIP3     OH2      OT      -0.834000       15.9994           0
      7985 W2       2662     TIP3     H1       HT       0.417000       1.00800           0
      7986 W2       2662     TIP3     H2       HT       0.417000       1.00800           0
      7987 W2       2663     TIP3     OH2      OT      -0.834000       15.9994           0
      7988 W2       2663     TIP3     H1       HT       0.417000       1.00800           0
      7989 W2       2663     TIP3     H2       HT       0.417000       1.00800           0
      7990 W2       2664     TIP3     OH2      OT      -0.834000       15.9994           0
      7991 W2       2664     TIP3     H1       HT       0.417000       1.00800           0
      7992 W2       2664     TIP3     H2       HT       0.417000       1.00800           0
      7993 W2       2665     TIP3     OH2      OT      -0.834000       15.9994           0
      7994 W2       2665     TIP3     H1       HT       0.417000       1.00800           0
      7995 W2       2665     TIP3     H2       HT       0.417000       1.00800           0
      7996 W2       2666     TIP3     OH2      OT      -0.834000       15.9994           0
      7997 W2       2666     TIP3     H1       HT       0.417000       1.00800           0
      7998 W2       2666     TIP3     H2       HT       0.417000       1.00800           0
      7999 W2       2667     TIP3     OH2      OT      -0.834000       15.9994           0
      8000 W2       2667     TIP3     H1       HT       0.417000       1.00800           0
      8001 W2       2667     TIP3     H2       HT       0.417000       1.00800           0
      8002 W2       2668     TIP3     OH2      OT      -0.834000       15.9994           0
      8003 W2       2668     TIP3     H1       HT       0.417000       1.00800           0
      8004 W2       2668     TIP3     H2       HT       0.417000       1.00800           0
      8005 W2       2669     TIP3     OH2      OT      -0.834000       15.9994           0
      8006 W2       2669     TIP3     H1       HT       0.417000       1.00800           0
      8007 W2       2669     TIP3     H2       HT       0.417000       1.00800           0
      8008 W2       2670     TIP3     OH2      OT      -0.834000       15.9994           0
      8009 W2       2670     TIP3     H1       HT       0.417000       1.00800           0
      8010 W2       2670     TIP3     H2       HT       0.417000       1.00800           0
      8011 W2       2671     TIP3     OH2      OT      -0.834000       15.9994           0
      8012 W2       2671     TIP3     H1       HT       0.417000       1.00800           0
      8013 W2       2671     TIP3     H2       HT       0.417000       1.00800           0
      8014 W2       2672     TIP3     OH2      OT      -0.834000       15.9994           0
      8015 W2       2672     TIP3     H1       HT       0.417000       1.00800           0
      8016 W2       2672     TIP3     H2       HT       0.417000       1.00800           0
      8017 W2       2673     TIP3     OH2      OT      -0.834000       15.9994           0
      8018 W2       2673     TIP3     H1       HT       0.417000       1.00800           0
      8019 W2       2673     TIP3     H2       HT       0.417000       1.00800           0
      8020 W2       2674     TIP3     OH2      OT      -0.834000       15.9994           0
      8021 W2       2674     TIP3     H1       HT       0.417000       1.00800           0
      8022 W2       2674     TIP3     H2       HT       0.417000       1.00800           0
      8023 W2       2675     TIP3     OH2      OT      -0.834000       15.9994           0
      8024 W2       2675     TIP3     H1       HT       0.417000       1.00800           0
      8025 W2       2675     TIP3     H2       HT       0.417000       1.00800           0
      8026 W2       2676     TIP3     OH2      OT      -0.834000       15.9994           0
      8027 W2       2676     TIP3     H1       HT       0.417000       1.00800           0
      8028 W2       2676     TIP3     H2       HT       0.417000       1.00800           0
      8029 W2       2677     TIP3     OH2      OT      -0.834000       15.9994           0
      8030 W2       2677     TIP3     H1       HT       0.417000       1.00800           0
      8031 W2       2677     TIP3     H2       HT       0.417000       1.00800           0
      8032 W2       2678     TIP3     OH2      OT      -0.834000       15.9994           0
      8033 W2       2678     TIP3     H1       HT       0.417000       1.00800           0
      8034 W2       2678     TIP3     H2       HT       0.417000       1.00800           0
      8035 W2       2679     TIP3     OH2      OT      -0.834000       15.9994           0
      8036 W2       2679     TIP3     H1       HT       0.417000       1.00800           0
      8037 W2       2679     TIP3     H2       HT       0.417000       1.00800           0
      8038 W2       2680     TIP3     OH2      OT      -0.834000       15.9994           0
      8039 W2       2680     TIP3     H1       HT       0.417000       1.00800           0
      8040 W2       2680     TIP3     H2       HT       0.417000       1.00800           0
      8041 W2       2681     TIP3     OH2      OT      -0.834000       15.9994           0
      8042 W2       2681     TIP3     H1       HT       0.417000       1.00800           0
      8043 W2       2681     TIP3     H2       HT       0.417000       1.00800           0
      8044 W2       2682     TIP3     OH2      OT      -0.834000       15.9994           0
      8045 W2       2682     TIP3     H1       HT       0.417000       1.00800           0
      8046 W2       2682     TIP3     H2       HT       0.417000       1.00800           0
      8047 W2       2683     TIP3     OH2      OT      -0.834000       15.9994           0
      8048 W2       2683     TIP3     H1       HT       0.417000       1.00800           0
      8049 W2       2683     TIP3     H2       HT       0.417000       1.00800           0
      8050 W2       2684     TIP3     OH2      OT      -0.834000       15.9994           0
      8051 W2       2684     TIP3     H1       HT       0.417000       1.00800           0
      8052 W2       2684     TIP3     H2       HT       0.417000       1.00800           0
      8053 W2       2685     TIP3     OH2      OT      -0.834000       15.9994           0
      8054 W2       2685     TIP3     H1       HT       0.417000       1.00800           0
      8055 W2       2685     TIP3     H2       HT       0.417000       1.00800           0
      8056 W2       2686     TIP3     OH2      OT      -0.834000       15.9994           0
      8057 W2       2686     TIP3     H1       HT       0.417000       1.00800           0
      8058 W2       2686     TIP3     H2       HT       0.417000       1.00800           0
      8059 W2       2687     TIP3     OH2      OT      -0.834000       15.9994           0
      8060 W2       2687     TIP3     H1       HT       0.417000       1.00800           0
      8061 W2       2687     TIP3     H2       HT       0.417000       1.00800           0
      8062 W2       2688     TIP3     OH2      OT      -0.834000       15.9994           0
      8063 W2       2688     TIP3     H1       HT       0.417000       1.00800           0
      8064 W2       2688     TIP3     H2       HT       0.417000       1.00800           0
      8065 W2       2689     TIP3     OH2      OT      -0.834000       15.9994           0
      8066 W2       2689     TIP3     H1       HT       0.417000       1.00800           0
      8067 W2       2689     TIP3     H2       HT       0.417000       1.00800           0
      8068 W2       2690     TIP3     OH2      OT      -0.834000       15.9994           0
      8069 W2       2690     TIP3     H1       HT       0.417000       1.00800           0
      8070 W2       2690     TIP3     H2       HT       0.417000       1.00800           0
      8071 W2       2691     TIP3     OH2      OT      -0.834000       15.9994           0
      8072 W2       2691     TIP3     H1       HT       0.417000       1.00800           0
      8073 W2       2691     TIP3     H2       HT       0.417000       1.00800           0
      8074 W2       2692     TIP3     OH2      OT      -0.834000       15.9994           0
      8075 W2       2692     TIP3     H1       HT       0.417000       1.00800           0
      8076 W2       2692     TIP3     H2       HT       0.417000       1.00800           0
      8077 W2       2693     TIP3     OH2      OT      -0.834000       15.9994           0
      8078 W2       2693     TIP3     H1       HT       0.417000       1.00800           0
      8079 W2       2693     TIP3     H2       HT       0.417000       1.00800           0
      8080 W2       2694     TIP3     OH2      OT      -0.834000       15.9994           0
      8081 W2       2694     TIP3     H1       HT       0.417000       1.00800           0
      8082 W2       2694     TIP3     H2       HT       0.417000       1.00800           0
      8083 W2       2695     TIP3     OH2      OT      -0.834000       15.9994           0
      8084 W2       2695     TIP3     H1       HT       0.417000       1.00800           0
      8085 W2       2695     TIP3     H2       HT       0.417000       1.00800           0
      8086 W2       2696     TIP3     OH2      OT      -0.834000       15.9994           0
      8087 W2       2696     TIP3     H1       HT       0.417000       1.00800           0
      8088 W2       2696     TIP3     H2       HT       0.417000       1.00800           0
      8089 W2       2697     TIP3     OH2      OT      -0.834000       15.9994           0
      8090 W2       2697     TIP3     H1       HT       0.417000       1.00800           0
      8091 W2       2697     TIP3     H2       HT       0.417000       1.00800           0
      8092 W2       2698     TIP3     OH2      OT      -0.834000       15.9994           0
      8093 W2       2698     TIP3     H1       HT       0.417000       1.00800           0
      8094 W2       2698     TIP3     H2       HT       0.417000       1.00800           0
      8095 W2       2699     TIP3     OH2      OT      -0.834000       15.9994           0
      8096 W2       2699     TIP3     H1       HT       0.417000       1.00800           0
      8097 W2       2699     TIP3     H2       HT       0.417000       1.00800           0
      8098 W2       2700     TIP3     OH2      OT      -0.834000       15.9994           0
      8099 W2       2700     TIP3     H1       HT       0.417000       1.00800           0
      8100 W2       2700     TIP3     H2       HT       0.417000       1.00800           0
      8101 W2       2701     TIP3     OH2      OT      -0.834000       15.9994           0
      8102 W2       2701     TIP3     H1       HT       0.417000       1.00800           0
      8103 W2       2701     TIP3     H2       HT       0.417000       1.00800           0
      8104 W2       2702     TIP3     OH2      OT      -0.834000       15.9994           0
      8105 W2       2702     TIP3     H1       HT       0.417000       1.00800           0
      8106 W2       2702     TIP3     H2       HT       0.417000       1.00800           0
      8107 W2       2703     TIP3     OH2      OT      -0.834000       15.9994           0
      8108 W2       2703     TIP3     H1       HT       0.417000       1.00800           0
      8109 W2       2703     TIP3     H2       HT       0.417000       1.00800           0
      8110 W2       2704     TIP3     OH2      OT      -0.834000       15.9994           0
      8111 W2       2704     TIP3     H1       HT       0.417000       1.00800           0
      8112 W2       2704     TIP3     H2       HT       0.417000       1.00800           0
      8113 W2       2705     TIP3     OH2      OT      -0.834000       15.9994           0
      8114 W2       2705     TIP3     H1       HT       0.417000       1.00800           0
      8115 W2       2705     TIP3     H2       HT       0.417000       1.00800           0
      8116 W2       2706     TIP3     OH2      OT      -0.834000       15.9994           0
      8117 W2       2706     TIP3     H1       HT       0.417000       1.00800           0
      8118 W2       2706     TIP3     H2       HT       0.417000       1.00800           0
      8119 W2       2707     TIP3     OH2      OT      -0.834000       15.9994           0
      8120 W2       2707     TIP3     H1       HT       0.417000       1.00800           0
      8121 W2       2707     TIP3     H2       HT       0.417000       1.00800           0
      8122 W2       2708     TIP3     OH2      OT      -0.834000       15.9994           0
      8123 W2       2708     TIP3     H1       HT       0.417000       1.00800           0
      8124 W2       2708     TIP3     H2       HT       0.417000       1.00800           0
      8125 W2       2709     TIP3     OH2      OT      -0.834000       15.9994           0
      8126 W2       2709     TIP3     H1       HT       0.417000       1.00800           0
      8127 W2       2709     TIP3     H2       HT       0.417000       1.00800           0
      8128 W2       2710     TIP3     OH2      OT      -0.834000       15.9994           0
      8129 W2       2710     TIP3     H1       HT       0.417000       1.00800           0
      8130 W2       2710     TIP3     H2       HT       0.417000       1.00800           0
      8131 W2       2711     TIP3     OH2      OT      -0.834000       15.9994           0
      8132 W2       2711     TIP3     H1       HT       0.417000       1.00800           0
      8133 W2       2711     TIP3     H2       HT       0.417000       1.00800           0
      8134 W2       2712     TIP3     OH2      OT      -0.834000       15.9994           0
      8135 W2       2712     TIP3     H1       HT       0.417000       1.00800           0
      8136 W2       2712     TIP3     H2       HT       0.417000       1.00800           0
      8137 W2       2713     TIP3     OH2      OT      -0.834000       15.9994           0
      8138 W2       2713     TIP3     H1       HT       0.417000       1.00800           0
      8139 W2       2713     TIP3     H2       HT       0.417000       1.00800           0
      8140 W2       2714     TIP3     OH2      OT      -0.834000       15.9994           0
      8141 W2       2714     TIP3     H1       HT       0.417000       1.00800           0
      8142 W2       2714     TIP3     H2       HT       0.417000       1.00800           0
      8143 W2       2715     TIP3     OH2      OT      -0.834000       15.9994           0
      8144 W2       2715     TIP3     H1       HT       0.417000       1.00800           0
      8145 W2       2715     TIP3     H2       HT       0.417000       1.00800           0
      8146 W2       2716     TIP3     OH2      OT      -0.834000       15.9994           0
      8147 W2       2716     TIP3     H1       HT       0.417000       1.00800           0
      8148 W2       2716     TIP3     H2       HT       0.417000       1.00800           0
      8149 W2       2717     TIP3     OH2      OT      -0.834000       15.9994           0
      8150 W2       2717     TIP3     H1       HT       0.417000       1.00800           0
      8151 W2       2717     TIP3     H2       HT       0.417000       1.00800           0
      8152 W2       2718     TIP3     OH2      OT      -0.834000       15.9994           0
      8153 W2       2718     TIP3     H1       HT       0.417000       1.00800           0
      8154 W2       2718     TIP3     H2       HT       0.417000       1.00800           0
      8155 W2       2719     TIP3     OH2      OT      -0.834000       15.9994           0
      8156 W2       2719     TIP3     H1       HT       0.417000       1.00800           0
      8157 W2       2719     TIP3     H2       HT       0.417000       1.00800           0
      8158 W2       2720     TIP3     OH2      OT      -0.834000       15.9994           0
      8159 W2       2720     TIP3     H1       HT       0.417000       1.00800           0
      8160 W2       2720     TIP3     H2       HT       0.417000       1.00800           0
      8161 W2       2721     TIP3     OH2      OT      -0.834000       15.9994           0
      8162 W2       2721     TIP3     H1       HT       0.417000       1.00800           0
      8163 W2       2721     TIP3     H2       HT       0.417000       1.00800           0
      8164 W2       2722     TIP3     OH2      OT      -0.834000       15.9994           0
      8165 W2       2722     TIP3     H1       HT       0.417000       1.00800           0
      8166 W2       2722     TIP3     H2       HT       0.417000       1.00800           0
      8167 W2       2723     TIP3     OH2      OT      -0.834000       15.9994           0
      8168 W2       2723     TIP3     H1       HT       0.417000       1.00800           0
      8169 W2       2723     TIP3     H2       HT       0.417000       1.00800           0
      8170 W2       2724     TIP3     OH2      OT      -0.834000       15.9994           0
      8171 W2       2724     TIP3     H1       HT       0.417000       1.00800           0
      8172 W2       2724     TIP3     H2       HT       0.417000       1.00800           0
      8173 W2       2725     TIP3     OH2      OT      -0.834000       15.9994           0
      8174 W2       2725     TIP3     H1       HT       0.417000       1.00800           0
      8175 W2       2725     TIP3     H2       HT       0.417000       1.00800           0
      8176 W2       2726     TIP3     OH2      OT      -0.834000       15.9994           0
      8177 W2       2726     TIP3     H1       HT       0.417000       1.00800           0
      8178 W2       2726     TIP3     H2       HT       0.417000       1.00800           0
      8179 W2       2727     TIP3     OH2      OT      -0.834000       15.9994           0
      8180 W2       2727     TIP3     H1       HT       0.417000       1.00800           0
      8181 W2       2727     TIP3     H2       HT       0.417000       1.00800           0
      8182 W2       2728     TIP3     OH2      OT      -0.834000       15.9994           0
      8183 W2       2728     TIP3     H1       HT       0.417000       1.00800           0
      8184 W2       2728     TIP3     H2       HT       0.417000       1.00800           0
      8185 W2       2729     TIP3     OH2      OT      -0.834000       15.9994           0
      8186 W2       2729     TIP3     H1       HT       0.417000       1.00800           0
      8187 W2       2729     TIP3     H2       HT       0.417000       1.00800           0
      8188 W2       2730     TIP3     OH2      OT      -0.834000       15.9994           0
      8189 W2       2730     TIP3     H1       HT       0.417000       1.00800           0
      8190 W2       2730     TIP3     H2       HT       0.417000       1.00800           0
      8191 W2       2731     TIP3     OH2      OT      -0.834000       15.9994           0
      8192 W2       2731     TIP3     H1       HT       0.417000       1.00800           0
      8193 W2       2731     TIP3     H2       HT       0.417000       1.00800           0
      8194 W2       2732     TIP3     OH2      OT      -0.834000       15.9994           0
      8195 W2       2732     TIP3     H1       HT       0.417000       1.00800           0
      8196 W2       2732     TIP3     H2       HT       0.417000       1.00800           0
      8197 W2       2733     TIP3     OH2      OT      -0.834000       15.9994           0
      8198 W2       2733     TIP3     H1       HT       0.417000       1.00800           0
      8199 W2       2733     TIP3     H2       HT       0.417000       1.00800           0
      8200 W2       2734     TIP3     OH2      OT      -0.834000       15.9994           0
      8201 W2       2734     TIP3     H1       HT       0.417000       1.00800           0
      8202 W2       2734     TIP3     H2       HT       0.417000       1.00800           0
      8203 W2       2735     TIP3     OH2      OT      -0.834000       15.9994           0
      8204 W2       2735     TIP3     H1       HT       0.417000       1.00800           0
      8205 W2       2735     TIP3     H2       HT       0.417000       1.00800           0
      8206 W2       2736     TIP3     OH2      OT      -0.834000       15.9994           0
      8207 W2       2736     TIP3     H1       HT       0.417000       1.00800           0
      8208 W2       2736     TIP3     H2       HT       0.417000       1.00800           0
      8209 W2       2737     TIP3     OH2      OT      -0.834000       15.9994           0
      8210 W2       2737     TIP3     H1       HT       0.417000       1.00800           0
      8211 W2       2737     TIP3     H2       HT       0.417000       1.00800           0
      8212 W2       2738     TIP3     OH2      OT      -0.834000       15.9994           0
      8213 W2       2738     TIP3     H1       HT       0.417000       1.00800           0
      8214 W2       2738     TIP3     H2       HT       0.417000       1.00800           0
      8215 W2       2739     TIP3     OH2      OT      -0.834000       15.9994           0
      8216 W2       2739     TIP3     H1       HT       0.417000       1.00800           0
      8217 W2       2739     TIP3     H2       HT       0.417000       1.00800           0
      8218 W2       2740     TIP3     OH2      OT      -0.834000       15.9994           0
      8219 W2       2740     TIP3     H1       HT       0.417000       1.00800           0
      8220 W2       2740     TIP3     H2       HT       0.417000       1.00800           0
      8221 W2       2741     TIP3     OH2      OT      -0.834000       15.9994           0
      8222 W2       2741     TIP3     H1       HT       0.417000       1.00800           0
      8223 W2       2741     TIP3     H2       HT       0.417000       1.00800           0
      8224 W2       2742     TIP3     OH2      OT      -0.834000       15.9994           0
      8225 W2       2742     TIP3     H1       HT       0.417000       1.00800           0
      8226 W2       2742     TIP3     H2       HT       0.417000       1.00800           0
      8227 W2       2743     TIP3     OH2      OT      -0.834000       15.9994           0
      8228 W2       2743     TIP3     H1       HT       0.417000       1.00800           0
      8229 W2       2743     TIP3     H2       HT       0.417000       1.00800           0
      8230 W2       2744     TIP3     OH2      OT      -0.834000       15.9994           0
      8231 W2       2744     TIP3     H1       HT       0.417000       1.00800           0
      8232 W2       2744     TIP3     H2       HT       0.417000       1.00800           0
      8233 W2       2745     TIP3     OH2      OT      -0.834000       15.9994           0
      8234 W2       2745     TIP3     H1       HT       0.417000       1.00800           0
      8235 W2       2745     TIP3     H2       HT       0.417000       1.00800           0
      8236 W2       2746     TIP3     OH2      OT      -0.834000       15.9994           0
      8237 W2       2746     TIP3     H1       HT       0.417000       1.00800           0
      8238 W2       2746     TIP3     H2       HT       0.417000       1.00800           0
      8239 W2       2747     TIP3     OH2      OT      -0.834000       15.9994           0
      8240 W2       2747     TIP3     H1       HT       0.417000       1.00800           0
      8241 W2       2747     TIP3     H2       HT       0.417000       1.00800           0
      8242 W2       2748     TIP3     OH2      OT      -0.834000       15.9994           0
      8243 W2       2748     TIP3     H1       HT       0.417000       1.00800           0
      8244 W2       2748     TIP3     H2       HT       0.417000       1.00800           0
      8245 W2       2749     TIP3     OH2      OT      -0.834000       15.9994           0
      8246 W2       2749     TIP3     H1       HT       0.417000       1.00800           0
      8247 W2       2749     TIP3     H2       HT       0.417000       1.00800           0
      8248 W2       2750     TIP3     OH2      OT      -0.834000       15.9994           0
      8249 W2       2750     TIP3     H1       HT       0.417000       1.00800           0
      8250 W2       2750     TIP3     H2       HT       0.417000       1.00800           0
      8251 W2       2751     TIP3     OH2      OT      -0.834000       15.9994           0
      8252 W2       2751     TIP3     H1       HT       0.417000       1.00800           0
      8253 W2       2751     TIP3     H2       HT       0.417000       1.00800           0
      8254 W2       2752     TIP3     OH2      OT      -0.834000       15.9994           0
      8255 W2       2752     TIP3     H1       HT       0.417000       1.00800           0
      8256 W2       2752     TIP3     H2       HT       0.417000       1.00800           0
      8257 W2       2753     TIP3     OH2      OT      -0.834000       15.9994           0
      8258 W2       2753     TIP3     H1       HT       0.417000       1.00800           0
      8259 W2       2753     TIP3     H2       HT       0.417000       1.00800           0
      8260 W2       2754     TIP3     OH2      OT      -0.834000       15.9994           0
      8261 W2       2754     TIP3     H1       HT       0.417000       1.00800           0
      8262 W2       2754     TIP3     H2       HT       0.417000       1.00800           0
      8263 W2       2755     TIP3     OH2      OT      -0.834000       15.9994           0
      8264 W2       2755     TIP3     H1       HT       0.417000       1.00800           0
      8265 W2       2755     TIP3     H2       HT       0.417000       1.00800           0
      8266 W2       2756     TIP3     OH2      OT      -0.834000       15.9994           0
      8267 W2       2756     TIP3     H1       HT       0.417000       1.00800           0
      8268 W2       2756     TIP3     H2       HT       0.417000       1.00800           0
      8269 W2       2757     TIP3     OH2      OT      -0.834000       15.9994           0
      8270 W2       2757     TIP3     H1       HT       0.417000       1.00800           0
      8271 W2       2757     TIP3     H2       HT       0.417000       1.00800           0
      8272 W2       2758     TIP3     OH2      OT      -0.834000       15.9994           0
      8273 W2       2758     TIP3     H1       HT       0.417000       1.00800           0
      8274 W2       2758     TIP3     H2       HT       0.417000       1.00800           0
      8275 W2       2759     TIP3     OH2      OT      -0.834000       15.9994           0
      8276 W2       2759     TIP3     H1       HT       0.417000       1.00800           0
      8277 W2       2759     TIP3     H2       HT       0.417000       1.00800           0
      8278 W2       2760     TIP3     OH2      OT      -0.834000       15.9994           0
      8279 W2       2760     TIP3     H1       HT       0.417000       1.00800           0
      8280 W2       2760     TIP3     H2       HT       0.417000       1.00800           0
      8281 W2       2761     TIP3     OH2      OT      -0.834000       15.9994           0
      8282 W2       2761     TIP3     H1       HT       0.417000       1.00800           0
      8283 W2       2761     TIP3     H2       HT       0.417000       1.00800           0
      8284 W2       2762     TIP3     OH2      OT      -0.834000       15.9994           0
      8285 W2       2762     TIP3     H1       HT       0.417000       1.00800           0
      8286 W2       2762     TIP3     H2       HT       0.417000       1.00800           0
      8287 W2       2763     TIP3     OH2      OT      -0.834000       15.9994           0
      8288 W2       2763     TIP3     H1       HT       0.417000       1.00800           0
      8289 W2       2763     TIP3     H2       HT       0.417000       1.00800           0
      8290 W2       2764     TIP3     OH2      OT      -0.834000       15.9994           0
      8291 W2       2764     TIP3     H1       HT       0.417000       1.00800           0
      8292 W2       2764     TIP3     H2       HT       0.417000       1.00800           0
      8293 W2       2765     TIP3     OH2      OT      -0.834000       15.9994           0
      8294 W2       2765     TIP3     H1       HT       0.417000       1.00800           0
      8295 W2       2765     TIP3     H2       HT       0.417000       1.00800           0
      8296 W2       2766     TIP3     OH2      OT      -0.834000       15.9994           0
      8297 W2       2766     TIP3     H1       HT       0.417000       1.00800           0
      8298 W2       2766     TIP3     H2       HT       0.417000       1.00800           0
      8299 W2       2767     TIP3     OH2      OT      -0.834000       15.9994           0
      8300 W2       2767     TIP3     H1       HT       0.417000       1.00800           0
      8301 W2       2767     TIP3     H2       HT       0.417000       1.00800           0
      8302 W2       2768     TIP3     OH2      OT      -0.834000       15.9994           0
      8303 W2       2768     TIP3     H1       HT       0.417000       1.00800           0
      8304 W2       2768     TIP3     H2       HT       0.417000       1.00800           0
      8305 W2       2769     TIP3     OH2      OT      -0.834000       15.9994           0
      8306 W2       2769     TIP3     H1       HT       0.417000       1.00800           0
      8307 W2       2769     TIP3     H2       HT       0.417000       1.00800           0
      8308 W2       2770     TIP3     OH2      OT      -0.834000       15.9994           0
      8309 W2       2770     TIP3     H1       HT       0.417000       1.00800           0
      8310 W2       2770     TIP3     H2       HT       0.417000       1.00800           0
      8311 W2       2771     TIP3     OH2      OT      -0.834000       15.9994           0
      8312 W2       2771     TIP3     H1       HT       0.417000       1.00800           0
      8313 W2       2771     TIP3     H2       HT       0.417000       1.00800           0
      8314 W2       2772     TIP3     OH2      OT      -0.834000       15.9994           0
      8315 W2       2772     TIP3     H1       HT       0.417000       1.00800           0
      8316 W2       2772     TIP3     H2       HT       0.417000       1.00800           0
      8317 W2       2773     TIP3     OH2      OT      -0.834000       15.9994           0
      8318 W2       2773     TIP3     H1       HT       0.417000       1.00800           0
      8319 W2       2773     TIP3     H2       HT       0.417000       1.00800           0
      8320 W2       2774     TIP3     OH2      OT      -0.834000       15.9994           0
      8321 W2       2774     TIP3     H1       HT       0.417000       1.00800           0
      8322 W2       2774     TIP3     H2       HT       0.417000       1.00800           0
      8323 W2       2775     TIP3     OH2      OT      -0.834000       15.9994           0
      8324 W2       2775     TIP3     H1       HT       0.417000       1.00800           0
      8325 W2       2775     TIP3     H2       HT       0.417000       1.00800           0
      8326 W2       2776     TIP3     OH2      OT      -0.834000       15.9994           0
      8327 W2       2776     TIP3     H1       HT       0.417000       1.00800           0
      8328 W2       2776     TIP3     H2       HT       0.417000       1.00800           0
      8329 W2       2777     TIP3     OH2      OT      -0.834000       15.9994           0
      8330 W2       2777     TIP3     H1       HT       0.417000       1.00800           0
      8331 W2       2777     TIP3     H2       HT       0.417000       1.00800           0
      8332 W2       2778     TIP3     OH2      OT      -0.834000       15.9994           0
      8333 W2       2778     TIP3     H1       HT       0.417000       1.00800           0
      8334 W2       2778     TIP3     H2       HT       0.417000       1.00800           0
      8335 W2       2779     TIP3     OH2      OT      -0.834000       15.9994           0
      8336 W2       2779     TIP3     H1       HT       0.417000       1.00800           0
      8337 W2       2779     TIP3     H2       HT       0.417000       1.00800           0
      8338 W2       2780     TIP3     OH2      OT      -0.834000       15.9994           0
      8339 W2       2780     TIP3     H1       HT       0.417000       1.00800           0
      8340 W2       2780     TIP3     H2       HT       0.417000       1.00800           0
      8341 W2       2781     TIP3     OH2      OT      -0.834000       15.9994           0
      8342 W2       2781     TIP3     H1       HT       0.417000       1.00800           0
      8343 W2       2781     TIP3     H2       HT       0.417000       1.00800           0
      8344 W2       2782     TIP3     OH2      OT      -0.834000       15.9994           0
      8345 W2       2782     TIP3     H1       HT       0.417000       1.00800           0
      8346 W2       2782     TIP3     H2       HT       0.417000       1.00800           0
      8347 W2       2783     TIP3     OH2      OT      -0.834000       15.9994           0
      8348 W2       2783     TIP3     H1       HT       0.417000       1.00800           0
      8349 W2       2783     TIP3     H2       HT       0.417000       1.00800           0
      8350 W2       2784     TIP3     OH2      OT      -0.834000       15.9994           0
      8351 W2       2784     TIP3     H1       HT       0.417000       1.00800           0
      8352 W2       2784     TIP3     H2       HT       0.417000       1.00800           0
      8353 W2       2785     TIP3     OH2      OT      -0.834000       15.9994           0
      8354 W2       2785     TIP3     H1       HT       0.417000       1.00800           0
      8355 W2       2785     TIP3     H2       HT       0.417000       1.00800           0
      8356 W2       2786     TIP3     OH2      OT      -0.834000       15.9994           0
      8357 W2       2786     TIP3     H1       HT       0.417000       1.00800           0
      8358 W2       2786     TIP3     H2       HT       0.417000       1.00800           0
      8359 W2       2787     TIP3     OH2      OT      -0.834000       15.9994           0
      8360 W2       2787     TIP3     H1       HT       0.417000       1.00800           0
      8361 W2       2787     TIP3     H2       HT       0.417000       1.00800           0
      8362 W2       2788     TIP3     OH2      OT      -0.834000       15.9994           0
      8363 W2       2788     TIP3     H1       HT       0.417000       1.00800           0
      8364 W2       2788     TIP3     H2       HT       0.417000       1.00800           0
      8365 W2       2789     TIP3     OH2      OT      -0.834000       15.9994           0
      8366 W2       2789     TIP3     H1       HT       0.417000       1.00800           0
      8367 W2       2789     TIP3     H2       HT       0.417000       1.00800           0
      8368 W2       2790     TIP3     OH2      OT      -0.834000       15.9994           0
      8369 W2       2790     TIP3     H1       HT       0.417000       1.00800           0
      8370 W2       2790     TIP3     H2       HT       0.417000       1.00800           0
      8371 W2       2791     TIP3     OH2      OT      -0.834000       15.9994           0
      8372 W2       2791     TIP3     H1       HT       0.417000       1.00800           0
      8373 W2       2791     TIP3     H2       HT       0.417000       1.00800           0
      8374 W2       2792     TIP3     OH2      OT      -0.834000       15.9994           0
      8375 W2       2792     TIP3     H1       HT       0.417000       1.00800           0
      8376 W2       2792     TIP3     H2       HT       0.417000       1.00800           0
      8377 W2       2793     TIP3     OH2      OT      -0.834000       15.9994           0
      8378 W2       2793     TIP3     H1       HT       0.417000       1.00800           0
      8379 W2       2793     TIP3     H2       HT       0.417000       1.00800           0
      8380 W2       2794     TIP3     OH2      OT      -0.834000       15.9994           0
      8381 W2       2794     TIP3     H1       HT       0.417000       1.00800           0
      8382 W2       2794     TIP3     H2       HT       0.417000       1.00800           0
      8383 W2       2795     TIP3     OH2      OT      -0.834000       15.9994           0
      8384 W2       2795     TIP3     H1       HT       0.417000       1.00800           0
      8385 W2       2795     TIP3     H2       HT       0.417000       1.00800           0
      8386 W2       2796     TIP3     OH2      OT      -0.834000       15.9994           0
      8387 W2       2796     TIP3     H1       HT       0.417000       1.00800           0
      8388 W2       2796     TIP3     H2       HT       0.417000       1.00800           0
      8389 W2       2797     TIP3     OH2      OT      -0.834000       15.9994           0
      8390 W2       2797     TIP3     H1       HT       0.417000       1.00800           0
      8391 W2       2797     TIP3     H2       HT       0.417000       1.00800           0
      8392 W2       2798     TIP3     OH2      OT      -0.834000       15.9994           0
      8393 W2       2798     TIP3     H1       HT       0.417000       1.00800           0
      8394 W2       2798     TIP3     H2       HT       0.417000       1.00800           0
      8395 W2       2799     TIP3     OH2      OT      -0.834000       15.9994           0
      8396 W2       2799     TIP3     H1       HT       0.417000       1.00800           0
      8397 W2       2799     TIP3     H2       HT       0.417000       1.00800           0
      8398 W2       2800     TIP3     OH2      OT      -0.834000       15.9994           0
      8399 W2       2800     TIP3     H1       HT       0.417000       1.00800           0
      8400 W2       2800     TIP3     H2       HT       0.417000       1.00800           0
      8401 W2       2801     TIP3     OH2      OT      -0.834000       15.9994           0
      8402 W2       2801     TIP3     H1       HT       0.417000       1.00800           0
      8403 W2       2801     TIP3     H2       HT       0.417000       1.00800           0
      8404 W2       2802     TIP3     OH2      OT      -0.834000       15.9994           0
      8405 W2       2802     TIP3     H1       HT       0.417000       1.00800           0
      8406 W2       2802     TIP3     H2       HT       0.417000       1.00800           0
      8407 W2       2803     TIP3     OH2      OT      -0.834000       15.9994           0
      8408 W2       2803     TIP3     H1       HT       0.417000       1.00800           0
      8409 W2       2803     TIP3     H2       HT       0.417000       1.00800           0
      8410 W2       2804     TIP3     OH2      OT      -0.834000       15.9994           0
      8411 W2       2804     TIP3     H1       HT       0.417000       1.00800           0
      8412 W2       2804     TIP3     H2       HT       0.417000       1.00800           0
      8413 W2       2805     TIP3     OH2      OT      -0.834000       15.9994           0
      8414 W2       2805     TIP3     H1       HT       0.417000       1.00800           0
      8415 W2       2805     TIP3     H2       HT       0.417000       1.00800           0
      8416 W2       2806     TIP3     OH2      OT      -0.834000       15.9994           0
      8417 W2       2806     TIP3     H1       HT       0.417000       1.00800           0
      8418 W2       2806     TIP3     H2       HT       0.417000       1.00800           0
      8419 W2       2807     TIP3     OH2      OT      -0.834000       15.9994           0
      8420 W2       2807     TIP3     H1       HT       0.417000       1.00800           0
      8421 W2       2807     TIP3     H2       HT       0.417000       1.00800           0
      8422 W2       2808     TIP3     OH2      OT      -0.834000       15.9994           0
      8423 W2       2808     TIP3     H1       HT       0.417000       1.00800           0
      8424 W2       2808     TIP3     H2       HT       0.417000       1.00800           0
      8425 W2       2809     TIP3     OH2      OT      -0.834000       15.9994           0
      8426 W2       2809     TIP3     H1       HT       0.417000       1.00800           0
      8427 W2       2809     TIP3     H2       HT       0.417000       1.00800           0
      8428 W2       2810     TIP3     OH2      OT      -0.834000       15.9994           0
      8429 W2       2810     TIP3     H1       HT       0.417000       1.00800           0
      8430 W2       2810     TIP3     H2       HT       0.417000       1.00800           0
      8431 W2       2811     TIP3     OH2      OT      -0.834000       15.9994           0
      8432 W2       2811     TIP3     H1       HT       0.417000       1.00800           0
      8433 W2       2811     TIP3     H2       HT       0.417000       1.00800           0
      8434 W2       2812     TIP3     OH2      OT      -0.834000       15.9994           0
      8435 W2       2812     TIP3     H1       HT       0.417000       1.00800           0
      8436 W2       2812     TIP3     H2       HT       0.417000       1.00800           0
      8437 W2       2813     TIP3     OH2      OT      -0.834000       15.9994           0
      8438 W2       2813     TIP3     H1       HT       0.417000       1.00800           0
      8439 W2       2813     TIP3     H2       HT       0.417000       1.00800           0
      8440 W2       2814     TIP3     OH2      OT      -0.834000       15.9994           0
      8441 W2       2814     TIP3     H1       HT       0.417000       1.00800           0
      8442 W2       2814     TIP3     H2       HT       0.417000       1.00800           0
      8443 W2       2815     TIP3     OH2      OT      -0.834000       15.9994           0
      8444 W2       2815     TIP3     H1       HT       0.417000       1.00800           0
      8445 W2       2815     TIP3     H2       HT       0.417000       1.00800           0
      8446 W2       2816     TIP3     OH2      OT      -0.834000       15.9994           0
      8447 W2       2816     TIP3     H1       HT       0.417000       1.00800           0
      8448 W2       2816     TIP3     H2       HT       0.417000       1.00800           0
      8449 W2       2817     TIP3     OH2      OT      -0.834000       15.9994           0
      8450 W2       2817     TIP3     H1       HT       0.417000       1.00800           0
      8451 W2       2817     TIP3     H2       HT       0.417000       1.00800           0
      8452 W2       2818     TIP3     OH2      OT      -0.834000       15.9994           0
      8453 W2       2818     TIP3     H1       HT       0.417000       1.00800           0
      8454 W2       2818     TIP3     H2       HT       0.417000       1.00800           0
      8455 W2       2819     TIP3     OH2      OT      -0.834000       15.9994           0
      8456 W2       2819     TIP3     H1       HT       0.417000       1.00800           0
      8457 W2       2819     TIP3     H2       HT       0.417000       1.00800           0
      8458 W2       2820     TIP3     OH2      OT      -0.834000       15.9994           0
      8459 W2       2820     TIP3     H1       HT       0.417000       1.00800           0
      8460 W2       2820     TIP3     H2       HT       0.417000       1.00800           0
      8461 W2       2821     TIP3     OH2      OT      -0.834000       15.9994           0
      8462 W2       2821     TIP3     H1       HT       0.417000       1.00800           0
      8463 W2       2821     TIP3     H2       HT       0.417000       1.00800           0
      8464 W2       2822     TIP3     OH2      OT      -0.834000       15.9994           0
      8465 W2       2822     TIP3     H1       HT       0.417000       1.00800           0
      8466 W2       2822     TIP3     H2       HT       0.417000       1.00800           0
      8467 W2       2823     TIP3     OH2      OT      -0.834000       15.9994           0
      8468 W2       2823     TIP3     H1       HT       0.417000       1.00800           0
      8469 W2       2823     TIP3     H2       HT       0.417000       1.00800           0
      8470 W2       2824     TIP3     OH2      OT      -0.834000       15.9994           0
      8471 W2       2824     TIP3     H1       HT       0.417000       1.00800           0
      8472 W2       2824     TIP3     H2       HT       0.417000       1.00800           0
      8473 W2       2825     TIP3     OH2      OT      -0.834000       15.9994           0
      8474 W2       2825     TIP3     H1       HT       0.417000       1.00800           0
      8475 W2       2825     TIP3     H2       HT       0.417000       1.00800           0
      8476 W2       2826     TIP3     OH2      OT      -0.834000       15.9994           0
      8477 W2       2826     TIP3     H1       HT       0.417000       1.00800           0
      8478 W2       2826     TIP3     H2       HT       0.417000       1.00800           0
      8479 W2       2827     TIP3     OH2      OT      -0.834000       15.9994           0
      8480 W2       2827     TIP3     H1       HT       0.417000       1.00800           0
      8481 W2       2827     TIP3     H2       HT       0.417000       1.00800           0
      8482 W2       2828     TIP3     OH2      OT      -0.834000       15.9994           0
      8483 W2       2828     TIP3     H1       HT       0.417000       1.00800           0
      8484 W2       2828     TIP3     H2       HT       0.417000       1.00800           0
      8485 W2       2829     TIP3     OH2      OT      -0.834000       15.9994           0
      8486 W2       2829     TIP3     H1       HT       0.417000       1.00800           0
      8487 W2       2829     TIP3     H2       HT       0.417000       1.00800           0
      8488 W2       2830     TIP3     OH2      OT      -0.834000       15.9994           0
      8489 W2       2830     TIP3     H1       HT       0.417000       1.00800           0
      8490 W2       2830     TIP3     H2       HT       0.417000       1.00800           0
      8491 W2       2831     TIP3     OH2      OT      -0.834000       15.9994           0
      8492 W2       2831     TIP3     H1       HT       0.417000       1.00800           0
      8493 W2       2831     TIP3     H2       HT       0.417000       1.00800           0
      8494 W2       2832     TIP3     OH2      OT      -0.834000       15.9994           0
      8495 W2       2832     TIP3     H1       HT       0.417000       1.00800           0
      8496 W2       2832     TIP3     H2       HT       0.417000       1.00800           0
      8497 W2       2833     TIP3     OH2      OT      -0.834000       15.9994           0
      8498 W2       2833     TIP3     H1       HT       0.417000       1.00800           0
      8499 W2       2833     TIP3     H2       HT       0.417000       1.00800           0
      8500 W2       2834     TIP3     OH2      OT      -0.834000       15.9994           0
      8501 W2       2834     TIP3     H1       HT       0.417000       1.00800           0
      8502 W2       2834     TIP3     H2       HT       0.417000       1.00800           0
      8503 W2       2835     TIP3     OH2      OT      -0.834000       15.9994           0
      8504 W2       2835     TIP3     H1       HT       0.417000       1.00800           0
      8505 W2       2835     TIP3     H2       HT       0.417000       1.00800           0
      8506 W2       2836     TIP3     OH2      OT      -0.834000       15.9994           0
      8507 W2       2836     TIP3     H1       HT       0.417000       1.00800           0
      8508 W2       2836     TIP3     H2       HT       0.417000       1.00800           0
      8509 W2       2837     TIP3     OH2      OT      -0.834000       15.9994           0
      8510 W2       2837     TIP3     H1       HT       0.417000       1.00800           0
      8511 W2       2837     TIP3     H2       HT       0.417000       1.00800           0
      8512 W2       2838     TIP3     OH2      OT      -0.834000       15.9994           0
      8513 W2       2838     TIP3     H1       HT       0.417000       1.00800           0
      8514 W2       2838     TIP3     H2       HT       0.417000       1.00800           0
      8515 W2       2839     TIP3     OH2      OT      -0.834000       15.9994           0
      8516 W2       2839     TIP3     H1       HT       0.417000       1.00800           0
      8517 W2       2839     TIP3     H2       HT       0.417000       1.00800           0
      8518 W2       2840     TIP3     OH2      OT      -0.834000       15.9994           0
      8519 W2       2840     TIP3     H1       HT       0.417000       1.00800           0
      8520 W2       2840     TIP3     H2       HT       0.417000       1.00800           0
      8521 W2       2841     TIP3     OH2      OT      -0.834000       15.9994           0
      8522 W2       2841     TIP3     H1       HT       0.417000       1.00800           0
      8523 W2       2841     TIP3     H2       HT       0.417000       1.00800           0
      8524 W2       2842     TIP3     OH2      OT      -0.834000       15.9994           0
      8525 W2       2842     TIP3     H1       HT       0.417000       1.00800           0
      8526 W2       2842     TIP3     H2       HT       0.417000       1.00800           0
      8527 W2       2843     TIP3     OH2      OT      -0.834000       15.9994           0
      8528 W2       2843     TIP3     H1       HT       0.417000       1.00800           0
      8529 W2       2843     TIP3     H2       HT       0.417000       1.00800           0
      8530 W2       2844     TIP3     OH2      OT      -0.834000       15.9994           0
      8531 W2       2844     TIP3     H1       HT       0.417000       1.00800           0
      8532 W2       2844     TIP3     H2       HT       0.417000       1.00800           0
      8533 W2       2845     TIP3     OH2      OT      -0.834000       15.9994           0
      8534 W2       2845     TIP3     H1       HT       0.417000       1.00800           0
      8535 W2       2845     TIP3     H2       HT       0.417000       1.00800           0
      8536 W2       2846     TIP3     OH2      OT      -0.834000       15.9994           0
      8537 W2       2846     TIP3     H1       HT       0.417000       1.00800           0
      8538 W2       2846     TIP3     H2       HT       0.417000       1.00800           0
      8539 W2       2847     TIP3     OH2      OT      -0.834000       15.9994           0
      8540 W2       2847     TIP3     H1       HT       0.417000       1.00800           0
      8541 W2       2847     TIP3     H2       HT       0.417000       1.00800           0
      8542 W2       2848     TIP3     OH2      OT      -0.834000       15.9994           0
      8543 W2       2848     TIP3     H1       HT       0.417000       1.00800           0
      8544 W2       2848     TIP3     H2       HT       0.417000       1.00800           0
      8545 W2       2849     TIP3     OH2      OT      -0.834000       15.9994           0
      8546 W2       2849     TIP3     H1       HT       0.417000       1.00800           0
      8547 W2       2849     TIP3     H2       HT       0.417000       1.00800           0
      8548 W2       2850     TIP3     OH2      OT      -0.834000       15.9994           0
      8549 W2       2850     TIP3     H1       HT       0.417000       1.00800           0
      8550 W2       2850     TIP3     H2       HT       0.417000       1.00800           0
      8551 W2       2851     TIP3     OH2      OT      -0.834000       15.9994           0
      8552 W2       2851     TIP3     H1       HT       0.417000       1.00800           0
      8553 W2       2851     TIP3     H2       HT       0.417000       1.00800           0
      8554 W2       2852     TIP3     OH2      OT      -0.834000       15.9994           0
      8555 W2       2852     TIP3     H1       HT       0.417000       1.00800           0
      8556 W2       2852     TIP3     H2       HT       0.417000       1.00800           0
      8557 W2       2853     TIP3     OH2      OT      -0.834000       15.9994           0
      8558 W2       2853     TIP3     H1       HT       0.417000       1.00800           0
      8559 W2       2853     TIP3     H2       HT       0.417000       1.00800           0
      8560 W2       2854     TIP3     OH2      OT      -0.834000       15.9994           0
      8561 W2       2854     TIP3     H1       HT       0.417000       1.00800           0
      8562 W2       2854     TIP3     H2       HT       0.417000       1.00800           0
      8563 W2       2855     TIP3     OH2      OT      -0.834000       15.9994           0
      8564 W2       2855     TIP3     H1       HT       0.417000       1.00800           0
      8565 W2       2855     TIP3     H2       HT       0.417000       1.00800           0
      8566 W2       2856     TIP3     OH2      OT      -0.834000       15.9994           0
      8567 W2       2856     TIP3     H1       HT       0.417000       1.00800           0
      8568 W2       2856     TIP3     H2       HT       0.417000       1.00800           0
      8569 W2       2857     TIP3     OH2      OT      -0.834000       15.9994           0
      8570 W2       2857     TIP3     H1       HT       0.417000       1.00800           0
      8571 W2       2857     TIP3     H2       HT       0.417000       1.00800           0
      8572 W2       2858     TIP3     OH2      OT      -0.834000       15.9994           0
      8573 W2       2858     TIP3     H1       HT       0.417000       1.00800           0
      8574 W2       2858     TIP3     H2       HT       0.417000       1.00800           0
      8575 W2       2859     TIP3     OH2      OT      -0.834000       15.9994           0
      8576 W2       2859     TIP3     H1       HT       0.417000       1.00800           0
      8577 W2       2859     TIP3     H2       HT       0.417000       1.00800           0
      8578 W2       2860     TIP3     OH2      OT      -0.834000       15.9994           0
      8579 W2       2860     TIP3     H1       HT       0.417000       1.00800           0
      8580 W2       2860     TIP3     H2       HT       0.417000       1.00800           0
      8581 W2       2861     TIP3     OH2      OT      -0.834000       15.9994           0
      8582 W2       2861     TIP3     H1       HT       0.417000       1.00800           0
      8583 W2       2861     TIP3     H2       HT       0.417000       1.00800           0
      8584 W2       2862     TIP3     OH2      OT      -0.834000       15.9994           0
      8585 W2       2862     TIP3     H1       HT       0.417000       1.00800           0
      8586 W2       2862     TIP3     H2       HT       0.417000       1.00800           0
      8587 W2       2863     TIP3     OH2      OT      -0.834000       15.9994           0
      8588 W2       2863     TIP3     H1       HT       0.417000       1.00800           0
      8589 W2       2863     TIP3     H2       HT       0.417000       1.00800           0
      8590 W2       2864     TIP3     OH2      OT      -0.834000       15.9994           0
      8591 W2       2864     TIP3     H1       HT       0.417000       1.00800           0
      8592 W2       2864     TIP3     H2       HT       0.417000       1.00800           0
      8593 W2       2865     TIP3     OH2      OT      -0.834000       15.9994           0
      8594 W2       2865     TIP3     H1       HT       0.417000       1.00800           0
      8595 W2       2865     TIP3     H2       HT       0.417000       1.00800           0
      8596 W2       2866     TIP3     OH2      OT      -0.834000       15.9994           0
      8597 W2       2866     TIP3     H1       HT       0.417000       1.00800           0
      8598 W2       2866     TIP3     H2       HT       0.417000       1.00800           0
      8599 W2       2867     TIP3     OH2      OT      -0.834000       15.9994           0
      8600 W2       2867     TIP3     H1       HT       0.417000       1.00800           0
      8601 W2       2867     TIP3     H2       HT       0.417000       1.00800           0
      8602 W2       2868     TIP3     OH2      OT      -0.834000       15.9994           0
      8603 W2       2868     TIP3     H1       HT       0.417000       1.00800           0
      8604 W2       2868     TIP3     H2       HT       0.417000       1.00800           0
      8605 W2       2869     TIP3     OH2      OT      -0.834000       15.9994           0
      8606 W2       2869     TIP3     H1       HT       0.417000       1.00800           0
      8607 W2       2869     TIP3     H2       HT       0.417000       1.00800           0
      8608 W2       2870     TIP3     OH2      OT      -0.834000       15.9994           0
      8609 W2       2870     TIP3     H1       HT       0.417000       1.00800           0
      8610 W2       2870     TIP3     H2       HT       0.417000       1.00800           0
      8611 W2       2871     TIP3     OH2      OT      -0.834000       15.9994           0
      8612 W2       2871     TIP3     H1       HT       0.417000       1.00800           0
      8613 W2       2871     TIP3     H2       HT       0.417000       1.00800           0
      8614 W2       2872     TIP3     OH2      OT      -0.834000       15.9994           0
      8615 W2       2872     TIP3     H1       HT       0.417000       1.00800           0
      8616 W2       2872     TIP3     H2       HT       0.417000       1.00800           0
      8617 W2       2873     TIP3     OH2      OT      -0.834000       15.9994           0
      8618 W2       2873     TIP3     H1       HT       0.417000       1.00800           0
      8619 W2       2873     TIP3     H2       HT       0.417000       1.00800           0
      8620 W2       2874     TIP3     OH2      OT      -0.834000       15.9994           0
      8621 W2       2874     TIP3     H1       HT       0.417000       1.00800           0
      8622 W2       2874     TIP3     H2       HT       0.417000       1.00800           0
      8623 W2       2875     TIP3     OH2      OT      -0.834000       15.9994           0
      8624 W2       2875     TIP3     H1       HT       0.417000       1.00800           0
      8625 W2       2875     TIP3     H2       HT       0.417000       1.00800           0
      8626 W2       2876     TIP3     OH2      OT      -0.834000       15.9994           0
      8627 W2       2876     TIP3     H1       HT       0.417000       1.00800           0
      8628 W2       2876     TIP3     H2       HT       0.417000       1.00800           0
      8629 W2       2877     TIP3     OH2      OT      -0.834000       15.9994           0
      8630 W2       2877     TIP3     H1       HT       0.417000       1.00800           0
      8631 W2       2877     TIP3     H2       HT       0.417000       1.00800           0
      8632 W2       2878     TIP3     OH2      OT      -0.834000       15.9994           0
      8633 W2       2878     TIP3     H1       HT       0.417000       1.00800           0
      8634 W2       2878     TIP3     H2       HT       0.417000       1.00800           0
      8635 W2       2879     TIP3     OH2      OT      -0.834000       15.9994           0
      8636 W2       2879     TIP3     H1       HT       0.417000       1.00800           0
      8637 W2       2879     TIP3     H2       HT       0.417000       1.00800           0
      8638 W2       2880     TIP3     OH2      OT      -0.834000       15.9994           0
      8639 W2       2880     TIP3     H1       HT       0.417000       1.00800           0
      8640 W2       2880     TIP3     H2       HT       0.417000       1.00800           0
      8641 W2       2881     TIP3     OH2      OT      -0.834000       15.9994           0
      8642 W2       2881     TIP3     H1       HT       0.417000       1.00800           0
      8643 W2       2881     TIP3     H2       HT       0.417000       1.00800           0
      8644 W2       2882     TIP3     OH2      OT      -0.834000       15.9994           0
      8645 W2       2882     TIP3     H1       HT       0.417000       1.00800           0
      8646 W2       2882     TIP3     H2       HT       0.417000       1.00800           0
      8647 W2       2883     TIP3     OH2      OT      -0.834000       15.9994           0
      8648 W2       2883     TIP3     H1       HT       0.417000       1.00800           0
      8649 W2       2883     TIP3     H2       HT       0.417000       1.00800           0
      8650 W2       2884     TIP3     OH2      OT      -0.834000       15.9994           0
      8651 W2       2884     TIP3     H1       HT       0.417000       1.00800           0
      8652 W2       2884     TIP3     H2       HT       0.417000       1.00800           0
      8653 W2       2885     TIP3     OH2      OT      -0.834000       15.9994           0
      8654 W2       2885     TIP3     H1       HT       0.417000       1.00800           0
      8655 W2       2885     TIP3     H2       HT       0.417000       1.00800           0
      8656 W2       2886     TIP3     OH2      OT      -0.834000       15.9994           0
      8657 W2       2886     TIP3     H1       HT       0.417000       1.00800           0
      8658 W2       2886     TIP3     H2       HT       0.417000       1.00800           0
      8659 W2       2887     TIP3     OH2      OT      -0.834000       15.9994           0
      8660 W2       2887     TIP3     H1       HT       0.417000       1.00800           0
      8661 W2       2887     TIP3     H2       HT       0.417000       1.00800           0
      8662 W2       2888     TIP3     OH2      OT      -0.834000       15.9994           0
      8663 W2       2888     TIP3     H1       HT       0.417000       1.00800           0
      8664 W2       2888     TIP3     H2       HT       0.417000       1.00800           0
      8665 W2       2889     TIP3     OH2      OT      -0.834000       15.9994           0
      8666 W2       2889     TIP3     H1       HT       0.417000       1.00800           0
      8667 W2       2889     TIP3     H2       HT       0.417000       1.00800           0
      8668 W2       2890     TIP3     OH2      OT      -0.834000       15.9994           0
      8669 W2       2890     TIP3     H1       HT       0.417000       1.00800           0
      8670 W2       2890     TIP3     H2       HT       0.417000       1.00800           0
      8671 W2       2891     TIP3     OH2      OT      -0.834000       15.9994           0
      8672 W2       2891     TIP3     H1       HT       0.417000       1.00800           0
      8673 W2       2891     TIP3     H2       HT       0.417000       1.00800           0
      8674 W2       2892     TIP3     OH2      OT      -0.834000       15.9994           0
      8675 W2       2892     TIP3     H1       HT       0.417000       1.00800           0
      8676 W2       2892     TIP3     H2       HT       0.417000       1.00800           0
      8677 W2       2893     TIP3     OH2      OT      -0.834000       15.9994           0
      8678 W2       2893     TIP3     H1       HT       0.417000       1.00800           0
      8679 W2       2893     TIP3     H2       HT       0.417000       1.00800           0
      8680 W2       2894     TIP3     OH2      OT      -0.834000       15.9994           0
      8681 W2       2894     TIP3     H1       HT       0.417000       1.00800           0
      8682 W2       2894     TIP3     H2       HT       0.417000       1.00800           0
      8683 W2       2895     TIP3     OH2      OT      -0.834000       15.9994           0
      8684 W2       2895     TIP3     H1       HT       0.417000       1.00800           0
      8685 W2       2895     TIP3     H2       HT       0.417000       1.00800           0
      8686 W2       2896     TIP3     OH2      OT      -0.834000       15.9994           0
      8687 W2       2896     TIP3     H1       HT       0.417000       1.00800           0
      8688 W2       2896     TIP3     H2       HT       0.417000       1.00800           0
      8689 W2       2897     TIP3     OH2      OT      -0.834000       15.9994           0
      8690 W2       2897     TIP3     H1       HT       0.417000       1.00800           0
      8691 W2       2897     TIP3     H2       HT       0.417000       1.00800           0
      8692 W2       2898     TIP3     OH2      OT      -0.834000       15.9994           0
      8693 W2       2898     TIP3     H1       HT       0.417000       1.00800           0
      8694 W2       2898     TIP3     H2       HT       0.417000       1.00800           0
      8695 W2       2899     TIP3     OH2      OT      -0.834000       15.9994           0
      8696 W2       2899     TIP3     H1       HT       0.417000       1.00800           0
      8697 W2       2899     TIP3     H2       HT       0.417000       1.00800           0
      8698 W2       2900     TIP3     OH2      OT      -0.834000       15.9994           0
      8699 W2       2900     TIP3     H1       HT       0.417000       1.00800           0
      8700 W2       2900     TIP3     H2       HT       0.417000       1.00800           0
      8701 W2       2901     TIP3     OH2      OT      -0.834000       15.9994           0
      8702 W2       2901     TIP3     H1       HT       0.417000       1.00800           0
      8703 W2       2901     TIP3     H2       HT       0.417000       1.00800           0
      8704 W2       2902     TIP3     OH2      OT      -0.834000       15.9994           0
      8705 W2       2902     TIP3     H1       HT       0.417000       1.00800           0
      8706 W2       2902     TIP3     H2       HT       0.417000       1.00800           0
      8707 W2       2903     TIP3     OH2      OT      -0.834000       15.9994           0
      8708 W2       2903     TIP3     H1       HT       0.417000       1.00800           0
      8709 W2       2903     TIP3     H2       HT       0.417000       1.00800           0
      8710 W2       2904     TIP3     OH2      OT      -0.834000       15.9994           0
      8711 W2       2904     TIP3     H1       HT       0.417000       1.00800           0
      8712 W2       2904     TIP3     H2       HT       0.417000       1.00800           0
      8713 W2       2905     TIP3     OH2      OT      -0.834000       15.9994           0
      8714 W2       2905     TIP3     H1       HT       0.417000       1.00800           0
      8715 W2       2905     TIP3     H2       HT       0.417000       1.00800           0
      8716 W2       2906     TIP3     OH2      OT      -0.834000       15.9994           0
      8717 W2       2906     TIP3     H1       HT       0.417000       1.00800           0
      8718 W2       2906     TIP3     H2       HT       0.417000       1.00800           0
      8719 W2       2907     TIP3     OH2      OT      -0.834000       15.9994           0
      8720 W2       2907     TIP3     H1       HT       0.417000       1.00800           0
      8721 W2       2907     TIP3     H2       HT       0.417000       1.00800           0
      8722 W2       2908     TIP3     OH2      OT      -0.834000       15.9994           0
      8723 W2       2908     TIP3     H1       HT       0.417000       1.00800           0
      8724 W2       2908     TIP3     H2       HT       0.417000       1.00800           0
      8725 W2       2909     TIP3     OH2      OT      -0.834000       15.9994           0
      8726 W2       2909     TIP3     H1       HT       0.417000       1.00800           0
      8727 W2       2909     TIP3     H2       HT       0.417000       1.00800           0
      8728 W2       2910     TIP3     OH2      OT      -0.834000       15.9994           0
      8729 W2       2910     TIP3     H1       HT       0.417000       1.00800           0
      8730 W2       2910     TIP3     H2       HT       0.417000       1.00800           0
      8731 W2       2911     TIP3     OH2      OT      -0.834000       15.9994           0
      8732 W2       2911     TIP3     H1       HT       0.417000       1.00800           0
      8733 W2       2911     TIP3     H2       HT       0.417000       1.00800           0
      8734 W2       2912     TIP3     OH2      OT      -0.834000       15.9994           0
      8735 W2       2912     TIP3     H1       HT       0.417000       1.00800           0
      8736 W2       2912     TIP3     H2       HT       0.417000       1.00800           0
      8737 W2       2913     TIP3     OH2      OT      -0.834000       15.9994           0
      8738 W2       2913     TIP3     H1       HT       0.417000       1.00800           0
      8739 W2       2913     TIP3     H2       HT       0.417000       1.00800           0
      8740 W2       2914     TIP3     OH2      OT      -0.834000       15.9994           0
      8741 W2       2914     TIP3     H1       HT       0.417000       1.00800           0
      8742 W2       2914     TIP3     H2       HT       0.417000       1.00800           0
      8743 W2       2915     TIP3     OH2      OT      -0.834000       15.9994           0
      8744 W2       2915     TIP3     H1       HT       0.417000       1.00800           0
      8745 W2       2915     TIP3     H2       HT       0.417000       1.00800           0
      8746 W2       2916     TIP3     OH2      OT      -0.834000       15.9994           0
      8747 W2       2916     TIP3     H1       HT       0.417000       1.00800           0
      8748 W2       2916     TIP3     H2       HT       0.417000       1.00800           0
      8749 W2       2917     TIP3     OH2      OT      -0.834000       15.9994           0
      8750 W2       2917     TIP3     H1       HT       0.417000       1.00800           0
      8751 W2       2917     TIP3     H2       HT       0.417000       1.00800           0
      8752 W2       2918     TIP3     OH2      OT      -0.834000       15.9994           0
      8753 W2       2918     TIP3     H1       HT       0.417000       1.00800           0
      8754 W2       2918     TIP3     H2       HT       0.417000       1.00800           0
      8755 W2       2919     TIP3     OH2      OT      -0.834000       15.9994           0
      8756 W2       2919     TIP3     H1       HT       0.417000       1.00800           0
      8757 W2       2919     TIP3     H2       HT       0.417000       1.00800           0
      8758 W2       2920     TIP3     OH2      OT      -0.834000       15.9994           0
      8759 W2       2920     TIP3     H1       HT       0.417000       1.00800           0
      8760 W2       2920     TIP3     H2       HT       0.417000       1.00800           0
      8761 W2       2921     TIP3     OH2      OT      -0.834000       15.9994           0
      8762 W2       2921     TIP3     H1       HT       0.417000       1.00800           0
      8763 W2       2921     TIP3     H2       HT       0.417000       1.00800           0
      8764 W2       2922     TIP3     OH2      OT      -0.834000       15.9994           0
      8765 W2       2922     TIP3     H1       HT       0.417000       1.00800           0
      8766 W2       2922     TIP3     H2       HT       0.417000       1.00800           0
      8767 W2       2923     TIP3     OH2      OT      -0.834000       15.9994           0
      8768 W2       2923     TIP3     H1       HT       0.417000       1.00800           0
      8769 W2       2923     TIP3     H2       HT       0.417000       1.00800           0
      8770 W2       2924     TIP3     OH2      OT      -0.834000       15.9994           0
      8771 W2       2924     TIP3     H1       HT       0.417000       1.00800           0
      8772 W2       2924     TIP3     H2       HT       0.417000       1.00800           0
      8773 W2       2925     TIP3     OH2      OT      -0.834000       15.9994           0
      8774 W2       2925     TIP3     H1       HT       0.417000       1.00800           0
      8775 W2       2925     TIP3     H2       HT       0.417000       1.00800           0
      8776 W2       2926     TIP3     OH2      OT      -0.834000       15.9994           0
      8777 W2       2926     TIP3     H1       HT       0.417000       1.00800           0
      8778 W2       2926     TIP3     H2       HT       0.417000       1.00800           0
      8779 W2       2927     TIP3     OH2      OT      -0.834000       15.9994           0
      8780 W2       2927     TIP3     H1       HT       0.417000       1.00800           0
      8781 W2       2927     TIP3     H2       HT       0.417000       1.00800           0
      8782 W2       2928     TIP3     OH2      OT      -0.834000       15.9994           0
      8783 W2       2928     TIP3     H1       HT       0.417000       1.00800           0
      8784 W2       2928     TIP3     H2       HT       0.417000       1.00800           0
      8785 W2       2929     TIP3     OH2      OT      -0.834000       15.9994           0
      8786 W2       2929     TIP3     H1       HT       0.417000       1.00800           0
      8787 W2       2929     TIP3     H2       HT       0.417000       1.00800           0
      8788 W2       2930     TIP3     OH2      OT      -0.834000       15.9994           0
      8789 W2       2930     TIP3     H1       HT       0.417000       1.00800           0
      8790 W2       2930     TIP3     H2       HT       0.417000       1.00800           0
      8791 W2       2931     TIP3     OH2      OT      -0.834000       15.9994           0
      8792 W2       2931     TIP3     H1       HT       0.417000       1.00800           0
      8793 W2       2931     TIP3     H2       HT       0.417000       1.00800           0
      8794 W2       2932     TIP3     OH2      OT      -0.834000       15.9994           0
      8795 W2       2932     TIP3     H1       HT       0.417000       1.00800           0
      8796 W2       2932     TIP3     H2       HT       0.417000       1.00800           0
      8797 W2       2933     TIP3     OH2      OT      -0.834000       15.9994           0
      8798 W2       2933     TIP3     H1       HT       0.417000       1.00800           0
      8799 W2       2933     TIP3     H2       HT       0.417000       1.00800           0
      8800 W2       2934     TIP3     OH2      OT      -0.834000       15.9994           0
      8801 W2       2934     TIP3     H1       HT       0.417000       1.00800           0
      8802 W2       2934     TIP3     H2       HT       0.417000       1.00800           0
      8803 W2       2935     TIP3     OH2      OT      -0.834000       15.9994           0
      8804 W2       2935     TIP3     H1       HT       0.417000       1.00800           0
      8805 W2       2935     TIP3     H2       HT       0.417000       1.00800           0
      8806 W2       2936     TIP3     OH2      OT      -0.834000       15.9994           0
      8807 W2       2936     TIP3     H1       HT       0.417000       1.00800           0
      8808 W2       2936     TIP3     H2       HT       0.417000       1.00800           0
      8809 W2       2937     TIP3     OH2      OT      -0.834000       15.9994           0
      8810 W2       2937     TIP3     H1       HT       0.417000       1.00800           0
      8811 W2       2937     TIP3     H2       HT       0.417000       1.00800           0
      8812 W2       2938     TIP3     OH2      OT      -0.834000       15.9994           0
      8813 W2       2938     TIP3     H1       HT       0.417000       1.00800           0
      8814 W2       2938     TIP3     H2       HT       0.417000       1.00800           0
      8815 W2       2939     TIP3     OH2      OT      -0.834000       15.9994           0
      8816 W2       2939     TIP3     H1       HT       0.417000       1.00800           0
      8817 W2       2939     TIP3     H2       HT       0.417000       1.00800           0
      8818 W2       2940     TIP3     OH2      OT      -0.834000       15.9994           0
      8819 W2       2940     TIP3     H1       HT       0.417000       1.00800           0
      8820 W2       2940     TIP3     H2       HT       0.417000       1.00800           0
      8821 W2       2941     TIP3     OH2      OT      -0.834000       15.9994           0
      8822 W2       2941     TIP3     H1       HT       0.417000       1.00800           0
      8823 W2       2941     TIP3     H2       HT       0.417000       1.00800           0
      8824 W2       2942     TIP3     OH2      OT      -0.834000       15.9994           0
      8825 W2       2942     TIP3     H1       HT       0.417000       1.00800           0
      8826 W2       2942     TIP3     H2       HT       0.417000       1.00800           0
      8827 W2       2943     TIP3     OH2      OT      -0.834000       15.9994           0
      8828 W2       2943     TIP3     H1       HT       0.417000       1.00800           0
      8829 W2       2943     TIP3     H2       HT       0.417000       1.00800           0
      8830 W2       2944     TIP3     OH2      OT      -0.834000       15.9994           0
      8831 W2       2944     TIP3     H1       HT       0.417000       1.00800           0
      8832 W2       2944     TIP3     H2       HT       0.417000       1.00800           0
      8833 W2       2945     TIP3     OH2      OT      -0.834000       15.9994           0
      8834 W2       2945     TIP3     H1       HT       0.417000       1.00800           0
      8835 W2       2945     TIP3     H2       HT       0.417000       1.00800           0
      8836 W2       2946     TIP3     OH2      OT      -0.834000       15.9994           0
      8837 W2       2946     TIP3     H1       HT       0.417000       1.00800           0
      8838 W2       2946     TIP3     H2       HT       0.417000       1.00800           0
      8839 W2       2947     TIP3     OH2      OT      -0.834000       15.9994           0
      8840 W2       2947     TIP3     H1       HT       0.417000       1.00800           0
      8841 W2       2947     TIP3     H2       HT       0.417000       1.00800           0
      8842 W2       2948     TIP3     OH2      OT      -0.834000       15.9994           0
      8843 W2       2948     TIP3     H1       HT       0.417000       1.00800           0
      8844 W2       2948     TIP3     H2       HT       0.417000       1.00800           0
      8845 W2       2949     TIP3     OH2      OT      -0.834000       15.9994           0
      8846 W2       2949     TIP3     H1       HT       0.417000       1.00800           0
      8847 W2       2949     TIP3     H2       HT       0.417000       1.00800           0
      8848 W2       2950     TIP3     OH2      OT      -0.834000       15.9994           0
      8849 W2       2950     TIP3     H1       HT       0.417000       1.00800           0
      8850 W2       2950     TIP3     H2       HT       0.417000       1.00800           0
      8851 W2       2951     TIP3     OH2      OT      -0.834000       15.9994           0
      8852 W2       2951     TIP3     H1       HT       0.417000       1.00800           0
      8853 W2       2951     TIP3     H2       HT       0.417000       1.00800           0
      8854 W2       2952     TIP3     OH2      OT      -0.834000       15.9994           0
      8855 W2       2952     TIP3     H1       HT       0.417000       1.00800           0
      8856 W2       2952     TIP3     H2       HT       0.417000       1.00800           0
      8857 W2       2953     TIP3     OH2      OT      -0.834000       15.9994           0
      8858 W2       2953     TIP3     H1       HT       0.417000       1.00800           0
      8859 W2       2953     TIP3     H2       HT       0.417000       1.00800           0
      8860 W2       2954     TIP3     OH2      OT      -0.834000       15.9994           0
      8861 W2       2954     TIP3     H1       HT       0.417000       1.00800           0
      8862 W2       2954     TIP3     H2       HT       0.417000       1.00800           0
      8863 W2       2955     TIP3     OH2      OT      -0.834000       15.9994           0
      8864 W2       2955     TIP3     H1       HT       0.417000       1.00800           0
      8865 W2       2955     TIP3     H2       HT       0.417000       1.00800           0
      8866 W2       2956     TIP3     OH2      OT      -0.834000       15.9994           0
      8867 W2       2956     TIP3     H1       HT       0.417000       1.00800           0
      8868 W2       2956     TIP3     H2       HT       0.417000       1.00800           0
      8869 W2       2957     TIP3     OH2      OT      -0.834000       15.9994           0
      8870 W2       2957     TIP3     H1       HT       0.417000       1.00800           0
      8871 W2       2957     TIP3     H2       HT       0.417000       1.00800           0
      8872 W2       2958     TIP3     OH2      OT      -0.834000       15.9994           0
      8873 W2       2958     TIP3     H1       HT       0.417000       1.00800           0
      8874 W2       2958     TIP3     H2       HT       0.417000       1.00800           0
      8875 W2       2959     TIP3     OH2      OT      -0.834000       15.9994           0
      8876 W2       2959     TIP3     H1       HT       0.417000       1.00800           0
      8877 W2       2959     TIP3     H2       HT       0.417000       1.00800           0
      8878 W2       2960     TIP3     OH2      OT      -0.834000       15.9994           0
      8879 W2       2960     TIP3     H1       HT       0.417000       1.00800           0
      8880 W2       2960     TIP3     H2       HT       0.417000       1.00800           0
      8881 W2       2961     TIP3     OH2      OT      -0.834000       15.9994           0
      8882 W2       2961     TIP3     H1       HT       0.417000       1.00800           0
      8883 W2       2961     TIP3     H2       HT       0.417000       1.00800           0
      8884 W2       2962     TIP3     OH2      OT      -0.834000       15.9994           0
      8885 W2       2962     TIP3     H1       HT       0.417000       1.00800           0
      8886 W2       2962     TIP3     H2       HT       0.417000       1.00800           0
      8887 W2       2963     TIP3     OH2      OT      -0.834000       15.9994           0
      8888 W2       2963     TIP3     H1       HT       0.417000       1.00800           0
      8889 W2       2963     TIP3     H2       HT       0.417000       1.00800           0
      8890 W2       2964     TIP3     OH2      OT      -0.834000       15.9994           0
      8891 W2       2964     TIP3     H1       HT       0.417000       1.00800           0
      8892 W2       2964     TIP3     H2       HT       0.417000       1.00800           0
      8893 W2       2965     TIP3     OH2      OT      -0.834000       15.9994           0
      8894 W2       2965     TIP3     H1       HT       0.417000       1.00800           0
      8895 W2       2965     TIP3     H2       HT       0.417000       1.00800           0
      8896 W2       2966     TIP3     OH2      OT      -0.834000       15.9994           0
      8897 W2       2966     TIP3     H1       HT       0.417000       1.00800           0
      8898 W2       2966     TIP3     H2       HT       0.417000       1.00800           0
      8899 W2       2967     TIP3     OH2      OT      -0.834000       15.9994           0
      8900 W2       2967     TIP3     H1       HT       0.417000       1.00800           0
      8901 W2       2967     TIP3     H2       HT       0.417000       1.00800           0
      8902 W2       2968     TIP3     OH2      OT      -0.834000       15.9994           0
      8903 W2       2968     TIP3     H1       HT       0.417000       1.00800           0
      8904 W2       2968     TIP3     H2       HT       0.417000       1.00800           0
      8905 W2       2969     TIP3     OH2      OT      -0.834000       15.9994           0
      8906 W2       2969     TIP3     H1       HT       0.417000       1.00800           0
      8907 W2       2969     TIP3     H2       HT       0.417000       1.00800           0
      8908 W2       2970     TIP3     OH2      OT      -0.834000       15.9994           0
      8909 W2       2970     TIP3     H1       HT       0.417000       1.00800           0
      8910 W2       2970     TIP3     H2       HT       0.417000       1.00800           0
      8911 W2       2971     TIP3     OH2      OT      -0.834000       15.9994           0
      8912 W2       2971     TIP3     H1       HT       0.417000       1.00800           0
      8913 W2       2971     TIP3     H2       HT       0.417000       1.00800           0
      8914 W2       2972     TIP3     OH2      OT      -0.834000       15.9994           0
      8915 W2       2972     TIP3     H1       HT       0.417000       1.00800           0
      8916 W2       2972     TIP3     H2       HT       0.417000       1.00800           0
      8917 W2       2973     TIP3     OH2      OT      -0.834000       15.9994           0
      8918 W2       2973     TIP3     H1       HT       0.417000       1.00800           0
      8919 W2       2973     TIP3     H2       HT       0.417000       1.00800           0
      8920 W2       2974     TIP3     OH2      OT      -0.834000       15.9994           0
      8921 W2       2974     TIP3     H1       HT       0.417000       1.00800           0
      8922 W2       2974     TIP3     H2       HT       0.417000       1.00800           0
      8923 W2       2975     TIP3     OH2      OT      -0.834000       15.9994           0
      8924 W2       2975     TIP3     H1       HT       0.417000       1.00800           0
      8925 W2       2975     TIP3     H2       HT       0.417000       1.00800           0
      8926 W2       2976     TIP3     OH2      OT      -0.834000       15.9994           0
      8927 W2       2976     TIP3     H1       HT       0.417000       1.00800           0
      8928 W2       2976     TIP3     H2       HT       0.417000       1.00800           0
      8929 W2       2977     TIP3     OH2      OT      -0.834000       15.9994           0
      8930 W2       2977     TIP3     H1       HT       0.417000       1.00800           0
      8931 W2       2977     TIP3     H2       HT       0.417000       1.00800           0
      8932 W2       2978     TIP3     OH2      OT      -0.834000       15.9994           0
      8933 W2       2978     TIP3     H1       HT       0.417000       1.00800           0
      8934 W2       2978     TIP3     H2       HT       0.417000       1.00800           0
      8935 W2       2979     TIP3     OH2      OT      -0.834000       15.9994           0
      8936 W2       2979     TIP3     H1       HT       0.417000       1.00800           0
      8937 W2       2979     TIP3     H2       HT       0.417000       1.00800           0
      8938 W2       2980     TIP3     OH2      OT      -0.834000       15.9994           0
      8939 W2       2980     TIP3     H1       HT       0.417000       1.00800           0
      8940 W2       2980     TIP3     H2       HT       0.417000       1.00800           0
      8941 W2       2981     TIP3     OH2      OT      -0.834000       15.9994           0
      8942 W2       2981     TIP3     H1       HT       0.417000       1.00800           0
      8943 W2       2981     TIP3     H2       HT       0.417000       1.00800           0
      8944 W2       2982     TIP3     OH2      OT      -0.834000       15.9994           0
      8945 W2       2982     TIP3     H1       HT       0.417000       1.00800           0
      8946 W2       2982     TIP3     H2       HT       0.417000       1.00800           0
      8947 W2       2983     TIP3     OH2      OT      -0.834000       15.9994           0
      8948 W2       2983     TIP3     H1       HT       0.417000       1.00800           0
      8949 W2       2983     TIP3     H2       HT       0.417000       1.00800           0
      8950 W2       2984     TIP3     OH2      OT      -0.834000       15.9994           0
      8951 W2       2984     TIP3     H1       HT       0.417000       1.00800           0
      8952 W2       2984     TIP3     H2       HT       0.417000       1.00800           0
      8953 W2       2985     TIP3     OH2      OT      -0.834000       15.9994           0
      8954 W2       2985     TIP3     H1       HT       0.417000       1.00800           0
      8955 W2       2985     TIP3     H2       HT       0.417000       1.00800           0
      8956 W2       2986     TIP3     OH2      OT      -0.834000       15.9994           0
      8957 W2       2986     TIP3     H1       HT       0.417000       1.00800           0
      8958 W2       2986     TIP3     H2       HT       0.417000       1.00800           0
      8959 W2       2987     TIP3     OH2      OT      -0.834000       15.9994           0
      8960 W2       2987     TIP3     H1       HT       0.417000       1.00800           0
      8961 W2       2987     TIP3     H2       HT       0.417000       1.00800           0
      8962 W2       2988     TIP3     OH2      OT      -0.834000       15.9994           0
      8963 W2       2988     TIP3     H1       HT       0.417000       1.00800           0
      8964 W2       2988     TIP3     H2       HT       0.417000       1.00800           0
      8965 W2       2989     TIP3     OH2      OT      -0.834000       15.9994           0
      8966 W2       2989     TIP3     H1       HT       0.417000       1.00800           0
      8967 W2       2989     TIP3     H2       HT       0.417000       1.00800           0
      8968 W2       2990     TIP3     OH2      OT      -0.834000       15.9994           0
      8969 W2       2990     TIP3     H1       HT       0.417000       1.00800           0
      8970 W2       2990     TIP3     H2       HT       0.417000       1.00800           0
      8971 W2       2991     TIP3     OH2      OT      -0.834000       15.9994           0
      8972 W2       2991     TIP3     H1       HT       0.417000       1.00800           0
      8973 W2       2991     TIP3     H2       HT       0.417000       1.00800           0
      8974 W2       2992     TIP3     OH2      OT      -0.834000       15.9994           0
      8975 W2       2992     TIP3     H1       HT       0.417000       1.00800           0
      8976 W2       2992     TIP3     H2       HT       0.417000       1.00800           0
      8977 W2       2993     TIP3     OH2      OT      -0.834000       15.9994           0
      8978 W2       2993     TIP3     H1       HT       0.417000       1.00800           0
      8979 W2       2993     TIP3     H2       HT       0.417000       1.00800           0
      8980 W2       2994     TIP3     OH2      OT      -0.834000       15.9994           0
      8981 W2       2994     TIP3     H1       HT       0.417000       1.00800           0
      8982 W2       2994     TIP3     H2       HT       0.417000       1.00800           0
      8983 W2       2995     TIP3     OH2      OT      -0.834000       15.9994           0
      8984 W2       2995     TIP3     H1       HT       0.417000       1.00800           0
      8985 W2       2995     TIP3     H2       HT       0.417000       1.00800           0
      8986 W2       2996     TIP3     OH2      OT      -0.834000       15.9994           0
      8987 W2       2996     TIP3     H1       HT       0.417000       1.00800           0
      8988 W2       2996     TIP3     H2       HT       0.417000       1.00800           0
      8989 W2       2997     TIP3     OH2      OT      -0.834000       15.9994           0
      8990 W2       2997     TIP3     H1       HT       0.417000       1.00800           0
      8991 W2       2997     TIP3     H2       HT       0.417000       1.00800           0
      8992 W2       2998     TIP3     OH2      OT      -0.834000       15.9994           0
      8993 W2       2998     TIP3     H1       HT       0.417000       1.00800           0
      8994 W2       2998     TIP3     H2       HT       0.417000       1.00800           0
      8995 W2       2999     TIP3     OH2      OT      -0.834000       15.9994           0
      8996 W2       2999     TIP3     H1       HT       0.417000       1.00800           0
      8997 W2       2999     TIP3     H2       HT       0.417000       1.00800           0
      8998 W2       3000     TIP3     OH2      OT      -0.834000       15.9994           0
      8999 W2       3000     TIP3     H1       HT       0.417000       1.00800           0
      9000 W2       3000     TIP3     H2       HT       0.417000       1.00800           0
      9001 W2       3001     TIP3     OH2      OT      -0.834000       15.9994           0
      9002 W2       3001     TIP3     H1       HT       0.417000       1.00800           0
      9003 W2       3001     TIP3     H2       HT       0.417000       1.00800           0
      9004 W2       3002     TIP3     OH2      OT      -0.834000       15.9994           0
      9005 W2       3002     TIP3     H1       HT       0.417000       1.00800           0
      9006 W2       3002     TIP3     H2       HT       0.417000       1.00800           0
      9007 W2       3003     TIP3     OH2      OT      -0.834000       15.9994           0
      9008 W2       3003     TIP3     H1       HT       0.417000       1.00800           0
      9009 W2       3003     TIP3     H2       HT       0.417000       1.00800           0
      9010 W2       3004     TIP3     OH2      OT      -0.834000       15.9994           0
      9011 W2       3004     TIP3     H1       HT       0.417000       1.00800           0
      9012 W2       3004     TIP3     H2       HT       0.417000       1.00800           0
      9013 W2       3005     TIP3     OH2      OT      -0.834000       15.9994           0
      9014 W2       3005     TIP3     H1       HT       0.417000       1.00800           0
      9015 W2       3005     TIP3     H2       HT       0.417000       1.00800           0
      9016 W2       3006     TIP3     OH2      OT      -0.834000       15.9994           0
      9017 W2       3006     TIP3     H1       HT       0.417000       1.00800           0
      9018 W2       3006     TIP3     H2       HT       0.417000       1.00800           0
      9019 W2       3007     TIP3     OH2      OT      -0.834000       15.9994           0
      9020 W2       3007     TIP3     H1       HT       0.417000       1.00800           0
      9021 W2       3007     TIP3     H2       HT       0.417000       1.00800           0
      9022 W2       3008     TIP3     OH2      OT      -0.834000       15.9994           0
      9023 W2       3008     TIP3     H1       HT       0.417000       1.00800           0
      9024 W2       3008     TIP3     H2       HT       0.417000       1.00800           0
      9025 W2       3009     TIP3     OH2      OT      -0.834000       15.9994           0
      9026 W2       3009     TIP3     H1       HT       0.417000       1.00800           0
      9027 W2       3009     TIP3     H2       HT       0.417000       1.00800           0
      9028 W2       3010     TIP3     OH2      OT      -0.834000       15.9994           0
      9029 W2       3010     TIP3     H1       HT       0.417000       1.00800           0
      9030 W2       3010     TIP3     H2       HT       0.417000       1.00800           0
      9031 W2       3011     TIP3     OH2      OT      -0.834000       15.9994           0
      9032 W2       3011     TIP3     H1       HT       0.417000       1.00800           0
      9033 W2       3011     TIP3     H2       HT       0.417000       1.00800           0
      9034 W2       3012     TIP3     OH2      OT      -0.834000       15.9994           0
      9035 W2       3012     TIP3     H1       HT       0.417000       1.00800           0
      9036 W2       3012     TIP3     H2       HT       0.417000       1.00800           0
      9037 W2       3013     TIP3     OH2      OT      -0.834000       15.9994           0
      9038 W2       3013     TIP3     H1       HT       0.417000       1.00800           0
      9039 W2       3013     TIP3     H2       HT       0.417000       1.00800           0
      9040 W2       3014     TIP3     OH2      OT      -0.834000       15.9994           0
      9041 W2       3014     TIP3     H1       HT       0.417000       1.00800           0
      9042 W2       3014     TIP3     H2       HT       0.417000       1.00800           0
      9043 W2       3015     TIP3     OH2      OT      -0.834000       15.9994           0
      9044 W2       3015     TIP3     H1       HT       0.417000       1.00800           0
      9045 W2       3015     TIP3     H2       HT       0.417000       1.00800           0
      9046 W2       3016     TIP3     OH2      OT      -0.834000       15.9994           0
      9047 W2       3016     TIP3     H1       HT       0.417000       1.00800           0
      9048 W2       3016     TIP3     H2       HT       0.417000       1.00800           0
      9049 W2       3017     TIP3     OH2      OT      -0.834000       15.9994           0
      9050 W2       3017     TIP3     H1       HT       0.417000       1.00800           0
      9051 W2       3017     TIP3     H2       HT       0.417000       1.00800           0
      9052 W2       3018     TIP3     OH2      OT      -0.834000       15.9994           0
      9053 W2       3018     TIP3     H1       HT       0.417000       1.00800           0
      9054 W2       3018     TIP3     H2       HT       0.417000       1.00800           0
      9055 W2       3019     TIP3     OH2      OT      -0.834000       15.9994           0
      9056 W2       3019     TIP3     H1       HT       0.417000       1.00800           0
      9057 W2       3019     TIP3     H2       HT       0.417000       1.00800           0
      9058 W2       3020     TIP3     OH2      OT      -0.834000       15.9994           0
      9059 W2       3020     TIP3     H1       HT       0.417000       1.00800           0
      9060 W2       3020     TIP3     H2       HT       0.417000       1.00800           0
      9061 W2       3021     TIP3     OH2      OT      -0.834000       15.9994           0
      9062 W2       3021     TIP3     H1       HT       0.417000       1.00800           0
      9063 W2       3021     TIP3     H2       HT       0.417000       1.00800           0
      9064 W2       3022     TIP3     OH2      OT      -0.834000       15.9994           0
      9065 W2       3022     TIP3     H1       HT       0.417000       1.00800           0
      9066 W2       3022     TIP3     H2       HT       0.417000       1.00800           0
      9067 W2       3023     TIP3     OH2      OT      -0.834000       15.9994           0
      9068 W2       3023     TIP3     H1       HT       0.417000       1.00800           0
      9069 W2       3023     TIP3     H2       HT       0.417000       1.00800           0
      9070 W2       3024     TIP3     OH2      OT      -0.834000       15.9994           0
      9071 W2       3024     TIP3     H1       HT       0.417000       1.00800           0
      9072 W2       3024     TIP3     H2       HT       0.417000       1.00800           0
      9073 W2       3025     TIP3     OH2      OT      -0.834000       15.9994           0
      9074 W2       3025     TIP3     H1       HT       0.417000       1.00800           0
      9075 W2       3025     TIP3     H2       HT       0.417000       1.00800           0
      9076 W2       3026     TIP3     OH2      OT      -0.834000       15.9994           0
      9077 W2       3026     TIP3     H1       HT       0.417000       1.00800           0
      9078 W2       3026     TIP3     H2       HT       0.417000       1.00800           0
      9079 W2       3027     TIP3     OH2      OT      -0.834000       15.9994           0
      9080 W2       3027     TIP3     H1       HT       0.417000       1.00800           0
      9081 W2       3027     TIP3     H2       HT       0.417000       1.00800           0
      9082 W2       3028     TIP3     OH2      OT      -0.834000       15.9994           0
      9083 W2       3028     TIP3     H1       HT       0.417000       1.00800           0
      9084 W2       3028     TIP3     H2       HT       0.417000       1.00800           0
      9085 W2       3029     TIP3     OH2      OT      -0.834000       15.9994           0
      9086 W2       3029     TIP3     H1       HT       0.417000       1.00800           0
      9087 W2       3029     TIP3     H2       HT       0.417000       1.00800           0
      9088 W2       3030     TIP3     OH2      OT      -0.834000       15.9994           0
      9089 W2       3030     TIP3     H1       HT       0.417000       1.00800           0
      9090 W2       3030     TIP3     H2       HT       0.417000       1.00800           0
      9091 W2       3031     TIP3     OH2      OT      -0.834000       15.9994           0
      9092 W2       3031     TIP3     H1       HT       0.417000       1.00800           0
      9093 W2       3031     TIP3     H2       HT       0.417000       1.00800           0
      9094 W2       3032     TIP3     OH2      OT      -0.834000       15.9994           0
      9095 W2       3032     TIP3     H1       HT       0.417000       1.00800           0
      9096 W2       3032     TIP3     H2       HT       0.417000       1.00800           0
      9097 W2       3033     TIP3     OH2      OT      -0.834000       15.9994           0
      9098 W2       3033     TIP3     H1       HT       0.417000       1.00800           0
      9099 W2       3033     TIP3     H2       HT       0.417000       1.00800           0
      9100 W2       3034     TIP3     OH2      OT      -0.834000       15.9994           0
      9101 W2       3034     TIP3     H1       HT       0.417000       1.00800           0
      9102 W2       3034     TIP3     H2       HT       0.417000       1.00800           0
      9103 W2       3035     TIP3     OH2      OT      -0.834000       15.9994           0
      9104 W2       3035     TIP3     H1       HT       0.417000       1.00800           0
      9105 W2       3035     TIP3     H2       HT       0.417000       1.00800           0
      9106 W2       3036     TIP3     OH2      OT      -0.834000       15.9994           0
      9107 W2       3036     TIP3     H1       HT       0.417000       1.00800           0
      9108 W2       3036     TIP3     H2       HT       0.417000       1.00800           0
      9109 W2       3037     TIP3     OH2      OT      -0.834000       15.9994           0
      9110 W2       3037     TIP3     H1       HT       0.417000       1.00800           0
      9111 W2       3037     TIP3     H2       HT       0.417000       1.00800           0
      9112 W2       3038     TIP3     OH2      OT      -0.834000       15.9994           0
      9113 W2       3038     TIP3     H1       HT       0.417000       1.00800           0
      9114 W2       3038     TIP3     H2       HT       0.417000       1.00800           0
      9115 W2       3039     TIP3     OH2      OT      -0.834000       15.9994           0
      9116 W2       3039     TIP3     H1       HT       0.417000       1.00800           0
      9117 W2       3039     TIP3     H2       HT       0.417000       1.00800           0
      9118 W2       3040     TIP3     OH2      OT      -0.834000       15.9994           0
      9119 W2       3040     TIP3     H1       HT       0.417000       1.00800           0
      9120 W2       3040     TIP3     H2       HT       0.417000       1.00800           0
      9121 W2       3041     TIP3     OH2      OT      -0.834000       15.9994           0
      9122 W2       3041     TIP3     H1       HT       0.417000       1.00800           0
      9123 W2       3041     TIP3     H2       HT       0.417000       1.00800           0
      9124 W2       3042     TIP3     OH2      OT      -0.834000       15.9994           0
      9125 W2       3042     TIP3     H1       HT       0.417000       1.00800           0
      9126 W2       3042     TIP3     H2       HT       0.417000       1.00800           0
      9127 W2       3043     TIP3     OH2      OT      -0.834000       15.9994           0
      9128 W2       3043     TIP3     H1       HT       0.417000       1.00800           0
      9129 W2       3043     TIP3     H2       HT       0.417000       1.00800           0
      9130 W2       3044     TIP3     OH2      OT      -0.834000       15.9994           0
      9131 W2       3044     TIP3     H1       HT       0.417000       1.00800           0
      9132 W2       3044     TIP3     H2       HT       0.417000       1.00800           0
      9133 W2       3045     TIP3     OH2      OT      -0.834000       15.9994           0
      9134 W2       3045     TIP3     H1       HT       0.417000       1.00800           0
      9135 W2       3045     TIP3     H2       HT       0.417000       1.00800           0
      9136 W2       3046     TIP3     OH2      OT      -0.834000       15.9994           0
      9137 W2       3046     TIP3     H1       HT       0.417000       1.00800           0
      9138 W2       3046     TIP3     H2       HT       0.417000       1.00800           0
      9139 W2       3047     TIP3     OH2      OT      -0.834000       15.9994           0
      9140 W2       3047     TIP3     H1       HT       0.417000       1.00800           0
      9141 W2       3047     TIP3     H2       HT       0.417000       1.00800           0
      9142 W2       3048     TIP3     OH2      OT      -0.834000       15.9994           0
      9143 W2       3048     TIP3     H1       HT       0.417000       1.00800           0
      9144 W2       3048     TIP3     H2       HT       0.417000       1.00800           0
      9145 W2       3049     TIP3     OH2      OT      -0.834000       15.9994           0
      9146 W2       3049     TIP3     H1       HT       0.417000       1.00800           0
      9147 W2       3049     TIP3     H2       HT       0.417000       1.00800           0
      9148 W2       3050     TIP3     OH2      OT      -0.834000       15.9994           0
      9149 W2       3050     TIP3     H1       HT       0.417000       1.00800           0
      9150 W2       3050     TIP3     H2       HT       0.417000       1.00800           0
      9151 W2       3051     TIP3     OH2      OT      -0.834000       15.9994           0
      9152 W2       3051     TIP3     H1       HT       0.417000       1.00800           0
      9153 W2       3051     TIP3     H2       HT       0.417000       1.00800           0
      9154 W2       3052     TIP3     OH2      OT      -0.834000       15.9994           0
      9155 W2       3052     TIP3     H1       HT       0.417000       1.00800           0
      9156 W2       3052     TIP3     H2       HT       0.417000       1.00800           0
      9157 W2       3053     TIP3     OH2      OT      -0.834000       15.9994           0
      9158 W2       3053     TIP3     H1       HT       0.417000       1.00800           0
      9159 W2       3053     TIP3     H2       HT       0.417000       1.00800           0
      9160 W2       3054     TIP3     OH2      OT      -0.834000       15.9994           0
      9161 W2       3054     TIP3     H1       HT       0.417000       1.00800           0
      9162 W2       3054     TIP3     H2       HT       0.417000       1.00800           0
      9163 W2       3055     TIP3     OH2      OT      -0.834000       15.9994           0
      9164 W2       3055     TIP3     H1       HT       0.417000       1.00800           0
      9165 W2       3055     TIP3     H2       HT       0.417000       1.00800           0
      9166 W2       3056     TIP3     OH2      OT      -0.834000       15.9994           0
      9167 W2       3056     TIP3     H1       HT       0.417000       1.00800           0
      9168 W2       3056     TIP3     H2       HT       0.417000       1.00800           0
      9169 W2       3057     TIP3     OH2      OT      -0.834000       15.9994           0
      9170 W2       3057     TIP3     H1       HT       0.417000       1.00800           0
      9171 W2       3057     TIP3     H2       HT       0.417000       1.00800           0
      9172 W2       3058     TIP3     OH2      OT      -0.834000       15.9994           0
      9173 W2       3058     TIP3     H1       HT       0.417000       1.00800           0
      9174 W2       3058     TIP3     H2       HT       0.417000       1.00800           0
      9175 W2       3059     TIP3     OH2      OT      -0.834000       15.9994           0
      9176 W2       3059     TIP3     H1       HT       0.417000       1.00800           0
      9177 W2       3059     TIP3     H2       HT       0.417000       1.00800           0
      9178 W2       3060     TIP3     OH2      OT      -0.834000       15.9994           0
      9179 W2       3060     TIP3     H1       HT       0.417000       1.00800           0
      9180 W2       3060     TIP3     H2       HT       0.417000       1.00800           0
      9181 W2       3061     TIP3     OH2      OT      -0.834000       15.9994           0
      9182 W2       3061     TIP3     H1       HT       0.417000       1.00800           0
      9183 W2       3061     TIP3     H2       HT       0.417000       1.00800           0
      9184 W2       3062     TIP3     OH2      OT      -0.834000       15.9994           0
      9185 W2       3062     TIP3     H1       HT       0.417000       1.00800           0
      9186 W2       3062     TIP3     H2       HT       0.417000       1.00800           0
      9187 W2       3063     TIP3     OH2      OT      -0.834000       15.9994           0
      9188 W2       3063     TIP3     H1       HT       0.417000       1.00800           0
      9189 W2       3063     TIP3     H2       HT       0.417000       1.00800           0
      9190 W2       3064     TIP3     OH2      OT      -0.834000       15.9994           0
      9191 W2       3064     TIP3     H1       HT       0.417000       1.00800           0
      9192 W2       3064     TIP3     H2       HT       0.417000       1.00800           0
      9193 W2       3065     TIP3     OH2      OT      -0.834000       15.9994           0
      9194 W2       3065     TIP3     H1       HT       0.417000       1.00800           0
      9195 W2       3065     TIP3     H2       HT       0.417000       1.00800           0
      9196 W2       3066     TIP3     OH2      OT      -0.834000       15.9994           0
      9197 W2       3066     TIP3     H1       HT       0.417000       1.00800           0
      9198 W2       3066     TIP3     H2       HT       0.417000       1.00800           0
      9199 W2       3067     TIP3     OH2      OT      -0.834000       15.9994           0
      9200 W2       3067     TIP3     H1       HT       0.417000       1.00800           0
      9201 W2       3067     TIP3     H2       HT       0.417000       1.00800           0
      9202 W2       3068     TIP3     OH2      OT      -0.834000       15.9994           0
      9203 W2       3068     TIP3     H1       HT       0.417000       1.00800           0
      9204 W2       3068     TIP3     H2       HT       0.417000       1.00800           0
      9205 W2       3069     TIP3     OH2      OT      -0.834000       15.9994           0
      9206 W2       3069     TIP3     H1       HT       0.417000       1.00800           0
      9207 W2       3069     TIP3     H2       HT       0.417000       1.00800           0
      9208 W2       3070     TIP3     OH2      OT      -0.834000       15.9994           0
      9209 W2       3070     TIP3     H1       HT       0.417000       1.00800           0
      9210 W2       3070     TIP3     H2       HT       0.417000       1.00800           0
      9211 W2       3071     TIP3     OH2      OT      -0.834000       15.9994           0
      9212 W2       3071     TIP3     H1       HT       0.417000       1.00800           0
      9213 W2       3071     TIP3     H2       HT       0.417000       1.00800           0
      9214 W2       3072     TIP3     OH2      OT      -0.834000       15.9994           0
      9215 W2       3072     TIP3     H1       HT       0.417000       1.00800           0
      9216 W2       3072     TIP3     H2       HT       0.417000       1.00800           0
      9217 W2       3073     TIP3     OH2      OT      -0.834000       15.9994           0
      9218 W2       3073     TIP3     H1       HT       0.417000       1.00800           0
      9219 W2       3073     TIP3     H2       HT       0.417000       1.00800           0
      9220 W2       3074     TIP3     OH2      OT      -0.834000       15.9994           0
      9221 W2       3074     TIP3     H1       HT       0.417000       1.00800           0
      9222 W2       3074     TIP3     H2       HT       0.417000       1.00800           0
      9223 W2       3075     TIP3     OH2      OT      -0.834000       15.9994           0
      9224 W2       3075     TIP3     H1       HT       0.417000       1.00800           0
      9225 W2       3075     TIP3     H2       HT       0.417000       1.00800           0
      9226 W2       3076     TIP3     OH2      OT      -0.834000       15.9994           0
      9227 W2       3076     TIP3     H1       HT       0.417000       1.00800           0
      9228 W2       3076     TIP3     H2       HT       0.417000       1.00800           0
      9229 W2       3077     TIP3     OH2      OT      -0.834000       15.9994           0
      9230 W2       3077     TIP3     H1       HT       0.417000       1.00800           0
      9231 W2       3077     TIP3     H2       HT       0.417000       1.00800           0
      9232 W2       3078     TIP3     OH2      OT      -0.834000       15.9994           0
      9233 W2       3078     TIP3     H1       HT       0.417000       1.00800           0
      9234 W2       3078     TIP3     H2       HT       0.417000       1.00800           0
      9235 W2       3079     TIP3     OH2      OT      -0.834000       15.9994           0
      9236 W2       3079     TIP3     H1       HT       0.417000       1.00800           0
      9237 W2       3079     TIP3     H2       HT       0.417000       1.00800           0
      9238 W2       3080     TIP3     OH2      OT      -0.834000       15.9994           0
      9239 W2       3080     TIP3     H1       HT       0.417000       1.00800           0
      9240 W2       3080     TIP3     H2       HT       0.417000       1.00800           0
      9241 W2       3081     TIP3     OH2      OT      -0.834000       15.9994           0
      9242 W2       3081     TIP3     H1       HT       0.417000       1.00800           0
      9243 W2       3081     TIP3     H2       HT       0.417000       1.00800           0
      9244 W2       3082     TIP3     OH2      OT      -0.834000       15.9994           0
      9245 W2       3082     TIP3     H1       HT       0.417000       1.00800           0
      9246 W2       3082     TIP3     H2       HT       0.417000       1.00800           0
      9247 W2       3083     TIP3     OH2      OT      -0.834000       15.9994           0
      9248 W2       3083     TIP3     H1       HT       0.417000       1.00800           0
      9249 W2       3083     TIP3     H2       HT       0.417000       1.00800           0
      9250 W2       3084     TIP3     OH2      OT      -0.834000       15.9994           0
      9251 W2       3084     TIP3     H1       HT       0.417000       1.00800           0
      9252 W2       3084     TIP3     H2       HT       0.417000       1.00800           0
      9253 W2       3085     TIP3     OH2      OT      -0.834000       15.9994           0
      9254 W2       3085     TIP3     H1       HT       0.417000       1.00800           0
      9255 W2       3085     TIP3     H2       HT       0.417000       1.00800           0
      9256 W2       3086     TIP3     OH2      OT      -0.834000       15.9994           0
      9257 W2       3086     TIP3     H1       HT       0.417000       1.00800           0
      9258 W2       3086     TIP3     H2       HT       0.417000       1.00800           0
      9259 W2       3087     TIP3     OH2      OT      -0.834000       15.9994           0
      9260 W2       3087     TIP3     H1       HT       0.417000       1.00800           0
      9261 W2       3087     TIP3     H2       HT       0.417000       1.00800           0
      9262 W2       3088     TIP3     OH2      OT      -0.834000       15.9994           0
      9263 W2       3088     TIP3     H1       HT       0.417000       1.00800           0
      9264 W2       3088     TIP3     H2       HT       0.417000       1.00800           0
      9265 W2       3089     TIP3     OH2      OT      -0.834000       15.9994           0
      9266 W2       3089     TIP3     H1       HT       0.417000       1.00800           0
      9267 W2       3089     TIP3     H2       HT       0.417000       1.00800           0
      9268 W2       3090     TIP3     OH2      OT      -0.834000       15.9994           0
      9269 W2       3090     TIP3     H1       HT       0.417000       1.00800           0
      9270 W2       3090     TIP3     H2       HT       0.417000       1.00800           0
      9271 W2       3091     TIP3     OH2      OT      -0.834000       15.9994           0
      9272 W2       3091     TIP3     H1       HT       0.417000       1.00800           0
      9273 W2       3091     TIP3     H2       HT       0.417000       1.00800           0
      9274 W2       3092     TIP3     OH2      OT      -0.834000       15.9994           0
      9275 W2       3092     TIP3     H1       HT       0.417000       1.00800           0
      9276 W2       3092     TIP3     H2       HT       0.417000       1.00800           0
      9277 W2       3093     TIP3     OH2      OT      -0.834000       15.9994           0
      9278 W2       3093     TIP3     H1       HT       0.417000       1.00800           0
      9279 W2       3093     TIP3     H2       HT       0.417000       1.00800           0
      9280 W2       3094     TIP3     OH2      OT      -0.834000       15.9994           0
      9281 W2       3094     TIP3     H1       HT       0.417000       1.00800           0
      9282 W2       3094     TIP3     H2       HT       0.417000       1.00800           0
      9283 W2       3095     TIP3     OH2      OT      -0.834000       15.9994           0
      9284 W2       3095     TIP3     H1       HT       0.417000       1.00800           0
      9285 W2       3095     TIP3     H2       HT       0.417000       1.00800           0
      9286 W2       3096     TIP3     OH2      OT      -0.834000       15.9994           0
      9287 W2       3096     TIP3     H1       HT       0.417000       1.00800           0
      9288 W2       3096     TIP3     H2       HT       0.417000       1.00800           0
      9289 W2       3097     TIP3     OH2      OT      -0.834000       15.9994           0
      9290 W2       3097     TIP3     H1       HT       0.417000       1.00800           0
      9291 W2       3097     TIP3     H2       HT       0.417000       1.00800           0
      9292 W2       3098     TIP3     OH2      OT      -0.834000       15.9994           0
      9293 W2       3098     TIP3     H1       HT       0.417000       1.00800           0
      9294 W2       3098     TIP3     H2       HT       0.417000       1.00800           0
      9295 W2       3099     TIP3     OH2      OT      -0.834000       15.9994           0
      9296 W2       3099     TIP3     H1       HT       0.417000       1.00800           0
      9297 W2       3099     TIP3     H2       HT       0.417000       1.00800           0
      9298 W2       3100     TIP3     OH2      OT      -0.834000       15.9994           0
      9299 W2       3100     TIP3     H1       HT       0.417000       1.00800           0
      9300 W2       3100     TIP3     H2       HT       0.417000       1.00800           0
      9301 W2       3101     TIP3     OH2      OT      -0.834000       15.9994           0
      9302 W2       3101     TIP3     H1       HT       0.417000       1.00800           0
      9303 W2       3101     TIP3     H2       HT       0.417000       1.00800           0
      9304 W2       3102     TIP3     OH2      OT      -0.834000       15.9994           0
      9305 W2       3102     TIP3     H1       HT       0.417000       1.00800           0
      9306 W2       3102     TIP3     H2       HT       0.417000       1.00800           0
      9307 W2       3103     TIP3     OH2      OT      -0.834000       15.9994           0
      9308 W2       3103     TIP3     H1       HT       0.417000       1.00800           0
      9309 W2       3103     TIP3     H2       HT       0.417000       1.00800           0
      9310 W2       3104     TIP3     OH2      OT      -0.834000       15.9994           0
      9311 W2       3104     TIP3     H1       HT       0.417000       1.00800           0
      9312 W2       3104     TIP3     H2       HT       0.417000       1.00800           0
      9313 W2       3105     TIP3     OH2      OT      -0.834000       15.9994           0
      9314 W2       3105     TIP3     H1       HT       0.417000       1.00800           0
      9315 W2       3105     TIP3     H2       HT       0.417000       1.00800           0
      9316 W2       3106     TIP3     OH2      OT      -0.834000       15.9994           0
      9317 W2       3106     TIP3     H1       HT       0.417000       1.00800           0
      9318 W2       3106     TIP3     H2       HT       0.417000       1.00800           0
      9319 W2       3107     TIP3     OH2      OT      -0.834000       15.9994           0
      9320 W2       3107     TIP3     H1       HT       0.417000       1.00800           0
      9321 W2       3107     TIP3     H2       HT       0.417000       1.00800           0
      9322 W2       3108     TIP3     OH2      OT      -0.834000       15.9994           0
      9323 W2       3108     TIP3     H1       HT       0.417000       1.00800           0
      9324 W2       3108     TIP3     H2       HT       0.417000       1.00800           0
      9325 W2       3109     TIP3     OH2      OT      -0.834000       15.9994           0
      9326 W2       3109     TIP3     H1       HT       0.417000       1.00800           0
      9327 W2       3109     TIP3     H2       HT       0.417000       1.00800           0
      9328 W2       3110     TIP3     OH2      OT      -0.834000       15.9994           0
      9329 W2       3110     TIP3     H1       HT       0.417000       1.00800           0
      9330 W2       3110     TIP3     H2       HT       0.417000       1.00800           0
      9331 W2       3111     TIP3     OH2      OT      -0.834000       15.9994           0
      9332 W2       3111     TIP3     H1       HT       0.417000       1.00800           0
      9333 W2       3111     TIP3     H2       HT       0.417000       1.00800           0
      9334 W2       3112     TIP3     OH2      OT      -0.834000       15.9994           0
      9335 W2       3112     TIP3     H1       HT       0.417000       1.00800           0
      9336 W2       3112     TIP3     H2       HT       0.417000       1.00800           0
      9337 W2       3113     TIP3     OH2      OT      -0.834000       15.9994           0
      9338 W2       3113     TIP3     H1       HT       0.417000       1.00800           0
      9339 W2       3113     TIP3     H2       HT       0.417000       1.00800           0
      9340 W2       3114     TIP3     OH2      OT      -0.834000       15.9994           0
      9341 W2       3114     TIP3     H1       HT       0.417000       1.00800           0
      9342 W2       3114     TIP3     H2       HT       0.417000       1.00800           0
      9343 W2       3115     TIP3     OH2      OT      -0.834000       15.9994           0
      9344 W2       3115     TIP3     H1       HT       0.417000       1.00800           0
      9345 W2       3115     TIP3     H2       HT       0.417000       1.00800           0
      9346 W2       3116     TIP3     OH2      OT      -0.834000       15.9994           0
      9347 W2       3116     TIP3     H1       HT       0.417000       1.00800           0
      9348 W2       3116     TIP3     H2       HT       0.417000       1.00800           0
      9349 W2       3117     TIP3     OH2      OT      -0.834000       15.9994           0
      9350 W2       3117     TIP3     H1       HT       0.417000       1.00800           0
      9351 W2       3117     TIP3     H2       HT       0.417000       1.00800           0
      9352 W2       3118     TIP3     OH2      OT      -0.834000       15.9994           0
      9353 W2       3118     TIP3     H1       HT       0.417000       1.00800           0
      9354 W2       3118     TIP3     H2       HT       0.417000       1.00800           0
      9355 W2       3119     TIP3     OH2      OT      -0.834000       15.9994           0
      9356 W2       3119     TIP3     H1       HT       0.417000       1.00800           0
      9357 W2       3119     TIP3     H2       HT       0.417000       1.00800           0
      9358 W2       3120     TIP3     OH2      OT      -0.834000       15.9994           0
      9359 W2       3120     TIP3     H1       HT       0.417000       1.00800           0
      9360 W2       3120     TIP3     H2       HT       0.417000       1.00800           0
      9361 W2       3121     TIP3     OH2      OT      -0.834000       15.9994           0
      9362 W2       3121     TIP3     H1       HT       0.417000       1.00800           0
      9363 W2       3121     TIP3     H2       HT       0.417000       1.00800           0
      9364 W2       3122     TIP3     OH2      OT      -0.834000       15.9994           0
      9365 W2       3122     TIP3     H1       HT       0.417000       1.00800           0
      9366 W2       3122     TIP3     H2       HT       0.417000       1.00800           0
      9367 W2       3123     TIP3     OH2      OT      -0.834000       15.9994           0
      9368 W2       3123     TIP3     H1       HT       0.417000       1.00800           0
      9369 W2       3123     TIP3     H2       HT       0.417000       1.00800           0
      9370 W2       3124     TIP3     OH2      OT      -0.834000       15.9994           0
      9371 W2       3124     TIP3     H1       HT       0.417000       1.00800           0
      9372 W2       3124     TIP3     H2       HT       0.417000       1.00800           0
      9373 W2       3125     TIP3     OH2      OT      -0.834000       15.9994           0
      9374 W2       3125     TIP3     H1       HT       0.417000       1.00800           0
      9375 W2       3125     TIP3     H2       HT       0.417000       1.00800           0
      9376 W2       3126     TIP3     OH2      OT      -0.834000       15.9994           0
      9377 W2       3126     TIP3     H1       HT       0.417000       1.00800           0
      9378 W2       3126     TIP3     H2       HT       0.417000       1.00800           0
      9379 W2       3127     TIP3     OH2      OT      -0.834000       15.9994           0
      9380 W2       3127     TIP3     H1       HT       0.417000       1.00800           0
      9381 W2       3127     TIP3     H2       HT       0.417000       1.00800           0
      9382 W2       3128     TIP3     OH2      OT      -0.834000       15.9994           0
      9383 W2       3128     TIP3     H1       HT       0.417000       1.00800           0
      9384 W2       3128     TIP3     H2       HT       0.417000       1.00800           0
      9385 W2       3129     TIP3     OH2      OT      -0.834000       15.9994           0
      9386 W2       3129     TIP3     H1       HT       0.417000       1.00800           0
      9387 W2       3129     TIP3     H2       HT       0.417000       1.00800           0
      9388 W2       3130     TIP3     OH2      OT      -0.834000       15.9994           0
      9389 W2       3130     TIP3     H1       HT       0.417000       1.00800           0
      9390 W2       3130     TIP3     H2       HT       0.417000       1.00800           0
      9391 W2       3131     TIP3     OH2      OT      -0.834000       15.9994           0
      9392 W2       3131     TIP3     H1       HT       0.417000       1.00800           0
      9393 W2       3131     TIP3     H2       HT       0.417000       1.00800           0
      9394 W2       3132     TIP3     OH2      OT      -0.834000       15.9994           0
      9395 W2       3132     TIP3     H1       HT       0.417000       1.00800           0
      9396 W2       3132     TIP3     H2       HT       0.417000       1.00800           0
      9397 W2       3133     TIP3     OH2      OT      -0.834000       15.9994           0
      9398 W2       3133     TIP3     H1       HT       0.417000       1.00800           0
      9399 W2       3133     TIP3     H2       HT       0.417000       1.00800           0
      9400 W2       3134     TIP3     OH2      OT      -0.834000       15.9994           0
      9401 W2       3134     TIP3     H1       HT       0.417000       1.00800           0
      9402 W2       3134     TIP3     H2       HT       0.417000       1.00800           0
      9403 W2       3135     TIP3     OH2      OT      -0.834000       15.9994           0
      9404 W2       3135     TIP3     H1       HT       0.417000       1.00800           0
      9405 W2       3135     TIP3     H2       HT       0.417000       1.00800           0
      9406 W2       3136     TIP3     OH2      OT      -0.834000       15.9994           0
      9407 W2       3136     TIP3     H1       HT       0.417000       1.00800           0
      9408 W2       3136     TIP3     H2       HT       0.417000       1.00800           0
      9409 W2       3137     TIP3     OH2      OT      -0.834000       15.9994           0
      9410 W2       3137     TIP3     H1       HT       0.417000       1.00800           0
      9411 W2       3137     TIP3     H2       HT       0.417000       1.00800           0
      9412 W2       3138     TIP3     OH2      OT      -0.834000       15.9994           0
      9413 W2       3138     TIP3     H1       HT       0.417000       1.00800           0
      9414 W2       3138     TIP3     H2       HT       0.417000       1.00800           0
      9415 W2       3139     TIP3     OH2      OT      -0.834000       15.9994           0
      9416 W2       3139     TIP3     H1       HT       0.417000       1.00800           0
      9417 W2       3139     TIP3     H2       HT       0.417000       1.00800           0
      9418 W2       3140     TIP3     OH2      OT      -0.834000       15.9994           0
      9419 W2       3140     TIP3     H1       HT       0.417000       1.00800           0
      9420 W2       3140     TIP3     H2       HT       0.417000       1.00800           0
      9421 W2       3141     TIP3     OH2      OT      -0.834000       15.9994           0
      9422 W2       3141     TIP3     H1       HT       0.417000       1.00800           0
      9423 W2       3141     TIP3     H2       HT       0.417000       1.00800           0
      9424 W2       3142     TIP3     OH2      OT      -0.834000       15.9994           0
      9425 W2       3142     TIP3     H1       HT       0.417000       1.00800           0
      9426 W2       3142     TIP3     H2       HT       0.417000       1.00800           0
      9427 W2       3143     TIP3     OH2      OT      -0.834000       15.9994           0
      9428 W2       3143     TIP3     H1       HT       0.417000       1.00800           0
      9429 W2       3143     TIP3     H2       HT       0.417000       1.00800           0
      9430 W2       3144     TIP3     OH2      OT      -0.834000       15.9994           0
      9431 W2       3144     TIP3     H1       HT       0.417000       1.00800           0
      9432 W2       3144     TIP3     H2       HT       0.417000       1.00800           0
      9433 W2       3145     TIP3     OH2      OT      -0.834000       15.9994           0
      9434 W2       3145     TIP3     H1       HT       0.417000       1.00800           0
      9435 W2       3145     TIP3     H2       HT       0.417000       1.00800           0
      9436 W2       3146     TIP3     OH2      OT      -0.834000       15.9994           0
      9437 W2       3146     TIP3     H1       HT       0.417000       1.00800           0
      9438 W2       3146     TIP3     H2       HT       0.417000       1.00800           0
      9439 W2       3147     TIP3     OH2      OT      -0.834000       15.9994           0
      9440 W2       3147     TIP3     H1       HT       0.417000       1.00800           0
      9441 W2       3147     TIP3     H2       HT       0.417000       1.00800           0
      9442 W2       3148     TIP3     OH2      OT      -0.834000       15.9994           0
      9443 W2       3148     TIP3     H1       HT       0.417000       1.00800           0
      9444 W2       3148     TIP3     H2       HT       0.417000       1.00800           0
      9445 W2       3149     TIP3     OH2      OT      -0.834000       15.9994           0
      9446 W2       3149     TIP3     H1       HT       0.417000       1.00800           0
      9447 W2       3149     TIP3     H2       HT       0.417000       1.00800           0
      9448 W2       3150     TIP3     OH2      OT      -0.834000       15.9994           0
      9449 W2       3150     TIP3     H1       HT       0.417000       1.00800           0
      9450 W2       3150     TIP3     H2       HT       0.417000       1.00800           0
      9451 W2       3151     TIP3     OH2      OT      -0.834000       15.9994           0
      9452 W2       3151     TIP3     H1       HT       0.417000       1.00800           0
      9453 W2       3151     TIP3     H2       HT       0.417000       1.00800           0
      9454 W2       3152     TIP3     OH2      OT      -0.834000       15.9994           0
      9455 W2       3152     TIP3     H1       HT       0.417000       1.00800           0
      9456 W2       3152     TIP3     H2       HT       0.417000       1.00800           0
      9457 W2       3153     TIP3     OH2      OT      -0.834000       15.9994           0
      9458 W2       3153     TIP3     H1       HT       0.417000       1.00800           0
      9459 W2       3153     TIP3     H2       HT       0.417000       1.00800           0
      9460 W2       3154     TIP3     OH2      OT      -0.834000       15.9994           0
      9461 W2       3154     TIP3     H1       HT       0.417000       1.00800           0
      9462 W2       3154     TIP3     H2       HT       0.417000       1.00800           0
      9463 W2       3155     TIP3     OH2      OT      -0.834000       15.9994           0
      9464 W2       3155     TIP3     H1       HT       0.417000       1.00800           0
      9465 W2       3155     TIP3     H2       HT       0.417000       1.00800           0
      9466 W2       3156     TIP3     OH2      OT      -0.834000       15.9994           0
      9467 W2       3156     TIP3     H1       HT       0.417000       1.00800           0
      9468 W2       3156     TIP3     H2       HT       0.417000       1.00800           0
      9469 W2       3157     TIP3     OH2      OT      -0.834000       15.9994           0
      9470 W2       3157     TIP3     H1       HT       0.417000       1.00800           0
      9471 W2       3157     TIP3     H2       HT       0.417000       1.00800           0
      9472 W2       3158     TIP3     OH2      OT      -0.834000       15.9994           0
      9473 W2       3158     TIP3     H1       HT       0.417000       1.00800           0
      9474 W2       3158     TIP3     H2       HT       0.417000       1.00800           0
      9475 W2       3159     TIP3     OH2      OT      -0.834000       15.9994           0
      9476 W2       3159     TIP3     H1       HT       0.417000       1.00800           0
      9477 W2       3159     TIP3     H2       HT       0.417000       1.00800           0
      9478 W2       3160     TIP3     OH2      OT      -0.834000       15.9994           0
      9479 W2       3160     TIP3     H1       HT       0.417000       1.00800           0
      9480 W2       3160     TIP3     H2       HT       0.417000       1.00800           0
      9481 W2       3161     TIP3     OH2      OT      -0.834000       15.9994           0
      9482 W2       3161     TIP3     H1       HT       0.417000       1.00800           0
      9483 W2       3161     TIP3     H2       HT       0.417000       1.00800           0
      9484 W2       3162     TIP3     OH2      OT      -0.834000       15.9994           0
      9485 W2       3162     TIP3     H1       HT       0.417000       1.00800           0
      9486 W2       3162     TIP3     H2       HT       0.417000       1.00800           0
      9487 W2       3163     TIP3     OH2      OT      -0.834000       15.9994           0
      9488 W2       3163     TIP3     H1       HT       0.417000       1.00800           0
      9489 W2       3163     TIP3     H2       HT       0.417000       1.00800           0
      9490 W2       3164     TIP3     OH2      OT      -0.834000       15.9994           0
      9491 W2       3164     TIP3     H1       HT       0.417000       1.00800           0
      9492 W2       3164     TIP3     H2       HT       0.417000       1.00800           0
      9493 W2       3165     TIP3     OH2      OT      -0.834000       15.9994           0
      9494 W2       3165     TIP3     H1       HT       0.417000       1.00800           0
      9495 W2       3165     TIP3     H2       HT       0.417000       1.00800           0
      9496 W2       3166     TIP3     OH2      OT      -0.834000       15.9994           0
      9497 W2       3166     TIP3     H1       HT       0.417000       1.00800           0
      9498 W2       3166     TIP3     H2       HT       0.417000       1.00800           0
      9499 W2       3167     TIP3     OH2      OT      -0.834000       15.9994           0
      9500 W2       3167     TIP3     H1       HT       0.417000       1.00800           0
      9501 W2       3167     TIP3     H2       HT       0.417000       1.00800           0
      9502 W2       3168     TIP3     OH2      OT      -0.834000       15.9994           0
      9503 W2       3168     TIP3     H1       HT       0.417000       1.00800           0
      9504 W2       3168     TIP3     H2       HT       0.417000       1.00800           0
      9505 W2       3169     TIP3     OH2      OT      -0.834000       15.9994           0
      9506 W2       3169     TIP3     H1       HT       0.417000       1.00800           0
      9507 W2       3169     TIP3     H2       HT       0.417000       1.00800           0
      9508 W2       3170     TIP3     OH2      OT      -0.834000       15.9994           0
      9509 W2       3170     TIP3     H1       HT       0.417000       1.00800           0
      9510 W2       3170     TIP3     H2       HT       0.417000       1.00800           0
      9511 W2       3171     TIP3     OH2      OT      -0.834000       15.9994           0
      9512 W2       3171     TIP3     H1       HT       0.417000       1.00800           0
      9513 W2       3171     TIP3     H2       HT       0.417000       1.00800           0
      9514 W2       3172     TIP3     OH2      OT      -0.834000       15.9994           0
      9515 W2       3172     TIP3     H1       HT       0.417000       1.00800           0
      9516 W2       3172     TIP3     H2       HT       0.417000       1.00800           0
      9517 W2       3173     TIP3     OH2      OT      -0.834000       15.9994           0
      9518 W2       3173     TIP3     H1       HT       0.417000       1.00800           0
      9519 W2       3173     TIP3     H2       HT       0.417000       1.00800           0
      9520 W2       3174     TIP3     OH2      OT      -0.834000       15.9994           0
      9521 W2       3174     TIP3     H1       HT       0.417000       1.00800           0
      9522 W2       3174     TIP3     H2       HT       0.417000       1.00800           0
      9523 W2       3175     TIP3     OH2      OT      -0.834000       15.9994           0
      9524 W2       3175     TIP3     H1       HT       0.417000       1.00800           0
      9525 W2       3175     TIP3     H2       HT       0.417000       1.00800           0
      9526 W2       3176     TIP3     OH2      OT      -0.834000       15.9994           0
      9527 W2       3176     TIP3     H1       HT       0.417000       1.00800           0
      9528 W2       3176     TIP3     H2       HT       0.417000       1.00800           0
      9529 W2       3177     TIP3     OH2      OT      -0.834000       15.9994           0
      9530 W2       3177     TIP3     H1       HT       0.417000       1.00800           0
      9531 W2       3177     TIP3     H2       HT       0.417000       1.00800           0
      9532 W2       3178     TIP3     OH2      OT      -0.834000       15.9994           0
      9533 W2       3178     TIP3     H1       HT       0.417000       1.00800           0
      9534 W2       3178     TIP3     H2       HT       0.417000       1.00800           0
      9535 W2       3179     TIP3     OH2      OT      -0.834000       15.9994           0
      9536 W2       3179     TIP3     H1       HT       0.417000       1.00800           0
      9537 W2       3179     TIP3     H2       HT       0.417000       1.00800           0
      9538 W2       3180     TIP3     OH2      OT      -0.834000       15.9994           0
      9539 W2       3180     TIP3     H1       HT       0.417000       1.00800           0
      9540 W2       3180     TIP3     H2       HT       0.417000       1.00800           0
      9541 W2       3181     TIP3     OH2      OT      -0.834000       15.9994           0
      9542 W2       3181     TIP3     H1       HT       0.417000       1.00800           0
      9543 W2       3181     TIP3     H2       HT       0.417000       1.00800           0
      9544 W2       3182     TIP3     OH2      OT      -0.834000       15.9994           0
      9545 W2       3182     TIP3     H1       HT       0.417000       1.00800           0
      9546 W2       3182     TIP3     H2       HT       0.417000       1.00800           0
      9547 W2       3183     TIP3     OH2      OT      -0.834000       15.9994           0
      9548 W2       3183     TIP3     H1       HT       0.417000       1.00800           0
      9549 W2       3183     TIP3     H2       HT       0.417000       1.00800           0
      9550 W2       3184     TIP3     OH2      OT      -0.834000       15.9994           0
      9551 W2       3184     TIP3     H1       HT       0.417000       1.00800           0
      9552 W2       3184     TIP3     H2       HT       0.417000       1.00800           0
      9553 W2       3185     TIP3     OH2      OT      -0.834000       15.9994           0
      9554 W2       3185     TIP3     H1       HT       0.417000       1.00800           0
      9555 W2       3185     TIP3     H2       HT       0.417000       1.00800           0
      9556 W2       3186     TIP3     OH2      OT      -0.834000       15.9994           0
      9557 W2       3186     TIP3     H1       HT       0.417000       1.00800           0
      9558 W2       3186     TIP3     H2       HT       0.417000       1.00800           0
      9559 W2       3187     TIP3     OH2      OT      -0.834000       15.9994           0
      9560 W2       3187     TIP3     H1       HT       0.417000       1.00800           0
      9561 W2       3187     TIP3     H2       HT       0.417000       1.00800           0
      9562 W2       3188     TIP3     OH2      OT      -0.834000       15.9994           0
      9563 W2       3188     TIP3     H1       HT       0.417000       1.00800           0
      9564 W2       3188     TIP3     H2       HT       0.417000       1.00800           0
      9565 W2       3189     TIP3     OH2      OT      -0.834000       15.9994           0
      9566 W2       3189     TIP3     H1       HT       0.417000       1.00800           0
      9567 W2       3189     TIP3     H2       HT       0.417000       1.00800           0
      9568 W2       3190     TIP3     OH2      OT      -0.834000       15.9994           0
      9569 W2       3190     TIP3     H1       HT       0.417000       1.00800           0
      9570 W2       3190     TIP3     H2       HT       0.417000       1.00800           0
      9571 W2       3191     TIP3     OH2      OT      -0.834000       15.9994           0
      9572 W2       3191     TIP3     H1       HT       0.417000       1.00800           0
      9573 W2       3191     TIP3     H2       HT       0.417000       1.00800           0
      9574 W2       3192     TIP3     OH2      OT      -0.834000       15.9994           0
      9575 W2       3192     TIP3     H1       HT       0.417000       1.00800           0
      9576 W2       3192     TIP3     H2       HT       0.417000       1.00800           0
      9577 W2       3193     TIP3     OH2      OT      -0.834000       15.9994           0
      9578 W2       3193     TIP3     H1       HT       0.417000       1.00800           0
      9579 W2       3193     TIP3     H2       HT       0.417000       1.00800           0
      9580 W2       3194     TIP3     OH2      OT      -0.834000       15.9994           0
      9581 W2       3194     TIP3     H1       HT       0.417000       1.00800           0
      9582 W2       3194     TIP3     H2       HT       0.417000       1.00800           0
      9583 W2       3195     TIP3     OH2      OT      -0.834000       15.9994           0
      9584 W2       3195     TIP3     H1       HT       0.417000       1.00800           0
      9585 W2       3195     TIP3     H2       HT       0.417000       1.00800           0
      9586 W2       3196     TIP3     OH2      OT      -0.834000       15.9994           0
      9587 W2       3196     TIP3     H1       HT       0.417000       1.00800           0
      9588 W2       3196     TIP3     H2       HT       0.417000       1.00800           0
      9589 W2       3197     TIP3     OH2      OT      -0.834000       15.9994           0
      9590 W2       3197     TIP3     H1       HT       0.417000       1.00800           0
      9591 W2       3197     TIP3     H2       HT       0.417000       1.00800           0
      9592 W2       3198     TIP3     OH2      OT      -0.834000       15.9994           0
      9593 W2       3198     TIP3     H1       HT       0.417000       1.00800           0
      9594 W2       3198     TIP3     H2       HT       0.417000       1.00800           0
      9595 W2       3199     TIP3     OH2      OT      -0.834000       15.9994           0
      9596 W2       3199     TIP3     H1       HT       0.417000       1.00800           0
      9597 W2       3199     TIP3     H2       HT       0.417000       1.00800           0
      9598 W2       3200     TIP3     OH2      OT      -0.834000       15.9994           0
      9599 W2       3200     TIP3     H1       HT       0.417000       1.00800           0
      9600 W2       3200     TIP3     H2       HT       0.417000       1.00800           0
      9601 W2       3201     TIP3     OH2      OT      -0.834000       15.9994           0
      9602 W2       3201     TIP3     H1       HT       0.417000       1.00800           0
      9603 W2       3201     TIP3     H2       HT       0.417000       1.00800           0
      9604 W2       3202     TIP3     OH2      OT      -0.834000       15.9994           0
      9605 W2       3202     TIP3     H1       HT       0.417000       1.00800           0
      9606 W2       3202     TIP3     H2       HT       0.417000       1.00800           0
      9607 W2       3203     TIP3     OH2      OT      -0.834000       15.9994           0
      9608 W2       3203     TIP3     H1       HT       0.417000       1.00800           0
      9609 W2       3203     TIP3     H2       HT       0.417000       1.00800           0
      9610 W2       3204     TIP3     OH2      OT      -0.834000       15.9994           0
      9611 W2       3204     TIP3     H1       HT       0.417000       1.00800           0
      9612 W2       3204     TIP3     H2       HT       0.417000       1.00800           0
      9613 W2       3205     TIP3     OH2      OT      -0.834000       15.9994           0
      9614 W2       3205     TIP3     H1       HT       0.417000       1.00800           0
      9615 W2       3205     TIP3     H2       HT       0.417000       1.00800           0
      9616 W2       3206     TIP3     OH2      OT      -0.834000       15.9994           0
      9617 W2       3206     TIP3     H1       HT       0.417000       1.00800           0
      9618 W2       3206     TIP3     H2       HT       0.417000       1.00800           0
      9619 W2       3207     TIP3     OH2      OT      -0.834000       15.9994           0
      9620 W2       3207     TIP3     H1       HT       0.417000       1.00800           0
      9621 W2       3207     TIP3     H2       HT       0.417000       1.00800           0
      9622 W2       3208     TIP3     OH2      OT      -0.834000       15.9994           0
      9623 W2       3208     TIP3     H1       HT       0.417000       1.00800           0
      9624 W2       3208     TIP3     H2       HT       0.417000       1.00800           0
      9625 W2       3209     TIP3     OH2      OT      -0.834000       15.9994           0
      9626 W2       3209     TIP3     H1       HT       0.417000       1.00800           0
      9627 W2       3209     TIP3     H2       HT       0.417000       1.00800           0
      9628 W2       3210     TIP3     OH2      OT      -0.834000       15.9994           0
      9629 W2       3210     TIP3     H1       HT       0.417000       1.00800           0
      9630 W2       3210     TIP3     H2       HT       0.417000       1.00800           0
      9631 W2       3211     TIP3     OH2      OT      -0.834000       15.9994           0
      9632 W2       3211     TIP3     H1       HT       0.417000       1.00800           0
      9633 W2       3211     TIP3     H2       HT       0.417000       1.00800           0
      9634 W2       3212     TIP3     OH2      OT      -0.834000       15.9994           0
      9635 W2       3212     TIP3     H1       HT       0.417000       1.00800           0
      9636 W2       3212     TIP3     H2       HT       0.417000       1.00800           0
      9637 W2       3213     TIP3     OH2      OT      -0.834000       15.9994           0
      9638 W2       3213     TIP3     H1       HT       0.417000       1.00800           0
      9639 W2       3213     TIP3     H2       HT       0.417000       1.00800           0
      9640 W2       3214     TIP3     OH2      OT      -0.834000       15.9994           0
      9641 W2       3214     TIP3     H1       HT       0.417000       1.00800           0
      9642 W2       3214     TIP3     H2       HT       0.417000       1.00800           0
      9643 W2       3215     TIP3     OH2      OT      -0.834000       15.9994           0
      9644 W2       3215     TIP3     H1       HT       0.417000       1.00800           0
      9645 W2       3215     TIP3     H2       HT       0.417000       1.00800           0
      9646 W2       3216     TIP3     OH2      OT      -0.834000       15.9994           0
      9647 W2       3216     TIP3     H1       HT       0.417000       1.00800           0
      9648 W2       3216     TIP3     H2       HT       0.417000       1.00800           0
      9649 W2       3217     TIP3     OH2      OT      -0.834000       15.9994           0
      9650 W2       3217     TIP3     H1       HT       0.417000       1.00800           0
      9651 W2       3217     TIP3     H2       HT       0.417000       1.00800           0
      9652 W2       3218     TIP3     OH2      OT      -0.834000       15.9994           0
      9653 W2       3218     TIP3     H1       HT       0.417000       1.00800           0
      9654 W2       3218     TIP3     H2       HT       0.417000       1.00800           0
      9655 W2       3219     TIP3     OH2      OT      -0.834000       15.9994           0
      9656 W2       3219     TIP3     H1       HT       0.417000       1.00800           0
      9657 W2       3219     TIP3     H2       HT       0.417000       1.00800           0
      9658 W2       3220     TIP3     OH2      OT      -0.834000       15.9994           0
      9659 W2       3220     TIP3     H1       HT       0.417000       1.00800           0
      9660 W2       3220     TIP3     H2       HT       0.417000       1.00800           0
      9661 W2       3221     TIP3     OH2      OT      -0.834000       15.9994           0
      9662 W2       3221     TIP3     H1       HT       0.417000       1.00800           0
      9663 W2       3221     TIP3     H2       HT       0.417000       1.00800           0
      9664 W2       3222     TIP3     OH2      OT      -0.834000       15.9994           0
      9665 W2       3222     TIP3     H1       HT       0.417000       1.00800           0
      9666 W2       3222     TIP3     H2       HT       0.417000       1.00800           0
      9667 W2       3223     TIP3     OH2      OT      -0.834000       15.9994           0
      9668 W2       3223     TIP3     H1       HT       0.417000       1.00800           0
      9669 W2       3223     TIP3     H2       HT       0.417000       1.00800           0
      9670 W2       3224     TIP3     OH2      OT      -0.834000       15.9994           0
      9671 W2       3224     TIP3     H1       HT       0.417000       1.00800           0
      9672 W2       3224     TIP3     H2       HT       0.417000       1.00800           0
      9673 W2       3225     TIP3     OH2      OT      -0.834000       15.9994           0
      9674 W2       3225     TIP3     H1       HT       0.417000       1.00800           0
      9675 W2       3225     TIP3     H2       HT       0.417000       1.00800           0
      9676 W2       3226     TIP3     OH2      OT      -0.834000       15.9994           0
      9677 W2       3226     TIP3     H1       HT       0.417000       1.00800           0
      9678 W2       3226     TIP3     H2       HT       0.417000       1.00800           0
      9679 W2       3227     TIP3     OH2      OT      -0.834000       15.9994           0
      9680 W2       3227     TIP3     H1       HT       0.417000       1.00800           0
      9681 W2       3227     TIP3     H2       HT       0.417000       1.00800           0
      9682 W2       3228     TIP3     OH2      OT      -0.834000       15.9994           0
      9683 W2       3228     TIP3     H1       HT       0.417000       1.00800           0
      9684 W2       3228     TIP3     H2       HT       0.417000       1.00800           0
      9685 W2       3229     TIP3     OH2      OT      -0.834000       15.9994           0
      9686 W2       3229     TIP3     H1       HT       0.417000       1.00800           0
      9687 W2       3229     TIP3     H2       HT       0.417000       1.00800           0
      9688 W2       3230     TIP3     OH2      OT      -0.834000       15.9994           0
      9689 W2       3230     TIP3     H1       HT       0.417000       1.00800           0
      9690 W2       3230     TIP3     H2       HT       0.417000       1.00800           0
      9691 W2       3231     TIP3     OH2      OT      -0.834000       15.9994           0
      9692 W2       3231     TIP3     H1       HT       0.417000       1.00800           0
      9693 W2       3231     TIP3     H2       HT       0.417000       1.00800           0
      9694 W2       3232     TIP3     OH2      OT      -0.834000       15.9994           0
      9695 W2       3232     TIP3     H1       HT       0.417000       1.00800           0
      9696 W2       3232     TIP3     H2       HT       0.417000       1.00800           0
      9697 W2       3233     TIP3     OH2      OT      -0.834000       15.9994           0
      9698 W2       3233     TIP3     H1       HT       0.417000       1.00800           0
      9699 W2       3233     TIP3     H2       HT       0.417000       1.00800           0
      9700 W2       3234     TIP3     OH2      OT      -0.834000       15.9994           0
      9701 W2       3234     TIP3     H1       HT       0.417000       1.00800           0
      9702 W2       3234     TIP3     H2       HT       0.417000       1.00800           0
      9703 W2       3235     TIP3     OH2      OT      -0.834000       15.9994           0
      9704 W2       3235     TIP3     H1       HT       0.417000       1.00800           0
      9705 W2       3235     TIP3     H2       HT       0.417000       1.00800           0
      9706 W2       3236     TIP3     OH2      OT      -0.834000       15.9994           0
      9707 W2       3236     TIP3     H1       HT       0.417000       1.00800           0
      9708 W2       3236     TIP3     H2       HT       0.417000       1.00800           0
      9709 W2       3237     TIP3     OH2      OT      -0.834000       15.9994           0
      9710 W2       3237     TIP3     H1       HT       0.417000       1.00800           0
      9711 W2       3237     TIP3     H2       HT       0.417000       1.00800           0
      9712 W2       3238     TIP3     OH2      OT      -0.834000       15.9994           0
      9713 W2       3238     TIP3     H1       HT       0.417000       1.00800           0
      9714 W2       3238     TIP3     H2       HT       0.417000       1.00800           0
      9715 W2       3239     TIP3     OH2      OT      -0.834000       15.9994           0
      9716 W2       3239     TIP3     H1       HT       0.417000       1.00800           0
      9717 W2       3239     TIP3     H2       HT       0.417000       1.00800           0
      9718 W2       3240     TIP3     OH2      OT      -0.834000       15.9994           0
      9719 W2       3240     TIP3     H1       HT       0.417000       1.00800           0
      9720 W2       3240     TIP3     H2       HT       0.417000       1.00800           0
      9721 W2       3241     TIP3     OH2      OT      -0.834000       15.9994           0
      9722 W2       3241     TIP3     H1       HT       0.417000       1.00800           0
      9723 W2       3241     TIP3     H2       HT       0.417000       1.00800           0
      9724 W2       3242     TIP3     OH2      OT      -0.834000       15.9994           0
      9725 W2       3242     TIP3     H1       HT       0.417000       1.00800           0
      9726 W2       3242     TIP3     H2       HT       0.417000       1.00800           0
      9727 W2       3243     TIP3     OH2      OT      -0.834000       15.9994           0
      9728 W2       3243     TIP3     H1       HT       0.417000       1.00800           0
      9729 W2       3243     TIP3     H2       HT       0.417000       1.00800           0
      9730 W2       3244     TIP3     OH2      OT      -0.834000       15.9994           0
      9731 W2       3244     TIP3     H1       HT       0.417000       1.00800           0
      9732 W2       3244     TIP3     H2       HT       0.417000       1.00800           0
      9733 W2       3245     TIP3     OH2      OT      -0.834000       15.9994           0
      9734 W2       3245     TIP3     H1       HT       0.417000       1.00800           0
      9735 W2       3245     TIP3     H2       HT       0.417000       1.00800           0
      9736 W2       3246     TIP3     OH2      OT      -0.834000       15.9994           0
      9737 W2       3246     TIP3     H1       HT       0.417000       1.00800           0
      9738 W2       3246     TIP3     H2       HT       0.417000       1.00800           0
      9739 W2       3247     TIP3     OH2      OT      -0.834000       15.9994           0
      9740 W2       3247     TIP3     H1       HT       0.417000       1.00800           0
      9741 W2       3247     TIP3     H2       HT       0.417000       1.00800           0
      9742 W2       3248     TIP3     OH2      OT      -0.834000       15.9994           0
      9743 W2       3248     TIP3     H1       HT       0.417000       1.00800           0
      9744 W2       3248     TIP3     H2       HT       0.417000       1.00800           0
      9745 W2       3249     TIP3     OH2      OT      -0.834000       15.9994           0
      9746 W2       3249     TIP3     H1       HT       0.417000       1.00800           0
      9747 W2       3249     TIP3     H2       HT       0.417000       1.00800           0
      9748 W2       3250     TIP3     OH2      OT      -0.834000       15.9994           0
      9749 W2       3250     TIP3     H1       HT       0.417000       1.00800           0
      9750 W2       3250     TIP3     H2       HT       0.417000       1.00800           0
      9751 W2       3251     TIP3     OH2      OT      -0.834000       15.9994           0
      9752 W2       3251     TIP3     H1       HT       0.417000       1.00800           0
      9753 W2       3251     TIP3     H2       HT       0.417000       1.00800           0
      9754 W2       3252     TIP3     OH2      OT      -0.834000       15.9994           0
      9755 W2       3252     TIP3     H1       HT       0.417000       1.00800           0
      9756 W2       3252     TIP3     H2       HT       0.417000       1.00800           0
      9757 W2       3253     TIP3     OH2      OT      -0.834000       15.9994           0
      9758 W2       3253     TIP3     H1       HT       0.417000       1.00800           0
      9759 W2       3253     TIP3     H2       HT       0.417000       1.00800           0
      9760 W2       3254     TIP3     OH2      OT      -0.834000       15.9994           0
      9761 W2       3254     TIP3     H1       HT       0.417000       1.00800           0
      9762 W2       3254     TIP3     H2       HT       0.417000       1.00800           0
      9763 W2       3255     TIP3     OH2      OT      -0.834000       15.9994           0
      9764 W2       3255     TIP3     H1       HT       0.417000       1.00800           0
      9765 W2       3255     TIP3     H2       HT       0.417000       1.00800           0
      9766 W2       3256     TIP3     OH2      OT      -0.834000       15.9994           0
      9767 W2       3256     TIP3     H1       HT       0.417000       1.00800           0
      9768 W2       3256     TIP3     H2       HT       0.417000       1.00800           0
      9769 W2       3257     TIP3     OH2      OT      -0.834000       15.9994           0
      9770 W2       3257     TIP3     H1       HT       0.417000       1.00800           0
      9771 W2       3257     TIP3     H2       HT       0.417000       1.00800           0
      9772 W2       3258     TIP3     OH2      OT      -0.834000       15.9994           0
      9773 W2       3258     TIP3     H1       HT       0.417000       1.00800           0
      9774 W2       3258     TIP3     H2       HT       0.417000       1.00800           0
      9775 W2       3259     TIP3     OH2      OT      -0.834000       15.9994           0
      9776 W2       3259     TIP3     H1       HT       0.417000       1.00800           0
      9777 W2       3259     TIP3     H2       HT       0.417000       1.00800           0
      9778 W2       3260     TIP3     OH2      OT      -0.834000       15.9994           0
      9779 W2       3260     TIP3     H1       HT       0.417000       1.00800           0
      9780 W2       3260     TIP3     H2       HT       0.417000       1.00800           0
      9781 W2       3261     TIP3     OH2      OT      -0.834000       15.9994           0
      9782 W2       3261     TIP3     H1       HT       0.417000       1.00800           0
      9783 W2       3261     TIP3     H2       HT       0.417000       1.00800           0
      9784 W2       3262     TIP3     OH2      OT      -0.834000       15.9994           0
      9785 W2       3262     TIP3     H1       HT       0.417000       1.00800           0
      9786 W2       3262     TIP3     H2       HT       0.417000       1.00800           0
      9787 W2       3263     TIP3     OH2      OT      -0.834000       15.9994           0
      9788 W2       3263     TIP3     H1       HT       0.417000       1.00800           0
      9789 W2       3263     TIP3     H2       HT       0.417000       1.00800           0
      9790 W2       3264     TIP3     OH2      OT      -0.834000       15.9994           0
      9791 W2       3264     TIP3     H1       HT       0.417000       1.00800           0
      9792 W2       3264     TIP3     H2       HT       0.417000       1.00800           0
      9793 W2       3265     TIP3     OH2      OT      -0.834000       15.9994           0
      9794 W2       3265     TIP3     H1       HT       0.417000       1.00800           0
      9795 W2       3265     TIP3     H2       HT       0.417000       1.00800           0
      9796 W2       3266     TIP3     OH2      OT      -0.834000       15.9994           0
      9797 W2       3266     TIP3     H1       HT       0.417000       1.00800           0
      9798 W2       3266     TIP3     H2       HT       0.417000       1.00800           0
      9799 W2       3267     TIP3     OH2      OT      -0.834000       15.9994           0
      9800 W2       3267     TIP3     H1       HT       0.417000       1.00800           0
      9801 W2       3267     TIP3     H2       HT       0.417000       1.00800           0
      9802 W2       3268     TIP3     OH2      OT      -0.834000       15.9994           0
      9803 W2       3268     TIP3     H1       HT       0.417000       1.00800           0
      9804 W2       3268     TIP3     H2       HT       0.417000       1.00800           0
      9805 W2       3269     TIP3     OH2      OT      -0.834000       15.9994           0
      9806 W2       3269     TIP3     H1       HT       0.417000       1.00800           0
      9807 W2       3269     TIP3     H2       HT       0.417000       1.00800           0
      9808 W2       3270     TIP3     OH2      OT      -0.834000       15.9994           0
      9809 W2       3270     TIP3     H1       HT       0.417000       1.00800           0
      9810 W2       3270     TIP3     H2       HT       0.417000       1.00800           0
      9811 W2       3271     TIP3     OH2      OT      -0.834000       15.9994           0
      9812 W2       3271     TIP3     H1       HT       0.417000       1.00800           0
      9813 W2       3271     TIP3     H2       HT       0.417000       1.00800           0
      9814 W2       3272     TIP3     OH2      OT      -0.834000       15.9994           0
      9815 W2       3272     TIP3     H1       HT       0.417000       1.00800           0
      9816 W2       3272     TIP3     H2       HT       0.417000       1.00800           0
      9817 W2       3273     TIP3     OH2      OT      -0.834000       15.9994           0
      9818 W2       3273     TIP3     H1       HT       0.417000       1.00800           0
      9819 W2       3273     TIP3     H2       HT       0.417000       1.00800           0
      9820 W2       3274     TIP3     OH2      OT      -0.834000       15.9994           0
      9821 W2       3274     TIP3     H1       HT       0.417000       1.00800           0
      9822 W2       3274     TIP3     H2       HT       0.417000       1.00800           0
      9823 W2       3275     TIP3     OH2      OT      -0.834000       15.9994           0
      9824 W2       3275     TIP3     H1       HT       0.417000       1.00800           0
      9825 W2       3275     TIP3     H2       HT       0.417000       1.00800           0
      9826 W2       3276     TIP3     OH2      OT      -0.834000       15.9994           0
      9827 W2       3276     TIP3     H1       HT       0.417000       1.00800           0
      9828 W2       3276     TIP3     H2       HT       0.417000       1.00800           0
      9829 W2       3277     TIP3     OH2      OT      -0.834000       15.9994           0
      9830 W2       3277     TIP3     H1       HT       0.417000       1.00800           0
      9831 W2       3277     TIP3     H2       HT       0.417000       1.00800           0
      9832 W2       3278     TIP3     OH2      OT      -0.834000       15.9994           0
      9833 W2       3278     TIP3     H1       HT       0.417000       1.00800           0
      9834 W2       3278     TIP3     H2       HT       0.417000       1.00800           0
      9835 W2       3279     TIP3     OH2      OT      -0.834000       15.9994           0
      9836 W2       3279     TIP3     H1       HT       0.417000       1.00800           0
      9837 W2       3279     TIP3     H2       HT       0.417000       1.00800           0
      9838 W2       3280     TIP3     OH2      OT      -0.834000       15.9994           0
      9839 W2       3280     TIP3     H1       HT       0.417000       1.00800           0
      9840 W2       3280     TIP3     H2       HT       0.417000       1.00800           0
      9841 W2       3281     TIP3     OH2      OT      -0.834000       15.9994           0
      9842 W2       3281     TIP3     H1       HT       0.417000       1.00800           0
      9843 W2       3281     TIP3     H2       HT       0.417000       1.00800           0
      9844 W2       3282     TIP3     OH2      OT      -0.834000       15.9994           0
      9845 W2       3282     TIP3     H1       HT       0.417000       1.00800           0
      9846 W2       3282     TIP3     H2       HT       0.417000       1.00800           0
      9847 W2       3283     TIP3     OH2      OT      -0.834000       15.9994           0
      9848 W2       3283     TIP3     H1       HT       0.417000       1.00800           0
      9849 W2       3283     TIP3     H2       HT       0.417000       1.00800           0
      9850 W2       3284     TIP3     OH2      OT      -0.834000       15.9994           0
      9851 W2       3284     TIP3     H1       HT       0.417000       1.00800           0
      9852 W2       3284     TIP3     H2       HT       0.417000       1.00800           0
      9853 W2       3285     TIP3     OH2      OT      -0.834000       15.9994           0
      9854 W2       3285     TIP3     H1       HT       0.417000       1.00800           0
      9855 W2       3285     TIP3     H2       HT       0.417000       1.00800           0
      9856 W2       3286     TIP3     OH2      OT      -0.834000       15.9994           0
      9857 W2       3286     TIP3     H1       HT       0.417000       1.00800           0
      9858 W2       3286     TIP3     H2       HT       0.417000       1.00800           0
      9859 W2       3287     TIP3     OH2      OT      -0.834000       15.9994           0
      9860 W2       3287     TIP3     H1       HT       0.417000       1.00800           0
      9861 W2       3287     TIP3     H2       HT       0.417000       1.00800           0
      9862 W2       3288     TIP3     OH2      OT      -0.834000       15.9994           0
      9863 W2       3288     TIP3     H1       HT       0.417000       1.00800           0
      9864 W2       3288     TIP3     H2       HT       0.417000       1.00800           0
      9865 W2       3289     TIP3     OH2      OT      -0.834000       15.9994           0
      9866 W2       3289     TIP3     H1       HT       0.417000       1.00800           0
      9867 W2       3289     TIP3     H2       HT       0.417000       1.00800           0
      9868 W2       3290     TIP3     OH2      OT      -0.834000       15.9994           0
      9869 W2       3290     TIP3     H1       HT       0.417000       1.00800           0
      9870 W2       3290     TIP3     H2       HT       0.417000       1.00800           0
      9871 W2       3291     TIP3     OH2      OT      -0.834000       15.9994           0
      9872 W2       3291     TIP3     H1       HT       0.417000       1.00800           0
      9873 W2       3291     TIP3     H2       HT       0.417000       1.00800           0
      9874 W2       3292     TIP3     OH2      OT      -0.834000       15.9994           0
      9875 W2       3292     TIP3     H1       HT       0.417000       1.00800           0
      9876 W2       3292     TIP3     H2       HT       0.417000       1.00800           0
      9877 W2       3293     TIP3     OH2      OT      -0.834000       15.9994           0
      9878 W2       3293     TIP3     H1       HT       0.417000       1.00800           0
      9879 W2       3293     TIP3     H2       HT       0.417000       1.00800           0
      9880 W2       3294     TIP3     OH2      OT      -0.834000       15.9994           0
      9881 W2       3294     TIP3     H1       HT       0.417000       1.00800           0
      9882 W2       3294     TIP3     H2       HT       0.417000       1.00800           0
      9883 W2       3295     TIP3     OH2      OT      -0.834000       15.9994           0
      9884 W2       3295     TIP3     H1       HT       0.417000       1.00800           0
      9885 W2       3295     TIP3     H2       HT       0.417000       1.00800           0
      9886 W2       3296     TIP3     OH2      OT      -0.834000       15.9994           0
      9887 W2       3296     TIP3     H1       HT       0.417000       1.00800           0
      9888 W2       3296     TIP3     H2       HT       0.417000       1.00800           0
      9889 W2       3297     TIP3     OH2      OT      -0.834000       15.9994           0
      9890 W2       3297     TIP3     H1       HT       0.417000       1.00800           0
      9891 W2       3297     TIP3     H2       HT       0.417000       1.00800           0
      9892 W2       3298     TIP3     OH2      OT      -0.834000       15.9994           0
      9893 W2       3298     TIP3     H1       HT       0.417000       1.00800           0
      9894 W2       3298     TIP3     H2       HT       0.417000       1.00800           0
      9895 W2       3299     TIP3     OH2      OT      -0.834000       15.9994           0
      9896 W2       3299     TIP3     H1       HT       0.417000       1.00800           0
      9897 W2       3299     TIP3     H2       HT       0.417000       1.00800           0
      9898 W2       3300     TIP3     OH2      OT      -0.834000       15.9994           0
      9899 W2       3300     TIP3     H1       HT       0.417000       1.00800           0
      9900 W2       3300     TIP3     H2       HT       0.417000       1.00800           0
      9901 W2       3301     TIP3     OH2      OT      -0.834000       15.9994           0
      9902 W2       3301     TIP3     H1       HT       0.417000       1.00800           0
      9903 W2       3301     TIP3     H2       HT       0.417000       1.00800           0
      9904 W2       3302     TIP3     OH2      OT      -0.834000       15.9994           0
      9905 W2       3302     TIP3     H1       HT       0.417000       1.00800           0
      9906 W2       3302     TIP3     H2       HT       0.417000       1.00800           0
      9907 W2       3303     TIP3     OH2      OT      -0.834000       15.9994           0
      9908 W2       3303     TIP3     H1       HT       0.417000       1.00800           0
      9909 W2       3303     TIP3     H2       HT       0.417000       1.00800           0
      9910 W2       3304     TIP3     OH2      OT      -0.834000       15.9994           0
      9911 W2       3304     TIP3     H1       HT       0.417000       1.00800           0
      9912 W2       3304     TIP3     H2       HT       0.417000       1.00800           0
      9913 W2       3305     TIP3     OH2      OT      -0.834000       15.9994           0
      9914 W2       3305     TIP3     H1       HT       0.417000       1.00800           0
      9915 W2       3305     TIP3     H2       HT       0.417000       1.00800           0
      9916 W2       3306     TIP3     OH2      OT      -0.834000       15.9994           0
      9917 W2       3306     TIP3     H1       HT       0.417000       1.00800           0
      9918 W2       3306     TIP3     H2       HT       0.417000       1.00800           0
      9919 W2       3307     TIP3     OH2      OT      -0.834000       15.9994           0
      9920 W2       3307     TIP3     H1       HT       0.417000       1.00800           0
      9921 W2       3307     TIP3     H2       HT       0.417000       1.00800           0
      9922 W2       3308     TIP3     OH2      OT      -0.834000       15.9994           0
      9923 W2       3308     TIP3     H1       HT       0.417000       1.00800           0
      9924 W2       3308     TIP3     H2       HT       0.417000       1.00800           0
      9925 W2       3309     TIP3     OH2      OT      -0.834000       15.9994           0
      9926 W2       3309     TIP3     H1       HT       0.417000       1.00800           0
      9927 W2       3309     TIP3     H2       HT       0.417000       1.00800           0
      9928 W2       3310     TIP3     OH2      OT      -0.834000       15.9994           0
      9929 W2       3310     TIP3     H1       HT       0.417000       1.00800           0
      9930 W2       3310     TIP3     H2       HT       0.417000       1.00800           0
      9931 W2       3311     TIP3     OH2      OT      -0.834000       15.9994           0
      9932 W2       3311     TIP3     H1       HT       0.417000       1.00800           0
      9933 W2       3311     TIP3     H2       HT       0.417000       1.00800           0
      9934 W2       3312     TIP3     OH2      OT      -0.834000       15.9994           0
      9935 W2       3312     TIP3     H1       HT       0.417000       1.00800           0
      9936 W2       3312     TIP3     H2       HT       0.417000       1.00800           0
      9937 W2       3313     TIP3     OH2      OT      -0.834000       15.9994           0
      9938 W2       3313     TIP3     H1       HT       0.417000       1.00800           0
      9939 W2       3313     TIP3     H2       HT       0.417000       1.00800           0
      9940 W2       3314     TIP3     OH2      OT      -0.834000       15.9994           0
      9941 W2       3314     TIP3     H1       HT       0.417000       1.00800           0
      9942 W2       3314     TIP3     H2       HT       0.417000       1.00800           0
      9943 W2       3315     TIP3     OH2      OT      -0.834000       15.9994           0
      9944 W2       3315     TIP3     H1       HT       0.417000       1.00800           0
      9945 W2       3315     TIP3     H2       HT       0.417000       1.00800           0
      9946 W2       3316     TIP3     OH2      OT      -0.834000       15.9994           0
      9947 W2       3316     TIP3     H1       HT       0.417000       1.00800           0
      9948 W2       3316     TIP3     H2       HT       0.417000       1.00800           0
      9949 W2       3317     TIP3     OH2      OT      -0.834000       15.9994           0
      9950 W2       3317     TIP3     H1       HT       0.417000       1.00800           0
      9951 W2       3317     TIP3     H2       HT       0.417000       1.00800           0
      9952 W2       3318     TIP3     OH2      OT      -0.834000       15.9994           0
      9953 W2       3318     TIP3     H1       HT       0.417000       1.00800           0
      9954 W2       3318     TIP3     H2       HT       0.417000       1.00800           0
      9955 W2       3319     TIP3     OH2      OT      -0.834000       15.9994           0
      9956 W2       3319     TIP3     H1       HT       0.417000       1.00800           0
      9957 W2       3319     TIP3     H2       HT       0.417000       1.00800           0
      9958 W2       3320     TIP3     OH2      OT      -0.834000       15.9994           0
      9959 W2       3320     TIP3     H1       HT       0.417000       1.00800           0
      9960 W2       3320     TIP3     H2       HT       0.417000       1.00800           0
      9961 W2       3321     TIP3     OH2      OT      -0.834000       15.9994           0
      9962 W2       3321     TIP3     H1       HT       0.417000       1.00800           0
      9963 W2       3321     TIP3     H2       HT       0.417000       1.00800           0
      9964 W2       3322     TIP3     OH2      OT      -0.834000       15.9994           0
      9965 W2       3322     TIP3     H1       HT       0.417000       1.00800           0
      9966 W2       3322     TIP3     H2       HT       0.417000       1.00800           0
      9967 W2       3323     TIP3     OH2      OT      -0.834000       15.9994           0
      9968 W2       3323     TIP3     H1       HT       0.417000       1.00800           0
      9969 W2       3323     TIP3     H2       HT       0.417000       1.00800           0
      9970 W2       3324     TIP3     OH2      OT      -0.834000       15.9994           0
      9971 W2       3324     TIP3     H1       HT       0.417000       1.00800           0
      9972 W2       3324     TIP3     H2       HT       0.417000       1.00800           0
      9973 W2       3325     TIP3     OH2      OT      -0.834000       15.9994           0
      9974 W2       3325     TIP3     H1       HT       0.417000       1.00800           0
      9975 W2       3325     TIP3     H2       HT       0.417000       1.00800           0
      9976 W2       3326     TIP3     OH2      OT      -0.834000       15.9994           0
      9977 W2       3326     TIP3     H1       HT       0.417000       1.00800           0
      9978 W2       3326     TIP3     H2       HT       0.417000       1.00800           0
      9979 W2       3327     TIP3     OH2      OT      -0.834000       15.9994           0
      9980 W2       3327     TIP3     H1       HT       0.417000       1.00800           0
      9981 W2       3327     TIP3     H2       HT       0.417000       1.00800           0
      9982 W2       3328     TIP3     OH2      OT      -0.834000       15.9994           0
      9983 W2       3328     TIP3     H1       HT       0.417000       1.00800           0
      9984 W2       3328     TIP3     H2       HT       0.417000       1.00800           0
      9985 W2       3329     TIP3     OH2      OT      -0.834000       15.9994           0
      9986 W2       3329     TIP3     H1       HT       0.417000       1.00800           0
      9987 W2       3329     TIP3     H2       HT       0.417000       1.00800           0
      9988 W2       3330     TIP3     OH2      OT      -0.834000       15.9994           0
      9989 W2       3330     TIP3     H1       HT       0.417000       1.00800           0
      9990 W2       3330     TIP3     H2       HT       0.417000       1.00800           0
      9991 W2       3331     TIP3     OH2      OT      -0.834000       15.9994           0
      9992 W2       3331     TIP3     H1       HT       0.417000       1.00800           0
      9993 W2       3331     TIP3     H2       HT       0.417000       1.00800           0
      9994 W2       3332     TIP3     OH2      OT      -0.834000       15.9994           0
      9995 W2       3332     TIP3     H1       HT       0.417000       1.00800           0
      9996 W2       3332     TIP3     H2       HT       0.417000       1.00800           0
      9997 W2       3333     TIP3     OH2      OT      -0.834000       15.9994           0
      9998 W2       3333     TIP3     H1       HT       0.417000       1.00800           0
      9999 W2       3333     TIP3     H2       HT       0.417000       1.00800           0
     10000 W2       3334     TIP3     OH2      OT      -0.834000       15.9994           0
     10001 W2       3334     TIP3     H1       HT       0.417000       1.00800           0
     10002 W2       3334     TIP3     H2       HT       0.417000       1.00800           0
     10003 W2       3335     TIP3     OH2      OT      -0.834000       15.9994           0
     10004 W2       3335     TIP3     H1       HT       0.417000       1.00800           0
     10005 W2       3335     TIP3     H2       HT       0.417000       1.00800           0
     10006 W2       3336     TIP3     OH2      OT      -0.834000       15.9994           0
     10007 W2       3336     TIP3     H1       HT       0.417000       1.00800           0
     10008 W2       3336     TIP3     H2       HT       0.417000       1.00800           0
     10009 W2       3337     TIP3     OH2      OT      -0.834000       15.9994           0
     10010 W2       3337     TIP3     H1       HT       0.417000       1.00800           0
     10011 W2       3337     TIP3     H2       HT       0.417000       1.00800           0
     10012 W2       3338     TIP3     OH2      OT      -0.834000       15.9994           0
     10013 W2       3338     TIP3     H1       HT       0.417000       1.00800           0
     10014 W2       3338     TIP3     H2       HT       0.417000       1.00800           0
     10015 W2       3339     TIP3     OH2      OT      -0.834000       15.9994           0
     10016 W2       3339     TIP3     H1       HT       0.417000       1.00800           0
     10017 W2       3339     TIP3     H2       HT       0.417000       1.00800           0
     10018 W2       3340     TIP3     OH2      OT      -0.834000       15.9994           0
     10019 W2       3340     TIP3     H1       HT       0.417000       1.00800           0
     10020 W2       3340     TIP3     H2       HT       0.417000       1.00800           0
     10021 W2       3341     TIP3     OH2      OT      -0.834000       15.9994           0
     10022 W2       3341     TIP3     H1       HT       0.417000       1.00800           0
     10023 W2       3341     TIP3     H2       HT       0.417000       1.00800           0
     10024 W2       3342     TIP3     OH2      OT      -0.834000       15.9994           0
     10025 W2       3342     TIP3     H1       HT       0.417000       1.00800           0
     10026 W2       3342     TIP3     H2       HT       0.417000       1.00800           0
     10027 W2       3343     TIP3     OH2      OT      -0.834000       15.9994           0
     10028 W2       3343     TIP3     H1       HT       0.417000       1.00800           0
     10029 W2       3343     TIP3     H2       HT       0.417000       1.00800           0
     10030 W2       3344     TIP3     OH2      OT      -0.834000       15.9994           0
     10031 W2       3344     TIP3     H1       HT       0.417000       1.00800           0
     10032 W2       3344     TIP3     H2       HT       0.417000       1.00800           0
     10033 W2       3345     TIP3     OH2      OT      -0.834000       15.9994           0
     10034 W2       3345     TIP3     H1       HT       0.417000       1.00800           0
     10035 W2       3345     TIP3     H2       HT       0.417000       1.00800           0
     10036 W2       3346     TIP3     OH2      OT      -0.834000       15.9994           0
     10037 W2       3346     TIP3     H1       HT       0.417000       1.00800           0
     10038 W2       3346     TIP3     H2       HT       0.417000       1.00800           0
     10039 W2       3347     TIP3     OH2      OT      -0.834000       15.9994           0
     10040 W2       3347     TIP3     H1       HT       0.417000       1.00800           0
     10041 W2       3347     TIP3     H2       HT       0.417000       1.00800           0
     10042 W2       3348     TIP3     OH2      OT      -0.834000       15.9994           0
     10043 W2       3348     TIP3     H1       HT       0.417000       1.00800           0
     10044 W2       3348     TIP3     H2       HT       0.417000       1.00800           0
     10045 W2       3349     TIP3     OH2      OT      -0.834000       15.9994           0
     10046 W2       3349     TIP3     H1       HT       0.417000       1.00800           0
     10047 W2       3349     TIP3     H2       HT       0.417000       1.00800           0
     10048 W2       3350     TIP3     OH2      OT      -0.834000       15.9994           0
     10049 W2       3350     TIP3     H1       HT       0.417000       1.00800           0
     10050 W2       3350     TIP3     H2       HT       0.417000       1.00800           0
     10051 W2       3351     TIP3     OH2      OT      -0.834000       15.9994           0
     10052 W2       3351     TIP3     H1       HT       0.417000       1.00800           0
     10053 W2       3351     TIP3     H2       HT       0.417000       1.00800           0
     10054 W2       3352     TIP3     OH2      OT      -0.834000       15.9994           0
     10055 W2       3352     TIP3     H1       HT       0.417000       1.00800           0
     10056 W2       3352     TIP3     H2       HT       0.417000       1.00800           0
     10057 W2       3353     TIP3     OH2      OT      -0.834000       15.9994           0
     10058 W2       3353     TIP3     H1       HT       0.417000       1.00800           0
     10059 W2       3353     TIP3     H2       HT       0.417000       1.00800           0
     10060 W2       3354     TIP3     OH2      OT      -0.834000       15.9994           0
     10061 W2       3354     TIP3     H1       HT       0.417000       1.00800           0
     10062 W2       3354     TIP3     H2       HT       0.417000       1.00800           0
     10063 W2       3355     TIP3     OH2      OT      -0.834000       15.9994           0
     10064 W2       3355     TIP3     H1       HT       0.417000       1.00800           0
     10065 W2       3355     TIP3     H2       HT       0.417000       1.00800           0
     10066 W2       3356     TIP3     OH2      OT      -0.834000       15.9994           0
     10067 W2       3356     TIP3     H1       HT       0.417000       1.00800           0
     10068 W2       3356     TIP3     H2       HT       0.417000       1.00800           0
     10069 W2       3357     TIP3     OH2      OT      -0.834000       15.9994           0
     10070 W2       3357     TIP3     H1       HT       0.417000       1.00800           0
     10071 W2       3357     TIP3     H2       HT       0.417000       1.00800           0
     10072 W2       3358     TIP3     OH2      OT      -0.834000       15.9994           0
     10073 W2       3358     TIP3     H1       HT       0.417000       1.00800           0
     10074 W2       3358     TIP3     H2       HT       0.417000       1.00800           0
     10075 W2       3359     TIP3     OH2      OT      -0.834000       15.9994           0
     10076 W2       3359     TIP3     H1       HT       0.417000       1.00800           0
     10077 W2       3359     TIP3     H2       HT       0.417000       1.00800           0
     10078 W2       3360     TIP3     OH2      OT      -0.834000       15.9994           0
     10079 W2       3360     TIP3     H1       HT       0.417000       1.00800           0
     10080 W2       3360     TIP3     H2       HT       0.417000       1.00800           0
     10081 W2       3361     TIP3     OH2      OT      -0.834000       15.9994           0
     10082 W2       3361     TIP3     H1       HT       0.417000       1.00800           0
     10083 W2       3361     TIP3     H2       HT       0.417000       1.00800           0
     10084 W2       3362     TIP3     OH2      OT      -0.834000       15.9994           0
     10085 W2       3362     TIP3     H1       HT       0.417000       1.00800           0
     10086 W2       3362     TIP3     H2       HT       0.417000       1.00800           0
     10087 W2       3363     TIP3     OH2      OT      -0.834000       15.9994           0
     10088 W2       3363     TIP3     H1       HT       0.417000       1.00800           0
     10089 W2       3363     TIP3     H2       HT       0.417000       1.00800           0
     10090 W2       3364     TIP3     OH2      OT      -0.834000       15.9994           0
     10091 W2       3364     TIP3     H1       HT       0.417000       1.00800           0
     10092 W2       3364     TIP3     H2       HT       0.417000       1.00800           0
     10093 W2       3365     TIP3     OH2      OT      -0.834000       15.9994           0
     10094 W2       3365     TIP3     H1       HT       0.417000       1.00800           0
     10095 W2       3365     TIP3     H2       HT       0.417000       1.00800           0
     10096 W2       3366     TIP3     OH2      OT      -0.834000       15.9994           0
     10097 W2       3366     TIP3     H1       HT       0.417000       1.00800           0
     10098 W2       3366     TIP3     H2       HT       0.417000       1.00800           0
     10099 W2       3367     TIP3     OH2      OT      -0.834000       15.9994           0
     10100 W2       3367     TIP3     H1       HT       0.417000       1.00800           0
     10101 W2       3367     TIP3     H2       HT       0.417000       1.00800           0
     10102 W2       3368     TIP3     OH2      OT      -0.834000       15.9994           0
     10103 W2       3368     TIP3     H1       HT       0.417000       1.00800           0
     10104 W2       3368     TIP3     H2       HT       0.417000       1.00800           0
     10105 W2       3369     TIP3     OH2      OT      -0.834000       15.9994           0
     10106 W2       3369     TIP3     H1       HT       0.417000       1.00800           0
     10107 W2       3369     TIP3     H2       HT       0.417000       1.00800           0
     10108 W2       3370     TIP3     OH2      OT      -0.834000       15.9994           0
     10109 W2       3370     TIP3     H1       HT       0.417000       1.00800           0
     10110 W2       3370     TIP3     H2       HT       0.417000       1.00800           0
     10111 W2       3371     TIP3     OH2      OT      -0.834000       15.9994           0
     10112 W2       3371     TIP3     H1       HT       0.417000       1.00800           0
     10113 W2       3371     TIP3     H2       HT       0.417000       1.00800           0
     10114 W2       3372     TIP3     OH2      OT      -0.834000       15.9994           0
     10115 W2       3372     TIP3     H1       HT       0.417000       1.00800           0
     10116 W2       3372     TIP3     H2       HT       0.417000       1.00800           0
     10117 W2       3373     TIP3     OH2      OT      -0.834000       15.9994           0
     10118 W2       3373     TIP3     H1       HT       0.417000       1.00800           0
     10119 W2       3373     TIP3     H2       HT       0.417000       1.00800           0
     10120 W2       3374     TIP3     OH2      OT      -0.834000       15.9994           0
     10121 W2       3374     TIP3     H1       HT       0.417000       1.00800           0
     10122 W2       3374     TIP3     H2       HT       0.417000       1.00800           0
     10123 W2       3375     TIP3     OH2      OT      -0.834000       15.9994           0
     10124 W2       3375     TIP3     H1       HT       0.417000       1.00800           0
     10125 W2       3375     TIP3     H2       HT       0.417000       1.00800           0
     10126 W2       3376     TIP3     OH2      OT      -0.834000       15.9994           0
     10127 W2       3376     TIP3     H1       HT       0.417000       1.00800           0
     10128 W2       3376     TIP3     H2       HT       0.417000       1.00800           0
     10129 W2       3377     TIP3     OH2      OT      -0.834000       15.9994           0
     10130 W2       3377     TIP3     H1       HT       0.417000       1.00800           0
     10131 W2       3377     TIP3     H2       HT       0.417000       1.00800           0
     10132 W2       3378     TIP3     OH2      OT      -0.834000       15.9994           0
     10133 W2       3378     TIP3     H1       HT       0.417000       1.00800           0
     10134 W2       3378     TIP3     H2       HT       0.417000       1.00800           0
     10135 W2       3379     TIP3     OH2      OT      -0.834000       15.9994           0
     10136 W2       3379     TIP3     H1       HT       0.417000       1.00800           0
     10137 W2       3379     TIP3     H2       HT       0.417000       1.00800           0
     10138 W2       3380     TIP3     OH2      OT      -0.834000       15.9994           0
     10139 W2       3380     TIP3     H1       HT       0.417000       1.00800           0
     10140 W2       3380     TIP3     H2       HT       0.417000       1.00800           0
     10141 W2       3381     TIP3     OH2      OT      -0.834000       15.9994           0
     10142 W2       3381     TIP3     H1       HT       0.417000       1.00800           0
     10143 W2       3381     TIP3     H2       HT       0.417000       1.00800           0
     10144 W2       3382     TIP3     OH2      OT      -0.834000       15.9994           0
     10145 W2       3382     TIP3     H1       HT       0.417000       1.00800           0
     10146 W2       3382     TIP3     H2       HT       0.417000       1.00800           0
     10147 W2       3383     TIP3     OH2      OT      -0.834000       15.9994           0
     10148 W2       3383     TIP3     H1       HT       0.417000       1.00800           0
     10149 W2       3383     TIP3     H2       HT       0.417000       1.00800           0
     10150 W2       3384     TIP3     OH2      OT      -0.834000       15.9994           0
     10151 W2       3384     TIP3     H1       HT       0.417000       1.00800           0
     10152 W2       3384     TIP3     H2       HT       0.417000       1.00800           0
     10153 W2       3385     TIP3     OH2      OT      -0.834000       15.9994           0
     10154 W2       3385     TIP3     H1       HT       0.417000       1.00800           0
     10155 W2       3385     TIP3     H2       HT       0.417000       1.00800           0
     10156 W2       3386     TIP3     OH2      OT      -0.834000       15.9994           0
     10157 W2       3386     TIP3     H1       HT       0.417000       1.00800           0
     10158 W2       3386     TIP3     H2       HT       0.417000       1.00800           0
     10159 W2       3387     TIP3     OH2      OT      -0.834000       15.9994           0
     10160 W2       3387     TIP3     H1       HT       0.417000       1.00800           0
     10161 W2       3387     TIP3     H2       HT       0.417000       1.00800           0
     10162 W2       3388     TIP3     OH2      OT      -0.834000       15.9994           0
     10163 W2       3388     TIP3     H1       HT       0.417000       1.00800           0
     10164 W2       3388     TIP3     H2       HT       0.417000       1.00800           0
     10165 W2       3389     TIP3     OH2      OT      -0.834000       15.9994           0
     10166 W2       3389     TIP3     H1       HT       0.417000       1.00800           0
     10167 W2       3389     TIP3     H2       HT       0.417000       1.00800           0
     10168 W2       3390     TIP3     OH2      OT      -0.834000       15.9994           0
     10169 W2       3390     TIP3     H1       HT       0.417000       1.00800           0
     10170 W2       3390     TIP3     H2       HT       0.417000       1.00800           0
     10171 W2       3391     TIP3     OH2      OT      -0.834000       15.9994           0
     10172 W2       3391     TIP3     H1       HT       0.417000       1.00800           0
     10173 W2       3391     TIP3     H2       HT       0.417000       1.00800           0
     10174 W2       3392     TIP3     OH2      OT      -0.834000       15.9994           0
     10175 W2       3392     TIP3     H1       HT       0.417000       1.00800           0
     10176 W2       3392     TIP3     H2       HT       0.417000       1.00800           0
     10177 W2       3393     TIP3     OH2      OT      -0.834000       15.9994           0
     10178 W2       3393     TIP3     H1       HT       0.417000       1.00800           0
     10179 W2       3393     TIP3     H2       HT       0.417000       1.00800           0
     10180 W2       3394     TIP3     OH2      OT      -0.834000       15.9994           0
     10181 W2       3394     TIP3     H1       HT       0.417000       1.00800           0
     10182 W2       3394     TIP3     H2       HT       0.417000       1.00800           0
     10183 W2       3395     TIP3     OH2      OT      -0.834000       15.9994           0
     10184 W2       3395     TIP3     H1       HT       0.417000       1.00800           0
     10185 W2       3395     TIP3     H2       HT       0.417000       1.00800           0
     10186 W2       3396     TIP3     OH2      OT      -0.834000       15.9994           0
     10187 W2       3396     TIP3     H1       HT       0.417000       1.00800           0
     10188 W2       3396     TIP3     H2       HT       0.417000       1.00800           0
     10189 W2       3397     TIP3     OH2      OT      -0.834000       15.9994           0
     10190 W2       3397     TIP3     H1       HT       0.417000       1.00800           0
     10191 W2       3397     TIP3     H2       HT       0.417000       1.00800           0
     10192 W2       3398     TIP3     OH2      OT      -0.834000       15.9994           0
     10193 W2       3398     TIP3     H1       HT       0.417000       1.00800           0
     10194 W2       3398     TIP3     H2       HT       0.417000       1.00800           0
     10195 W2       3399     TIP3     OH2      OT      -0.834000       15.9994           0
     10196 W2       3399     TIP3     H1       HT       0.417000       1.00800           0
     10197 W2       3399     TIP3     H2       HT       0.417000       1.00800           0
     10198 W2       3400     TIP3     OH2      OT      -0.834000       15.9994           0
     10199 W2       3400     TIP3     H1       HT       0.417000       1.00800           0
     10200 W2       3400     TIP3     H2       HT       0.417000       1.00800           0
     10201 W2       3401     TIP3     OH2      OT      -0.834000       15.9994           0
     10202 W2       3401     TIP3     H1       HT       0.417000       1.00800           0
     10203 W2       3401     TIP3     H2       HT       0.417000       1.00800           0
     10204 W2       3402     TIP3     OH2      OT      -0.834000       15.9994           0
     10205 W2       3402     TIP3     H1       HT       0.417000       1.00800           0
     10206 W2       3402     TIP3     H2       HT       0.417000       1.00800           0
     10207 W2       3403     TIP3     OH2      OT      -0.834000       15.9994           0
     10208 W2       3403     TIP3     H1       HT       0.417000       1.00800           0
     10209 W2       3403     TIP3     H2       HT       0.417000       1.00800           0
     10210 W2       3404     TIP3     OH2      OT      -0.834000       15.9994           0
     10211 W2       3404     TIP3     H1       HT       0.417000       1.00800           0
     10212 W2       3404     TIP3     H2       HT       0.417000       1.00800           0
     10213 W2       3405     TIP3     OH2      OT      -0.834000       15.9994           0
     10214 W2       3405     TIP3     H1       HT       0.417000       1.00800           0
     10215 W2       3405     TIP3     H2       HT       0.417000       1.00800           0
     10216 W2       3406     TIP3     OH2      OT      -0.834000       15.9994           0
     10217 W2       3406     TIP3     H1       HT       0.417000       1.00800           0
     10218 W2       3406     TIP3     H2       HT       0.417000       1.00800           0
     10219 W2       3407     TIP3     OH2      OT      -0.834000       15.9994           0
     10220 W2       3407     TIP3     H1       HT       0.417000       1.00800           0
     10221 W2       3407     TIP3     H2       HT       0.417000       1.00800           0
     10222 W2       3408     TIP3     OH2      OT      -0.834000       15.9994           0
     10223 W2       3408     TIP3     H1       HT       0.417000       1.00800           0
     10224 W2       3408     TIP3     H2       HT       0.417000       1.00800           0
     10225 W2       3409     TIP3     OH2      OT      -0.834000       15.9994           0
     10226 W2       3409     TIP3     H1       HT       0.417000       1.00800           0
     10227 W2       3409     TIP3     H2       HT       0.417000       1.00800           0
     10228 W2       3410     TIP3     OH2      OT      -0.834000       15.9994           0
     10229 W2       3410     TIP3     H1       HT       0.417000       1.00800           0
     10230 W2       3410     TIP3     H2       HT       0.417000       1.00800           0
     10231 W2       3411     TIP3     OH2      OT      -0.834000       15.9994           0
     10232 W2       3411     TIP3     H1       HT       0.417000       1.00800           0
     10233 W2       3411     TIP3     H2       HT       0.417000       1.00800           0
     10234 W2       3412     TIP3     OH2      OT      -0.834000       15.9994           0
     10235 W2       3412     TIP3     H1       HT       0.417000       1.00800           0
     10236 W2       3412     TIP3     H2       HT       0.417000       1.00800           0
     10237 W2       3413     TIP3     OH2      OT      -0.834000       15.9994           0
     10238 W2       3413     TIP3     H1       HT       0.417000       1.00800           0
     10239 W2       3413     TIP3     H2       HT       0.417000       1.00800           0
     10240 W2       3414     TIP3     OH2      OT      -0.834000       15.9994           0
     10241 W2       3414     TIP3     H1       HT       0.417000       1.00800           0
     10242 W2       3414     TIP3     H2       HT       0.417000       1.00800           0
     10243 W2       3415     TIP3     OH2      OT      -0.834000       15.9994           0
     10244 W2       3415     TIP3     H1       HT       0.417000       1.00800           0
     10245 W2       3415     TIP3     H2       HT       0.417000       1.00800           0
     10246 W2       3416     TIP3     OH2      OT      -0.834000       15.9994           0
     10247 W2       3416     TIP3     H1       HT       0.417000       1.00800           0
     10248 W2       3416     TIP3     H2       HT       0.417000       1.00800           0
     10249 W2       3417     TIP3     OH2      OT      -0.834000       15.9994           0
     10250 W2       3417     TIP3     H1       HT       0.417000       1.00800           0
     10251 W2       3417     TIP3     H2       HT       0.417000       1.00800           0
     10252 W2       3418     TIP3     OH2      OT      -0.834000       15.9994           0
     10253 W2       3418     TIP3     H1       HT       0.417000       1.00800           0
     10254 W2       3418     TIP3     H2       HT       0.417000       1.00800           0
     10255 W2       3419     TIP3     OH2      OT      -0.834000       15.9994           0
     10256 W2       3419     TIP3     H1       HT       0.417000       1.00800           0
     10257 W2       3419     TIP3     H2       HT       0.417000       1.00800           0
     10258 W2       3420     TIP3     OH2      OT      -0.834000       15.9994           0
     10259 W2       3420     TIP3     H1       HT       0.417000       1.00800           0
     10260 W2       3420     TIP3     H2       HT       0.417000       1.00800           0
     10261 W2       3421     TIP3     OH2      OT      -0.834000       15.9994           0
     10262 W2       3421     TIP3     H1       HT       0.417000       1.00800           0
     10263 W2       3421     TIP3     H2       HT       0.417000       1.00800           0
     10264 W2       3422     TIP3     OH2      OT      -0.834000       15.9994           0
     10265 W2       3422     TIP3     H1       HT       0.417000       1.00800           0
     10266 W2       3422     TIP3     H2       HT       0.417000       1.00800           0
     10267 W2       3423     TIP3     OH2      OT      -0.834000       15.9994           0
     10268 W2       3423     TIP3     H1       HT       0.417000       1.00800           0
     10269 W2       3423     TIP3     H2       HT       0.417000       1.00800           0
     10270 W2       3424     TIP3     OH2      OT      -0.834000       15.9994           0
     10271 W2       3424     TIP3     H1       HT       0.417000       1.00800           0
     10272 W2       3424     TIP3     H2       HT       0.417000       1.00800           0
     10273 W2       3425     TIP3     OH2      OT      -0.834000       15.9994           0
     10274 W2       3425     TIP3     H1       HT       0.417000       1.00800           0
     10275 W2       3425     TIP3     H2       HT       0.417000       1.00800           0
     10276 W2       3426     TIP3     OH2      OT      -0.834000       15.9994           0
     10277 W2       3426     TIP3     H1       HT       0.417000       1.00800           0
     10278 W2       3426     TIP3     H2       HT       0.417000       1.00800           0
     10279 W2       3427     TIP3     OH2      OT      -0.834000       15.9994           0
     10280 W2       3427     TIP3     H1       HT       0.417000       1.00800           0
     10281 W2       3427     TIP3     H2       HT       0.417000       1.00800           0
     10282 W2       3428     TIP3     OH2      OT      -0.834000       15.9994           0
     10283 W2       3428     TIP3     H1       HT       0.417000       1.00800           0
     10284 W2       3428     TIP3     H2       HT       0.417000       1.00800           0
     10285 W2       3429     TIP3     OH2      OT      -0.834000       15.9994           0
     10286 W2       3429     TIP3     H1       HT       0.417000       1.00800           0
     10287 W2       3429     TIP3     H2       HT       0.417000       1.00800           0
     10288 W2       3430     TIP3     OH2      OT      -0.834000       15.9994           0
     10289 W2       3430     TIP3     H1       HT       0.417000       1.00800           0
     10290 W2       3430     TIP3     H2       HT       0.417000       1.00800           0
     10291 W2       3431     TIP3     OH2      OT      -0.834000       15.9994           0
     10292 W2       3431     TIP3     H1       HT       0.417000       1.00800           0
     10293 W2       3431     TIP3     H2       HT       0.417000       1.00800           0
     10294 W2       3432     TIP3     OH2      OT      -0.834000       15.9994           0
     10295 W2       3432     TIP3     H1       HT       0.417000       1.00800           0
     10296 W2       3432     TIP3     H2       HT       0.417000       1.00800           0
     10297 W2       3433     TIP3     OH2      OT      -0.834000       15.9994           0
     10298 W2       3433     TIP3     H1       HT       0.417000       1.00800           0
     10299 W2       3433     TIP3     H2       HT       0.417000       1.00800           0
     10300 W2       3434     TIP3     OH2      OT      -0.834000       15.9994           0
     10301 W2       3434     TIP3     H1       HT       0.417000       1.00800           0
     10302 W2       3434     TIP3     H2       HT       0.417000       1.00800           0
     10303 W2       3435     TIP3     OH2      OT      -0.834000       15.9994           0
     10304 W2       3435     TIP3     H1       HT       0.417000       1.00800           0
     10305 W2       3435     TIP3     H2       HT       0.417000       1.00800           0
     10306 W2       3436     TIP3     OH2      OT      -0.834000       15.9994           0
     10307 W2       3436     TIP3     H1       HT       0.417000       1.00800           0
     10308 W2       3436     TIP3     H2       HT       0.417000       1.00800           0
     10309 W2       3437     TIP3     OH2      OT      -0.834000       15.9994           0
     10310 W2       3437     TIP3     H1       HT       0.417000       1.00800           0
     10311 W2       3437     TIP3     H2       HT       0.417000       1.00800           0
     10312 W2       3438     TIP3     OH2      OT      -0.834000       15.9994           0
     10313 W2       3438     TIP3     H1       HT       0.417000       1.00800           0
     10314 W2       3438     TIP3     H2       HT       0.417000       1.00800           0
     10315 W2       3439     TIP3     OH2      OT      -0.834000       15.9994           0
     10316 W2       3439     TIP3     H1       HT       0.417000       1.00800           0
     10317 W2       3439     TIP3     H2       HT       0.417000       1.00800           0
     10318 W2       3440     TIP3     OH2      OT      -0.834000       15.9994           0
     10319 W2       3440     TIP3     H1       HT       0.417000       1.00800           0
     10320 W2       3440     TIP3     H2       HT       0.417000       1.00800           0
     10321 W2       3441     TIP3     OH2      OT      -0.834000       15.9994           0
     10322 W2       3441     TIP3     H1       HT       0.417000       1.00800           0
     10323 W2       3441     TIP3     H2       HT       0.417000       1.00800           0
     10324 W2       3442     TIP3     OH2      OT      -0.834000       15.9994           0
     10325 W2       3442     TIP3     H1       HT       0.417000       1.00800           0
     10326 W2       3442     TIP3     H2       HT       0.417000       1.00800           0
     10327 W2       3443     TIP3     OH2      OT      -0.834000       15.9994           0
     10328 W2       3443     TIP3     H1       HT       0.417000       1.00800           0
     10329 W2       3443     TIP3     H2       HT       0.417000       1.00800           0
     10330 W2       3444     TIP3     OH2      OT      -0.834000       15.9994           0
     10331 W2       3444     TIP3     H1       HT       0.417000       1.00800           0
     10332 W2       3444     TIP3     H2       HT       0.417000       1.00800           0
     10333 W2       3445     TIP3     OH2      OT      -0.834000       15.9994           0
     10334 W2       3445     TIP3     H1       HT       0.417000       1.00800           0
     10335 W2       3445     TIP3     H2       HT       0.417000       1.00800           0
     10336 W2       3446     TIP3     OH2      OT      -0.834000       15.9994           0
     10337 W2       3446     TIP3     H1       HT       0.417000       1.00800           0
     10338 W2       3446     TIP3     H2       HT       0.417000       1.00800           0
     10339 W2       3447     TIP3     OH2      OT      -0.834000       15.9994           0
     10340 W2       3447     TIP3     H1       HT       0.417000       1.00800           0
     10341 W2       3447     TIP3     H2       HT       0.417000       1.00800           0
     10342 W2       3448     TIP3     OH2      OT      -0.834000       15.9994           0
     10343 W2       3448     TIP3     H1       HT       0.417000       1.00800           0
     10344 W2       3448     TIP3     H2       HT       0.417000       1.00800           0
     10345 W2       3449     TIP3     OH2      OT      -0.834000       15.9994           0
     10346 W2       3449     TIP3     H1       HT       0.417000       1.00800           0
     10347 W2       3449     TIP3     H2       HT       0.417000       1.00800           0
     10348 W2       3450     TIP3     OH2      OT      -0.834000       15.9994           0
     10349 W2       3450     TIP3     H1       HT       0.417000       1.00800           0
     10350 W2       3450     TIP3     H2       HT       0.417000       1.00800           0
     10351 W2       3451     TIP3     OH2      OT      -0.834000       15.9994           0
     10352 W2       3451     TIP3     H1       HT       0.417000       1.00800           0
     10353 W2       3451     TIP3     H2       HT       0.417000       1.00800           0
     10354 W2       3452     TIP3     OH2      OT      -0.834000       15.9994           0
     10355 W2       3452     TIP3     H1       HT       0.417000       1.00800           0
     10356 W2       3452     TIP3     H2       HT       0.417000       1.00800           0
     10357 W2       3453     TIP3     OH2      OT      -0.834000       15.9994           0
     10358 W2       3453     TIP3     H1       HT       0.417000       1.00800           0
     10359 W2       3453     TIP3     H2       HT       0.417000       1.00800           0
     10360 W2       3454     TIP3     OH2      OT      -0.834000       15.9994           0
     10361 W2       3454     TIP3     H1       HT       0.417000       1.00800           0
     10362 W2       3454     TIP3     H2       HT       0.417000       1.00800           0
     10363 W2       3455     TIP3     OH2      OT      -0.834000       15.9994           0
     10364 W2       3455     TIP3     H1       HT       0.417000       1.00800           0
     10365 W2       3455     TIP3     H2       HT       0.417000       1.00800           0
     10366 W2       3456     TIP3     OH2      OT      -0.834000       15.9994           0
     10367 W2       3456     TIP3     H1       HT       0.417000       1.00800           0
     10368 W2       3456     TIP3     H2       HT       0.417000       1.00800           0
     10369 W2       3457     TIP3     OH2      OT      -0.834000       15.9994           0
     10370 W2       3457     TIP3     H1       HT       0.417000       1.00800           0
     10371 W2       3457     TIP3     H2       HT       0.417000       1.00800           0
     10372 W2       3458     TIP3     OH2      OT      -0.834000       15.9994           0
     10373 W2       3458     TIP3     H1       HT       0.417000       1.00800           0
     10374 W2       3458     TIP3     H2       HT       0.417000       1.00800           0
     10375 W2       3459     TIP3     OH2      OT      -0.834000       15.9994           0
     10376 W2       3459     TIP3     H1       HT       0.417000       1.00800           0
     10377 W2       3459     TIP3     H2       HT       0.417000       1.00800           0
     10378 W2       3460     TIP3     OH2      OT      -0.834000       15.9994           0
     10379 W2       3460     TIP3     H1       HT       0.417000       1.00800           0
     10380 W2       3460     TIP3     H2       HT       0.417000       1.00800           0
     10381 W2       3461     TIP3     OH2      OT      -0.834000       15.9994           0
     10382 W2       3461     TIP3     H1       HT       0.417000       1.00800           0
     10383 W2       3461     TIP3     H2       HT       0.417000       1.00800           0
     10384 W2       3462     TIP3     OH2      OT      -0.834000       15.9994           0
     10385 W2       3462     TIP3     H1       HT       0.417000       1.00800           0
     10386 W2       3462     TIP3     H2       HT       0.417000       1.00800           0
     10387 W2       3463     TIP3     OH2      OT      -0.834000       15.9994           0
     10388 W2       3463     TIP3     H1       HT       0.417000       1.00800           0
     10389 W2       3463     TIP3     H2       HT       0.417000       1.00800           0
     10390 W2       3464     TIP3     OH2      OT      -0.834000       15.9994           0
     10391 W2       3464     TIP3     H1       HT       0.417000       1.00800           0
     10392 W2       3464     TIP3     H2       HT       0.417000       1.00800           0
     10393 W2       3465     TIP3     OH2      OT      -0.834000       15.9994           0
     10394 W2       3465     TIP3     H1       HT       0.417000       1.00800           0
     10395 W2       3465     TIP3     H2       HT       0.417000       1.00800           0
     10396 W2       3466     TIP3     OH2      OT      -0.834000       15.9994           0
     10397 W2       3466     TIP3     H1       HT       0.417000       1.00800           0
     10398 W2       3466     TIP3     H2       HT       0.417000       1.00800           0
     10399 W2       3467     TIP3     OH2      OT      -0.834000       15.9994           0
     10400 W2       3467     TIP3     H1       HT       0.417000       1.00800           0
     10401 W2       3467     TIP3     H2       HT       0.417000       1.00800           0
     10402 W2       3468     TIP3     OH2      OT      -0.834000       15.9994           0
     10403 W2       3468     TIP3     H1       HT       0.417000       1.00800           0
     10404 W2       3468     TIP3     H2       HT       0.417000       1.00800           0
     10405 W2       3469     TIP3     OH2      OT      -0.834000       15.9994           0
     10406 W2       3469     TIP3     H1       HT       0.417000       1.00800           0
     10407 W2       3469     TIP3     H2       HT       0.417000       1.00800           0
     10408 W2       3470     TIP3     OH2      OT      -0.834000       15.9994           0
     10409 W2       3470     TIP3     H1       HT       0.417000       1.00800           0
     10410 W2       3470     TIP3     H2       HT       0.417000       1.00800           0
     10411 W2       3471     TIP3     OH2      OT      -0.834000       15.9994           0
     10412 W2       3471     TIP3     H1       HT       0.417000       1.00800           0
     10413 W2       3471     TIP3     H2       HT       0.417000       1.00800           0
     10414 W2       3472     TIP3     OH2      OT      -0.834000       15.9994           0
     10415 W2       3472     TIP3     H1       HT       0.417000       1.00800           0
     10416 W2       3472     TIP3     H2       HT       0.417000       1.00800           0
     10417 W2       3473     TIP3     OH2      OT      -0.834000       15.9994           0
     10418 W2       3473     TIP3     H1       HT       0.417000       1.00800           0
     10419 W2       3473     TIP3     H2       HT       0.417000       1.00800           0
     10420 W2       3474     TIP3     OH2      OT      -0.834000       15.9994           0
     10421 W2       3474     TIP3     H1       HT       0.417000       1.00800           0
     10422 W2       3474     TIP3     H2       HT       0.417000       1.00800           0
     10423 W2       3475     TIP3     OH2      OT      -0.834000       15.9994           0
     10424 W2       3475     TIP3     H1       HT       0.417000       1.00800           0
     10425 W2       3475     TIP3     H2       HT       0.417000       1.00800           0
     10426 W2       3476     TIP3     OH2      OT      -0.834000       15.9994           0
     10427 W2       3476     TIP3     H1       HT       0.417000       1.00800           0
     10428 W2       3476     TIP3     H2       HT       0.417000       1.00800           0
     10429 W2       3477     TIP3     OH2      OT      -0.834000       15.9994           0
     10430 W2       3477     TIP3     H1       HT       0.417000       1.00800           0
     10431 W2       3477     TIP3     H2       HT       0.417000       1.00800           0
     10432 W2       3478     TIP3     OH2      OT      -0.834000       15.9994           0
     10433 W2       3478     TIP3     H1       HT       0.417000       1.00800           0
     10434 W2       3478     TIP3     H2       HT       0.417000       1.00800           0
     10435 W2       3479     TIP3     OH2      OT      -0.834000       15.9994           0
     10436 W2       3479     TIP3     H1       HT       0.417000       1.00800           0
     10437 W2       3479     TIP3     H2       HT       0.417000       1.00800           0
     10438 W2       3480     TIP3     OH2      OT      -0.834000       15.9994           0
     10439 W2       3480     TIP3     H1       HT       0.417000       1.00800           0
     10440 W2       3480     TIP3     H2       HT       0.417000       1.00800           0
     10441 W2       3481     TIP3     OH2      OT      -0.834000       15.9994           0
     10442 W2       3481     TIP3     H1       HT       0.417000       1.00800           0
     10443 W2       3481     TIP3     H2       HT       0.417000       1.00800           0
     10444 W2       3482     TIP3     OH2      OT      -0.834000       15.9994           0
     10445 W2       3482     TIP3     H1       HT       0.417000       1.00800           0
     10446 W2       3482     TIP3     H2       HT       0.417000       1.00800           0
     10447 W2       3483     TIP3     OH2      OT      -0.834000       15.9994           0
     10448 W2       3483     TIP3     H1       HT       0.417000       1.00800           0
     10449 W2       3483     TIP3     H2       HT       0.417000       1.00800           0
     10450 W2       3484     TIP3     OH2      OT      -0.834000       15.9994           0
     10451 W2       3484     TIP3     H1       HT       0.417000       1.00800           0
     10452 W2       3484     TIP3     H2       HT       0.417000       1.00800           0
     10453 W2       3485     TIP3     OH2      OT      -0.834000       15.9994           0
     10454 W2       3485     TIP3     H1       HT       0.417000       1.00800           0
     10455 W2       3485     TIP3     H2       HT       0.417000       1.00800           0
     10456 W2       3486     TIP3     OH2      OT      -0.834000       15.9994           0
     10457 W2       3486     TIP3     H1       HT       0.417000       1.00800           0
     10458 W2       3486     TIP3     H2       HT       0.417000       1.00800           0
     10459 W2       3487     TIP3     OH2      OT      -0.834000       15.9994           0
     10460 W2       3487     TIP3     H1       HT       0.417000       1.00800           0
     10461 W2       3487     TIP3     H2       HT       0.417000       1.00800           0
     10462 W2       3488     TIP3     OH2      OT      -0.834000       15.9994           0
     10463 W2       3488     TIP3     H1       HT       0.417000       1.00800           0
     10464 W2       3488     TIP3     H2       HT       0.417000       1.00800           0
     10465 W2       3489     TIP3     OH2      OT      -0.834000       15.9994           0
     10466 W2       3489     TIP3     H1       HT       0.417000       1.00800           0
     10467 W2       3489     TIP3     H2       HT       0.417000       1.00800           0
     10468 W2       3490     TIP3     OH2      OT      -0.834000       15.9994           0
     10469 W2       3490     TIP3     H1       HT       0.417000       1.00800           0
     10470 W2       3490     TIP3     H2       HT       0.417000       1.00800           0
     10471 W2       3491     TIP3     OH2      OT      -0.834000       15.9994           0
     10472 W2       3491     TIP3     H1       HT       0.417000       1.00800           0
     10473 W2       3491     TIP3     H2       HT       0.417000       1.00800           0
     10474 W2       3492     TIP3     OH2      OT      -0.834000       15.9994           0
     10475 W2       3492     TIP3     H1       HT       0.417000       1.00800           0
     10476 W2       3492     TIP3     H2       HT       0.417000       1.00800           0
     10477 W2       3493     TIP3     OH2      OT      -0.834000       15.9994           0
     10478 W2       3493     TIP3     H1       HT       0.417000       1.00800           0
     10479 W2       3493     TIP3     H2       HT       0.417000       1.00800           0
     10480 W2       3494     TIP3     OH2      OT      -0.834000       15.9994           0
     10481 W2       3494     TIP3     H1       HT       0.417000       1.00800           0
     10482 W2       3494     TIP3     H2       HT       0.417000       1.00800           0
     10483 W2       3495     TIP3     OH2      OT      -0.834000       15.9994           0
     10484 W2       3495     TIP3     H1       HT       0.417000       1.00800           0
     10485 W2       3495     TIP3     H2       HT       0.417000       1.00800           0
     10486 W2       3496     TIP3     OH2      OT      -0.834000       15.9994           0
     10487 W2       3496     TIP3     H1       HT       0.417000       1.00800           0
     10488 W2       3496     TIP3     H2       HT       0.417000       1.00800           0
     10489 W2       3497     TIP3     OH2      OT      -0.834000       15.9994           0
     10490 W2       3497     TIP3     H1       HT       0.417000       1.00800           0
     10491 W2       3497     TIP3     H2       HT       0.417000       1.00800           0
     10492 W2       3498     TIP3     OH2      OT      -0.834000       15.9994           0
     10493 W2       3498     TIP3     H1       HT       0.417000       1.00800           0
     10494 W2       3498     TIP3     H2       HT       0.417000       1.00800           0
     10495 W2       3499     TIP3     OH2      OT      -0.834000       15.9994           0
     10496 W2       3499     TIP3     H1       HT       0.417000       1.00800           0
     10497 W2       3499     TIP3     H2       HT       0.417000       1.00800           0
     10498 W2       3500     TIP3     OH2      OT      -0.834000       15.9994           0
     10499 W2       3500     TIP3     H1       HT       0.417000       1.00800           0
     10500 W2       3500     TIP3     H2       HT       0.417000       1.00800           0
     10501 W2       3501     TIP3     OH2      OT      -0.834000       15.9994           0
     10502 W2       3501     TIP3     H1       HT       0.417000       1.00800           0
     10503 W2       3501     TIP3     H2       HT       0.417000       1.00800           0
     10504 W2       3502     TIP3     OH2      OT      -0.834000       15.9994           0
     10505 W2       3502     TIP3     H1       HT       0.417000       1.00800           0
     10506 W2       3502     TIP3     H2       HT       0.417000       1.00800           0
     10507 W2       3503     TIP3     OH2      OT      -0.834000       15.9994           0
     10508 W2       3503     TIP3     H1       HT       0.417000       1.00800           0
     10509 W2       3503     TIP3     H2       HT       0.417000       1.00800           0
     10510 W2       3504     TIP3     OH2      OT      -0.834000       15.9994           0
     10511 W2       3504     TIP3     H1       HT       0.417000       1.00800           0
     10512 W2       3504     TIP3     H2       HT       0.417000       1.00800           0
     10513 W2       3505     TIP3     OH2      OT      -0.834000       15.9994           0
     10514 W2       3505     TIP3     H1       HT       0.417000       1.00800           0
     10515 W2       3505     TIP3     H2       HT       0.417000       1.00800           0
     10516 W2       3506     TIP3     OH2      OT      -0.834000       15.9994           0
     10517 W2       3506     TIP3     H1       HT       0.417000       1.00800           0
     10518 W2       3506     TIP3     H2       HT       0.417000       1.00800           0
     10519 W2       3507     TIP3     OH2      OT      -0.834000       15.9994           0
     10520 W2       3507     TIP3     H1       HT       0.417000       1.00800           0
     10521 W2       3507     TIP3     H2       HT       0.417000       1.00800           0
     10522 W2       3508     TIP3     OH2      OT      -0.834000       15.9994           0
     10523 W2       3508     TIP3     H1       HT       0.417000       1.00800           0
     10524 W2       3508     TIP3     H2       HT       0.417000       1.00800           0
     10525 W2       3509     TIP3     OH2      OT      -0.834000       15.9994           0
     10526 W2       3509     TIP3     H1       HT       0.417000       1.00800           0
     10527 W2       3509     TIP3     H2       HT       0.417000       1.00800           0
     10528 W2       3510     TIP3     OH2      OT      -0.834000       15.9994           0
     10529 W2       3510     TIP3     H1       HT       0.417000       1.00800           0
     10530 W2       3510     TIP3     H2       HT       0.417000       1.00800           0
     10531 W2       3511     TIP3     OH2      OT      -0.834000       15.9994           0
     10532 W2       3511     TIP3     H1       HT       0.417000       1.00800           0
     10533 W2       3511     TIP3     H2       HT       0.417000       1.00800           0
     10534 W2       3512     TIP3     OH2      OT      -0.834000       15.9994           0
     10535 W2       3512     TIP3     H1       HT       0.417000       1.00800           0
     10536 W2       3512     TIP3     H2       HT       0.417000       1.00800           0
     10537 W2       3513     TIP3     OH2      OT      -0.834000       15.9994           0
     10538 W2       3513     TIP3     H1       HT       0.417000       1.00800           0
     10539 W2       3513     TIP3     H2       HT       0.417000       1.00800           0
     10540 W2       3514     TIP3     OH2      OT      -0.834000       15.9994           0
     10541 W2       3514     TIP3     H1       HT       0.417000       1.00800           0
     10542 W2       3514     TIP3     H2       HT       0.417000       1.00800           0
     10543 W2       3515     TIP3     OH2      OT      -0.834000       15.9994           0
     10544 W2       3515     TIP3     H1       HT       0.417000       1.00800           0
     10545 W2       3515     TIP3     H2       HT       0.417000       1.00800           0
     10546 W2       3516     TIP3     OH2      OT      -0.834000       15.9994           0
     10547 W2       3516     TIP3     H1       HT       0.417000       1.00800           0
     10548 W2       3516     TIP3     H2       HT       0.417000       1.00800           0
     10549 W2       3517     TIP3     OH2      OT      -0.834000       15.9994           0
     10550 W2       3517     TIP3     H1       HT       0.417000       1.00800           0
     10551 W2       3517     TIP3     H2       HT       0.417000       1.00800           0
     10552 W2       3518     TIP3     OH2      OT      -0.834000       15.9994           0
     10553 W2       3518     TIP3     H1       HT       0.417000       1.00800           0
     10554 W2       3518     TIP3     H2       HT       0.417000       1.00800           0
     10555 W2       3519     TIP3     OH2      OT      -0.834000       15.9994           0
     10556 W2       3519     TIP3     H1       HT       0.417000       1.00800           0
     10557 W2       3519     TIP3     H2       HT       0.417000       1.00800           0
     10558 W2       3520     TIP3     OH2      OT      -0.834000       15.9994           0
     10559 W2       3520     TIP3     H1       HT       0.417000       1.00800           0
     10560 W2       3520     TIP3     H2       HT       0.417000       1.00800           0
     10561 W2       3521     TIP3     OH2      OT      -0.834000       15.9994           0
     10562 W2       3521     TIP3     H1       HT       0.417000       1.00800           0
     10563 W2       3521     TIP3     H2       HT       0.417000       1.00800           0
     10564 W2       3522     TIP3     OH2      OT      -0.834000       15.9994           0
     10565 W2       3522     TIP3     H1       HT       0.417000       1.00800           0
     10566 W2       3522     TIP3     H2       HT       0.417000       1.00800           0
     10567 W2       3523     TIP3     OH2      OT      -0.834000       15.9994           0
     10568 W2       3523     TIP3     H1       HT       0.417000       1.00800           0
     10569 W2       3523     TIP3     H2       HT       0.417000       1.00800           0
     10570 W2       3524     TIP3     OH2      OT      -0.834000       15.9994           0
     10571 W2       3524     TIP3     H1       HT       0.417000       1.00800           0
     10572 W2       3524     TIP3     H2       HT       0.417000       1.00800           0
     10573 W2       3525     TIP3     OH2      OT      -0.834000       15.9994           0
     10574 W2       3525     TIP3     H1       HT       0.417000       1.00800           0
     10575 W2       3525     TIP3     H2       HT       0.417000       1.00800           0
     10576 W2       3526     TIP3     OH2      OT      -0.834000       15.9994           0
     10577 W2       3526     TIP3     H1       HT       0.417000       1.00800           0
     10578 W2       3526     TIP3     H2       HT       0.417000       1.00800           0
     10579 W2       3527     TIP3     OH2      OT      -0.834000       15.9994           0
     10580 W2       3527     TIP3     H1       HT       0.417000       1.00800           0
     10581 W2       3527     TIP3     H2       HT       0.417000       1.00800           0
     10582 W2       3528     TIP3     OH2      OT      -0.834000       15.9994           0
     10583 W2       3528     TIP3     H1       HT       0.417000       1.00800           0
     10584 W2       3528     TIP3     H2       HT       0.417000       1.00800           0
     10585 W2       3529     TIP3     OH2      OT      -0.834000       15.9994           0
     10586 W2       3529     TIP3     H1       HT       0.417000       1.00800           0
     10587 W2       3529     TIP3     H2       HT       0.417000       1.00800           0
     10588 W2       3530     TIP3     OH2      OT      -0.834000       15.9994           0
     10589 W2       3530     TIP3     H1       HT       0.417000       1.00800           0
     10590 W2       3530     TIP3     H2       HT       0.417000       1.00800           0
     10591 W2       3531     TIP3     OH2      OT      -0.834000       15.9994           0
     10592 W2       3531     TIP3     H1       HT       0.417000       1.00800           0
     10593 W2       3531     TIP3     H2       HT       0.417000       1.00800           0
     10594 W2       3532     TIP3     OH2      OT      -0.834000       15.9994           0
     10595 W2       3532     TIP3     H1       HT       0.417000       1.00800           0
     10596 W2       3532     TIP3     H2       HT       0.417000       1.00800           0
     10597 W2       3533     TIP3     OH2      OT      -0.834000       15.9994           0
     10598 W2       3533     TIP3     H1       HT       0.417000       1.00800           0
     10599 W2       3533     TIP3     H2       HT       0.417000       1.00800           0
     10600 W2       3534     TIP3     OH2      OT      -0.834000       15.9994           0
     10601 W2       3534     TIP3     H1       HT       0.417000       1.00800           0
     10602 W2       3534     TIP3     H2       HT       0.417000       1.00800           0
     10603 W2       3535     TIP3     OH2      OT      -0.834000       15.9994           0
     10604 W2       3535     TIP3     H1       HT       0.417000       1.00800           0
     10605 W2       3535     TIP3     H2       HT       0.417000       1.00800           0
     10606 W2       3536     TIP3     OH2      OT      -0.834000       15.9994           0
     10607 W2       3536     TIP3     H1       HT       0.417000       1.00800           0
     10608 W2       3536     TIP3     H2       HT       0.417000       1.00800           0
     10609 W2       3537     TIP3     OH2      OT      -0.834000       15.9994           0
     10610 W2       3537     TIP3     H1       HT       0.417000       1.00800           0
     10611 W2       3537     TIP3     H2       HT       0.417000       1.00800           0
     10612 W2       3538     TIP3     OH2      OT      -0.834000       15.9994           0
     10613 W2       3538     TIP3     H1       HT       0.417000       1.00800           0
     10614 W2       3538     TIP3     H2       HT       0.417000       1.00800           0
     10615 W2       3539     TIP3     OH2      OT      -0.834000       15.9994           0
     10616 W2       3539     TIP3     H1       HT       0.417000       1.00800           0
     10617 W2       3539     TIP3     H2       HT       0.417000       1.00800           0
     10618 W2       3540     TIP3     OH2      OT      -0.834000       15.9994           0
     10619 W2       3540     TIP3     H1       HT       0.417000       1.00800           0
     10620 W2       3540     TIP3     H2       HT       0.417000       1.00800           0
     10621 W2       3541     TIP3     OH2      OT      -0.834000       15.9994           0
     10622 W2       3541     TIP3     H1       HT       0.417000       1.00800           0
     10623 W2       3541     TIP3     H2       HT       0.417000       1.00800           0
     10624 W2       3542     TIP3     OH2      OT      -0.834000       15.9994           0
     10625 W2       3542     TIP3     H1       HT       0.417000       1.00800           0
     10626 W2       3542     TIP3     H2       HT       0.417000       1.00800           0
     10627 W2       3543     TIP3     OH2      OT      -0.834000       15.9994           0
     10628 W2       3543     TIP3     H1       HT       0.417000       1.00800           0
     10629 W2       3543     TIP3     H2       HT       0.417000       1.00800           0
     10630 W2       3544     TIP3     OH2      OT      -0.834000       15.9994           0
     10631 W2       3544     TIP3     H1       HT       0.417000       1.00800           0
     10632 W2       3544     TIP3     H2       HT       0.417000       1.00800           0
     10633 W2       3545     TIP3     OH2      OT      -0.834000       15.9994           0
     10634 W2       3545     TIP3     H1       HT       0.417000       1.00800           0
     10635 W2       3545     TIP3     H2       HT       0.417000       1.00800           0
     10636 W2       3546     TIP3     OH2      OT      -0.834000       15.9994           0
     10637 W2       3546     TIP3     H1       HT       0.417000       1.00800           0
     10638 W2       3546     TIP3     H2       HT       0.417000       1.00800           0
     10639 W2       3547     TIP3     OH2      OT      -0.834000       15.9994           0
     10640 W2       3547     TIP3     H1       HT       0.417000       1.00800           0
     10641 W2       3547     TIP3     H2       HT       0.417000       1.00800           0
     10642 W2       3548     TIP3     OH2      OT      -0.834000       15.9994           0
     10643 W2       3548     TIP3     H1       HT       0.417000       1.00800           0
     10644 W2       3548     TIP3     H2       HT       0.417000       1.00800           0
     10645 W2       3549     TIP3     OH2      OT      -0.834000       15.9994           0
     10646 W2       3549     TIP3     H1       HT       0.417000       1.00800           0
     10647 W2       3549     TIP3     H2       HT       0.417000       1.00800           0
     10648 W2       3550     TIP3     OH2      OT      -0.834000       15.9994           0
     10649 W2       3550     TIP3     H1       HT       0.417000       1.00800           0
     10650 W2       3550     TIP3     H2       HT       0.417000       1.00800           0
     10651 W2       3551     TIP3     OH2      OT      -0.834000       15.9994           0
     10652 W2       3551     TIP3     H1       HT       0.417000       1.00800           0
     10653 W2       3551     TIP3     H2       HT       0.417000       1.00800           0
     10654 W2       3552     TIP3     OH2      OT      -0.834000       15.9994           0
     10655 W2       3552     TIP3     H1       HT       0.417000       1.00800           0
     10656 W2       3552     TIP3     H2       HT       0.417000       1.00800           0
     10657 W2       3553     TIP3     OH2      OT      -0.834000       15.9994           0
     10658 W2       3553     TIP3     H1       HT       0.417000       1.00800           0
     10659 W2       3553     TIP3     H2       HT       0.417000       1.00800           0
     10660 W2       3554     TIP3     OH2      OT      -0.834000       15.9994           0
     10661 W2       3554     TIP3     H1       HT       0.417000       1.00800           0
     10662 W2       3554     TIP3     H2       HT       0.417000       1.00800           0
     10663 W2       3555     TIP3     OH2      OT      -0.834000       15.9994           0
     10664 W2       3555     TIP3     H1       HT       0.417000       1.00800           0
     10665 W2       3555     TIP3     H2       HT       0.417000       1.00800           0
     10666 W2       3556     TIP3     OH2      OT      -0.834000       15.9994           0
     10667 W2       3556     TIP3     H1       HT       0.417000       1.00800           0
     10668 W2       3556     TIP3     H2       HT       0.417000       1.00800           0
     10669 W2       3557     TIP3     OH2      OT      -0.834000       15.9994           0
     10670 W2       3557     TIP3     H1       HT       0.417000       1.00800           0
     10671 W2       3557     TIP3     H2       HT       0.417000       1.00800           0
     10672 W2       3558     TIP3     OH2      OT      -0.834000       15.9994           0
     10673 W2       3558     TIP3     H1       HT       0.417000       1.00800           0
     10674 W2       3558     TIP3     H2       HT       0.417000       1.00800           0
     10675 W2       3559     TIP3     OH2      OT      -0.834000       15.9994           0
     10676 W2       3559     TIP3     H1       HT       0.417000       1.00800           0
     10677 W2       3559     TIP3     H2       HT       0.417000       1.00800           0
     10678 W2       3560     TIP3     OH2      OT      -0.834000       15.9994           0
     10679 W2       3560     TIP3     H1       HT       0.417000       1.00800           0
     10680 W2       3560     TIP3     H2       HT       0.417000       1.00800           0
     10681 W2       3561     TIP3     OH2      OT      -0.834000       15.9994           0
     10682 W2       3561     TIP3     H1       HT       0.417000       1.00800           0
     10683 W2       3561     TIP3     H2       HT       0.417000       1.00800           0
     10684 W2       3562     TIP3     OH2      OT      -0.834000       15.9994           0
     10685 W2       3562     TIP3     H1       HT       0.417000       1.00800           0
     10686 W2       3562     TIP3     H2       HT       0.417000       1.00800           0
     10687 W2       3563     TIP3     OH2      OT      -0.834000       15.9994           0
     10688 W2       3563     TIP3     H1       HT       0.417000       1.00800           0
     10689 W2       3563     TIP3     H2       HT       0.417000       1.00800           0
     10690 W2       3564     TIP3     OH2      OT      -0.834000       15.9994           0
     10691 W2       3564     TIP3     H1       HT       0.417000       1.00800           0
     10692 W2       3564     TIP3     H2       HT       0.417000       1.00800           0
     10693 W2       3565     TIP3     OH2      OT      -0.834000       15.9994           0
     10694 W2       3565     TIP3     H1       HT       0.417000       1.00800           0
     10695 W2       3565     TIP3     H2       HT       0.417000       1.00800           0
     10696 W2       3566     TIP3     OH2      OT      -0.834000       15.9994           0
     10697 W2       3566     TIP3     H1       HT       0.417000       1.00800           0
     10698 W2       3566     TIP3     H2       HT       0.417000       1.00800           0
     10699 W2       3567     TIP3     OH2      OT      -0.834000       15.9994           0
     10700 W2       3567     TIP3     H1       HT       0.417000       1.00800           0
     10701 W2       3567     TIP3     H2       HT       0.417000       1.00800           0
     10702 W2       3568     TIP3     OH2      OT      -0.834000       15.9994           0
     10703 W2       3568     TIP3     H1       HT       0.417000       1.00800           0
     10704 W2       3568     TIP3     H2       HT       0.417000       1.00800           0
     10705 W2       3569     TIP3     OH2      OT      -0.834000       15.9994           0
     10706 W2       3569     TIP3     H1       HT       0.417000       1.00800           0
     10707 W2       3569     TIP3     H2       HT       0.417000       1.00800           0
     10708 W2       3570     TIP3     OH2      OT      -0.834000       15.9994           0
     10709 W2       3570     TIP3     H1       HT       0.417000       1.00800           0
     10710 W2       3570     TIP3     H2       HT       0.417000       1.00800           0
     10711 W2       3571     TIP3     OH2      OT      -0.834000       15.9994           0
     10712 W2       3571     TIP3     H1       HT       0.417000       1.00800           0
     10713 W2       3571     TIP3     H2       HT       0.417000       1.00800           0
     10714 W2       3572     TIP3     OH2      OT      -0.834000       15.9994           0
     10715 W2       3572     TIP3     H1       HT       0.417000       1.00800           0
     10716 W2       3572     TIP3     H2       HT       0.417000       1.00800           0
     10717 W2       3573     TIP3     OH2      OT      -0.834000       15.9994           0
     10718 W2       3573     TIP3     H1       HT       0.417000       1.00800           0
     10719 W2       3573     TIP3     H2       HT       0.417000       1.00800           0
     10720 W2       3574     TIP3     OH2      OT      -0.834000       15.9994           0
     10721 W2       3574     TIP3     H1       HT       0.417000       1.00800           0
     10722 W2       3574     TIP3     H2       HT       0.417000       1.00800           0
     10723 W2       3575     TIP3     OH2      OT      -0.834000       15.9994           0
     10724 W2       3575     TIP3     H1       HT       0.417000       1.00800           0
     10725 W2       3575     TIP3     H2       HT       0.417000       1.00800           0
     10726 W2       3576     TIP3     OH2      OT      -0.834000       15.9994           0
     10727 W2       3576     TIP3     H1       HT       0.417000       1.00800           0
     10728 W2       3576     TIP3     H2       HT       0.417000       1.00800           0
     10729 W2       3577     TIP3     OH2      OT      -0.834000       15.9994           0
     10730 W2       3577     TIP3     H1       HT       0.417000       1.00800           0
     10731 W2       3577     TIP3     H2       HT       0.417000       1.00800           0
     10732 W2       3578     TIP3     OH2      OT      -0.834000       15.9994           0
     10733 W2       3578     TIP3     H1       HT       0.417000       1.00800           0
     10734 W2       3578     TIP3     H2       HT       0.417000       1.00800           0
     10735 W2       3579     TIP3     OH2      OT      -0.834000       15.9994           0
     10736 W2       3579     TIP3     H1       HT       0.417000       1.00800           0
     10737 W2       3579     TIP3     H2       HT       0.417000       1.00800           0
     10738 W2       3580     TIP3     OH2      OT      -0.834000       15.9994           0
     10739 W2       3580     TIP3     H1       HT       0.417000       1.00800           0
     10740 W2       3580     TIP3     H2       HT       0.417000       1.00800           0
     10741 W2       3581     TIP3     OH2      OT      -0.834000       15.9994           0
     10742 W2       3581     TIP3     H1       HT       0.417000       1.00800           0
     10743 W2       3581     TIP3     H2       HT       0.417000       1.00800           0
     10744 W2       3582     TIP3     OH2      OT      -0.834000       15.9994           0
     10745 W2       3582     TIP3     H1       HT       0.417000       1.00800           0
     10746 W2       3582     TIP3     H2       HT       0.417000       1.00800           0
     10747 W2       3583     TIP3     OH2      OT      -0.834000       15.9994           0
     10748 W2       3583     TIP3     H1       HT       0.417000       1.00800           0
     10749 W2       3583     TIP3     H2       HT       0.417000       1.00800           0
     10750 W2       3584     TIP3     OH2      OT      -0.834000       15.9994           0
     10751 W2       3584     TIP3     H1       HT       0.417000       1.00800           0
     10752 W2       3584     TIP3     H2       HT       0.417000       1.00800           0
     10753 W2       3585     TIP3     OH2      OT      -0.834000       15.9994           0
     10754 W2       3585     TIP3     H1       HT       0.417000       1.00800           0
     10755 W2       3585     TIP3     H2       HT       0.417000       1.00800           0
     10756 W2       3586     TIP3     OH2      OT      -0.834000       15.9994           0
     10757 W2       3586     TIP3     H1       HT       0.417000       1.00800           0
     10758 W2       3586     TIP3     H2       HT       0.417000       1.00800           0
     10759 W2       3587     TIP3     OH2      OT      -0.834000       15.9994           0
     10760 W2       3587     TIP3     H1       HT       0.417000       1.00800           0
     10761 W2       3587     TIP3     H2       HT       0.417000       1.00800           0
     10762 W2       3588     TIP3     OH2      OT      -0.834000       15.9994           0
     10763 W2       3588     TIP3     H1       HT       0.417000       1.00800           0
     10764 W2       3588     TIP3     H2       HT       0.417000       1.00800           0
     10765 W2       3589     TIP3     OH2      OT      -0.834000       15.9994           0
     10766 W2       3589     TIP3     H1       HT       0.417000       1.00800           0
     10767 W2       3589     TIP3     H2       HT       0.417000       1.00800           0
     10768 W2       3590     TIP3     OH2      OT      -0.834000       15.9994           0
     10769 W2       3590     TIP3     H1       HT       0.417000       1.00800           0
     10770 W2       3590     TIP3     H2       HT       0.417000       1.00800           0
     10771 W2       3591     TIP3     OH2      OT      -0.834000       15.9994           0
     10772 W2       3591     TIP3     H1       HT       0.417000       1.00800           0
     10773 W2       3591     TIP3     H2       HT       0.417000       1.00800           0
     10774 W2       3592     TIP3     OH2      OT      -0.834000       15.9994           0
     10775 W2       3592     TIP3     H1       HT       0.417000       1.00800           0
     10776 W2       3592     TIP3     H2       HT       0.417000       1.00800           0
     10777 W2       3593     TIP3     OH2      OT      -0.834000       15.9994           0
     10778 W2       3593     TIP3     H1       HT       0.417000       1.00800           0
     10779 W2       3593     TIP3     H2       HT       0.417000       1.00800           0
     10780 W2       3594     TIP3     OH2      OT      -0.834000       15.9994           0
     10781 W2       3594     TIP3     H1       HT       0.417000       1.00800           0
     10782 W2       3594     TIP3     H2       HT       0.417000       1.00800           0
     10783 W2       3595     TIP3     OH2      OT      -0.834000       15.9994           0
     10784 W2       3595     TIP3     H1       HT       0.417000       1.00800           0
     10785 W2       3595     TIP3     H2       HT       0.417000       1.00800           0
     10786 W2       3596     TIP3     OH2      OT      -0.834000       15.9994           0
     10787 W2       3596     TIP3     H1       HT       0.417000       1.00800           0
     10788 W2       3596     TIP3     H2       HT       0.417000       1.00800           0
     10789 W2       3597     TIP3     OH2      OT      -0.834000       15.9994           0
     10790 W2       3597     TIP3     H1       HT       0.417000       1.00800           0
     10791 W2       3597     TIP3     H2       HT       0.417000       1.00800           0
     10792 W2       3598     TIP3     OH2      OT      -0.834000       15.9994           0
     10793 W2       3598     TIP3     H1       HT       0.417000       1.00800           0
     10794 W2       3598     TIP3     H2       HT       0.417000       1.00800           0
     10795 W2       3599     TIP3     OH2      OT      -0.834000       15.9994           0
     10796 W2       3599     TIP3     H1       HT       0.417000       1.00800           0
     10797 W2       3599     TIP3     H2       HT       0.417000       1.00800           0
     10798 W2       3600     TIP3     OH2      OT      -0.834000       15.9994           0
     10799 W2       3600     TIP3     H1       HT       0.417000       1.00800           0
     10800 W2       3600     TIP3     H2       HT       0.417000       1.00800           0
     10801 W2       3601     TIP3     OH2      OT      -0.834000       15.9994           0
     10802 W2       3601     TIP3     H1       HT       0.417000       1.00800           0
     10803 W2       3601     TIP3     H2       HT       0.417000       1.00800           0
     10804 W2       3602     TIP3     OH2      OT      -0.834000       15.9994           0
     10805 W2       3602     TIP3     H1       HT       0.417000       1.00800           0
     10806 W2       3602     TIP3     H2       HT       0.417000       1.00800           0
     10807 W2       3603     TIP3     OH2      OT      -0.834000       15.9994           0
     10808 W2       3603     TIP3     H1       HT       0.417000       1.00800           0
     10809 W2       3603     TIP3     H2       HT       0.417000       1.00800           0
     10810 W2       3604     TIP3     OH2      OT      -0.834000       15.9994           0
     10811 W2       3604     TIP3     H1       HT       0.417000       1.00800           0
     10812 W2       3604     TIP3     H2       HT       0.417000       1.00800           0
     10813 W2       3605     TIP3     OH2      OT      -0.834000       15.9994           0
     10814 W2       3605     TIP3     H1       HT       0.417000       1.00800           0
     10815 W2       3605     TIP3     H2       HT       0.417000       1.00800           0
     10816 W2       3606     TIP3     OH2      OT      -0.834000       15.9994           0
     10817 W2       3606     TIP3     H1       HT       0.417000       1.00800           0
     10818 W2       3606     TIP3     H2       HT       0.417000       1.00800           0
     10819 W2       3607     TIP3     OH2      OT      -0.834000       15.9994           0
     10820 W2       3607     TIP3     H1       HT       0.417000       1.00800           0
     10821 W2       3607     TIP3     H2       HT       0.417000       1.00800           0
     10822 W2       3608     TIP3     OH2      OT      -0.834000       15.9994           0
     10823 W2       3608     TIP3     H1       HT       0.417000       1.00800           0
     10824 W2       3608     TIP3     H2       HT       0.417000       1.00800           0
     10825 W2       3609     TIP3     OH2      OT      -0.834000       15.9994           0
     10826 W2       3609     TIP3     H1       HT       0.417000       1.00800           0
     10827 W2       3609     TIP3     H2       HT       0.417000       1.00800           0
     10828 W2       3610     TIP3     OH2      OT      -0.834000       15.9994           0
     10829 W2       3610     TIP3     H1       HT       0.417000       1.00800           0
     10830 W2       3610     TIP3     H2       HT       0.417000       1.00800           0
     10831 W2       3611     TIP3     OH2      OT      -0.834000       15.9994           0
     10832 W2       3611     TIP3     H1       HT       0.417000       1.00800           0
     10833 W2       3611     TIP3     H2       HT       0.417000       1.00800           0
     10834 W2       3612     TIP3     OH2      OT      -0.834000       15.9994           0
     10835 W2       3612     TIP3     H1       HT       0.417000       1.00800           0
     10836 W2       3612     TIP3     H2       HT       0.417000       1.00800           0
     10837 W2       3613     TIP3     OH2      OT      -0.834000       15.9994           0
     10838 W2       3613     TIP3     H1       HT       0.417000       1.00800           0
     10839 W2       3613     TIP3     H2       HT       0.417000       1.00800           0
     10840 W2       3614     TIP3     OH2      OT      -0.834000       15.9994           0
     10841 W2       3614     TIP3     H1       HT       0.417000       1.00800           0
     10842 W2       3614     TIP3     H2       HT       0.417000       1.00800           0
     10843 W2       3615     TIP3     OH2      OT      -0.834000       15.9994           0
     10844 W2       3615     TIP3     H1       HT       0.417000       1.00800           0
     10845 W2       3615     TIP3     H2       HT       0.417000       1.00800           0
     10846 W2       3616     TIP3     OH2      OT      -0.834000       15.9994           0
     10847 W2       3616     TIP3     H1       HT       0.417000       1.00800           0
     10848 W2       3616     TIP3     H2       HT       0.417000       1.00800           0
     10849 W2       3617     TIP3     OH2      OT      -0.834000       15.9994           0
     10850 W2       3617     TIP3     H1       HT       0.417000       1.00800           0
     10851 W2       3617     TIP3     H2       HT       0.417000       1.00800           0
     10852 W2       3618     TIP3     OH2      OT      -0.834000       15.9994           0
     10853 W2       3618     TIP3     H1       HT       0.417000       1.00800           0
     10854 W2       3618     TIP3     H2       HT       0.417000       1.00800           0
     10855 W2       3619     TIP3     OH2      OT      -0.834000       15.9994           0
     10856 W2       3619     TIP3     H1       HT       0.417000       1.00800           0
     10857 W2       3619     TIP3     H2       HT       0.417000       1.00800           0
     10858 W2       3620     TIP3     OH2      OT      -0.834000       15.9994           0
     10859 W2       3620     TIP3     H1       HT       0.417000       1.00800           0
     10860 W2       3620     TIP3     H2       HT       0.417000       1.00800           0
     10861 W2       3621     TIP3     OH2      OT      -0.834000       15.9994           0
     10862 W2       3621     TIP3     H1       HT       0.417000       1.00800           0
     10863 W2       3621     TIP3     H2       HT       0.417000       1.00800           0
     10864 W2       3622     TIP3     OH2      OT      -0.834000       15.9994           0
     10865 W2       3622     TIP3     H1       HT       0.417000       1.00800           0
     10866 W2       3622     TIP3     H2       HT       0.417000       1.00800           0
     10867 W2       3623     TIP3     OH2      OT      -0.834000       15.9994           0
     10868 W2       3623     TIP3     H1       HT       0.417000       1.00800           0
     10869 W2       3623     TIP3     H2       HT       0.417000       1.00800           0
     10870 W2       3624     TIP3     OH2      OT      -0.834000       15.9994           0
     10871 W2       3624     TIP3     H1       HT       0.417000       1.00800           0
     10872 W2       3624     TIP3     H2       HT       0.417000       1.00800           0
     10873 W2       3625     TIP3     OH2      OT      -0.834000       15.9994           0
     10874 W2       3625     TIP3     H1       HT       0.417000       1.00800           0
     10875 W2       3625     TIP3     H2       HT       0.417000       1.00800           0
     10876 W2       3626     TIP3     OH2      OT      -0.834000       15.9994           0
     10877 W2       3626     TIP3     H1       HT       0.417000       1.00800           0
     10878 W2       3626     TIP3     H2       HT       0.417000       1.00800           0
     10879 W2       3627     TIP3     OH2      OT      -0.834000       15.9994           0
     10880 W2       3627     TIP3     H1       HT       0.417000       1.00800           0
     10881 W2       3627     TIP3     H2       HT       0.417000       1.00800           0
     10882 W2       3628     TIP3     OH2      OT      -0.834000       15.9994           0
     10883 W2       3628     TIP3     H1       HT       0.417000       1.00800           0
     10884 W2       3628     TIP3     H2       HT       0.417000       1.00800           0
     10885 W2       3629     TIP3     OH2      OT      -0.834000       15.9994           0
     10886 W2       3629     TIP3     H1       HT       0.417000       1.00800           0
     10887 W2       3629     TIP3     H2       HT       0.417000       1.00800           0
     10888 W2       3630     TIP3     OH2      OT      -0.834000       15.9994           0
     10889 W2       3630     TIP3     H1       HT       0.417000       1.00800           0
     10890 W2       3630     TIP3     H2       HT       0.417000       1.00800           0
     10891 W2       3631     TIP3     OH2      OT      -0.834000       15.9994           0
     10892 W2       3631     TIP3     H1       HT       0.417000       1.00800           0
     10893 W2       3631     TIP3     H2       HT       0.417000       1.00800           0
     10894 W2       3632     TIP3     OH2      OT      -0.834000       15.9994           0
     10895 W2       3632     TIP3     H1       HT       0.417000       1.00800           0
     10896 W2       3632     TIP3     H2       HT       0.417000       1.00800           0
     10897 W2       3633     TIP3     OH2      OT      -0.834000       15.9994           0
     10898 W2       3633     TIP3     H1       HT       0.417000       1.00800           0
     10899 W2       3633     TIP3     H2       HT       0.417000       1.00800           0
     10900 W2       3634     TIP3     OH2      OT      -0.834000       15.9994           0
     10901 W2       3634     TIP3     H1       HT       0.417000       1.00800           0
     10902 W2       3634     TIP3     H2       HT       0.417000       1.00800           0
     10903 W2       3635     TIP3     OH2      OT      -0.834000       15.9994           0
     10904 W2       3635     TIP3     H1       HT       0.417000       1.00800           0
     10905 W2       3635     TIP3     H2       HT       0.417000       1.00800           0
     10906 W2       3636     TIP3     OH2      OT      -0.834000       15.9994           0
     10907 W2       3636     TIP3     H1       HT       0.417000       1.00800           0
     10908 W2       3636     TIP3     H2       HT       0.417000       1.00800           0
     10909 W2       3637     TIP3     OH2      OT      -0.834000       15.9994           0
     10910 W2       3637     TIP3     H1       HT       0.417000       1.00800           0
     10911 W2       3637     TIP3     H2       HT       0.417000       1.00800           0
     10912 W2       3638     TIP3     OH2      OT      -0.834000       15.9994           0
     10913 W2       3638     TIP3     H1       HT       0.417000       1.00800           0
     10914 W2       3638     TIP3     H2       HT       0.417000       1.00800           0
     10915 W2       3639     TIP3     OH2      OT      -0.834000       15.9994           0
     10916 W2       3639     TIP3     H1       HT       0.417000       1.00800           0
     10917 W2       3639     TIP3     H2       HT       0.417000       1.00800           0
     10918 W2       3640     TIP3     OH2      OT      -0.834000       15.9994           0
     10919 W2       3640     TIP3     H1       HT       0.417000       1.00800           0
     10920 W2       3640     TIP3     H2       HT       0.417000       1.00800           0
     10921 W2       3641     TIP3     OH2      OT      -0.834000       15.9994           0
     10922 W2       3641     TIP3     H1       HT       0.417000       1.00800           0
     10923 W2       3641     TIP3     H2       HT       0.417000       1.00800           0
     10924 W2       3642     TIP3     OH2      OT      -0.834000       15.9994           0
     10925 W2       3642     TIP3     H1       HT       0.417000       1.00800           0
     10926 W2       3642     TIP3     H2       HT       0.417000       1.00800           0
     10927 W2       3643     TIP3     OH2      OT      -0.834000       15.9994           0
     10928 W2       3643     TIP3     H1       HT       0.417000       1.00800           0
     10929 W2       3643     TIP3     H2       HT       0.417000       1.00800           0
     10930 W2       3644     TIP3     OH2      OT      -0.834000       15.9994           0
     10931 W2       3644     TIP3     H1       HT       0.417000       1.00800           0
     10932 W2       3644     TIP3     H2       HT       0.417000       1.00800           0
     10933 W2       3645     TIP3     OH2      OT      -0.834000       15.9994           0
     10934 W2       3645     TIP3     H1       HT       0.417000       1.00800           0
     10935 W2       3645     TIP3     H2       HT       0.417000       1.00800           0
     10936 W2       3646     TIP3     OH2      OT      -0.834000       15.9994           0
     10937 W2       3646     TIP3     H1       HT       0.417000       1.00800           0
     10938 W2       3646     TIP3     H2       HT       0.417000       1.00800           0
     10939 W2       3647     TIP3     OH2      OT      -0.834000       15.9994           0
     10940 W2       3647     TIP3     H1       HT       0.417000       1.00800           0
     10941 W2       3647     TIP3     H2       HT       0.417000       1.00800           0
     10942 W2       3648     TIP3     OH2      OT      -0.834000       15.9994           0
     10943 W2       3648     TIP3     H1       HT       0.417000       1.00800           0
     10944 W2       3648     TIP3     H2       HT       0.417000       1.00800           0
     10945 W2       3649     TIP3     OH2      OT      -0.834000       15.9994           0
     10946 W2       3649     TIP3     H1       HT       0.417000       1.00800           0
     10947 W2       3649     TIP3     H2       HT       0.417000       1.00800           0
     10948 W2       3650     TIP3     OH2      OT      -0.834000       15.9994           0
     10949 W2       3650     TIP3     H1       HT       0.417000       1.00800           0
     10950 W2       3650     TIP3     H2       HT       0.417000       1.00800           0
     10951 W2       3651     TIP3     OH2      OT      -0.834000       15.9994           0
     10952 W2       3651     TIP3     H1       HT       0.417000       1.00800           0
     10953 W2       3651     TIP3     H2       HT       0.417000       1.00800           0
     10954 W2       3652     TIP3     OH2      OT      -0.834000       15.9994           0
     10955 W2       3652     TIP3     H1       HT       0.417000       1.00800           0
     10956 W2       3652     TIP3     H2       HT       0.417000       1.00800           0
     10957 W2       3653     TIP3     OH2      OT      -0.834000       15.9994           0
     10958 W2       3653     TIP3     H1       HT       0.417000       1.00800           0
     10959 W2       3653     TIP3     H2       HT       0.417000       1.00800           0
     10960 W2       3654     TIP3     OH2      OT      -0.834000       15.9994           0
     10961 W2       3654     TIP3     H1       HT       0.417000       1.00800           0
     10962 W2       3654     TIP3     H2       HT       0.417000       1.00800           0
     10963 W2       3655     TIP3     OH2      OT      -0.834000       15.9994           0
     10964 W2       3655     TIP3     H1       HT       0.417000       1.00800           0
     10965 W2       3655     TIP3     H2       HT       0.417000       1.00800           0
     10966 W2       3656     TIP3     OH2      OT      -0.834000       15.9994           0
     10967 W2       3656     TIP3     H1       HT       0.417000       1.00800           0
     10968 W2       3656     TIP3     H2       HT       0.417000       1.00800           0
     10969 W2       3657     TIP3     OH2      OT      -0.834000       15.9994           0
     10970 W2       3657     TIP3     H1       HT       0.417000       1.00800           0
     10971 W2       3657     TIP3     H2       HT       0.417000       1.00800           0
     10972 W2       3658     TIP3     OH2      OT      -0.834000       15.9994           0
     10973 W2       3658     TIP3     H1       HT       0.417000       1.00800           0
     10974 W2       3658     TIP3     H2       HT       0.417000       1.00800           0
     10975 W2       3659     TIP3     OH2      OT      -0.834000       15.9994           0
     10976 W2       3659     TIP3     H1       HT       0.417000       1.00800           0
     10977 W2       3659     TIP3     H2       HT       0.417000       1.00800           0
     10978 W2       3660     TIP3     OH2      OT      -0.834000       15.9994           0
     10979 W2       3660     TIP3     H1       HT       0.417000       1.00800           0
     10980 W2       3660     TIP3     H2       HT       0.417000       1.00800           0
     10981 W2       3661     TIP3     OH2      OT      -0.834000       15.9994           0
     10982 W2       3661     TIP3     H1       HT       0.417000       1.00800           0
     10983 W2       3661     TIP3     H2       HT       0.417000       1.00800           0
     10984 W2       3662     TIP3     OH2      OT      -0.834000       15.9994           0
     10985 W2       3662     TIP3     H1       HT       0.417000       1.00800           0
     10986 W2       3662     TIP3     H2       HT       0.417000       1.00800           0
     10987 W2       3663     TIP3     OH2      OT      -0.834000       15.9994           0
     10988 W2       3663     TIP3     H1       HT       0.417000       1.00800           0
     10989 W2       3663     TIP3     H2       HT       0.417000       1.00800           0
     10990 W2       3664     TIP3     OH2      OT      -0.834000       15.9994           0
     10991 W2       3664     TIP3     H1       HT       0.417000       1.00800           0
     10992 W2       3664     TIP3     H2       HT       0.417000       1.00800           0
     10993 W2       3665     TIP3     OH2      OT      -0.834000       15.9994           0
     10994 W2       3665     TIP3     H1       HT       0.417000       1.00800           0
     10995 W2       3665     TIP3     H2       HT       0.417000       1.00800           0
     10996 W2       3666     TIP3     OH2      OT      -0.834000       15.9994           0
     10997 W2       3666     TIP3     H1       HT       0.417000       1.00800           0
     10998 W2       3666     TIP3     H2       HT       0.417000       1.00800           0
     10999 W2       3667     TIP3     OH2      OT      -0.834000       15.9994           0
     11000 W2       3667     TIP3     H1       HT       0.417000       1.00800           0
     11001 W2       3667     TIP3     H2       HT       0.417000       1.00800           0
     11002 W2       3668     TIP3     OH2      OT      -0.834000       15.9994           0
     11003 W2       3668     TIP3     H1       HT       0.417000       1.00800           0
     11004 W2       3668     TIP3     H2       HT       0.417000       1.00800           0
     11005 W2       3669     TIP3     OH2      OT      -0.834000       15.9994           0
     11006 W2       3669     TIP3     H1       HT       0.417000       1.00800           0
     11007 W2       3669     TIP3     H2       HT       0.417000       1.00800           0
     11008 W2       3670     TIP3     OH2      OT      -0.834000       15.9994           0
     11009 W2       3670     TIP3     H1       HT       0.417000       1.00800           0
     11010 W2       3670     TIP3     H2       HT       0.417000       1.00800           0
     11011 W2       3671     TIP3     OH2      OT      -0.834000       15.9994           0
     11012 W2       3671     TIP3     H1       HT       0.417000       1.00800           0
     11013 W2       3671     TIP3     H2       HT       0.417000       1.00800           0
     11014 W2       3672     TIP3     OH2      OT      -0.834000       15.9994           0
     11015 W2       3672     TIP3     H1       HT       0.417000       1.00800           0
     11016 W2       3672     TIP3     H2       HT       0.417000       1.00800           0
     11017 W2       3673     TIP3     OH2      OT      -0.834000       15.9994           0
     11018 W2       3673     TIP3     H1       HT       0.417000       1.00800           0
     11019 W2       3673     TIP3     H2       HT       0.417000       1.00800           0
     11020 W2       3674     TIP3     OH2      OT      -0.834000       15.9994           0
     11021 W2       3674     TIP3     H1       HT       0.417000       1.00800           0
     11022 W2       3674     TIP3     H2       HT       0.417000       1.00800           0
     11023 W2       3675     TIP3     OH2      OT      -0.834000       15.9994           0
     11024 W2       3675     TIP3     H1       HT       0.417000       1.00800           0
     11025 W2       3675     TIP3     H2       HT       0.417000       1.00800           0
     11026 W2       3676     TIP3     OH2      OT      -0.834000       15.9994           0
     11027 W2       3676     TIP3     H1       HT       0.417000       1.00800           0
     11028 W2       3676     TIP3     H2       HT       0.417000       1.00800           0
     11029 W2       3677     TIP3     OH2      OT      -0.834000       15.9994           0
     11030 W2       3677     TIP3     H1       HT       0.417000       1.00800           0
     11031 W2       3677     TIP3     H2       HT       0.417000       1.00800           0
     11032 W2       3678     TIP3     OH2      OT      -0.834000       15.9994           0
     11033 W2       3678     TIP3     H1       HT       0.417000       1.00800           0
     11034 W2       3678     TIP3     H2       HT       0.417000       1.00800           0
     11035 W2       3679     TIP3     OH2      OT      -0.834000       15.9994           0
     11036 W2       3679     TIP3     H1       HT       0.417000       1.00800           0
     11037 W2       3679     TIP3     H2       HT       0.417000       1.00800           0
     11038 W2       3680     TIP3     OH2      OT      -0.834000       15.9994           0
     11039 W2       3680     TIP3     H1       HT       0.417000       1.00800           0
     11040 W2       3680     TIP3     H2       HT       0.417000       1.00800           0
     11041 W2       3681     TIP3     OH2      OT      -0.834000       15.9994           0
     11042 W2       3681     TIP3     H1       HT       0.417000       1.00800           0
     11043 W2       3681     TIP3     H2       HT       0.417000       1.00800           0
     11044 W2       3682     TIP3     OH2      OT      -0.834000       15.9994           0
     11045 W2       3682     TIP3     H1       HT       0.417000       1.00800           0
     11046 W2       3682     TIP3     H2       HT       0.417000       1.00800           0
     11047 W2       3683     TIP3     OH2      OT      -0.834000       15.9994           0
     11048 W2       3683     TIP3     H1       HT       0.417000       1.00800           0
     11049 W2       3683     TIP3     H2       HT       0.417000       1.00800           0
     11050 W2       3684     TIP3     OH2      OT      -0.834000       15.9994           0
     11051 W2       3684     TIP3     H1       HT       0.417000       1.00800           0
     11052 W2       3684     TIP3     H2       HT       0.417000       1.00800           0
     11053 W2       3685     TIP3     OH2      OT      -0.834000       15.9994           0
     11054 W2       3685     TIP3     H1       HT       0.417000       1.00800           0
     11055 W2       3685     TIP3     H2       HT       0.417000       1.00800           0
     11056 W2       3686     TIP3     OH2      OT      -0.834000       15.9994           0
     11057 W2       3686     TIP3     H1       HT       0.417000       1.00800           0
     11058 W2       3686     TIP3     H2       HT       0.417000       1.00800           0
     11059 W2       3687     TIP3     OH2      OT      -0.834000       15.9994           0
     11060 W2       3687     TIP3     H1       HT       0.417000       1.00800           0
     11061 W2       3687     TIP3     H2       HT       0.417000       1.00800           0
     11062 W2       3688     TIP3     OH2      OT      -0.834000       15.9994           0
     11063 W2       3688     TIP3     H1       HT       0.417000       1.00800           0
     11064 W2       3688     TIP3     H2       HT       0.417000       1.00800           0
     11065 W2       3689     TIP3     OH2      OT      -0.834000       15.9994           0
     11066 W2       3689     TIP3     H1       HT       0.417000       1.00800           0
     11067 W2       3689     TIP3     H2       HT       0.417000       1.00800           0
     11068 W2       3690     TIP3     OH2      OT      -0.834000       15.9994           0
     11069 W2       3690     TIP3     H1       HT       0.417000       1.00800           0
     11070 W2       3690     TIP3     H2       HT       0.417000       1.00800           0
     11071 W2       3691     TIP3     OH2      OT      -0.834000       15.9994           0
     11072 W2       3691     TIP3     H1       HT       0.417000       1.00800           0
     11073 W2       3691     TIP3     H2       HT       0.417000       1.00800           0
     11074 W2       3692     TIP3     OH2      OT      -0.834000       15.9994           0
     11075 W2       3692     TIP3     H1       HT       0.417000       1.00800           0
     11076 W2       3692     TIP3     H2       HT       0.417000       1.00800           0
     11077 W2       3693     TIP3     OH2      OT      -0.834000       15.9994           0
     11078 W2       3693     TIP3     H1       HT       0.417000       1.00800           0
     11079 W2       3693     TIP3     H2       HT       0.417000       1.00800           0
     11080 W2       3694     TIP3     OH2      OT      -0.834000       15.9994           0
     11081 W2       3694     TIP3     H1       HT       0.417000       1.00800           0
     11082 W2       3694     TIP3     H2       HT       0.417000       1.00800           0
     11083 W2       3695     TIP3     OH2      OT      -0.834000       15.9994           0
     11084 W2       3695     TIP3     H1       HT       0.417000       1.00800           0
     11085 W2       3695     TIP3     H2       HT       0.417000       1.00800           0
     11086 W2       3696     TIP3     OH2      OT      -0.834000       15.9994           0
     11087 W2       3696     TIP3     H1       HT       0.417000       1.00800           0
     11088 W2       3696     TIP3     H2       HT       0.417000       1.00800           0
     11089 W2       3697     TIP3     OH2      OT      -0.834000       15.9994           0
     11090 W2       3697     TIP3     H1       HT       0.417000       1.00800           0
     11091 W2       3697     TIP3     H2       HT       0.417000       1.00800           0
     11092 W2       3698     TIP3     OH2      OT      -0.834000       15.9994           0
     11093 W2       3698     TIP3     H1       HT       0.417000       1.00800           0
     11094 W2       3698     TIP3     H2       HT       0.417000       1.00800           0
     11095 W2       3699     TIP3     OH2      OT      -0.834000       15.9994           0
     11096 W2       3699     TIP3     H1       HT       0.417000       1.00800           0
     11097 W2       3699     TIP3     H2       HT       0.417000       1.00800           0
     11098 W2       3700     TIP3     OH2      OT      -0.834000       15.9994           0
     11099 W2       3700     TIP3     H1       HT       0.417000       1.00800           0
     11100 W2       3700     TIP3     H2       HT       0.417000       1.00800           0
     11101 W2       3701     TIP3     OH2      OT      -0.834000       15.9994           0
     11102 W2       3701     TIP3     H1       HT       0.417000       1.00800           0
     11103 W2       3701     TIP3     H2       HT       0.417000       1.00800           0
     11104 W2       3702     TIP3     OH2      OT      -0.834000       15.9994           0
     11105 W2       3702     TIP3     H1       HT       0.417000       1.00800           0
     11106 W2       3702     TIP3     H2       HT       0.417000       1.00800           0
     11107 W2       3703     TIP3     OH2      OT      -0.834000       15.9994           0
     11108 W2       3703     TIP3     H1       HT       0.417000       1.00800           0
     11109 W2       3703     TIP3     H2       HT       0.417000       1.00800           0
     11110 W2       3704     TIP3     OH2      OT      -0.834000       15.9994           0
     11111 W2       3704     TIP3     H1       HT       0.417000       1.00800           0
     11112 W2       3704     TIP3     H2       HT       0.417000       1.00800           0
     11113 W2       3705     TIP3     OH2      OT      -0.834000       15.9994           0
     11114 W2       3705     TIP3     H1       HT       0.417000       1.00800           0
     11115 W2       3705     TIP3     H2       HT       0.417000       1.00800           0
     11116 W2       3706     TIP3     OH2      OT      -0.834000       15.9994           0
     11117 W2       3706     TIP3     H1       HT       0.417000       1.00800           0
     11118 W2       3706     TIP3     H2       HT       0.417000       1.00800           0
     11119 W2       3707     TIP3     OH2      OT      -0.834000       15.9994           0
     11120 W2       3707     TIP3     H1       HT       0.417000       1.00800           0
     11121 W2       3707     TIP3     H2       HT       0.417000       1.00800           0
     11122 W2       3708     TIP3     OH2      OT      -0.834000       15.9994           0
     11123 W2       3708     TIP3     H1       HT       0.417000       1.00800           0
     11124 W2       3708     TIP3     H2       HT       0.417000       1.00800           0
     11125 W2       3709     TIP3     OH2      OT      -0.834000       15.9994           0
     11126 W2       3709     TIP3     H1       HT       0.417000       1.00800           0
     11127 W2       3709     TIP3     H2       HT       0.417000       1.00800           0
     11128 W2       3710     TIP3     OH2      OT      -0.834000       15.9994           0
     11129 W2       3710     TIP3     H1       HT       0.417000       1.00800           0
     11130 W2       3710     TIP3     H2       HT       0.417000       1.00800           0
     11131 W2       3711     TIP3     OH2      OT      -0.834000       15.9994           0
     11132 W2       3711     TIP3     H1       HT       0.417000       1.00800           0
     11133 W2       3711     TIP3     H2       HT       0.417000       1.00800           0
     11134 W2       3712     TIP3     OH2      OT      -0.834000       15.9994           0
     11135 W2       3712     TIP3     H1       HT       0.417000       1.00800           0
     11136 W2       3712     TIP3     H2       HT       0.417000       1.00800           0
     11137 W2       3713     TIP3     OH2      OT      -0.834000       15.9994           0
     11138 W2       3713     TIP3     H1       HT       0.417000       1.00800           0
     11139 W2       3713     TIP3     H2       HT       0.417000       1.00800           0
     11140 W2       3714     TIP3     OH2      OT      -0.834000       15.9994           0
     11141 W2       3714     TIP3     H1       HT       0.417000       1.00800           0
     11142 W2       3714     TIP3     H2       HT       0.417000       1.00800           0
     11143 W2       3715     TIP3     OH2      OT      -0.834000       15.9994           0
     11144 W2       3715     TIP3     H1       HT       0.417000       1.00800           0
     11145 W2       3715     TIP3     H2       HT       0.417000       1.00800           0
     11146 W2       3716     TIP3     OH2      OT      -0.834000       15.9994           0
     11147 W2       3716     TIP3     H1       HT       0.417000       1.00800           0
     11148 W2       3716     TIP3     H2       HT       0.417000       1.00800           0
     11149 W2       3717     TIP3     OH2      OT      -0.834000       15.9994           0
     11150 W2       3717     TIP3     H1       HT       0.417000       1.00800           0
     11151 W2       3717     TIP3     H2       HT       0.417000       1.00800           0
     11152 W2       3718     TIP3     OH2      OT      -0.834000       15.9994           0
     11153 W2       3718     TIP3     H1       HT       0.417000       1.00800           0
     11154 W2       3718     TIP3     H2       HT       0.417000       1.00800           0
     11155 W2       3719     TIP3     OH2      OT      -0.834000       15.9994           0
     11156 W2       3719     TIP3     H1       HT       0.417000       1.00800           0
     11157 W2       3719     TIP3     H2       HT       0.417000       1.00800           0
     11158 W2       3720     TIP3     OH2      OT      -0.834000       15.9994           0
     11159 W2       3720     TIP3     H1       HT       0.417000       1.00800           0
     11160 W2       3720     TIP3     H2       HT       0.417000       1.00800           0
     11161 W2       3721     TIP3     OH2      OT      -0.834000       15.9994           0
     11162 W2       3721     TIP3     H1       HT       0.417000       1.00800           0
     11163 W2       3721     TIP3     H2       HT       0.417000       1.00800           0
     11164 W2       3722     TIP3     OH2      OT      -0.834000       15.9994           0
     11165 W2       3722     TIP3     H1       HT       0.417000       1.00800           0
     11166 W2       3722     TIP3     H2       HT       0.417000       1.00800           0
     11167 W2       3723     TIP3     OH2      OT      -0.834000       15.9994           0
     11168 W2       3723     TIP3     H1       HT       0.417000       1.00800           0
     11169 W2       3723     TIP3     H2       HT       0.417000       1.00800           0
     11170 W2       3724     TIP3     OH2      OT      -0.834000       15.9994           0
     11171 W2       3724     TIP3     H1       HT       0.417000       1.00800           0
     11172 W2       3724     TIP3     H2       HT       0.417000       1.00800           0
     11173 W2       3725     TIP3     OH2      OT      -0.834000       15.9994           0
     11174 W2       3725     TIP3     H1       HT       0.417000       1.00800           0
     11175 W2       3725     TIP3     H2       HT       0.417000       1.00800           0
     11176 W2       3726     TIP3     OH2      OT      -0.834000       15.9994           0
     11177 W2       3726     TIP3     H1       HT       0.417000       1.00800           0
     11178 W2       3726     TIP3     H2       HT       0.417000       1.00800           0
     11179 W2       3727     TIP3     OH2      OT      -0.834000       15.9994           0
     11180 W2       3727     TIP3     H1       HT       0.417000       1.00800           0
     11181 W2       3727     TIP3     H2       HT       0.417000       1.00800           0
     11182 W2       3728     TIP3     OH2      OT      -0.834000       15.9994           0
     11183 W2       3728     TIP3     H1       HT       0.417000       1.00800           0
     11184 W2       3728     TIP3     H2       HT       0.417000       1.00800           0
     11185 W2       3729     TIP3     OH2      OT      -0.834000       15.9994           0
     11186 W2       3729     TIP3     H1       HT       0.417000       1.00800           0
     11187 W2       3729     TIP3     H2       HT       0.417000       1.00800           0
     11188 W2       3730     TIP3     OH2      OT      -0.834000       15.9994           0
     11189 W2       3730     TIP3     H1       HT       0.417000       1.00800           0
     11190 W2       3730     TIP3     H2       HT       0.417000       1.00800           0
     11191 W2       3731     TIP3     OH2      OT      -0.834000       15.9994           0
     11192 W2       3731     TIP3     H1       HT       0.417000       1.00800           0
     11193 W2       3731     TIP3     H2       HT       0.417000       1.00800           0
     11194 W2       3732     TIP3     OH2      OT      -0.834000       15.9994           0
     11195 W2       3732     TIP3     H1       HT       0.417000       1.00800           0
     11196 W2       3732     TIP3     H2       HT       0.417000       1.00800           0
     11197 W2       3733     TIP3     OH2      OT      -0.834000       15.9994           0
     11198 W2       3733     TIP3     H1       HT       0.417000       1.00800           0
     11199 W2       3733     TIP3     H2       HT       0.417000       1.00800           0
     11200 W2       3734     TIP3     OH2      OT      -0.834000       15.9994           0
     11201 W2       3734     TIP3     H1       HT       0.417000       1.00800           0
     11202 W2       3734     TIP3     H2       HT       0.417000       1.00800           0
     11203 W2       3735     TIP3     OH2      OT      -0.834000       15.9994           0
     11204 W2       3735     TIP3     H1       HT       0.417000       1.00800           0
     11205 W2       3735     TIP3     H2       HT       0.417000       1.00800           0
     11206 W2       3736     TIP3     OH2      OT      -0.834000       15.9994           0
     11207 W2       3736     TIP3     H1       HT       0.417000       1.00800           0
     11208 W2       3736     TIP3     H2       HT       0.417000       1.00800           0
     11209 W2       3737     TIP3     OH2      OT      -0.834000       15.9994           0
     11210 W2       3737     TIP3     H1       HT       0.417000       1.00800           0
     11211 W2       3737     TIP3     H2       HT       0.417000       1.00800           0
     11212 W2       3738     TIP3     OH2      OT      -0.834000       15.9994           0
     11213 W2       3738     TIP3     H1       HT       0.417000       1.00800           0
     11214 W2       3738     TIP3     H2       HT       0.417000       1.00800           0
     11215 W2       3739     TIP3     OH2      OT      -0.834000       15.9994           0
     11216 W2       3739     TIP3     H1       HT       0.417000       1.00800           0
     11217 W2       3739     TIP3     H2       HT       0.417000       1.00800           0
     11218 W2       3740     TIP3     OH2      OT      -0.834000       15.9994           0
     11219 W2       3740     TIP3     H1       HT       0.417000       1.00800           0
     11220 W2       3740     TIP3     H2       HT       0.417000       1.00800           0
     11221 W2       3741     TIP3     OH2      OT      -0.834000       15.9994           0
     11222 W2       3741     TIP3     H1       HT       0.417000       1.00800           0
     11223 W2       3741     TIP3     H2       HT       0.417000       1.00800           0
     11224 W2       3742     TIP3     OH2      OT      -0.834000       15.9994           0
     11225 W2       3742     TIP3     H1       HT       0.417000       1.00800           0
     11226 W2       3742     TIP3     H2       HT       0.417000       1.00800           0
     11227 W2       3743     TIP3     OH2      OT      -0.834000       15.9994           0
     11228 W2       3743     TIP3     H1       HT       0.417000       1.00800           0
     11229 W2       3743     TIP3     H2       HT       0.417000       1.00800           0
     11230 W2       3744     TIP3     OH2      OT      -0.834000       15.9994           0
     11231 W2       3744     TIP3     H1       HT       0.417000       1.00800           0
     11232 W2       3744     TIP3     H2       HT       0.417000       1.00800           0
     11233 W2       3745     TIP3     OH2      OT      -0.834000       15.9994           0
     11234 W2       3745     TIP3     H1       HT       0.417000       1.00800           0
     11235 W2       3745     TIP3     H2       HT       0.417000       1.00800           0
     11236 W2       3746     TIP3     OH2      OT      -0.834000       15.9994           0
     11237 W2       3746     TIP3     H1       HT       0.417000       1.00800           0
     11238 W2       3746     TIP3     H2       HT       0.417000       1.00800           0
     11239 W2       3747     TIP3     OH2      OT      -0.834000       15.9994           0
     11240 W2       3747     TIP3     H1       HT       0.417000       1.00800           0
     11241 W2       3747     TIP3     H2       HT       0.417000       1.00800           0
     11242 W2       3748     TIP3     OH2      OT      -0.834000       15.9994           0
     11243 W2       3748     TIP3     H1       HT       0.417000       1.00800           0
     11244 W2       3748     TIP3     H2       HT       0.417000       1.00800           0
     11245 W2       3749     TIP3     OH2      OT      -0.834000       15.9994           0
     11246 W2       3749     TIP3     H1       HT       0.417000       1.00800           0
     11247 W2       3749     TIP3     H2       HT       0.417000       1.00800           0
     11248 W2       3750     TIP3     OH2      OT      -0.834000       15.9994           0
     11249 W2       3750     TIP3     H1       HT       0.417000       1.00800           0
     11250 W2       3750     TIP3     H2       HT       0.417000       1.00800           0
     11251 W2       3751     TIP3     OH2      OT      -0.834000       15.9994           0
     11252 W2       3751     TIP3     H1       HT       0.417000       1.00800           0
     11253 W2       3751     TIP3     H2       HT       0.417000       1.00800           0
     11254 W2       3752     TIP3     OH2      OT      -0.834000       15.9994           0
     11255 W2       3752     TIP3     H1       HT       0.417000       1.00800           0
     11256 W2       3752     TIP3     H2       HT       0.417000       1.00800           0
     11257 W2       3753     TIP3     OH2      OT      -0.834000       15.9994           0
     11258 W2       3753     TIP3     H1       HT       0.417000       1.00800           0
     11259 W2       3753     TIP3     H2       HT       0.417000       1.00800           0
     11260 W2       3754     TIP3     OH2      OT      -0.834000       15.9994           0
     11261 W2       3754     TIP3     H1       HT       0.417000       1.00800           0
     11262 W2       3754     TIP3     H2       HT       0.417000       1.00800           0
     11263 W2       3755     TIP3     OH2      OT      -0.834000       15.9994           0
     11264 W2       3755     TIP3     H1       HT       0.417000       1.00800           0
     11265 W2       3755     TIP3     H2       HT       0.417000       1.00800           0
     11266 W2       3756     TIP3     OH2      OT      -0.834000       15.9994           0
     11267 W2       3756     TIP3     H1       HT       0.417000       1.00800           0
     11268 W2       3756     TIP3     H2       HT       0.417000       1.00800           0
     11269 W2       3757     TIP3     OH2      OT      -0.834000       15.9994           0
     11270 W2       3757     TIP3     H1       HT       0.417000       1.00800           0
     11271 W2       3757     TIP3     H2       HT       0.417000       1.00800           0
     11272 W2       3758     TIP3     OH2      OT      -0.834000       15.9994           0
     11273 W2       3758     TIP3     H1       HT       0.417000       1.00800           0
     11274 W2       3758     TIP3     H2       HT       0.417000       1.00800           0
     11275 W2       3759     TIP3     OH2      OT      -0.834000       15.9994           0
     11276 W2       3759     TIP3     H1       HT       0.417000       1.00800           0
     11277 W2       3759     TIP3     H2       HT       0.417000       1.00800           0
     11278 W2       3760     TIP3     OH2      OT      -0.834000       15.9994           0
     11279 W2       3760     TIP3     H1       HT       0.417000       1.00800           0
     11280 W2       3760     TIP3     H2       HT       0.417000       1.00800           0
     11281 W2       3761     TIP3     OH2      OT      -0.834000       15.9994           0
     11282 W2       3761     TIP3     H1       HT       0.417000       1.00800           0
     11283 W2       3761     TIP3     H2       HT       0.417000       1.00800           0
     11284 W2       3762     TIP3     OH2      OT      -0.834000       15.9994           0
     11285 W2       3762     TIP3     H1       HT       0.417000       1.00800           0
     11286 W2       3762     TIP3     H2       HT       0.417000       1.00800           0
     11287 W2       3763     TIP3     OH2      OT      -0.834000       15.9994           0
     11288 W2       3763     TIP3     H1       HT       0.417000       1.00800           0
     11289 W2       3763     TIP3     H2       HT       0.417000       1.00800           0
     11290 W2       3764     TIP3     OH2      OT      -0.834000       15.9994           0
     11291 W2       3764     TIP3     H1       HT       0.417000       1.00800           0
     11292 W2       3764     TIP3     H2       HT       0.417000       1.00800           0
     11293 W2       3765     TIP3     OH2      OT      -0.834000       15.9994           0
     11294 W2       3765     TIP3     H1       HT       0.417000       1.00800           0
     11295 W2       3765     TIP3     H2       HT       0.417000       1.00800           0
     11296 W2       3766     TIP3     OH2      OT      -0.834000       15.9994           0
     11297 W2       3766     TIP3     H1       HT       0.417000       1.00800           0
     11298 W2       3766     TIP3     H2       HT       0.417000       1.00800           0
     11299 W2       3767     TIP3     OH2      OT      -0.834000       15.9994           0
     11300 W2       3767     TIP3     H1       HT       0.417000       1.00800           0
     11301 W2       3767     TIP3     H2       HT       0.417000       1.00800           0
     11302 W2       3768     TIP3     OH2      OT      -0.834000       15.9994           0
     11303 W2       3768     TIP3     H1       HT       0.417000       1.00800           0
     11304 W2       3768     TIP3     H2       HT       0.417000       1.00800           0
     11305 W2       3769     TIP3     OH2      OT      -0.834000       15.9994           0
     11306 W2       3769     TIP3     H1       HT       0.417000       1.00800           0
     11307 W2       3769     TIP3     H2       HT       0.417000       1.00800           0
     11308 W2       3770     TIP3     OH2      OT      -0.834000       15.9994           0
     11309 W2       3770     TIP3     H1       HT       0.417000       1.00800           0
     11310 W2       3770     TIP3     H2       HT       0.417000       1.00800           0
     11311 W2       3771     TIP3     OH2      OT      -0.834000       15.9994           0
     11312 W2       3771     TIP3     H1       HT       0.417000       1.00800           0
     11313 W2       3771     TIP3     H2       HT       0.417000       1.00800           0
     11314 W2       3772     TIP3     OH2      OT      -0.834000       15.9994           0
     11315 W2       3772     TIP3     H1       HT       0.417000       1.00800           0
     11316 W2       3772     TIP3     H2       HT       0.417000       1.00800           0
     11317 W2       3773     TIP3     OH2      OT      -0.834000       15.9994           0
     11318 W2       3773     TIP3     H1       HT       0.417000       1.00800           0
     11319 W2       3773     TIP3     H2       HT       0.417000       1.00800           0
     11320 W2       3774     TIP3     OH2      OT      -0.834000       15.9994           0
     11321 W2       3774     TIP3     H1       HT       0.417000       1.00800           0
     11322 W2       3774     TIP3     H2       HT       0.417000       1.00800           0
     11323 W2       3775     TIP3     OH2      OT      -0.834000       15.9994           0
     11324 W2       3775     TIP3     H1       HT       0.417000       1.00800           0
     11325 W2       3775     TIP3     H2       HT       0.417000       1.00800           0
     11326 W2       3776     TIP3     OH2      OT      -0.834000       15.9994           0
     11327 W2       3776     TIP3     H1       HT       0.417000       1.00800           0
     11328 W2       3776     TIP3     H2       HT       0.417000       1.00800           0
     11329 W2       3777     TIP3     OH2      OT      -0.834000       15.9994           0
     11330 W2       3777     TIP3     H1       HT       0.417000       1.00800           0
     11331 W2       3777     TIP3     H2       HT       0.417000       1.00800           0
     11332 W2       3778     TIP3     OH2      OT      -0.834000       15.9994           0
     11333 W2       3778     TIP3     H1       HT       0.417000       1.00800           0
     11334 W2       3778     TIP3     H2       HT       0.417000       1.00800           0
     11335 W2       3779     TIP3     OH2      OT      -0.834000       15.9994           0
     11336 W2       3779     TIP3     H1       HT       0.417000       1.00800           0
     11337 W2       3779     TIP3     H2       HT       0.417000       1.00800           0
     11338 W2       3780     TIP3     OH2      OT      -0.834000       15.9994           0
     11339 W2       3780     TIP3     H1       HT       0.417000       1.00800           0
     11340 W2       3780     TIP3     H2       HT       0.417000       1.00800           0
     11341 W2       3781     TIP3     OH2      OT      -0.834000       15.9994           0
     11342 W2       3781     TIP3     H1       HT       0.417000       1.00800           0
     11343 W2       3781     TIP3     H2       HT       0.417000       1.00800           0
     11344 W2       3782     TIP3     OH2      OT      -0.834000       15.9994           0
     11345 W2       3782     TIP3     H1       HT       0.417000       1.00800           0
     11346 W2       3782     TIP3     H2       HT       0.417000       1.00800           0
     11347 W2       3783     TIP3     OH2      OT      -0.834000       15.9994           0
     11348 W2       3783     TIP3     H1       HT       0.417000       1.00800           0
     11349 W2       3783     TIP3     H2       HT       0.417000       1.00800           0
     11350 W2       3784     TIP3     OH2      OT      -0.834000       15.9994           0
     11351 W2       3784     TIP3     H1       HT       0.417000       1.00800           0
     11352 W2       3784     TIP3     H2       HT       0.417000       1.00800           0
     11353 W2       3785     TIP3     OH2      OT      -0.834000       15.9994           0
     11354 W2       3785     TIP3     H1       HT       0.417000       1.00800           0
     11355 W2       3785     TIP3     H2       HT       0.417000       1.00800           0
     11356 W2       3786     TIP3     OH2      OT      -0.834000       15.9994           0
     11357 W2       3786     TIP3     H1       HT       0.417000       1.00800           0
     11358 W2       3786     TIP3     H2       HT       0.417000       1.00800           0
     11359 W2       3787     TIP3     OH2      OT      -0.834000       15.9994           0
     11360 W2       3787     TIP3     H1       HT       0.417000       1.00800           0
     11361 W2       3787     TIP3     H2       HT       0.417000       1.00800           0
     11362 W2       3788     TIP3     OH2      OT      -0.834000       15.9994           0
     11363 W2       3788     TIP3     H1       HT       0.417000       1.00800           0
     11364 W2       3788     TIP3     H2       HT       0.417000       1.00800           0
     11365 W2       3789     TIP3     OH2      OT      -0.834000       15.9994           0
     11366 W2       3789     TIP3     H1       HT       0.417000       1.00800           0
     11367 W2       3789     TIP3     H2       HT       0.417000       1.00800           0
     11368 W2       3790     TIP3     OH2      OT      -0.834000       15.9994           0
     11369 W2       3790     TIP3     H1       HT       0.417000       1.00800           0
     11370 W2       3790     TIP3     H2       HT       0.417000       1.00800           0
     11371 W2       3791     TIP3     OH2      OT      -0.834000       15.9994           0
     11372 W2       3791     TIP3     H1       HT       0.417000       1.00800           0
     11373 W2       3791     TIP3     H2       HT       0.417000       1.00800           0
     11374 W2       3792     TIP3     OH2      OT      -0.834000       15.9994           0
     11375 W2       3792     TIP3     H1       HT       0.417000       1.00800           0
     11376 W2       3792     TIP3     H2       HT       0.417000       1.00800           0
     11377 W2       3793     TIP3     OH2      OT      -0.834000       15.9994           0
     11378 W2       3793     TIP3     H1       HT       0.417000       1.00800           0
     11379 W2       3793     TIP3     H2       HT       0.417000       1.00800           0
     11380 W2       3794     TIP3     OH2      OT      -0.834000       15.9994           0
     11381 W2       3794     TIP3     H1       HT       0.417000       1.00800           0
     11382 W2       3794     TIP3     H2       HT       0.417000       1.00800           0
     11383 W2       3795     TIP3     OH2      OT      -0.834000       15.9994           0
     11384 W2       3795     TIP3     H1       HT       0.417000       1.00800           0
     11385 W2       3795     TIP3     H2       HT       0.417000       1.00800           0
     11386 W2       3796     TIP3     OH2      OT      -0.834000       15.9994           0
     11387 W2       3796     TIP3     H1       HT       0.417000       1.00800           0
     11388 W2       3796     TIP3     H2       HT       0.417000       1.00800           0
     11389 W2       3797     TIP3     OH2      OT      -0.834000       15.9994           0
     11390 W2       3797     TIP3     H1       HT       0.417000       1.00800           0
     11391 W2       3797     TIP3     H2       HT       0.417000       1.00800           0
     11392 W2       3798     TIP3     OH2      OT      -0.834000       15.9994           0
     11393 W2       3798     TIP3     H1       HT       0.417000       1.00800           0
     11394 W2       3798     TIP3     H2       HT       0.417000       1.00800           0
     11395 W2       3799     TIP3     OH2      OT      -0.834000       15.9994           0
     11396 W2       3799     TIP3     H1       HT       0.417000       1.00800           0
     11397 W2       3799     TIP3     H2       HT       0.417000       1.00800           0
     11398 W2       3800     TIP3     OH2      OT      -0.834000       15.9994           0
     11399 W2       3800     TIP3     H1       HT       0.417000       1.00800           0
     11400 W2       3800     TIP3     H2       HT       0.417000       1.00800           0
     11401 W2       3801     TIP3     OH2      OT      -0.834000       15.9994           0
     11402 W2       3801     TIP3     H1       HT       0.417000       1.00800           0
     11403 W2       3801     TIP3     H2       HT       0.417000       1.00800           0
     11404 W2       3802     TIP3     OH2      OT      -0.834000       15.9994           0
     11405 W2       3802     TIP3     H1       HT       0.417000       1.00800           0
     11406 W2       3802     TIP3     H2       HT       0.417000       1.00800           0
     11407 W2       3803     TIP3     OH2      OT      -0.834000       15.9994           0
     11408 W2       3803     TIP3     H1       HT       0.417000       1.00800           0
     11409 W2       3803     TIP3     H2       HT       0.417000       1.00800           0
     11410 W2       3804     TIP3     OH2      OT      -0.834000       15.9994           0
     11411 W2       3804     TIP3     H1       HT       0.417000       1.00800           0
     11412 W2       3804     TIP3     H2       HT       0.417000       1.00800           0
     11413 W2       3805     TIP3     OH2      OT      -0.834000       15.9994           0
     11414 W2       3805     TIP3     H1       HT       0.417000       1.00800           0
     11415 W2       3805     TIP3     H2       HT       0.417000       1.00800           0
     11416 W2       3806     TIP3     OH2      OT      -0.834000       15.9994           0
     11417 W2       3806     TIP3     H1       HT       0.417000       1.00800           0
     11418 W2       3806     TIP3     H2       HT       0.417000       1.00800           0
     11419 W2       3807     TIP3     OH2      OT      -0.834000       15.9994           0
     11420 W2       3807     TIP3     H1       HT       0.417000       1.00800           0
     11421 W2       3807     TIP3     H2       HT       0.417000       1.00800           0
     11422 W2       3808     TIP3     OH2      OT      -0.834000       15.9994           0
     11423 W2       3808     TIP3     H1       HT       0.417000       1.00800           0
     11424 W2       3808     TIP3     H2       HT       0.417000       1.00800           0
     11425 W2       3809     TIP3     OH2      OT      -0.834000       15.9994           0
     11426 W2       3809     TIP3     H1       HT       0.417000       1.00800           0
     11427 W2       3809     TIP3     H2       HT       0.417000       1.00800           0
     11428 W2       3810     TIP3     OH2      OT      -0.834000       15.9994           0
     11429 W2       3810     TIP3     H1       HT       0.417000       1.00800           0
     11430 W2       3810     TIP3     H2       HT       0.417000       1.00800           0
     11431 W2       3811     TIP3     OH2      OT      -0.834000       15.9994           0
     11432 W2       3811     TIP3     H1       HT       0.417000       1.00800           0
     11433 W2       3811     TIP3     H2       HT       0.417000       1.00800           0
     11434 W2       3812     TIP3     OH2      OT      -0.834000       15.9994           0
     11435 W2       3812     TIP3     H1       HT       0.417000       1.00800           0
     11436 W2       3812     TIP3     H2       HT       0.417000       1.00800           0
     11437 W2       3813     TIP3     OH2      OT      -0.834000       15.9994           0
     11438 W2       3813     TIP3     H1       HT       0.417000       1.00800           0
     11439 W2       3813     TIP3     H2       HT       0.417000       1.00800           0
     11440 W2       3814     TIP3     OH2      OT      -0.834000       15.9994           0
     11441 W2       3814     TIP3     H1       HT       0.417000       1.00800           0
     11442 W2       3814     TIP3     H2       HT       0.417000       1.00800           0
     11443 W2       3815     TIP3     OH2      OT      -0.834000       15.9994           0
     11444 W2       3815     TIP3     H1       HT       0.417000       1.00800           0
     11445 W2       3815     TIP3     H2       HT       0.417000       1.00800           0
     11446 W2       3816     TIP3     OH2      OT      -0.834000       15.9994           0
     11447 W2       3816     TIP3     H1       HT       0.417000       1.00800           0
     11448 W2       3816     TIP3     H2       HT       0.417000       1.00800           0
     11449 W2       3817     TIP3     OH2      OT      -0.834000       15.9994           0
     11450 W2       3817     TIP3     H1       HT       0.417000       1.00800           0
     11451 W2       3817     TIP3     H2       HT       0.417000       1.00800           0
     11452 W2       3818     TIP3     OH2      OT      -0.834000       15.9994           0
     11453 W2       3818     TIP3     H1       HT       0.417000       1.00800           0
     11454 W2       3818     TIP3     H2       HT       0.417000       1.00800           0
     11455 W2       3819     TIP3     OH2      OT      -0.834000       15.9994           0
     11456 W2       3819     TIP3     H1       HT       0.417000       1.00800           0
     11457 W2       3819     TIP3     H2       HT       0.417000       1.00800           0
     11458 W2       3820     TIP3     OH2      OT      -0.834000       15.9994           0
     11459 W2       3820     TIP3     H1       HT       0.417000       1.00800           0
     11460 W2       3820     TIP3     H2       HT       0.417000       1.00800           0
     11461 W2       3821     TIP3     OH2      OT      -0.834000       15.9994           0
     11462 W2       3821     TIP3     H1       HT       0.417000       1.00800           0
     11463 W2       3821     TIP3     H2       HT       0.417000       1.00800           0
     11464 W2       3822     TIP3     OH2      OT      -0.834000       15.9994           0
     11465 W2       3822     TIP3     H1       HT       0.417000       1.00800           0
     11466 W2       3822     TIP3     H2       HT       0.417000       1.00800           0
     11467 W2       3823     TIP3     OH2      OT      -0.834000       15.9994           0
     11468 W2       3823     TIP3     H1       HT       0.417000       1.00800           0
     11469 W2       3823     TIP3     H2       HT       0.417000       1.00800           0
     11470 W2       3824     TIP3     OH2      OT      -0.834000       15.9994           0
     11471 W2       3824     TIP3     H1       HT       0.417000       1.00800           0
     11472 W2       3824     TIP3     H2       HT       0.417000       1.00800           0
     11473 W2       3825     TIP3     OH2      OT      -0.834000       15.9994           0
     11474 W2       3825     TIP3     H1       HT       0.417000       1.00800           0
     11475 W2       3825     TIP3     H2       HT       0.417000       1.00800           0
     11476 W2       3826     TIP3     OH2      OT      -0.834000       15.9994           0
     11477 W2       3826     TIP3     H1       HT       0.417000       1.00800           0
     11478 W2       3826     TIP3     H2       HT       0.417000       1.00800           0
     11479 W2       3827     TIP3     OH2      OT      -0.834000       15.9994           0
     11480 W2       3827     TIP3     H1       HT       0.417000       1.00800           0
     11481 W2       3827     TIP3     H2       HT       0.417000       1.00800           0
     11482 W2       3828     TIP3     OH2      OT      -0.834000       15.9994           0
     11483 W2       3828     TIP3     H1       HT       0.417000       1.00800           0
     11484 W2       3828     TIP3     H2       HT       0.417000       1.00800           0
     11485 W2       3829     TIP3     OH2      OT      -0.834000       15.9994           0
     11486 W2       3829     TIP3     H1       HT       0.417000       1.00800           0
     11487 W2       3829     TIP3     H2       HT       0.417000       1.00800           0
     11488 W2       3830     TIP3     OH2      OT      -0.834000       15.9994           0
     11489 W2       3830     TIP3     H1       HT       0.417000       1.00800           0
     11490 W2       3830     TIP3     H2       HT       0.417000       1.00800           0
     11491 W2       3831     TIP3     OH2      OT      -0.834000       15.9994           0
     11492 W2       3831     TIP3     H1       HT       0.417000       1.00800           0
     11493 W2       3831     TIP3     H2       HT       0.417000       1.00800           0
     11494 W2       3832     TIP3     OH2      OT      -0.834000       15.9994           0
     11495 W2       3832     TIP3     H1       HT       0.417000       1.00800           0
     11496 W2       3832     TIP3     H2       HT       0.417000       1.00800           0
     11497 W2       3833     TIP3     OH2      OT      -0.834000       15.9994           0
     11498 W2       3833     TIP3     H1       HT       0.417000       1.00800           0
     11499 W2       3833     TIP3     H2       HT       0.417000       1.00800           0
     11500 W2       3834     TIP3     OH2      OT      -0.834000       15.9994           0
     11501 W2       3834     TIP3     H1       HT       0.417000       1.00800           0
     11502 W2       3834     TIP3     H2       HT       0.417000       1.00800           0
     11503 W2       3835     TIP3     OH2      OT      -0.834000       15.9994           0
     11504 W2       3835     TIP3     H1       HT       0.417000       1.00800           0
     11505 W2       3835     TIP3     H2       HT       0.417000       1.00800           0
     11506 W2       3836     TIP3     OH2      OT      -0.834000       15.9994           0
     11507 W2       3836     TIP3     H1       HT       0.417000       1.00800           0
     11508 W2       3836     TIP3     H2       HT       0.417000       1.00800           0
     11509 W2       3837     TIP3     OH2      OT      -0.834000       15.9994           0
     11510 W2       3837     TIP3     H1       HT       0.417000       1.00800           0
     11511 W2       3837     TIP3     H2       HT       0.417000       1.00800           0
     11512 W2       3838     TIP3     OH2      OT      -0.834000       15.9994           0
     11513 W2       3838     TIP3     H1       HT       0.417000       1.00800           0
     11514 W2       3838     TIP3     H2       HT       0.417000       1.00800           0
     11515 W2       3839     TIP3     OH2      OT      -0.834000       15.9994           0
     11516 W2       3839     TIP3     H1       HT       0.417000       1.00800           0
     11517 W2       3839     TIP3     H2       HT       0.417000       1.00800           0
     11518 W2       3840     TIP3     OH2      OT      -0.834000       15.9994           0
     11519 W2       3840     TIP3     H1       HT       0.417000       1.00800           0
     11520 W2       3840     TIP3     H2       HT       0.417000       1.00800           0
     11521 W2       3841     TIP3     OH2      OT      -0.834000       15.9994           0
     11522 W2       3841     TIP3     H1       HT       0.417000       1.00800           0
     11523 W2       3841     TIP3     H2       HT       0.417000       1.00800           0
     11524 W2       3842     TIP3     OH2      OT      -0.834000       15.9994           0
     11525 W2       3842     TIP3     H1       HT       0.417000       1.00800           0
     11526 W2       3842     TIP3     H2       HT       0.417000       1.00800           0
     11527 W2       3843     TIP3     OH2      OT      -0.834000       15.9994           0
     11528 W2       3843     TIP3     H1       HT       0.417000       1.00800           0
     11529 W2       3843     TIP3     H2       HT       0.417000       1.00800           0
     11530 W2       3844     TIP3     OH2      OT      -0.834000       15.9994           0
     11531 W2       3844     TIP3     H1       HT       0.417000       1.00800           0
     11532 W2       3844     TIP3     H2       HT       0.417000       1.00800           0
     11533 W2       3845     TIP3     OH2      OT      -0.834000       15.9994           0
     11534 W2       3845     TIP3     H1       HT       0.417000       1.00800           0
     11535 W2       3845     TIP3     H2       HT       0.417000       1.00800           0
     11536 W2       3846     TIP3     OH2      OT      -0.834000       15.9994           0
     11537 W2       3846     TIP3     H1       HT       0.417000       1.00800           0
     11538 W2       3846     TIP3     H2       HT       0.417000       1.00800           0
     11539 W2       3847     TIP3     OH2      OT      -0.834000       15.9994           0
     11540 W2       3847     TIP3     H1       HT       0.417000       1.00800           0
     11541 W2       3847     TIP3     H2       HT       0.417000       1.00800           0
     11542 W2       3848     TIP3     OH2      OT      -0.834000       15.9994           0
     11543 W2       3848     TIP3     H1       HT       0.417000       1.00800           0
     11544 W2       3848     TIP3     H2       HT       0.417000       1.00800           0
     11545 W2       3849     TIP3     OH2      OT      -0.834000       15.9994           0
     11546 W2       3849     TIP3     H1       HT       0.417000       1.00800           0
     11547 W2       3849     TIP3     H2       HT       0.417000       1.00800           0
     11548 W2       3850     TIP3     OH2      OT      -0.834000       15.9994           0
     11549 W2       3850     TIP3     H1       HT       0.417000       1.00800           0
     11550 W2       3850     TIP3     H2       HT       0.417000       1.00800           0
     11551 W2       3851     TIP3     OH2      OT      -0.834000       15.9994           0
     11552 W2       3851     TIP3     H1       HT       0.417000       1.00800           0
     11553 W2       3851     TIP3     H2       HT       0.417000       1.00800           0
     11554 W2       3852     TIP3     OH2      OT      -0.834000       15.9994           0
     11555 W2       3852     TIP3     H1       HT       0.417000       1.00800           0
     11556 W2       3852     TIP3     H2       HT       0.417000       1.00800           0
     11557 W2       3853     TIP3     OH2      OT      -0.834000       15.9994           0
     11558 W2       3853     TIP3     H1       HT       0.417000       1.00800           0
     11559 W2       3853     TIP3     H2       HT       0.417000       1.00800           0
     11560 W2       3854     TIP3     OH2      OT      -0.834000       15.9994           0
     11561 W2       3854     TIP3     H1       HT       0.417000       1.00800           0
     11562 W2       3854     TIP3     H2       HT       0.417000       1.00800           0
     11563 W2       3855     TIP3     OH2      OT      -0.834000       15.9994           0
     11564 W2       3855     TIP3     H1       HT       0.417000       1.00800           0
     11565 W2       3855     TIP3     H2       HT       0.417000       1.00800           0
     11566 W2       3856     TIP3     OH2      OT      -0.834000       15.9994           0
     11567 W2       3856     TIP3     H1       HT       0.417000       1.00800           0
     11568 W2       3856     TIP3     H2       HT       0.417000       1.00800           0
     11569 W2       3857     TIP3     OH2      OT      -0.834000       15.9994           0
     11570 W2       3857     TIP3     H1       HT       0.417000       1.00800           0
     11571 W2       3857     TIP3     H2       HT       0.417000       1.00800           0
     11572 W2       3858     TIP3     OH2      OT      -0.834000       15.9994           0
     11573 W2       3858     TIP3     H1       HT       0.417000       1.00800           0
     11574 W2       3858     TIP3     H2       HT       0.417000       1.00800           0
     11575 W2       3859     TIP3     OH2      OT      -0.834000       15.9994           0
     11576 W2       3859     TIP3     H1       HT       0.417000       1.00800           0
     11577 W2       3859     TIP3     H2       HT       0.417000       1.00800           0
     11578 W2       3860     TIP3     OH2      OT      -0.834000       15.9994           0
     11579 W2       3860     TIP3     H1       HT       0.417000       1.00800           0
     11580 W2       3860     TIP3     H2       HT       0.417000       1.00800           0
     11581 W2       3861     TIP3     OH2      OT      -0.834000       15.9994           0
     11582 W2       3861     TIP3     H1       HT       0.417000       1.00800           0
     11583 W2       3861     TIP3     H2       HT       0.417000       1.00800           0
     11584 W2       3862     TIP3     OH2      OT      -0.834000       15.9994           0
     11585 W2       3862     TIP3     H1       HT       0.417000       1.00800           0
     11586 W2       3862     TIP3     H2       HT       0.417000       1.00800           0
     11587 W2       3863     TIP3     OH2      OT      -0.834000       15.9994           0
     11588 W2       3863     TIP3     H1       HT       0.417000       1.00800           0
     11589 W2       3863     TIP3     H2       HT       0.417000       1.00800           0
     11590 W2       3864     TIP3     OH2      OT      -0.834000       15.9994           0
     11591 W2       3864     TIP3     H1       HT       0.417000       1.00800           0
     11592 W2       3864     TIP3     H2       HT       0.417000       1.00800           0
     11593 W2       3865     TIP3     OH2      OT      -0.834000       15.9994           0
     11594 W2       3865     TIP3     H1       HT       0.417000       1.00800           0
     11595 W2       3865     TIP3     H2       HT       0.417000       1.00800           0
     11596 W2       3866     TIP3     OH2      OT      -0.834000       15.9994           0
     11597 W2       3866     TIP3     H1       HT       0.417000       1.00800           0
     11598 W2       3866     TIP3     H2       HT       0.417000       1.00800           0
     11599 W2       3867     TIP3     OH2      OT      -0.834000       15.9994           0
     11600 W2       3867     TIP3     H1       HT       0.417000       1.00800           0
     11601 W2       3867     TIP3     H2       HT       0.417000       1.00800           0
     11602 W2       3868     TIP3     OH2      OT      -0.834000       15.9994           0
     11603 W2       3868     TIP3     H1       HT       0.417000       1.00800           0
     11604 W2       3868     TIP3     H2       HT       0.417000       1.00800           0
     11605 W2       3869     TIP3     OH2      OT      -0.834000       15.9994           0
     11606 W2       3869     TIP3     H1       HT       0.417000       1.00800           0
     11607 W2       3869     TIP3     H2       HT       0.417000       1.00800           0
     11608 W2       3870     TIP3     OH2      OT      -0.834000       15.9994           0
     11609 W2       3870     TIP3     H1       HT       0.417000       1.00800           0
     11610 W2       3870     TIP3     H2       HT       0.417000       1.00800           0
     11611 W2       3871     TIP3     OH2      OT      -0.834000       15.9994           0
     11612 W2       3871     TIP3     H1       HT       0.417000       1.00800           0
     11613 W2       3871     TIP3     H2       HT       0.417000       1.00800           0
     11614 W2       3872     TIP3     OH2      OT      -0.834000       15.9994           0
     11615 W2       3872     TIP3     H1       HT       0.417000       1.00800           0
     11616 W2       3872     TIP3     H2       HT       0.417000       1.00800           0
     11617 W2       3873     TIP3     OH2      OT      -0.834000       15.9994           0
     11618 W2       3873     TIP3     H1       HT       0.417000       1.00800           0
     11619 W2       3873     TIP3     H2       HT       0.417000       1.00800           0
     11620 W2       3874     TIP3     OH2      OT      -0.834000       15.9994           0
     11621 W2       3874     TIP3     H1       HT       0.417000       1.00800           0
     11622 W2       3874     TIP3     H2       HT       0.417000       1.00800           0
     11623 W2       3875     TIP3     OH2      OT      -0.834000       15.9994           0
     11624 W2       3875     TIP3     H1       HT       0.417000       1.00800           0
     11625 W2       3875     TIP3     H2       HT       0.417000       1.00800           0
     11626 W2       3876     TIP3     OH2      OT      -0.834000       15.9994           0
     11627 W2       3876     TIP3     H1       HT       0.417000       1.00800           0
     11628 W2       3876     TIP3     H2       HT       0.417000       1.00800           0
     11629 W2       3877     TIP3     OH2      OT      -0.834000       15.9994           0
     11630 W2       3877     TIP3     H1       HT       0.417000       1.00800           0
     11631 W2       3877     TIP3     H2       HT       0.417000       1.00800           0
     11632 W2       3878     TIP3     OH2      OT      -0.834000       15.9994           0
     11633 W2       3878     TIP3     H1       HT       0.417000       1.00800           0
     11634 W2       3878     TIP3     H2       HT       0.417000       1.00800           0
     11635 W2       3879     TIP3     OH2      OT      -0.834000       15.9994           0
     11636 W2       3879     TIP3     H1       HT       0.417000       1.00800           0
     11637 W2       3879     TIP3     H2       HT       0.417000       1.00800           0
     11638 W2       3880     TIP3     OH2      OT      -0.834000       15.9994           0
     11639 W2       3880     TIP3     H1       HT       0.417000       1.00800           0
     11640 W2       3880     TIP3     H2       HT       0.417000       1.00800           0
     11641 W2       3881     TIP3     OH2      OT      -0.834000       15.9994           0
     11642 W2       3881     TIP3     H1       HT       0.417000       1.00800           0
     11643 W2       3881     TIP3     H2       HT       0.417000       1.00800           0
     11644 W2       3882     TIP3     OH2      OT      -0.834000       15.9994           0
     11645 W2       3882     TIP3     H1       HT       0.417000       1.00800           0
     11646 W2       3882     TIP3     H2       HT       0.417000       1.00800           0
     11647 W2       3883     TIP3     OH2      OT      -0.834000       15.9994           0
     11648 W2       3883     TIP3     H1       HT       0.417000       1.00800           0
     11649 W2       3883     TIP3     H2       HT       0.417000       1.00800           0
     11650 W2       3884     TIP3     OH2      OT      -0.834000       15.9994           0
     11651 W2       3884     TIP3     H1       HT       0.417000       1.00800           0
     11652 W2       3884     TIP3     H2       HT       0.417000       1.00800           0
     11653 W2       3885     TIP3     OH2      OT      -0.834000       15.9994           0
     11654 W2       3885     TIP3     H1       HT       0.417000       1.00800           0
     11655 W2       3885     TIP3     H2       HT       0.417000       1.00800           0
     11656 W2       3886     TIP3     OH2      OT      -0.834000       15.9994           0
     11657 W2       3886     TIP3     H1       HT       0.417000       1.00800           0
     11658 W2       3886     TIP3     H2       HT       0.417000       1.00800           0
     11659 W2       3887     TIP3     OH2      OT      -0.834000       15.9994           0
     11660 W2       3887     TIP3     H1       HT       0.417000       1.00800           0
     11661 W2       3887     TIP3     H2       HT       0.417000       1.00800           0
     11662 W2       3888     TIP3     OH2      OT      -0.834000       15.9994           0
     11663 W2       3888     TIP3     H1       HT       0.417000       1.00800           0
     11664 W2       3888     TIP3     H2       HT       0.417000       1.00800           0
     11665 W2       3889     TIP3     OH2      OT      -0.834000       15.9994           0
     11666 W2       3889     TIP3     H1       HT       0.417000       1.00800           0
     11667 W2       3889     TIP3     H2       HT       0.417000       1.00800           0
     11668 W2       3890     TIP3     OH2      OT      -0.834000       15.9994           0
     11669 W2       3890     TIP3     H1       HT       0.417000       1.00800           0
     11670 W2       3890     TIP3     H2       HT       0.417000       1.00800           0
     11671 W2       3891     TIP3     OH2      OT      -0.834000       15.9994           0
     11672 W2       3891     TIP3     H1       HT       0.417000       1.00800           0
     11673 W2       3891     TIP3     H2       HT       0.417000       1.00800           0
     11674 W2       3892     TIP3     OH2      OT      -0.834000       15.9994           0
     11675 W2       3892     TIP3     H1       HT       0.417000       1.00800           0
     11676 W2       3892     TIP3     H2       HT       0.417000       1.00800           0
     11677 W2       3893     TIP3     OH2      OT      -0.834000       15.9994           0
     11678 W2       3893     TIP3     H1       HT       0.417000       1.00800           0
     11679 W2       3893     TIP3     H2       HT       0.417000       1.00800           0
     11680 W2       3894     TIP3     OH2      OT      -0.834000       15.9994           0
     11681 W2       3894     TIP3     H1       HT       0.417000       1.00800           0
     11682 W2       3894     TIP3     H2       HT       0.417000       1.00800           0
     11683 W2       3895     TIP3     OH2      OT      -0.834000       15.9994           0
     11684 W2       3895     TIP3     H1       HT       0.417000       1.00800           0
     11685 W2       3895     TIP3     H2       HT       0.417000       1.00800           0
     11686 W2       3896     TIP3     OH2      OT      -0.834000       15.9994           0
     11687 W2       3896     TIP3     H1       HT       0.417000       1.00800           0
     11688 W2       3896     TIP3     H2       HT       0.417000       1.00800           0
     11689 W2       3897     TIP3     OH2      OT      -0.834000       15.9994           0
     11690 W2       3897     TIP3     H1       HT       0.417000       1.00800           0
     11691 W2       3897     TIP3     H2       HT       0.417000       1.00800           0
     11692 W2       3898     TIP3     OH2      OT      -0.834000       15.9994           0
     11693 W2       3898     TIP3     H1       HT       0.417000       1.00800           0
     11694 W2       3898     TIP3     H2       HT       0.417000       1.00800           0
     11695 W2       3899     TIP3     OH2      OT      -0.834000       15.9994           0
     11696 W2       3899     TIP3     H1       HT       0.417000       1.00800           0
     11697 W2       3899     TIP3     H2       HT       0.417000       1.00800           0
     11698 W2       3900     TIP3     OH2      OT      -0.834000       15.9994           0
     11699 W2       3900     TIP3     H1       HT       0.417000       1.00800           0
     11700 W2       3900     TIP3     H2       HT       0.417000       1.00800           0
     11701 W2       3901     TIP3     OH2      OT      -0.834000       15.9994           0
     11702 W2       3901     TIP3     H1       HT       0.417000       1.00800           0
     11703 W2       3901     TIP3     H2       HT       0.417000       1.00800           0
     11704 W2       3902     TIP3     OH2      OT      -0.834000       15.9994           0
     11705 W2       3902     TIP3     H1       HT       0.417000       1.00800           0
     11706 W2       3902     TIP3     H2       HT       0.417000       1.00800           0
     11707 W2       3903     TIP3     OH2      OT      -0.834000       15.9994           0
     11708 W2       3903     TIP3     H1       HT       0.417000       1.00800           0
     11709 W2       3903     TIP3     H2       HT       0.417000       1.00800           0
     11710 W2       3904     TIP3     OH2      OT      -0.834000       15.9994           0
     11711 W2       3904     TIP3     H1       HT       0.417000       1.00800           0
     11712 W2       3904     TIP3     H2       HT       0.417000       1.00800           0
     11713 W2       3905     TIP3     OH2      OT      -0.834000       15.9994           0
     11714 W2       3905     TIP3     H1       HT       0.417000       1.00800           0
     11715 W2       3905     TIP3     H2       HT       0.417000       1.00800           0
     11716 W2       3906     TIP3     OH2      OT      -0.834000       15.9994           0
     11717 W2       3906     TIP3     H1       HT       0.417000       1.00800           0
     11718 W2       3906     TIP3     H2       HT       0.417000       1.00800           0
     11719 W2       3907     TIP3     OH2      OT      -0.834000       15.9994           0
     11720 W2       3907     TIP3     H1       HT       0.417000       1.00800           0
     11721 W2       3907     TIP3     H2       HT       0.417000       1.00800           0
     11722 W2       3908     TIP3     OH2      OT      -0.834000       15.9994           0
     11723 W2       3908     TIP3     H1       HT       0.417000       1.00800           0
     11724 W2       3908     TIP3     H2       HT       0.417000       1.00800           0
     11725 W2       3909     TIP3     OH2      OT      -0.834000       15.9994           0
     11726 W2       3909     TIP3     H1       HT       0.417000       1.00800           0
     11727 W2       3909     TIP3     H2       HT       0.417000       1.00800           0
     11728 W2       3910     TIP3     OH2      OT      -0.834000       15.9994           0
     11729 W2       3910     TIP3     H1       HT       0.417000       1.00800           0
     11730 W2       3910     TIP3     H2       HT       0.417000       1.00800           0
     11731 W2       3911     TIP3     OH2      OT      -0.834000       15.9994           0
     11732 W2       3911     TIP3     H1       HT       0.417000       1.00800           0
     11733 W2       3911     TIP3     H2       HT       0.417000       1.00800           0
     11734 W2       3912     TIP3     OH2      OT      -0.834000       15.9994           0
     11735 W2       3912     TIP3     H1       HT       0.417000       1.00800           0
     11736 W2       3912     TIP3     H2       HT       0.417000       1.00800           0
     11737 W2       3913     TIP3     OH2      OT      -0.834000       15.9994           0
     11738 W2       3913     TIP3     H1       HT       0.417000       1.00800           0
     11739 W2       3913     TIP3     H2       HT       0.417000       1.00800           0
     11740 W2       3914     TIP3     OH2      OT      -0.834000       15.9994           0
     11741 W2       3914     TIP3     H1       HT       0.417000       1.00800           0
     11742 W2       3914     TIP3     H2       HT       0.417000       1.00800           0
     11743 W2       3915     TIP3     OH2      OT      -0.834000       15.9994           0
     11744 W2       3915     TIP3     H1       HT       0.417000       1.00800           0
     11745 W2       3915     TIP3     H2       HT       0.417000       1.00800           0
     11746 W2       3916     TIP3     OH2      OT      -0.834000       15.9994           0
     11747 W2       3916     TIP3     H1       HT       0.417000       1.00800           0
     11748 W2       3916     TIP3     H2       HT       0.417000       1.00800           0
     11749 W2       3917     TIP3     OH2      OT      -0.834000       15.9994           0
     11750 W2       3917     TIP3     H1       HT       0.417000       1.00800           0
     11751 W2       3917     TIP3     H2       HT       0.417000       1.00800           0
     11752 W2       3918     TIP3     OH2      OT      -0.834000       15.9994           0
     11753 W2       3918     TIP3     H1       HT       0.417000       1.00800           0
     11754 W2       3918     TIP3     H2       HT       0.417000       1.00800           0
     11755 W2       3919     TIP3     OH2      OT      -0.834000       15.9994           0
     11756 W2       3919     TIP3     H1       HT       0.417000       1.00800           0
     11757 W2       3919     TIP3     H2       HT       0.417000       1.00800           0
     11758 W2       3920     TIP3     OH2      OT      -0.834000       15.9994           0
     11759 W2       3920     TIP3     H1       HT       0.417000       1.00800           0
     11760 W2       3920     TIP3     H2       HT       0.417000       1.00800           0
     11761 W2       3921     TIP3     OH2      OT      -0.834000       15.9994           0
     11762 W2       3921     TIP3     H1       HT       0.417000       1.00800           0
     11763 W2       3921     TIP3     H2       HT       0.417000       1.00800           0
     11764 W2       3922     TIP3     OH2      OT      -0.834000       15.9994           0
     11765 W2       3922     TIP3     H1       HT       0.417000       1.00800           0
     11766 W2       3922     TIP3     H2       HT       0.417000       1.00800           0
     11767 W2       3923     TIP3     OH2      OT      -0.834000       15.9994           0
     11768 W2       3923     TIP3     H1       HT       0.417000       1.00800           0
     11769 W2       3923     TIP3     H2       HT       0.417000       1.00800           0
     11770 W2       3924     TIP3     OH2      OT      -0.834000       15.9994           0
     11771 W2       3924     TIP3     H1       HT       0.417000       1.00800           0
     11772 W2       3924     TIP3     H2       HT       0.417000       1.00800           0
     11773 W2       3925     TIP3     OH2      OT      -0.834000       15.9994           0
     11774 W2       3925     TIP3     H1       HT       0.417000       1.00800           0
     11775 W2       3925     TIP3     H2       HT       0.417000       1.00800           0
     11776 W2       3926     TIP3     OH2      OT      -0.834000       15.9994           0
     11777 W2       3926     TIP3     H1       HT       0.417000       1.00800           0
     11778 W2       3926     TIP3     H2       HT       0.417000       1.00800           0
     11779 W2       3927     TIP3     OH2      OT      -0.834000       15.9994           0
     11780 W2       3927     TIP3     H1       HT       0.417000       1.00800           0
     11781 W2       3927     TIP3     H2       HT       0.417000       1.00800           0
     11782 W2       3928     TIP3     OH2      OT      -0.834000       15.9994           0
     11783 W2       3928     TIP3     H1       HT       0.417000       1.00800           0
     11784 W2       3928     TIP3     H2       HT       0.417000       1.00800           0
     11785 W2       3929     TIP3     OH2      OT      -0.834000       15.9994           0
     11786 W2       3929     TIP3     H1       HT       0.417000       1.00800           0
     11787 W2       3929     TIP3     H2       HT       0.417000       1.00800           0
     11788 W2       3930     TIP3     OH2      OT      -0.834000       15.9994           0
     11789 W2       3930     TIP3     H1       HT       0.417000       1.00800           0
     11790 W2       3930     TIP3     H2       HT       0.417000       1.00800           0
     11791 W2       3931     TIP3     OH2      OT      -0.834000       15.9994           0
     11792 W2       3931     TIP3     H1       HT       0.417000       1.00800           0
     11793 W2       3931     TIP3     H2       HT       0.417000       1.00800           0
     11794 W2       3932     TIP3     OH2      OT      -0.834000       15.9994           0
     11795 W2       3932     TIP3     H1       HT       0.417000       1.00800           0
     11796 W2       3932     TIP3     H2       HT       0.417000       1.00800           0
     11797 W2       3933     TIP3     OH2      OT      -0.834000       15.9994           0
     11798 W2       3933     TIP3     H1       HT       0.417000       1.00800           0
     11799 W2       3933     TIP3     H2       HT       0.417000       1.00800           0
     11800 W2       3934     TIP3     OH2      OT      -0.834000       15.9994           0
     11801 W2       3934     TIP3     H1       HT       0.417000       1.00800           0
     11802 W2       3934     TIP3     H2       HT       0.417000       1.00800           0
     11803 W2       3935     TIP3     OH2      OT      -0.834000       15.9994           0
     11804 W2       3935     TIP3     H1       HT       0.417000       1.00800           0
     11805 W2       3935     TIP3     H2       HT       0.417000       1.00800           0
     11806 W2       3936     TIP3     OH2      OT      -0.834000       15.9994           0
     11807 W2       3936     TIP3     H1       HT       0.417000       1.00800           0
     11808 W2       3936     TIP3     H2       HT       0.417000       1.00800           0
     11809 W2       3937     TIP3     OH2      OT      -0.834000       15.9994           0
     11810 W2       3937     TIP3     H1       HT       0.417000       1.00800           0
     11811 W2       3937     TIP3     H2       HT       0.417000       1.00800           0
     11812 W2       3938     TIP3     OH2      OT      -0.834000       15.9994           0
     11813 W2       3938     TIP3     H1       HT       0.417000       1.00800           0
     11814 W2       3938     TIP3     H2       HT       0.417000       1.00800           0
     11815 W2       3939     TIP3     OH2      OT      -0.834000       15.9994           0
     11816 W2       3939     TIP3     H1       HT       0.417000       1.00800           0
     11817 W2       3939     TIP3     H2       HT       0.417000       1.00800           0
     11818 W2       3940     TIP3     OH2      OT      -0.834000       15.9994           0
     11819 W2       3940     TIP3     H1       HT       0.417000       1.00800           0
     11820 W2       3940     TIP3     H2       HT       0.417000       1.00800           0
     11821 W2       3941     TIP3     OH2      OT      -0.834000       15.9994           0
     11822 W2       3941     TIP3     H1       HT       0.417000       1.00800           0
     11823 W2       3941     TIP3     H2       HT       0.417000       1.00800           0
     11824 W2       3942     TIP3     OH2      OT      -0.834000       15.9994           0
     11825 W2       3942     TIP3     H1       HT       0.417000       1.00800           0
     11826 W2       3942     TIP3     H2       HT       0.417000       1.00800           0
     11827 W2       3943     TIP3     OH2      OT      -0.834000       15.9994           0
     11828 W2       3943     TIP3     H1       HT       0.417000       1.00800           0
     11829 W2       3943     TIP3     H2       HT       0.417000       1.00800           0
     11830 W2       3944     TIP3     OH2      OT      -0.834000       15.9994           0
     11831 W2       3944     TIP3     H1       HT       0.417000       1.00800           0
     11832 W2       3944     TIP3     H2       HT       0.417000       1.00800           0
     11833 W2       3945     TIP3     OH2      OT      -0.834000       15.9994           0
     11834 W2       3945     TIP3     H1       HT       0.417000       1.00800           0
     11835 W2       3945     TIP3     H2       HT       0.417000       1.00800           0
     11836 W2       3946     TIP3     OH2      OT      -0.834000       15.9994           0
     11837 W2       3946     TIP3     H1       HT       0.417000       1.00800           0
     11838 W2       3946     TIP3     H2       HT       0.417000       1.00800           0
     11839 W2       3947     TIP3     OH2      OT      -0.834000       15.9994           0
     11840 W2       3947     TIP3     H1       HT       0.417000       1.00800           0
     11841 W2       3947     TIP3     H2       HT       0.417000       1.00800           0
     11842 W2       3948     TIP3     OH2      OT      -0.834000       15.9994           0
     11843 W2       3948     TIP3     H1       HT       0.417000       1.00800           0
     11844 W2       3948     TIP3     H2       HT       0.417000       1.00800           0
     11845 W2       3949     TIP3     OH2      OT      -0.834000       15.9994           0
     11846 W2       3949     TIP3     H1       HT       0.417000       1.00800           0
     11847 W2       3949     TIP3     H2       HT       0.417000       1.00800           0
     11848 W2       3950     TIP3     OH2      OT      -0.834000       15.9994           0
     11849 W2       3950     TIP3     H1       HT       0.417000       1.00800           0
     11850 W2       3950     TIP3     H2       HT       0.417000       1.00800           0
     11851 W2       3951     TIP3     OH2      OT      -0.834000       15.9994           0
     11852 W2       3951     TIP3     H1       HT       0.417000       1.00800           0
     11853 W2       3951     TIP3     H2       HT       0.417000       1.00800           0
     11854 W2       3952     TIP3     OH2      OT      -0.834000       15.9994           0
     11855 W2       3952     TIP3     H1       HT       0.417000       1.00800           0
     11856 W2       3952     TIP3     H2       HT       0.417000       1.00800           0
     11857 W2       3953     TIP3     OH2      OT      -0.834000       15.9994           0
     11858 W2       3953     TIP3     H1       HT       0.417000       1.00800           0
     11859 W2       3953     TIP3     H2       HT       0.417000       1.00800           0
     11860 W2       3954     TIP3     OH2      OT      -0.834000       15.9994           0
     11861 W2       3954     TIP3     H1       HT       0.417000       1.00800           0
     11862 W2       3954     TIP3     H2       HT       0.417000       1.00800           0
     11863 W2       3955     TIP3     OH2      OT      -0.834000       15.9994           0
     11864 W2       3955     TIP3     H1       HT       0.417000       1.00800           0
     11865 W2       3955     TIP3     H2       HT       0.417000       1.00800           0
     11866 W2       3956     TIP3     OH2      OT      -0.834000       15.9994           0
     11867 W2       3956     TIP3     H1       HT       0.417000       1.00800           0
     11868 W2       3956     TIP3     H2       HT       0.417000       1.00800           0
     11869 W2       3957     TIP3     OH2      OT      -0.834000       15.9994           0
     11870 W2       3957     TIP3     H1       HT       0.417000       1.00800           0
     11871 W2       3957     TIP3     H2       HT       0.417000       1.00800           0
     11872 W2       3958     TIP3     OH2      OT      -0.834000       15.9994           0
     11873 W2       3958     TIP3     H1       HT       0.417000       1.00800           0
     11874 W2       3958     TIP3     H2       HT       0.417000       1.00800           0
     11875 W2       3959     TIP3     OH2      OT      -0.834000       15.9994           0
     11876 W2       3959     TIP3     H1       HT       0.417000       1.00800           0
     11877 W2       3959     TIP3     H2       HT       0.417000       1.00800           0
     11878 W2       3960     TIP3     OH2      OT      -0.834000       15.9994           0
     11879 W2       3960     TIP3     H1       HT       0.417000       1.00800           0
     11880 W2       3960     TIP3     H2       HT       0.417000       1.00800           0
     11881 W2       3961     TIP3     OH2      OT      -0.834000       15.9994           0
     11882 W2       3961     TIP3     H1       HT       0.417000       1.00800           0
     11883 W2       3961     TIP3     H2       HT       0.417000       1.00800           0
     11884 W2       3962     TIP3     OH2      OT      -0.834000       15.9994           0
     11885 W2       3962     TIP3     H1       HT       0.417000       1.00800           0
     11886 W2       3962     TIP3     H2       HT       0.417000       1.00800           0
     11887 W2       3963     TIP3     OH2      OT      -0.834000       15.9994           0
     11888 W2       3963     TIP3     H1       HT       0.417000       1.00800           0
     11889 W2       3963     TIP3     H2       HT       0.417000       1.00800           0
     11890 W2       3964     TIP3     OH2      OT      -0.834000       15.9994           0
     11891 W2       3964     TIP3     H1       HT       0.417000       1.00800           0
     11892 W2       3964     TIP3     H2       HT       0.417000       1.00800           0
     11893 W2       3965     TIP3     OH2      OT      -0.834000       15.9994           0
     11894 W2       3965     TIP3     H1       HT       0.417000       1.00800           0
     11895 W2       3965     TIP3     H2       HT       0.417000       1.00800           0
     11896 W2       3966     TIP3     OH2      OT      -0.834000       15.9994           0
     11897 W2       3966     TIP3     H1       HT       0.417000       1.00800           0
     11898 W2       3966     TIP3     H2       HT       0.417000       1.00800           0
     11899 W2       3967     TIP3     OH2      OT      -0.834000       15.9994           0
     11900 W2       3967     TIP3     H1       HT       0.417000       1.00800           0
     11901 W2       3967     TIP3     H2       HT       0.417000       1.00800           0
     11902 W2       3968     TIP3     OH2      OT      -0.834000       15.9994           0
     11903 W2       3968     TIP3     H1       HT       0.417000       1.00800           0
     11904 W2       3968     TIP3     H2       HT       0.417000       1.00800           0
     11905 W2       3969     TIP3     OH2      OT      -0.834000       15.9994           0
     11906 W2       3969     TIP3     H1       HT       0.417000       1.00800           0
     11907 W2       3969     TIP3     H2       HT       0.417000       1.00800           0
     11908 W2       3970     TIP3     OH2      OT      -0.834000       15.9994           0
     11909 W2       3970     TIP3     H1       HT       0.417000       1.00800           0
     11910 W2       3970     TIP3     H2       HT       0.417000       1.00800           0
     11911 W2       3971     TIP3     OH2      OT      -0.834000       15.9994           0
     11912 W2       3971     TIP3     H1       HT       0.417000       1.00800           0
     11913 W2       3971     TIP3     H2       HT       0.417000       1.00800           0
     11914 W2       3972     TIP3     OH2      OT      -0.834000       15.9994           0
     11915 W2       3972     TIP3     H1       HT       0.417000       1.00800           0
     11916 W2       3972     TIP3     H2       HT       0.417000       1.00800           0
     11917 W2       3973     TIP3     OH2      OT      -0.834000       15.9994           0
     11918 W2       3973     TIP3     H1       HT       0.417000       1.00800           0
     11919 W2       3973     TIP3     H2       HT       0.417000       1.00800           0
     11920 W2       3974     TIP3     OH2      OT      -0.834000       15.9994           0
     11921 W2       3974     TIP3     H1       HT       0.417000       1.00800           0
     11922 W2       3974     TIP3     H2       HT       0.417000       1.00800           0
     11923 W2       3975     TIP3     OH2      OT      -0.834000       15.9994           0
     11924 W2       3975     TIP3     H1       HT       0.417000       1.00800           0
     11925 W2       3975     TIP3     H2       HT       0.417000       1.00800           0
     11926 W2       3976     TIP3     OH2      OT      -0.834000       15.9994           0
     11927 W2       3976     TIP3     H1       HT       0.417000       1.00800           0
     11928 W2       3976     TIP3     H2       HT       0.417000       1.00800           0
     11929 W2       3977     TIP3     OH2      OT      -0.834000       15.9994           0
     11930 W2       3977     TIP3     H1       HT       0.417000       1.00800           0
     11931 W2       3977     TIP3     H2       HT       0.417000       1.00800           0
     11932 W2       3978     TIP3     OH2      OT      -0.834000       15.9994           0
     11933 W2       3978     TIP3     H1       HT       0.417000       1.00800           0
     11934 W2       3978     TIP3     H2       HT       0.417000       1.00800           0
     11935 W2       3979     TIP3     OH2      OT      -0.834000       15.9994           0
     11936 W2       3979     TIP3     H1       HT       0.417000       1.00800           0
     11937 W2       3979     TIP3     H2       HT       0.417000       1.00800           0
     11938 W2       3980     TIP3     OH2      OT      -0.834000       15.9994           0
     11939 W2       3980     TIP3     H1       HT       0.417000       1.00800           0
     11940 W2       3980     TIP3     H2       HT       0.417000       1.00800           0
     11941 W2       3981     TIP3     OH2      OT      -0.834000       15.9994           0
     11942 W2       3981     TIP3     H1       HT       0.417000       1.00800           0
     11943 W2       3981     TIP3     H2       HT       0.417000       1.00800           0
     11944 W2       3982     TIP3     OH2      OT      -0.834000       15.9994           0
     11945 W2       3982     TIP3     H1       HT       0.417000       1.00800           0
     11946 W2       3982     TIP3     H2       HT       0.417000       1.00800           0
     11947 W2       3983     TIP3     OH2      OT      -0.834000       15.9994           0
     11948 W2       3983     TIP3     H1       HT       0.417000       1.00800           0
     11949 W2       3983     TIP3     H2       HT       0.417000       1.00800           0
     11950 W2       3984     TIP3     OH2      OT      -0.834000       15.9994           0
     11951 W2       3984     TIP3     H1       HT       0.417000       1.00800           0
     11952 W2       3984     TIP3     H2       HT       0.417000       1.00800           0
     11953 W2       3985     TIP3     OH2      OT      -0.834000       15.9994           0
     11954 W2       3985     TIP3     H1       HT       0.417000       1.00800           0
     11955 W2       3985     TIP3     H2       HT       0.417000       1.00800           0
     11956 W2       3986     TIP3     OH2      OT      -0.834000       15.9994           0
     11957 W2       3986     TIP3     H1       HT       0.417000       1.00800           0
     11958 W2       3986     TIP3     H2       HT       0.417000       1.00800           0
     11959 W2       3987     TIP3     OH2      OT      -0.834000       15.9994           0
     11960 W2       3987     TIP3     H1       HT       0.417000       1.00800           0
     11961 W2       3987     TIP3     H2       HT       0.417000       1.00800           0
     11962 W2       3988     TIP3     OH2      OT      -0.834000       15.9994           0
     11963 W2       3988     TIP3     H1       HT       0.417000       1.00800           0
     11964 W2       3988     TIP3     H2       HT       0.417000       1.00800           0
     11965 W2       3989     TIP3     OH2      OT      -0.834000       15.9994           0
     11966 W2       3989     TIP3     H1       HT       0.417000       1.00800           0
     11967 W2       3989     TIP3     H2       HT       0.417000       1.00800           0
     11968 W2       3990     TIP3     OH2      OT      -0.834000       15.9994           0
     11969 W2       3990     TIP3     H1       HT       0.417000       1.00800           0
     11970 W2       3990     TIP3     H2       HT       0.417000       1.00800           0
     11971 W2       3991     TIP3     OH2      OT      -0.834000       15.9994           0
     11972 W2       3991     TIP3     H1       HT       0.417000       1.00800           0
     11973 W2       3991     TIP3     H2       HT       0.417000       1.00800           0
     11974 W2       3992     TIP3     OH2      OT      -0.834000       15.9994           0
     11975 W2       3992     TIP3     H1       HT       0.417000       1.00800           0
     11976 W2       3992     TIP3     H2       HT       0.417000       1.00800           0
     11977 W2       3993     TIP3     OH2      OT      -0.834000       15.9994           0
     11978 W2       3993     TIP3     H1       HT       0.417000       1.00800           0
     11979 W2       3993     TIP3     H2       HT       0.417000       1.00800           0
     11980 W2       3994     TIP3     OH2      OT      -0.834000       15.9994           0
     11981 W2       3994     TIP3     H1       HT       0.417000       1.00800           0
     11982 W2       3994     TIP3     H2       HT       0.417000       1.00800           0
     11983 W2       3995     TIP3     OH2      OT      -0.834000       15.9994           0
     11984 W2       3995     TIP3     H1       HT       0.417000       1.00800           0
     11985 W2       3995     TIP3     H2       HT       0.417000       1.00800           0
     11986 W2       3996     TIP3     OH2      OT      -0.834000       15.9994           0
     11987 W2       3996     TIP3     H1       HT       0.417000       1.00800           0
     11988 W2       3996     TIP3     H2       HT       0.417000       1.00800           0
     11989 W2       3997     TIP3     OH2      OT      -0.834000       15.9994           0
     11990 W2       3997     TIP3     H1       HT       0.417000       1.00800           0
     11991 W2       3997     TIP3     H2       HT       0.417000       1.00800           0
     11992 W2       3998     TIP3     OH2      OT      -0.834000       15.9994           0
     11993 W2       3998     TIP3     H1       HT       0.417000       1.00800           0
     11994 W2       3998     TIP3     H2       HT       0.417000       1.00800           0
     11995 W2       3999     TIP3     OH2      OT      -0.834000       15.9994           0
     11996 W2       3999     TIP3     H1       HT       0.417000       1.00800           0
     11997 W2       3999     TIP3     H2       HT       0.417000       1.00800           0
     11998 W2       4000     TIP3     OH2      OT      -0.834000       15.9994           0
     11999 W2       4000     TIP3     H1       HT       0.417000       1.00800           0
     12000 W2       4000     TIP3     H2       HT       0.417000       1.00800           0
     12001 W2       4001     TIP3     OH2      OT      -0.834000       15.9994           0
     12002 W2       4001     TIP3     H1       HT       0.417000       1.00800           0
     12003 W2       4001     TIP3     H2       HT       0.417000       1.00800           0
     12004 W2       4002     TIP3     OH2      OT      -0.834000       15.9994           0
     12005 W2       4002     TIP3     H1       HT       0.417000       1.00800           0
     12006 W2       4002     TIP3     H2       HT       0.417000       1.00800           0
     12007 W2       4003     TIP3     OH2      OT      -0.834000       15.9994           0
     12008 W2       4003     TIP3     H1       HT       0.417000       1.00800           0
     12009 W2       4003     TIP3     H2       HT       0.417000       1.00800           0
     12010 W2       4004     TIP3     OH2      OT      -0.834000       15.9994           0
     12011 W2       4004     TIP3     H1       HT       0.417000       1.00800           0
     12012 W2       4004     TIP3     H2       HT       0.417000       1.00800           0
     12013 W2       4005     TIP3     OH2      OT      -0.834000       15.9994           0
     12014 W2       4005     TIP3     H1       HT       0.417000       1.00800           0
     12015 W2       4005     TIP3     H2       HT       0.417000       1.00800           0
     12016 W2       4006     TIP3     OH2      OT      -0.834000       15.9994           0
     12017 W2       4006     TIP3     H1       HT       0.417000       1.00800           0
     12018 W2       4006     TIP3     H2       HT       0.417000       1.00800           0
     12019 W2       4007     TIP3     OH2      OT      -0.834000       15.9994           0
     12020 W2       4007     TIP3     H1       HT       0.417000       1.00800           0
     12021 W2       4007     TIP3     H2       HT       0.417000       1.00800           0
     12022 W2       4008     TIP3     OH2      OT      -0.834000       15.9994           0
     12023 W2       4008     TIP3     H1       HT       0.417000       1.00800           0
     12024 W2       4008     TIP3     H2       HT       0.417000       1.00800           0
     12025 W2       4009     TIP3     OH2      OT      -0.834000       15.9994           0
     12026 W2       4009     TIP3     H1       HT       0.417000       1.00800           0
     12027 W2       4009     TIP3     H2       HT       0.417000       1.00800           0
     12028 W2       4010     TIP3     OH2      OT      -0.834000       15.9994           0
     12029 W2       4010     TIP3     H1       HT       0.417000       1.00800           0
     12030 W2       4010     TIP3     H2       HT       0.417000       1.00800           0
     12031 W2       4011     TIP3     OH2      OT      -0.834000       15.9994           0
     12032 W2       4011     TIP3     H1       HT       0.417000       1.00800           0
     12033 W2       4011     TIP3     H2       HT       0.417000       1.00800           0
     12034 W2       4012     TIP3     OH2      OT      -0.834000       15.9994           0
     12035 W2       4012     TIP3     H1       HT       0.417000       1.00800           0
     12036 W2       4012     TIP3     H2       HT       0.417000       1.00800           0
     12037 W2       4013     TIP3     OH2      OT      -0.834000       15.9994           0
     12038 W2       4013     TIP3     H1       HT       0.417000       1.00800           0
     12039 W2       4013     TIP3     H2       HT       0.417000       1.00800           0
     12040 W2       4014     TIP3     OH2      OT      -0.834000       15.9994           0
     12041 W2       4014     TIP3     H1       HT       0.417000       1.00800           0
     12042 W2       4014     TIP3     H2       HT       0.417000       1.00800           0
     12043 W2       4015     TIP3     OH2      OT      -0.834000       15.9994           0
     12044 W2       4015     TIP3     H1       HT       0.417000       1.00800           0
     12045 W2       4015     TIP3     H2       HT       0.417000       1.00800           0
     12046 W2       4016     TIP3     OH2      OT      -0.834000       15.9994           0
     12047 W2       4016     TIP3     H1       HT       0.417000       1.00800           0
     12048 W2       4016     TIP3     H2       HT       0.417000       1.00800           0
     12049 W2       4017     TIP3     OH2      OT      -0.834000       15.9994           0
     12050 W2       4017     TIP3     H1       HT       0.417000       1.00800           0
     12051 W2       4017     TIP3     H2       HT       0.417000       1.00800           0
     12052 W2       4018     TIP3     OH2      OT      -0.834000       15.9994           0
     12053 W2       4018     TIP3     H1       HT       0.417000       1.00800           0
     12054 W2       4018     TIP3     H2       HT       0.417000       1.00800           0
     12055 W2       4019     TIP3     OH2      OT      -0.834000       15.9994           0
     12056 W2       4019     TIP3     H1       HT       0.417000       1.00800           0
     12057 W2       4019     TIP3     H2       HT       0.417000       1.00800           0
     12058 W2       4020     TIP3     OH2      OT      -0.834000       15.9994           0
     12059 W2       4020     TIP3     H1       HT       0.417000       1.00800           0
     12060 W2       4020     TIP3     H2       HT       0.417000       1.00800           0
     12061 W2       4021     TIP3     OH2      OT      -0.834000       15.9994           0
     12062 W2       4021     TIP3     H1       HT       0.417000       1.00800           0
     12063 W2       4021     TIP3     H2       HT       0.417000       1.00800           0
     12064 W2       4022     TIP3     OH2      OT      -0.834000       15.9994           0
     12065 W2       4022     TIP3     H1       HT       0.417000       1.00800           0
     12066 W2       4022     TIP3     H2       HT       0.417000       1.00800           0
     12067 W2       4023     TIP3     OH2      OT      -0.834000       15.9994           0
     12068 W2       4023     TIP3     H1       HT       0.417000       1.00800           0
     12069 W2       4023     TIP3     H2       HT       0.417000       1.00800           0
     12070 W2       4024     TIP3     OH2      OT      -0.834000       15.9994           0
     12071 W2       4024     TIP3     H1       HT       0.417000       1.00800           0
     12072 W2       4024     TIP3     H2       HT       0.417000       1.00800           0
     12073 W2       4025     TIP3     OH2      OT      -0.834000       15.9994           0
     12074 W2       4025     TIP3     H1       HT       0.417000       1.00800           0
     12075 W2       4025     TIP3     H2       HT       0.417000       1.00800           0
     12076 W2       4026     TIP3     OH2      OT      -0.834000       15.9994           0
     12077 W2       4026     TIP3     H1       HT       0.417000       1.00800           0
     12078 W2       4026     TIP3     H2       HT       0.417000       1.00800           0
     12079 W2       4027     TIP3     OH2      OT      -0.834000       15.9994           0
     12080 W2       4027     TIP3     H1       HT       0.417000       1.00800           0
     12081 W2       4027     TIP3     H2       HT       0.417000       1.00800           0
     12082 W2       4028     TIP3     OH2      OT      -0.834000       15.9994           0
     12083 W2       4028     TIP3     H1       HT       0.417000       1.00800           0
     12084 W2       4028     TIP3     H2       HT       0.417000       1.00800           0
     12085 W2       4029     TIP3     OH2      OT      -0.834000       15.9994           0
     12086 W2       4029     TIP3     H1       HT       0.417000       1.00800           0
     12087 W2       4029     TIP3     H2       HT       0.417000       1.00800           0
     12088 W2       4030     TIP3     OH2      OT      -0.834000       15.9994           0
     12089 W2       4030     TIP3     H1       HT       0.417000       1.00800           0
     12090 W2       4030     TIP3     H2       HT       0.417000       1.00800           0
     12091 W2       4031     TIP3     OH2      OT      -0.834000       15.9994           0
     12092 W2       4031     TIP3     H1       HT       0.417000       1.00800           0
     12093 W2       4031     TIP3     H2       HT       0.417000       1.00800           0
     12094 W2       4032     TIP3     OH2      OT      -0.834000       15.9994           0
     12095 W2       4032     TIP3     H1       HT       0.417000       1.00800           0
     12096 W2       4032     TIP3     H2       HT       0.417000       1.00800           0
     12097 W2       4033     TIP3     OH2      OT      -0.834000       15.9994           0
     12098 W2       4033     TIP3     H1       HT       0.417000       1.00800           0
     12099 W2       4033     TIP3     H2       HT       0.417000       1.00800           0
     12100 W2       4034     TIP3     OH2      OT      -0.834000       15.9994           0
     12101 W2       4034     TIP3     H1       HT       0.417000       1.00800           0
     12102 W2       4034     TIP3     H2       HT       0.417000       1.00800           0
     12103 W2       4035     TIP3     OH2      OT      -0.834000       15.9994           0
     12104 W2       4035     TIP3     H1       HT       0.417000       1.00800           0
     12105 W2       4035     TIP3     H2       HT       0.417000       1.00800           0
     12106 W2       4036     TIP3     OH2      OT      -0.834000       15.9994           0
     12107 W2       4036     TIP3     H1       HT       0.417000       1.00800           0
     12108 W2       4036     TIP3     H2       HT       0.417000       1.00800           0
     12109 W2       4037     TIP3     OH2      OT      -0.834000       15.9994           0
     12110 W2       4037     TIP3     H1       HT       0.417000       1.00800           0
     12111 W2       4037     TIP3     H2       HT       0.417000       1.00800           0
     12112 W2       4038     TIP3     OH2      OT      -0.834000       15.9994           0
     12113 W2       4038     TIP3     H1       HT       0.417000       1.00800           0
     12114 W2       4038     TIP3     H2       HT       0.417000       1.00800           0
     12115 W2       4039     TIP3     OH2      OT      -0.834000       15.9994           0
     12116 W2       4039     TIP3     H1       HT       0.417000       1.00800           0
     12117 W2       4039     TIP3     H2       HT       0.417000       1.00800           0
     12118 W2       4040     TIP3     OH2      OT      -0.834000       15.9994           0
     12119 W2       4040     TIP3     H1       HT       0.417000       1.00800           0
     12120 W2       4040     TIP3     H2       HT       0.417000       1.00800           0
     12121 W2       4041     TIP3     OH2      OT      -0.834000       15.9994           0
     12122 W2       4041     TIP3     H1       HT       0.417000       1.00800           0
     12123 W2       4041     TIP3     H2       HT       0.417000       1.00800           0
     12124 W2       4042     TIP3     OH2      OT      -0.834000       15.9994           0
     12125 W2       4042     TIP3     H1       HT       0.417000       1.00800           0
     12126 W2       4042     TIP3     H2       HT       0.417000       1.00800           0
     12127 W2       4043     TIP3     OH2      OT      -0.834000       15.9994           0
     12128 W2       4043     TIP3     H1       HT       0.417000       1.00800           0
     12129 W2       4043     TIP3     H2       HT       0.417000       1.00800           0
     12130 W2       4044     TIP3     OH2      OT      -0.834000       15.9994           0
     12131 W2       4044     TIP3     H1       HT       0.417000       1.00800           0
     12132 W2       4044     TIP3     H2       HT       0.417000       1.00800           0
     12133 W2       4045     TIP3     OH2      OT      -0.834000       15.9994           0
     12134 W2       4045     TIP3     H1       HT       0.417000       1.00800           0
     12135 W2       4045     TIP3     H2       HT       0.417000       1.00800           0
     12136 W2       4046     TIP3     OH2      OT      -0.834000       15.9994           0
     12137 W2       4046     TIP3     H1       HT       0.417000       1.00800           0
     12138 W2       4046     TIP3     H2       HT       0.417000       1.00800           0
     12139 W2       4047     TIP3     OH2      OT      -0.834000       15.9994           0
     12140 W2       4047     TIP3     H1       HT       0.417000       1.00800           0
     12141 W2       4047     TIP3     H2       HT       0.417000       1.00800           0
     12142 W2       4048     TIP3     OH2      OT      -0.834000       15.9994           0
     12143 W2       4048     TIP3     H1       HT       0.417000       1.00800           0
     12144 W2       4048     TIP3     H2       HT       0.417000       1.00800           0
     12145 W2       4049     TIP3     OH2      OT      -0.834000       15.9994           0
     12146 W2       4049     TIP3     H1       HT       0.417000       1.00800           0
     12147 W2       4049     TIP3     H2       HT       0.417000       1.00800           0
     12148 W2       4050     TIP3     OH2      OT      -0.834000       15.9994           0
     12149 W2       4050     TIP3     H1       HT       0.417000       1.00800           0
     12150 W2       4050     TIP3     H2       HT       0.417000       1.00800           0
     12151 W2       4051     TIP3     OH2      OT      -0.834000       15.9994           0
     12152 W2       4051     TIP3     H1       HT       0.417000       1.00800           0
     12153 W2       4051     TIP3     H2       HT       0.417000       1.00800           0
     12154 W2       4052     TIP3     OH2      OT      -0.834000       15.9994           0
     12155 W2       4052     TIP3     H1       HT       0.417000       1.00800           0
     12156 W2       4052     TIP3     H2       HT       0.417000       1.00800           0
     12157 W2       4053     TIP3     OH2      OT      -0.834000       15.9994           0
     12158 W2       4053     TIP3     H1       HT       0.417000       1.00800           0
     12159 W2       4053     TIP3     H2       HT       0.417000       1.00800           0
     12160 W2       4054     TIP3     OH2      OT      -0.834000       15.9994           0
     12161 W2       4054     TIP3     H1       HT       0.417000       1.00800           0
     12162 W2       4054     TIP3     H2       HT       0.417000       1.00800           0
     12163 W2       4055     TIP3     OH2      OT      -0.834000       15.9994           0
     12164 W2       4055     TIP3     H1       HT       0.417000       1.00800           0
     12165 W2       4055     TIP3     H2       HT       0.417000       1.00800           0
     12166 W2       4056     TIP3     OH2      OT      -0.834000       15.9994           0
     12167 W2       4056     TIP3     H1       HT       0.417000       1.00800           0
     12168 W2       4056     TIP3     H2       HT       0.417000       1.00800           0
     12169 W2       4057     TIP3     OH2      OT      -0.834000       15.9994           0
     12170 W2       4057     TIP3     H1       HT       0.417000       1.00800           0
     12171 W2       4057     TIP3     H2       HT       0.417000       1.00800           0
     12172 W2       4058     TIP3     OH2      OT      -0.834000       15.9994           0
     12173 W2       4058     TIP3     H1       HT       0.417000       1.00800           0
     12174 W2       4058     TIP3     H2       HT       0.417000       1.00800           0
     12175 W2       4059     TIP3     OH2      OT      -0.834000       15.9994           0
     12176 W2       4059     TIP3     H1       HT       0.417000       1.00800           0
     12177 W2       4059     TIP3     H2       HT       0.417000       1.00800           0
     12178 W2       4060     TIP3     OH2      OT      -0.834000       15.9994           0
     12179 W2       4060     TIP3     H1       HT       0.417000       1.00800           0
     12180 W2       4060     TIP3     H2       HT       0.417000       1.00800           0
     12181 W2       4061     TIP3     OH2      OT      -0.834000       15.9994           0
     12182 W2       4061     TIP3     H1       HT       0.417000       1.00800           0
     12183 W2       4061     TIP3     H2       HT       0.417000       1.00800           0
     12184 W2       4062     TIP3     OH2      OT      -0.834000       15.9994           0
     12185 W2       4062     TIP3     H1       HT       0.417000       1.00800           0
     12186 W2       4062     TIP3     H2       HT       0.417000       1.00800           0
     12187 W2       4063     TIP3     OH2      OT      -0.834000       15.9994           0
     12188 W2       4063     TIP3     H1       HT       0.417000       1.00800           0
     12189 W2       4063     TIP3     H2       HT       0.417000       1.00800           0
     12190 W2       4064     TIP3     OH2      OT      -0.834000       15.9994           0
     12191 W2       4064     TIP3     H1       HT       0.417000       1.00800           0
     12192 W2       4064     TIP3     H2       HT       0.417000       1.00800           0
     12193 W2       4065     TIP3     OH2      OT      -0.834000       15.9994           0
     12194 W2       4065     TIP3     H1       HT       0.417000       1.00800           0
     12195 W2       4065     TIP3     H2       HT       0.417000       1.00800           0
     12196 W2       4066     TIP3     OH2      OT      -0.834000       15.9994           0
     12197 W2       4066     TIP3     H1       HT       0.417000       1.00800           0
     12198 W2       4066     TIP3     H2       HT       0.417000       1.00800           0
     12199 W2       4067     TIP3     OH2      OT      -0.834000       15.9994           0
     12200 W2       4067     TIP3     H1       HT       0.417000       1.00800           0
     12201 W2       4067     TIP3     H2       HT       0.417000       1.00800           0
     12202 W2       4068     TIP3     OH2      OT      -0.834000       15.9994           0
     12203 W2       4068     TIP3     H1       HT       0.417000       1.00800           0
     12204 W2       4068     TIP3     H2       HT       0.417000       1.00800           0
     12205 W2       4069     TIP3     OH2      OT      -0.834000       15.9994           0
     12206 W2       4069     TIP3     H1       HT       0.417000       1.00800           0
     12207 W2       4069     TIP3     H2       HT       0.417000       1.00800           0
     12208 W2       4070     TIP3     OH2      OT      -0.834000       15.9994           0
     12209 W2       4070     TIP3     H1       HT       0.417000       1.00800           0
     12210 W2       4070     TIP3     H2       HT       0.417000       1.00800           0
     12211 W2       4071     TIP3     OH2      OT      -0.834000       15.9994           0
     12212 W2       4071     TIP3     H1       HT       0.417000       1.00800           0
     12213 W2       4071     TIP3     H2       HT       0.417000       1.00800           0
     12214 W2       4072     TIP3     OH2      OT      -0.834000       15.9994           0
     12215 W2       4072     TIP3     H1       HT       0.417000       1.00800           0
     12216 W2       4072     TIP3     H2       HT       0.417000       1.00800           0
     12217 W2       4073     TIP3     OH2      OT      -0.834000       15.9994           0
     12218 W2       4073     TIP3     H1       HT       0.417000       1.00800           0
     12219 W2       4073     TIP3     H2       HT       0.417000       1.00800           0
     12220 W2       4074     TIP3     OH2      OT      -0.834000       15.9994           0
     12221 W2       4074     TIP3     H1       HT       0.417000       1.00800           0
     12222 W2       4074     TIP3     H2       HT       0.417000       1.00800           0
     12223 W2       4075     TIP3     OH2      OT      -0.834000       15.9994           0
     12224 W2       4075     TIP3     H1       HT       0.417000       1.00800           0
     12225 W2       4075     TIP3     H2       HT       0.417000       1.00800           0
     12226 W2       4076     TIP3     OH2      OT      -0.834000       15.9994           0
     12227 W2       4076     TIP3     H1       HT       0.417000       1.00800           0
     12228 W2       4076     TIP3     H2       HT       0.417000       1.00800           0
     12229 W2       4077     TIP3     OH2      OT      -0.834000       15.9994           0
     12230 W2       4077     TIP3     H1       HT       0.417000       1.00800           0
     12231 W2       4077     TIP3     H2       HT       0.417000       1.00800           0
     12232 W2       4078     TIP3     OH2      OT      -0.834000       15.9994           0
     12233 W2       4078     TIP3     H1       HT       0.417000       1.00800           0
     12234 W2       4078     TIP3     H2       HT       0.417000       1.00800           0
     12235 W2       4079     TIP3     OH2      OT      -0.834000       15.9994           0
     12236 W2       4079     TIP3     H1       HT       0.417000       1.00800           0
     12237 W2       4079     TIP3     H2       HT       0.417000       1.00800           0
     12238 W2       4080     TIP3     OH2      OT      -0.834000       15.9994           0
     12239 W2       4080     TIP3     H1       HT       0.417000       1.00800           0
     12240 W2       4080     TIP3     H2       HT       0.417000       1.00800           0
     12241 W2       4081     TIP3     OH2      OT      -0.834000       15.9994           0
     12242 W2       4081     TIP3     H1       HT       0.417000       1.00800           0
     12243 W2       4081     TIP3     H2       HT       0.417000       1.00800           0
     12244 W2       4082     TIP3     OH2      OT      -0.834000       15.9994           0
     12245 W2       4082     TIP3     H1       HT       0.417000       1.00800           0
     12246 W2       4082     TIP3     H2       HT       0.417000       1.00800           0
     12247 W2       4083     TIP3     OH2      OT      -0.834000       15.9994           0
     12248 W2       4083     TIP3     H1       HT       0.417000       1.00800           0
     12249 W2       4083     TIP3     H2       HT       0.417000       1.00800           0
     12250 W2       4084     TIP3     OH2      OT      -0.834000       15.9994           0
     12251 W2       4084     TIP3     H1       HT       0.417000       1.00800           0
     12252 W2       4084     TIP3     H2       HT       0.417000       1.00800           0
     12253 W2       4085     TIP3     OH2      OT      -0.834000       15.9994           0
     12254 W2       4085     TIP3     H1       HT       0.417000       1.00800           0
     12255 W2       4085     TIP3     H2       HT       0.417000       1.00800           0
     12256 W2       4086     TIP3     OH2      OT      -0.834000       15.9994           0
     12257 W2       4086     TIP3     H1       HT       0.417000       1.00800           0
     12258 W2       4086     TIP3     H2       HT       0.417000       1.00800           0
     12259 W2       4087     TIP3     OH2      OT      -0.834000       15.9994           0
     12260 W2       4087     TIP3     H1       HT       0.417000       1.00800           0
     12261 W2       4087     TIP3     H2       HT       0.417000       1.00800           0
     12262 W2       4088     TIP3     OH2      OT      -0.834000       15.9994           0
     12263 W2       4088     TIP3     H1       HT       0.417000       1.00800           0
     12264 W2       4088     TIP3     H2       HT       0.417000       1.00800           0
     12265 W2       4089     TIP3     OH2      OT      -0.834000       15.9994           0
     12266 W2       4089     TIP3     H1       HT       0.417000       1.00800           0
     12267 W2       4089     TIP3     H2       HT       0.417000       1.00800           0
     12268 W2       4090     TIP3     OH2      OT      -0.834000       15.9994           0
     12269 W2       4090     TIP3     H1       HT       0.417000       1.00800           0
     12270 W2       4090     TIP3     H2       HT       0.417000       1.00800           0
     12271 W2       4091     TIP3     OH2      OT      -0.834000       15.9994           0
     12272 W2       4091     TIP3     H1       HT       0.417000       1.00800           0
     12273 W2       4091     TIP3     H2       HT       0.417000       1.00800           0
     12274 W2       4092     TIP3     OH2      OT      -0.834000       15.9994           0
     12275 W2       4092     TIP3     H1       HT       0.417000       1.00800           0
     12276 W2       4092     TIP3     H2       HT       0.417000       1.00800           0
     12277 W2       4093     TIP3     OH2      OT      -0.834000       15.9994           0
     12278 W2       4093     TIP3     H1       HT       0.417000       1.00800           0
     12279 W2       4093     TIP3     H2       HT       0.417000       1.00800           0
     12280 W2       4094     TIP3     OH2      OT      -0.834000       15.9994           0
     12281 W2       4094     TIP3     H1       HT       0.417000       1.00800           0
     12282 W2       4094     TIP3     H2       HT       0.417000       1.00800           0
     12283 W2       4095     TIP3     OH2      OT      -0.834000       15.9994           0
     12284 W2       4095     TIP3     H1       HT       0.417000       1.00800           0
     12285 W2       4095     TIP3     H2       HT       0.417000       1.00800           0
     12286 W2       4096     TIP3     OH2      OT      -0.834000       15.9994           0
     12287 W2       4096     TIP3     H1       HT       0.417000       1.00800           0
     12288 W2       4096     TIP3     H2       HT       0.417000       1.00800           0
     12289 W2       4097     TIP3     OH2      OT      -0.834000       15.9994           0
     12290 W2       4097     TIP3     H1       HT       0.417000       1.00800           0
     12291 W2       4097     TIP3     H2       HT       0.417000       1.00800           0
     12292 W2       4098     TIP3     OH2      OT      -0.834000       15.9994           0
     12293 W2       4098     TIP3     H1       HT       0.417000       1.00800           0
     12294 W2       4098     TIP3     H2       HT       0.417000       1.00800           0
     12295 W2       4099     TIP3     OH2      OT      -0.834000       15.9994           0
     12296 W2       4099     TIP3     H1       HT       0.417000       1.00800           0
     12297 W2       4099     TIP3     H2       HT       0.417000       1.00800           0
     12298 W2       4100     TIP3     OH2      OT      -0.834000       15.9994           0
     12299 W2       4100     TIP3     H1       HT       0.417000       1.00800           0
     12300 W2       4100     TIP3     H2       HT       0.417000       1.00800           0
     12301 W2       4101     TIP3     OH2      OT      -0.834000       15.9994           0
     12302 W2       4101     TIP3     H1       HT       0.417000       1.00800           0
     12303 W2       4101     TIP3     H2       HT       0.417000       1.00800           0
     12304 W2       4102     TIP3     OH2      OT      -0.834000       15.9994           0
     12305 W2       4102     TIP3     H1       HT       0.417000       1.00800           0
     12306 W2       4102     TIP3     H2       HT       0.417000       1.00800           0
     12307 W2       4103     TIP3     OH2      OT      -0.834000       15.9994           0
     12308 W2       4103     TIP3     H1       HT       0.417000       1.00800           0
     12309 W2       4103     TIP3     H2       HT       0.417000       1.00800           0
     12310 W2       4104     TIP3     OH2      OT      -0.834000       15.9994           0
     12311 W2       4104     TIP3     H1       HT       0.417000       1.00800           0
     12312 W2       4104     TIP3     H2       HT       0.417000       1.00800           0
     12313 W2       4105     TIP3     OH2      OT      -0.834000       15.9994           0
     12314 W2       4105     TIP3     H1       HT       0.417000       1.00800           0
     12315 W2       4105     TIP3     H2       HT       0.417000       1.00800           0
     12316 W2       4106     TIP3     OH2      OT      -0.834000       15.9994           0
     12317 W2       4106     TIP3     H1       HT       0.417000       1.00800           0
     12318 W2       4106     TIP3     H2       HT       0.417000       1.00800           0
     12319 W2       4107     TIP3     OH2      OT      -0.834000       15.9994           0
     12320 W2       4107     TIP3     H1       HT       0.417000       1.00800           0
     12321 W2       4107     TIP3     H2       HT       0.417000       1.00800           0
     12322 W2       4108     TIP3     OH2      OT      -0.834000       15.9994           0
     12323 W2       4108     TIP3     H1       HT       0.417000       1.00800           0
     12324 W2       4108     TIP3     H2       HT       0.417000       1.00800           0
     12325 W2       4109     TIP3     OH2      OT      -0.834000       15.9994           0
     12326 W2       4109     TIP3     H1       HT       0.417000       1.00800           0
     12327 W2       4109     TIP3     H2       HT       0.417000       1.00800           0
     12328 W2       4110     TIP3     OH2      OT      -0.834000       15.9994           0
     12329 W2       4110     TIP3     H1       HT       0.417000       1.00800           0
     12330 W2       4110     TIP3     H2       HT       0.417000       1.00800           0
     12331 W2       4111     TIP3     OH2      OT      -0.834000       15.9994           0
     12332 W2       4111     TIP3     H1       HT       0.417000       1.00800           0
     12333 W2       4111     TIP3     H2       HT       0.417000       1.00800           0
     12334 W2       4112     TIP3     OH2      OT      -0.834000       15.9994           0
     12335 W2       4112     TIP3     H1       HT       0.417000       1.00800           0
     12336 W2       4112     TIP3     H2       HT       0.417000       1.00800           0
     12337 W2       4113     TIP3     OH2      OT      -0.834000       15.9994           0
     12338 W2       4113     TIP3     H1       HT       0.417000       1.00800           0
     12339 W2       4113     TIP3     H2       HT       0.417000       1.00800           0
     12340 W2       4114     TIP3     OH2      OT      -0.834000       15.9994           0
     12341 W2       4114     TIP3     H1       HT       0.417000       1.00800           0
     12342 W2       4114     TIP3     H2       HT       0.417000       1.00800           0
     12343 W2       4115     TIP3     OH2      OT      -0.834000       15.9994           0
     12344 W2       4115     TIP3     H1       HT       0.417000       1.00800           0
     12345 W2       4115     TIP3     H2       HT       0.417000       1.00800           0
     12346 W2       4116     TIP3     OH2      OT      -0.834000       15.9994           0
     12347 W2       4116     TIP3     H1       HT       0.417000       1.00800           0
     12348 W2       4116     TIP3     H2       HT       0.417000       1.00800           0
     12349 W2       4117     TIP3     OH2      OT      -0.834000       15.9994           0
     12350 W2       4117     TIP3     H1       HT       0.417000       1.00800           0
     12351 W2       4117     TIP3     H2       HT       0.417000       1.00800           0
     12352 W2       4118     TIP3     OH2      OT      -0.834000       15.9994           0
     12353 W2       4118     TIP3     H1       HT       0.417000       1.00800           0
     12354 W2       4118     TIP3     H2       HT       0.417000       1.00800           0
     12355 W2       4119     TIP3     OH2      OT      -0.834000       15.9994           0
     12356 W2       4119     TIP3     H1       HT       0.417000       1.00800           0
     12357 W2       4119     TIP3     H2       HT       0.417000       1.00800           0
     12358 W2       4120     TIP3     OH2      OT      -0.834000       15.9994           0
     12359 W2       4120     TIP3     H1       HT       0.417000       1.00800           0
     12360 W2       4120     TIP3     H2       HT       0.417000       1.00800           0
     12361 W2       4121     TIP3     OH2      OT      -0.834000       15.9994           0
     12362 W2       4121     TIP3     H1       HT       0.417000       1.00800           0
     12363 W2       4121     TIP3     H2       HT       0.417000       1.00800           0
     12364 W2       4122     TIP3     OH2      OT      -0.834000       15.9994           0
     12365 W2       4122     TIP3     H1       HT       0.417000       1.00800           0
     12366 W2       4122     TIP3     H2       HT       0.417000       1.00800           0
     12367 W2       4123     TIP3     OH2      OT      -0.834000       15.9994           0
     12368 W2       4123     TIP3     H1       HT       0.417000       1.00800           0
     12369 W2       4123     TIP3     H2       HT       0.417000       1.00800           0
     12370 W2       4124     TIP3     OH2      OT      -0.834000       15.9994           0
     12371 W2       4124     TIP3     H1       HT       0.417000       1.00800           0
     12372 W2       4124     TIP3     H2       HT       0.417000       1.00800           0
     12373 W2       4125     TIP3     OH2      OT      -0.834000       15.9994           0
     12374 W2       4125     TIP3     H1       HT       0.417000       1.00800           0
     12375 W2       4125     TIP3     H2       HT       0.417000       1.00800           0
     12376 W2       4126     TIP3     OH2      OT      -0.834000       15.9994           0
     12377 W2       4126     TIP3     H1       HT       0.417000       1.00800           0
     12378 W2       4126     TIP3     H2       HT       0.417000       1.00800           0
     12379 W2       4127     TIP3     OH2      OT      -0.834000       15.9994           0
     12380 W2       4127     TIP3     H1       HT       0.417000       1.00800           0
     12381 W2       4127     TIP3     H2       HT       0.417000       1.00800           0
     12382 W2       4128     TIP3     OH2      OT      -0.834000       15.9994           0
     12383 W2       4128     TIP3     H1       HT       0.417000       1.00800           0
     12384 W2       4128     TIP3     H2       HT       0.417000       1.00800           0
     12385 W2       4129     TIP3     OH2      OT      -0.834000       15.9994           0
     12386 W2       4129     TIP3     H1       HT       0.417000       1.00800           0
     12387 W2       4129     TIP3     H2       HT       0.417000       1.00800           0
     12388 W2       4130     TIP3     OH2      OT      -0.834000       15.9994           0
     12389 W2       4130     TIP3     H1       HT       0.417000       1.00800           0
     12390 W2       4130     TIP3     H2       HT       0.417000       1.00800           0
     12391 W2       4131     TIP3     OH2      OT      -0.834000       15.9994           0
     12392 W2       4131     TIP3     H1       HT       0.417000       1.00800           0
     12393 W2       4131     TIP3     H2       HT       0.417000       1.00800           0
     12394 W2       4132     TIP3     OH2      OT      -0.834000       15.9994           0
     12395 W2       4132     TIP3     H1       HT       0.417000       1.00800           0
     12396 W2       4132     TIP3     H2       HT       0.417000       1.00800           0
     12397 W2       4133     TIP3     OH2      OT      -0.834000       15.9994           0
     12398 W2       4133     TIP3     H1       HT       0.417000       1.00800           0
     12399 W2       4133     TIP3     H2       HT       0.417000       1.00800           0
     12400 W2       4134     TIP3     OH2      OT      -0.834000       15.9994           0
     12401 W2       4134     TIP3     H1       HT       0.417000       1.00800           0
     12402 W2       4134     TIP3     H2       HT       0.417000       1.00800           0
     12403 W2       4135     TIP3     OH2      OT      -0.834000       15.9994           0
     12404 W2       4135     TIP3     H1       HT       0.417000       1.00800           0
     12405 W2       4135     TIP3     H2       HT       0.417000       1.00800           0
     12406 W2       4136     TIP3     OH2      OT      -0.834000       15.9994           0
     12407 W2       4136     TIP3     H1       HT       0.417000       1.00800           0
     12408 W2       4136     TIP3     H2       HT       0.417000       1.00800           0
     12409 W2       4137     TIP3     OH2      OT      -0.834000       15.9994           0
     12410 W2       4137     TIP3     H1       HT       0.417000       1.00800           0
     12411 W2       4137     TIP3     H2       HT       0.417000       1.00800           0
     12412 W2       4138     TIP3     OH2      OT      -0.834000       15.9994           0
     12413 W2       4138     TIP3     H1       HT       0.417000       1.00800           0
     12414 W2       4138     TIP3     H2       HT       0.417000       1.00800           0
     12415 W2       4139     TIP3     OH2      OT      -0.834000       15.9994           0
     12416 W2       4139     TIP3     H1       HT       0.417000       1.00800           0
     12417 W2       4139     TIP3     H2       HT       0.417000       1.00800           0
     12418 W2       4140     TIP3     OH2      OT      -0.834000       15.9994           0
     12419 W2       4140     TIP3     H1       HT       0.417000       1.00800           0
     12420 W2       4140     TIP3     H2       HT       0.417000       1.00800           0
     12421 W2       4141     TIP3     OH2      OT      -0.834000       15.9994           0
     12422 W2       4141     TIP3     H1       HT       0.417000       1.00800           0
     12423 W2       4141     TIP3     H2       HT       0.417000       1.00800           0
     12424 W2       4142     TIP3     OH2      OT      -0.834000       15.9994           0
     12425 W2       4142     TIP3     H1       HT       0.417000       1.00800           0
     12426 W2       4142     TIP3     H2       HT       0.417000       1.00800           0
     12427 W2       4143     TIP3     OH2      OT      -0.834000       15.9994           0
     12428 W2       4143     TIP3     H1       HT       0.417000       1.00800           0
     12429 W2       4143     TIP3     H2       HT       0.417000       1.00800           0
     12430 W2       4144     TIP3     OH2      OT      -0.834000       15.9994           0
     12431 W2       4144     TIP3     H1       HT       0.417000       1.00800           0
     12432 W2       4144     TIP3     H2       HT       0.417000       1.00800           0
     12433 W2       4145     TIP3     OH2      OT      -0.834000       15.9994           0
     12434 W2       4145     TIP3     H1       HT       0.417000       1.00800           0
     12435 W2       4145     TIP3     H2       HT       0.417000       1.00800           0
     12436 W2       4146     TIP3     OH2      OT      -0.834000       15.9994           0
     12437 W2       4146     TIP3     H1       HT       0.417000       1.00800           0
     12438 W2       4146     TIP3     H2       HT       0.417000       1.00800           0
     12439 W2       4147     TIP3     OH2      OT      -0.834000       15.9994           0
     12440 W2       4147     TIP3     H1       HT       0.417000       1.00800           0
     12441 W2       4147     TIP3     H2       HT       0.417000       1.00800           0
     12442 W2       4148     TIP3     OH2      OT      -0.834000       15.9994           0
     12443 W2       4148     TIP3     H1       HT       0.417000       1.00800           0
     12444 W2       4148     TIP3     H2       HT       0.417000       1.00800           0
     12445 W2       4149     TIP3     OH2      OT      -0.834000       15.9994           0
     12446 W2       4149     TIP3     H1       HT       0.417000       1.00800           0
     12447 W2       4149     TIP3     H2       HT       0.417000       1.00800           0
     12448 W2       4150     TIP3     OH2      OT      -0.834000       15.9994           0
     12449 W2       4150     TIP3     H1       HT       0.417000       1.00800           0
     12450 W2       4150     TIP3     H2       HT       0.417000       1.00800           0
     12451 W2       4151     TIP3     OH2      OT      -0.834000       15.9994           0
     12452 W2       4151     TIP3     H1       HT       0.417000       1.00800           0
     12453 W2       4151     TIP3     H2       HT       0.417000       1.00800           0
     12454 W2       4152     TIP3     OH2      OT      -0.834000       15.9994           0
     12455 W2       4152     TIP3     H1       HT       0.417000       1.00800           0
     12456 W2       4152     TIP3     H2       HT       0.417000       1.00800           0
     12457 W2       4153     TIP3     OH2      OT      -0.834000       15.9994           0
     12458 W2       4153     TIP3     H1       HT       0.417000       1.00800           0
     12459 W2       4153     TIP3     H2       HT       0.417000       1.00800           0
     12460 W2       4154     TIP3     OH2      OT      -0.834000       15.9994           0
     12461 W2       4154     TIP3     H1       HT       0.417000       1.00800           0
     12462 W2       4154     TIP3     H2       HT       0.417000       1.00800           0
     12463 W2       4155     TIP3     OH2      OT      -0.834000       15.9994           0
     12464 W2       4155     TIP3     H1       HT       0.417000       1.00800           0
     12465 W2       4155     TIP3     H2       HT       0.417000       1.00800           0
     12466 W2       4156     TIP3     OH2      OT      -0.834000       15.9994           0
     12467 W2       4156     TIP3     H1       HT       0.417000       1.00800           0
     12468 W2       4156     TIP3     H2       HT       0.417000       1.00800           0
     12469 W2       4157     TIP3     OH2      OT      -0.834000       15.9994           0
     12470 W2       4157     TIP3     H1       HT       0.417000       1.00800           0
     12471 W2       4157     TIP3     H2       HT       0.417000       1.00800           0
     12472 W2       4158     TIP3     OH2      OT      -0.834000       15.9994           0
     12473 W2       4158     TIP3     H1       HT       0.417000       1.00800           0
     12474 W2       4158     TIP3     H2       HT       0.417000       1.00800           0
     12475 W2       4159     TIP3     OH2      OT      -0.834000       15.9994           0
     12476 W2       4159     TIP3     H1       HT       0.417000       1.00800           0
     12477 W2       4159     TIP3     H2       HT       0.417000       1.00800           0
     12478 W2       4160     TIP3     OH2      OT      -0.834000       15.9994           0
     12479 W2       4160     TIP3     H1       HT       0.417000       1.00800           0
     12480 W2       4160     TIP3     H2       HT       0.417000       1.00800           0
     12481 W2       4161     TIP3     OH2      OT      -0.834000       15.9994           0
     12482 W2       4161     TIP3     H1       HT       0.417000       1.00800           0
     12483 W2       4161     TIP3     H2       HT       0.417000       1.00800           0
     12484 W2       4162     TIP3     OH2      OT      -0.834000       15.9994           0
     12485 W2       4162     TIP3     H1       HT       0.417000       1.00800           0
     12486 W2       4162     TIP3     H2       HT       0.417000       1.00800           0
     12487 W2       4163     TIP3     OH2      OT      -0.834000       15.9994           0
     12488 W2       4163     TIP3     H1       HT       0.417000       1.00800           0
     12489 W2       4163     TIP3     H2       HT       0.417000       1.00800           0
     12490 W2       4164     TIP3     OH2      OT      -0.834000       15.9994           0
     12491 W2       4164     TIP3     H1       HT       0.417000       1.00800           0
     12492 W2       4164     TIP3     H2       HT       0.417000       1.00800           0
     12493 W2       4165     TIP3     OH2      OT      -0.834000       15.9994           0
     12494 W2       4165     TIP3     H1       HT       0.417000       1.00800           0
     12495 W2       4165     TIP3     H2       HT       0.417000       1.00800           0
     12496 W2       4166     TIP3     OH2      OT      -0.834000       15.9994           0
     12497 W2       4166     TIP3     H1       HT       0.417000       1.00800           0
     12498 W2       4166     TIP3     H2       HT       0.417000       1.00800           0
     12499 W2       4167     TIP3     OH2      OT      -0.834000       15.9994           0
     12500 W2       4167     TIP3     H1       HT       0.417000       1.00800           0
     12501 W2       4167     TIP3     H2       HT       0.417000       1.00800           0
     12502 W2       4168     TIP3     OH2      OT      -0.834000       15.9994           0
     12503 W2       4168     TIP3     H1       HT       0.417000       1.00800           0
     12504 W2       4168     TIP3     H2       HT       0.417000       1.00800           0
     12505 W2       4169     TIP3     OH2      OT      -0.834000       15.9994           0
     12506 W2       4169     TIP3     H1       HT       0.417000       1.00800           0
     12507 W2       4169     TIP3     H2       HT       0.417000       1.00800           0
     12508 W2       4170     TIP3     OH2      OT      -0.834000       15.9994           0
     12509 W2       4170     TIP3     H1       HT       0.417000       1.00800           0
     12510 W2       4170     TIP3     H2       HT       0.417000       1.00800           0
     12511 W2       4171     TIP3     OH2      OT      -0.834000       15.9994           0
     12512 W2       4171     TIP3     H1       HT       0.417000       1.00800           0
     12513 W2       4171     TIP3     H2       HT       0.417000       1.00800           0
     12514 W2       4172     TIP3     OH2      OT      -0.834000       15.9994           0
     12515 W2       4172     TIP3     H1       HT       0.417000       1.00800           0
     12516 W2       4172     TIP3     H2       HT       0.417000       1.00800           0
     12517 W2       4173     TIP3     OH2      OT      -0.834000       15.9994           0
     12518 W2       4173     TIP3     H1       HT       0.417000       1.00800           0
     12519 W2       4173     TIP3     H2       HT       0.417000       1.00800           0
     12520 W2       4174     TIP3     OH2      OT      -0.834000       15.9994           0
     12521 W2       4174     TIP3     H1       HT       0.417000       1.00800           0
     12522 W2       4174     TIP3     H2       HT       0.417000       1.00800           0
     12523 W2       4175     TIP3     OH2      OT      -0.834000       15.9994           0
     12524 W2       4175     TIP3     H1       HT       0.417000       1.00800           0
     12525 W2       4175     TIP3     H2       HT       0.417000       1.00800           0
     12526 W2       4176     TIP3     OH2      OT      -0.834000       15.9994           0
     12527 W2       4176     TIP3     H1       HT       0.417000       1.00800           0
     12528 W2       4176     TIP3     H2       HT       0.417000       1.00800           0
     12529 W2       4177     TIP3     OH2      OT      -0.834000       15.9994           0
     12530 W2       4177     TIP3     H1       HT       0.417000       1.00800           0
     12531 W2       4177     TIP3     H2       HT       0.417000       1.00800           0
     12532 W2       4178     TIP3     OH2      OT      -0.834000       15.9994           0
     12533 W2       4178     TIP3     H1       HT       0.417000       1.00800           0
     12534 W2       4178     TIP3     H2       HT       0.417000       1.00800           0
     12535 W2       4179     TIP3     OH2      OT      -0.834000       15.9994           0
     12536 W2       4179     TIP3     H1       HT       0.417000       1.00800           0
     12537 W2       4179     TIP3     H2       HT       0.417000       1.00800           0
     12538 W2       4180     TIP3     OH2      OT      -0.834000       15.9994           0
     12539 W2       4180     TIP3     H1       HT       0.417000       1.00800           0
     12540 W2       4180     TIP3     H2       HT       0.417000       1.00800           0
     12541 W2       4181     TIP3     OH2      OT      -0.834000       15.9994           0
     12542 W2       4181     TIP3     H1       HT       0.417000       1.00800           0
     12543 W2       4181     TIP3     H2       HT       0.417000       1.00800           0
     12544 W2       4182     TIP3     OH2      OT      -0.834000       15.9994           0
     12545 W2       4182     TIP3     H1       HT       0.417000       1.00800           0
     12546 W2       4182     TIP3     H2       HT       0.417000       1.00800           0
     12547 W2       4183     TIP3     OH2      OT      -0.834000       15.9994           0
     12548 W2       4183     TIP3     H1       HT       0.417000       1.00800           0
     12549 W2       4183     TIP3     H2       HT       0.417000       1.00800           0
     12550 W2       4184     TIP3     OH2      OT      -0.834000       15.9994           0
     12551 W2       4184     TIP3     H1       HT       0.417000       1.00800           0
     12552 W2       4184     TIP3     H2       HT       0.417000       1.00800           0
     12553 W2       4185     TIP3     OH2      OT      -0.834000       15.9994           0
     12554 W2       4185     TIP3     H1       HT       0.417000       1.00800           0
     12555 W2       4185     TIP3     H2       HT       0.417000       1.00800           0
     12556 W2       4186     TIP3     OH2      OT      -0.834000       15.9994           0
     12557 W2       4186     TIP3     H1       HT       0.417000       1.00800           0
     12558 W2       4186     TIP3     H2       HT       0.417000       1.00800           0
     12559 W2       4187     TIP3     OH2      OT      -0.834000       15.9994           0
     12560 W2       4187     TIP3     H1       HT       0.417000       1.00800           0
     12561 W2       4187     TIP3     H2       HT       0.417000       1.00800           0
     12562 W2       4188     TIP3     OH2      OT      -0.834000       15.9994           0
     12563 W2       4188     TIP3     H1       HT       0.417000       1.00800           0
     12564 W2       4188     TIP3     H2       HT       0.417000       1.00800           0
     12565 W2       4189     TIP3     OH2      OT      -0.834000       15.9994           0
     12566 W2       4189     TIP3     H1       HT       0.417000       1.00800           0
     12567 W2       4189     TIP3     H2       HT       0.417000       1.00800           0
     12568 W2       4190     TIP3     OH2      OT      -0.834000       15.9994           0
     12569 W2       4190     TIP3     H1       HT       0.417000       1.00800           0
     12570 W2       4190     TIP3     H2       HT       0.417000       1.00800           0
     12571 W2       4191     TIP3     OH2      OT      -0.834000       15.9994           0
     12572 W2       4191     TIP3     H1       HT       0.417000       1.00800           0
     12573 W2       4191     TIP3     H2       HT       0.417000       1.00800           0
     12574 W2       4192     TIP3     OH2      OT      -0.834000       15.9994           0
     12575 W2       4192     TIP3     H1       HT       0.417000       1.00800           0
     12576 W2       4192     TIP3     H2       HT       0.417000       1.00800           0
     12577 W2       4193     TIP3     OH2      OT      -0.834000       15.9994           0
     12578 W2       4193     TIP3     H1       HT       0.417000       1.00800           0
     12579 W2       4193     TIP3     H2       HT       0.417000       1.00800           0
     12580 W2       4194     TIP3     OH2      OT      -0.834000       15.9994           0
     12581 W2       4194     TIP3     H1       HT       0.417000       1.00800           0
     12582 W2       4194     TIP3     H2       HT       0.417000       1.00800           0
     12583 W2       4195     TIP3     OH2      OT      -0.834000       15.9994           0
     12584 W2       4195     TIP3     H1       HT       0.417000       1.00800           0
     12585 W2       4195     TIP3     H2       HT       0.417000       1.00800           0
     12586 W2       4196     TIP3     OH2      OT      -0.834000       15.9994           0
     12587 W2       4196     TIP3     H1       HT       0.417000       1.00800           0
     12588 W2       4196     TIP3     H2       HT       0.417000       1.00800           0
     12589 W2       4197     TIP3     OH2      OT      -0.834000       15.9994           0
     12590 W2       4197     TIP3     H1       HT       0.417000       1.00800           0
     12591 W2       4197     TIP3     H2       HT       0.417000       1.00800           0
     12592 W2       4198     TIP3     OH2      OT      -0.834000       15.9994           0
     12593 W2       4198     TIP3     H1       HT       0.417000       1.00800           0
     12594 W2       4198     TIP3     H2       HT       0.417000       1.00800           0
     12595 W2       4199     TIP3     OH2      OT      -0.834000       15.9994           0
     12596 W2       4199     TIP3     H1       HT       0.417000       1.00800           0
     12597 W2       4199     TIP3     H2       HT       0.417000       1.00800           0
     12598 W2       4200     TIP3     OH2      OT      -0.834000       15.9994           0
     12599 W2       4200     TIP3     H1       HT       0.417000       1.00800           0
     12600 W2       4200     TIP3     H2       HT       0.417000       1.00800           0
     12601 W2       4201     TIP3     OH2      OT      -0.834000       15.9994           0
     12602 W2       4201     TIP3     H1       HT       0.417000       1.00800           0
     12603 W2       4201     TIP3     H2       HT       0.417000       1.00800           0
     12604 W2       4202     TIP3     OH2      OT      -0.834000       15.9994           0
     12605 W2       4202     TIP3     H1       HT       0.417000       1.00800           0
     12606 W2       4202     TIP3     H2       HT       0.417000       1.00800           0
     12607 W2       4203     TIP3     OH2      OT      -0.834000       15.9994           0
     12608 W2       4203     TIP3     H1       HT       0.417000       1.00800           0
     12609 W2       4203     TIP3     H2       HT       0.417000       1.00800           0
     12610 W2       4204     TIP3     OH2      OT      -0.834000       15.9994           0
     12611 W2       4204     TIP3     H1       HT       0.417000       1.00800           0
     12612 W2       4204     TIP3     H2       HT       0.417000       1.00800           0
     12613 W2       4205     TIP3     OH2      OT      -0.834000       15.9994           0
     12614 W2       4205     TIP3     H1       HT       0.417000       1.00800           0
     12615 W2       4205     TIP3     H2       HT       0.417000       1.00800           0
     12616 W2       4206     TIP3     OH2      OT      -0.834000       15.9994           0
     12617 W2       4206     TIP3     H1       HT       0.417000       1.00800           0
     12618 W2       4206     TIP3     H2       HT       0.417000       1.00800           0
     12619 W2       4207     TIP3     OH2      OT      -0.834000       15.9994           0
     12620 W2       4207     TIP3     H1       HT       0.417000       1.00800           0
     12621 W2       4207     TIP3     H2       HT       0.417000       1.00800           0
     12622 W2       4208     TIP3     OH2      OT      -0.834000       15.9994           0
     12623 W2       4208     TIP3     H1       HT       0.417000       1.00800           0
     12624 W2       4208     TIP3     H2       HT       0.417000       1.00800           0
     12625 W2       4209     TIP3     OH2      OT      -0.834000       15.9994           0
     12626 W2       4209     TIP3     H1       HT       0.417000       1.00800           0
     12627 W2       4209     TIP3     H2       HT       0.417000       1.00800           0
     12628 W2       4210     TIP3     OH2      OT      -0.834000       15.9994           0
     12629 W2       4210     TIP3     H1       HT       0.417000       1.00800           0
     12630 W2       4210     TIP3     H2       HT       0.417000       1.00800           0
     12631 W2       4211     TIP3     OH2      OT      -0.834000       15.9994           0
     12632 W2       4211     TIP3     H1       HT       0.417000       1.00800           0
     12633 W2       4211     TIP3     H2       HT       0.417000       1.00800           0
     12634 W2       4212     TIP3     OH2      OT      -0.834000       15.9994           0
     12635 W2       4212     TIP3     H1       HT       0.417000       1.00800           0
     12636 W2       4212     TIP3     H2       HT       0.417000       1.00800           0
     12637 W2       4213     TIP3     OH2      OT      -0.834000       15.9994           0
     12638 W2       4213     TIP3     H1       HT       0.417000       1.00800           0
     12639 W2       4213     TIP3     H2       HT       0.417000       1.00800           0
     12640 W2       4214     TIP3     OH2      OT      -0.834000       15.9994           0
     12641 W2       4214     TIP3     H1       HT       0.417000       1.00800           0
     12642 W2       4214     TIP3     H2       HT       0.417000       1.00800           0
     12643 W2       4215     TIP3     OH2      OT      -0.834000       15.9994           0
     12644 W2       4215     TIP3     H1       HT       0.417000       1.00800           0
     12645 W2       4215     TIP3     H2       HT       0.417000       1.00800           0
     12646 W2       4216     TIP3     OH2      OT      -0.834000       15.9994           0
     12647 W2       4216     TIP3     H1       HT       0.417000       1.00800           0
     12648 W2       4216     TIP3     H2       HT       0.417000       1.00800           0
     12649 W2       4217     TIP3     OH2      OT      -0.834000       15.9994           0
     12650 W2       4217     TIP3     H1       HT       0.417000       1.00800           0
     12651 W2       4217     TIP3     H2       HT       0.417000       1.00800           0
     12652 W2       4218     TIP3     OH2      OT      -0.834000       15.9994           0
     12653 W2       4218     TIP3     H1       HT       0.417000       1.00800           0
     12654 W2       4218     TIP3     H2       HT       0.417000       1.00800           0
     12655 W2       4219     TIP3     OH2      OT      -0.834000       15.9994           0
     12656 W2       4219     TIP3     H1       HT       0.417000       1.00800           0
     12657 W2       4219     TIP3     H2       HT       0.417000       1.00800           0
     12658 W2       4220     TIP3     OH2      OT      -0.834000       15.9994           0
     12659 W2       4220     TIP3     H1       HT       0.417000       1.00800           0
     12660 W2       4220     TIP3     H2       HT       0.417000       1.00800           0
     12661 W2       4221     TIP3     OH2      OT      -0.834000       15.9994           0
     12662 W2       4221     TIP3     H1       HT       0.417000       1.00800           0
     12663 W2       4221     TIP3     H2       HT       0.417000       1.00800           0
     12664 W2       4222     TIP3     OH2      OT      -0.834000       15.9994           0
     12665 W2       4222     TIP3     H1       HT       0.417000       1.00800           0
     12666 W2       4222     TIP3     H2       HT       0.417000       1.00800           0
     12667 W2       4223     TIP3     OH2      OT      -0.834000       15.9994           0
     12668 W2       4223     TIP3     H1       HT       0.417000       1.00800           0
     12669 W2       4223     TIP3     H2       HT       0.417000       1.00800           0
     12670 W2       4224     TIP3     OH2      OT      -0.834000       15.9994           0
     12671 W2       4224     TIP3     H1       HT       0.417000       1.00800           0
     12672 W2       4224     TIP3     H2       HT       0.417000       1.00800           0
     12673 W2       4225     TIP3     OH2      OT      -0.834000       15.9994           0
     12674 W2       4225     TIP3     H1       HT       0.417000       1.00800           0
     12675 W2       4225     TIP3     H2       HT       0.417000       1.00800           0
     12676 W2       4226     TIP3     OH2      OT      -0.834000       15.9994           0
     12677 W2       4226     TIP3     H1       HT       0.417000       1.00800           0
     12678 W2       4226     TIP3     H2       HT       0.417000       1.00800           0
     12679 W2       4227     TIP3     OH2      OT      -0.834000       15.9994           0
     12680 W2       4227     TIP3     H1       HT       0.417000       1.00800           0
     12681 W2       4227     TIP3     H2       HT       0.417000       1.00800           0
     12682 W2       4228     TIP3     OH2      OT      -0.834000       15.9994           0
     12683 W2       4228     TIP3     H1       HT       0.417000       1.00800           0
     12684 W2       4228     TIP3     H2       HT       0.417000       1.00800           0
     12685 W2       4229     TIP3     OH2      OT      -0.834000       15.9994           0
     12686 W2       4229     TIP3     H1       HT       0.417000       1.00800           0
     12687 W2       4229     TIP3     H2       HT       0.417000       1.00800           0
     12688 W2       4230     TIP3     OH2      OT      -0.834000       15.9994           0
     12689 W2       4230     TIP3     H1       HT       0.417000       1.00800           0
     12690 W2       4230     TIP3     H2       HT       0.417000       1.00800           0
     12691 W2       4231     TIP3     OH2      OT      -0.834000       15.9994           0
     12692 W2       4231     TIP3     H1       HT       0.417000       1.00800           0
     12693 W2       4231     TIP3     H2       HT       0.417000       1.00800           0
     12694 W2       4232     TIP3     OH2      OT      -0.834000       15.9994           0
     12695 W2       4232     TIP3     H1       HT       0.417000       1.00800           0
     12696 W2       4232     TIP3     H2       HT       0.417000       1.00800           0
     12697 W2       4233     TIP3     OH2      OT      -0.834000       15.9994           0
     12698 W2       4233     TIP3     H1       HT       0.417000       1.00800           0
     12699 W2       4233     TIP3     H2       HT       0.417000       1.00800           0
     12700 W2       4234     TIP3     OH2      OT      -0.834000       15.9994           0
     12701 W2       4234     TIP3     H1       HT       0.417000       1.00800           0
     12702 W2       4234     TIP3     H2       HT       0.417000       1.00800           0
     12703 W2       4235     TIP3     OH2      OT      -0.834000       15.9994           0
     12704 W2       4235     TIP3     H1       HT       0.417000       1.00800           0
     12705 W2       4235     TIP3     H2       HT       0.417000       1.00800           0
     12706 W2       4236     TIP3     OH2      OT      -0.834000       15.9994           0
     12707 W2       4236     TIP3     H1       HT       0.417000       1.00800           0
     12708 W2       4236     TIP3     H2       HT       0.417000       1.00800           0
     12709 W2       4237     TIP3     OH2      OT      -0.834000       15.9994           0
     12710 W2       4237     TIP3     H1       HT       0.417000       1.00800           0
     12711 W2       4237     TIP3     H2       HT       0.417000       1.00800           0
     12712 W2       4238     TIP3     OH2      OT      -0.834000       15.9994           0
     12713 W2       4238     TIP3     H1       HT       0.417000       1.00800           0
     12714 W2       4238     TIP3     H2       HT       0.417000       1.00800           0
     12715 W2       4239     TIP3     OH2      OT      -0.834000       15.9994           0
     12716 W2       4239     TIP3     H1       HT       0.417000       1.00800           0
     12717 W2       4239     TIP3     H2       HT       0.417000       1.00800           0
     12718 W2       4240     TIP3     OH2      OT      -0.834000       15.9994           0
     12719 W2       4240     TIP3     H1       HT       0.417000       1.00800           0
     12720 W2       4240     TIP3     H2       HT       0.417000       1.00800           0
     12721 W2       4241     TIP3     OH2      OT      -0.834000       15.9994           0
     12722 W2       4241     TIP3     H1       HT       0.417000       1.00800           0
     12723 W2       4241     TIP3     H2       HT       0.417000       1.00800           0
     12724 W2       4242     TIP3     OH2      OT      -0.834000       15.9994           0
     12725 W2       4242     TIP3     H1       HT       0.417000       1.00800           0
     12726 W2       4242     TIP3     H2       HT       0.417000       1.00800           0
     12727 W2       4243     TIP3     OH2      OT      -0.834000       15.9994           0
     12728 W2       4243     TIP3     H1       HT       0.417000       1.00800           0
     12729 W2       4243     TIP3     H2       HT       0.417000       1.00800           0
     12730 W2       4244     TIP3     OH2      OT      -0.834000       15.9994           0
     12731 W2       4244     TIP3     H1       HT       0.417000       1.00800           0
     12732 W2       4244     TIP3     H2       HT       0.417000       1.00800           0
     12733 W2       4245     TIP3     OH2      OT      -0.834000       15.9994           0
     12734 W2       4245     TIP3     H1       HT       0.417000       1.00800           0
     12735 W2       4245     TIP3     H2       HT       0.417000       1.00800           0
     12736 W2       4246     TIP3     OH2      OT      -0.834000       15.9994           0
     12737 W2       4246     TIP3     H1       HT       0.417000       1.00800           0
     12738 W2       4246     TIP3     H2       HT       0.417000       1.00800           0
     12739 W2       4247     TIP3     OH2      OT      -0.834000       15.9994           0
     12740 W2       4247     TIP3     H1       HT       0.417000       1.00800           0
     12741 W2       4247     TIP3     H2       HT       0.417000       1.00800           0
     12742 W2       4248     TIP3     OH2      OT      -0.834000       15.9994           0
     12743 W2       4248     TIP3     H1       HT       0.417000       1.00800           0
     12744 W2       4248     TIP3     H2       HT       0.417000       1.00800           0
     12745 W2       4249     TIP3     OH2      OT      -0.834000       15.9994           0
     12746 W2       4249     TIP3     H1       HT       0.417000       1.00800           0
     12747 W2       4249     TIP3     H2       HT       0.417000       1.00800           0
     12748 W2       4250     TIP3     OH2      OT      -0.834000       15.9994           0
     12749 W2       4250     TIP3     H1       HT       0.417000       1.00800           0
     12750 W2       4250     TIP3     H2       HT       0.417000       1.00800           0
     12751 W2       4251     TIP3     OH2      OT      -0.834000       15.9994           0
     12752 W2       4251     TIP3     H1       HT       0.417000       1.00800           0
     12753 W2       4251     TIP3     H2       HT       0.417000       1.00800           0
     12754 W2       4252     TIP3     OH2      OT      -0.834000       15.9994           0
     12755 W2       4252     TIP3     H1       HT       0.417000       1.00800           0
     12756 W2       4252     TIP3     H2       HT       0.417000       1.00800           0
     12757 W2       4253     TIP3     OH2      OT      -0.834000       15.9994           0
     12758 W2       4253     TIP3     H1       HT       0.417000       1.00800           0
     12759 W2       4253     TIP3     H2       HT       0.417000       1.00800           0
     12760 W2       4254     TIP3     OH2      OT      -0.834000       15.9994           0
     12761 W2       4254     TIP3     H1       HT       0.417000       1.00800           0
     12762 W2       4254     TIP3     H2       HT       0.417000       1.00800           0
     12763 W2       4255     TIP3     OH2      OT      -0.834000       15.9994           0
     12764 W2       4255     TIP3     H1       HT       0.417000       1.00800           0
     12765 W2       4255     TIP3     H2       HT       0.417000       1.00800           0
     12766 W2       4256     TIP3     OH2      OT      -0.834000       15.9994           0
     12767 W2       4256     TIP3     H1       HT       0.417000       1.00800           0
     12768 W2       4256     TIP3     H2       HT       0.417000       1.00800           0
     12769 W2       4257     TIP3     OH2      OT      -0.834000       15.9994           0
     12770 W2       4257     TIP3     H1       HT       0.417000       1.00800           0
     12771 W2       4257     TIP3     H2       HT       0.417000       1.00800           0
     12772 W2       4258     TIP3     OH2      OT      -0.834000       15.9994           0
     12773 W2       4258     TIP3     H1       HT       0.417000       1.00800           0
     12774 W2       4258     TIP3     H2       HT       0.417000       1.00800           0
     12775 W2       4259     TIP3     OH2      OT      -0.834000       15.9994           0
     12776 W2       4259     TIP3     H1       HT       0.417000       1.00800           0
     12777 W2       4259     TIP3     H2       HT       0.417000       1.00800           0
     12778 W2       4260     TIP3     OH2      OT      -0.834000       15.9994           0
     12779 W2       4260     TIP3     H1       HT       0.417000       1.00800           0
     12780 W2       4260     TIP3     H2       HT       0.417000       1.00800           0
     12781 W2       4261     TIP3     OH2      OT      -0.834000       15.9994           0
     12782 W2       4261     TIP3     H1       HT       0.417000       1.00800           0
     12783 W2       4261     TIP3     H2       HT       0.417000       1.00800           0
     12784 W2       4262     TIP3     OH2      OT      -0.834000       15.9994           0
     12785 W2       4262     TIP3     H1       HT       0.417000       1.00800           0
     12786 W2       4262     TIP3     H2       HT       0.417000       1.00800           0
     12787 W2       4263     TIP3     OH2      OT      -0.834000       15.9994           0
     12788 W2       4263     TIP3     H1       HT       0.417000       1.00800           0
     12789 W2       4263     TIP3     H2       HT       0.417000       1.00800           0
     12790 W2       4264     TIP3     OH2      OT      -0.834000       15.9994           0
     12791 W2       4264     TIP3     H1       HT       0.417000       1.00800           0
     12792 W2       4264     TIP3     H2       HT       0.417000       1.00800           0
     12793 W2       4265     TIP3     OH2      OT      -0.834000       15.9994           0
     12794 W2       4265     TIP3     H1       HT       0.417000       1.00800           0
     12795 W2       4265     TIP3     H2       HT       0.417000       1.00800           0
     12796 W2       4266     TIP3     OH2      OT      -0.834000       15.9994           0
     12797 W2       4266     TIP3     H1       HT       0.417000       1.00800           0
     12798 W2       4266     TIP3     H2       HT       0.417000       1.00800           0
     12799 W2       4267     TIP3     OH2      OT      -0.834000       15.9994           0
     12800 W2       4267     TIP3     H1       HT       0.417000       1.00800           0
     12801 W2       4267     TIP3     H2       HT       0.417000       1.00800           0
     12802 W2       4268     TIP3     OH2      OT      -0.834000       15.9994           0
     12803 W2       4268     TIP3     H1       HT       0.417000       1.00800           0
     12804 W2       4268     TIP3     H2       HT       0.417000       1.00800           0
     12805 W2       4269     TIP3     OH2      OT      -0.834000       15.9994           0
     12806 W2       4269     TIP3     H1       HT       0.417000       1.00800           0
     12807 W2       4269     TIP3     H2       HT       0.417000       1.00800           0
     12808 W2       4270     TIP3     OH2      OT      -0.834000       15.9994           0
     12809 W2       4270     TIP3     H1       HT       0.417000       1.00800           0
     12810 W2       4270     TIP3     H2       HT       0.417000       1.00800           0
     12811 W2       4271     TIP3     OH2      OT      -0.834000       15.9994           0
     12812 W2       4271     TIP3     H1       HT       0.417000       1.00800           0
     12813 W2       4271     TIP3     H2       HT       0.417000       1.00800           0
     12814 W2       4272     TIP3     OH2      OT      -0.834000       15.9994           0
     12815 W2       4272     TIP3     H1       HT       0.417000       1.00800           0
     12816 W2       4272     TIP3     H2       HT       0.417000       1.00800           0
     12817 W2       4273     TIP3     OH2      OT      -0.834000       15.9994           0
     12818 W2       4273     TIP3     H1       HT       0.417000       1.00800           0
     12819 W2       4273     TIP3     H2       HT       0.417000       1.00800           0
     12820 W2       4274     TIP3     OH2      OT      -0.834000       15.9994           0
     12821 W2       4274     TIP3     H1       HT       0.417000       1.00800           0
     12822 W2       4274     TIP3     H2       HT       0.417000       1.00800           0
     12823 W2       4275     TIP3     OH2      OT      -0.834000       15.9994           0
     12824 W2       4275     TIP3     H1       HT       0.417000       1.00800           0
     12825 W2       4275     TIP3     H2       HT       0.417000       1.00800           0
     12826 W2       4276     TIP3     OH2      OT      -0.834000       15.9994           0
     12827 W2       4276     TIP3     H1       HT       0.417000       1.00800           0
     12828 W2       4276     TIP3     H2       HT       0.417000       1.00800           0
     12829 W2       4277     TIP3     OH2      OT      -0.834000       15.9994           0
     12830 W2       4277     TIP3     H1       HT       0.417000       1.00800           0
     12831 W2       4277     TIP3     H2       HT       0.417000       1.00800           0
     12832 W2       4278     TIP3     OH2      OT      -0.834000       15.9994           0
     12833 W2       4278     TIP3     H1       HT       0.417000       1.00800           0
     12834 W2       4278     TIP3     H2       HT       0.417000       1.00800           0
     12835 W2       4279     TIP3     OH2      OT      -0.834000       15.9994           0
     12836 W2       4279     TIP3     H1       HT       0.417000       1.00800           0
     12837 W2       4279     TIP3     H2       HT       0.417000       1.00800           0
     12838 W2       4280     TIP3     OH2      OT      -0.834000       15.9994           0
     12839 W2       4280     TIP3     H1       HT       0.417000       1.00800           0
     12840 W2       4280     TIP3     H2       HT       0.417000       1.00800           0
     12841 W2       4281     TIP3     OH2      OT      -0.834000       15.9994           0
     12842 W2       4281     TIP3     H1       HT       0.417000       1.00800           0
     12843 W2       4281     TIP3     H2       HT       0.417000       1.00800           0
     12844 W2       4282     TIP3     OH2      OT      -0.834000       15.9994           0
     12845 W2       4282     TIP3     H1       HT       0.417000       1.00800           0
     12846 W2       4282     TIP3     H2       HT       0.417000       1.00800           0
     12847 W2       4283     TIP3     OH2      OT      -0.834000       15.9994           0
     12848 W2       4283     TIP3     H1       HT       0.417000       1.00800           0
     12849 W2       4283     TIP3     H2       HT       0.417000       1.00800           0
     12850 W2       4284     TIP3     OH2      OT      -0.834000       15.9994           0
     12851 W2       4284     TIP3     H1       HT       0.417000       1.00800           0
     12852 W2       4284     TIP3     H2       HT       0.417000       1.00800           0
     12853 W2       4285     TIP3     OH2      OT      -0.834000       15.9994           0
     12854 W2       4285     TIP3     H1       HT       0.417000       1.00800           0
     12855 W2       4285     TIP3     H2       HT       0.417000       1.00800           0
     12856 W2       4286     TIP3     OH2      OT      -0.834000       15.9994           0
     12857 W2       4286     TIP3     H1       HT       0.417000       1.00800           0
     12858 W2       4286     TIP3     H2       HT       0.417000       1.00800           0
     12859 W2       4287     TIP3     OH2      OT      -0.834000       15.9994           0
     12860 W2       4287     TIP3     H1       HT       0.417000       1.00800           0
     12861 W2       4287     TIP3     H2       HT       0.417000       1.00800           0
     12862 W2       4288     TIP3     OH2      OT      -0.834000       15.9994           0
     12863 W2       4288     TIP3     H1       HT       0.417000       1.00800           0
     12864 W2       4288     TIP3     H2       HT       0.417000       1.00800           0
     12865 W2       4289     TIP3     OH2      OT      -0.834000       15.9994           0
     12866 W2       4289     TIP3     H1       HT       0.417000       1.00800           0
     12867 W2       4289     TIP3     H2       HT       0.417000       1.00800           0
     12868 W2       4290     TIP3     OH2      OT      -0.834000       15.9994           0
     12869 W2       4290     TIP3     H1       HT       0.417000       1.00800           0
     12870 W2       4290     TIP3     H2       HT       0.417000       1.00800           0
     12871 W2       4291     TIP3     OH2      OT      -0.834000       15.9994           0
     12872 W2       4291     TIP3     H1       HT       0.417000       1.00800           0
     12873 W2       4291     TIP3     H2       HT       0.417000       1.00800           0
     12874 W2       4292     TIP3     OH2      OT      -0.834000       15.9994           0
     12875 W2       4292     TIP3     H1       HT       0.417000       1.00800           0
     12876 W2       4292     TIP3     H2       HT       0.417000       1.00800           0
     12877 W2       4293     TIP3     OH2      OT      -0.834000       15.9994           0
     12878 W2       4293     TIP3     H1       HT       0.417000       1.00800           0
     12879 W2       4293     TIP3     H2       HT       0.417000       1.00800           0
     12880 W2       4294     TIP3     OH2      OT      -0.834000       15.9994           0
     12881 W2       4294     TIP3     H1       HT       0.417000       1.00800           0
     12882 W2       4294     TIP3     H2       HT       0.417000       1.00800           0
     12883 W2       4295     TIP3     OH2      OT      -0.834000       15.9994           0
     12884 W2       4295     TIP3     H1       HT       0.417000       1.00800           0
     12885 W2       4295     TIP3     H2       HT       0.417000       1.00800           0
     12886 W2       4296     TIP3     OH2      OT      -0.834000       15.9994           0
     12887 W2       4296     TIP3     H1       HT       0.417000       1.00800           0
     12888 W2       4296     TIP3     H2       HT       0.417000       1.00800           0
     12889 W2       4297     TIP3     OH2      OT      -0.834000       15.9994           0
     12890 W2       4297     TIP3     H1       HT       0.417000       1.00800           0
     12891 W2       4297     TIP3     H2       HT       0.417000       1.00800           0
     12892 W2       4298     TIP3     OH2      OT      -0.834000       15.9994           0
     12893 W2       4298     TIP3     H1       HT       0.417000       1.00800           0
     12894 W2       4298     TIP3     H2       HT       0.417000       1.00800           0
     12895 W2       4299     TIP3     OH2      OT      -0.834000       15.9994           0
     12896 W2       4299     TIP3     H1       HT       0.417000       1.00800           0
     12897 W2       4299     TIP3     H2       HT       0.417000       1.00800           0
     12898 W2       4300     TIP3     OH2      OT      -0.834000       15.9994           0
     12899 W2       4300     TIP3     H1       HT       0.417000       1.00800           0
     12900 W2       4300     TIP3     H2       HT       0.417000       1.00800           0
     12901 W2       4301     TIP3     OH2      OT      -0.834000       15.9994           0
     12902 W2       4301     TIP3     H1       HT       0.417000       1.00800           0
     12903 W2       4301     TIP3     H2       HT       0.417000       1.00800           0
     12904 W2       4302     TIP3     OH2      OT      -0.834000       15.9994           0
     12905 W2       4302     TIP3     H1       HT       0.417000       1.00800           0
     12906 W2       4302     TIP3     H2       HT       0.417000       1.00800           0
     12907 W2       4303     TIP3     OH2      OT      -0.834000       15.9994           0
     12908 W2       4303     TIP3     H1       HT       0.417000       1.00800           0
     12909 W2       4303     TIP3     H2       HT       0.417000       1.00800           0
     12910 W2       4304     TIP3     OH2      OT      -0.834000       15.9994           0
     12911 W2       4304     TIP3     H1       HT       0.417000       1.00800           0
     12912 W2       4304     TIP3     H2       HT       0.417000       1.00800           0
     12913 W2       4305     TIP3     OH2      OT      -0.834000       15.9994           0
     12914 W2       4305     TIP3     H1       HT       0.417000       1.00800           0
     12915 W2       4305     TIP3     H2       HT       0.417000       1.00800           0
     12916 W2       4306     TIP3     OH2      OT      -0.834000       15.9994           0
     12917 W2       4306     TIP3     H1       HT       0.417000       1.00800           0
     12918 W2       4306     TIP3     H2       HT       0.417000       1.00800           0
     12919 W2       4307     TIP3     OH2      OT      -0.834000       15.9994           0
     12920 W2       4307     TIP3     H1       HT       0.417000       1.00800           0
     12921 W2       4307     TIP3     H2       HT       0.417000       1.00800           0
     12922 W2       4308     TIP3     OH2      OT      -0.834000       15.9994           0
     12923 W2       4308     TIP3     H1       HT       0.417000       1.00800           0
     12924 W2       4308     TIP3     H2       HT       0.417000       1.00800           0
     12925 W2       4309     TIP3     OH2      OT      -0.834000       15.9994           0
     12926 W2       4309     TIP3     H1       HT       0.417000       1.00800           0
     12927 W2       4309     TIP3     H2       HT       0.417000       1.00800           0
     12928 W2       4310     TIP3     OH2      OT      -0.834000       15.9994           0
     12929 W2       4310     TIP3     H1       HT       0.417000       1.00800           0
     12930 W2       4310     TIP3     H2       HT       0.417000       1.00800           0
     12931 W2       4311     TIP3     OH2      OT      -0.834000       15.9994           0
     12932 W2       4311     TIP3     H1       HT       0.417000       1.00800           0
     12933 W2       4311     TIP3     H2       HT       0.417000       1.00800           0
     12934 W2       4312     TIP3     OH2      OT      -0.834000       15.9994           0
     12935 W2       4312     TIP3     H1       HT       0.417000       1.00800           0
     12936 W2       4312     TIP3     H2       HT       0.417000       1.00800           0
     12937 W2       4313     TIP3     OH2      OT      -0.834000       15.9994           0
     12938 W2       4313     TIP3     H1       HT       0.417000       1.00800           0
     12939 W2       4313     TIP3     H2       HT       0.417000       1.00800           0
     12940 W2       4314     TIP3     OH2      OT      -0.834000       15.9994           0
     12941 W2       4314     TIP3     H1       HT       0.417000       1.00800           0
     12942 W2       4314     TIP3     H2       HT       0.417000       1.00800           0
     12943 W2       4315     TIP3     OH2      OT      -0.834000       15.9994           0
     12944 W2       4315     TIP3     H1       HT       0.417000       1.00800           0
     12945 W2       4315     TIP3     H2       HT       0.417000       1.00800           0
     12946 W2       4316     TIP3     OH2      OT      -0.834000       15.9994           0
     12947 W2       4316     TIP3     H1       HT       0.417000       1.00800           0
     12948 W2       4316     TIP3     H2       HT       0.417000       1.00800           0
     12949 W2       4317     TIP3     OH2      OT      -0.834000       15.9994           0
     12950 W2       4317     TIP3     H1       HT       0.417000       1.00800           0
     12951 W2       4317     TIP3     H2       HT       0.417000       1.00800           0
     12952 W2       4318     TIP3     OH2      OT      -0.834000       15.9994           0
     12953 W2       4318     TIP3     H1       HT       0.417000       1.00800           0
     12954 W2       4318     TIP3     H2       HT       0.417000       1.00800           0
     12955 W2       4319     TIP3     OH2      OT      -0.834000       15.9994           0
     12956 W2       4319     TIP3     H1       HT       0.417000       1.00800           0
     12957 W2       4319     TIP3     H2       HT       0.417000       1.00800           0
     12958 W2       4320     TIP3     OH2      OT      -0.834000       15.9994           0
     12959 W2       4320     TIP3     H1       HT       0.417000       1.00800           0
     12960 W2       4320     TIP3     H2       HT       0.417000       1.00800           0
     12961 W2       4321     TIP3     OH2      OT      -0.834000       15.9994           0
     12962 W2       4321     TIP3     H1       HT       0.417000       1.00800           0
     12963 W2       4321     TIP3     H2       HT       0.417000       1.00800           0
     12964 W2       4322     TIP3     OH2      OT      -0.834000       15.9994           0
     12965 W2       4322     TIP3     H1       HT       0.417000       1.00800           0
     12966 W2       4322     TIP3     H2       HT       0.417000       1.00800           0
     12967 W2       4323     TIP3     OH2      OT      -0.834000       15.9994           0
     12968 W2       4323     TIP3     H1       HT       0.417000       1.00800           0
     12969 W2       4323     TIP3     H2       HT       0.417000       1.00800           0
     12970 W2       4324     TIP3     OH2      OT      -0.834000       15.9994           0
     12971 W2       4324     TIP3     H1       HT       0.417000       1.00800           0
     12972 W2       4324     TIP3     H2       HT       0.417000       1.00800           0
     12973 W2       4325     TIP3     OH2      OT      -0.834000       15.9994           0
     12974 W2       4325     TIP3     H1       HT       0.417000       1.00800           0
     12975 W2       4325     TIP3     H2       HT       0.417000       1.00800           0
     12976 W2       4326     TIP3     OH2      OT      -0.834000       15.9994           0
     12977 W2       4326     TIP3     H1       HT       0.417000       1.00800           0
     12978 W2       4326     TIP3     H2       HT       0.417000       1.00800           0
     12979 W2       4327     TIP3     OH2      OT      -0.834000       15.9994           0
     12980 W2       4327     TIP3     H1       HT       0.417000       1.00800           0
     12981 W2       4327     TIP3     H2       HT       0.417000       1.00800           0
     12982 W2       4328     TIP3     OH2      OT      -0.834000       15.9994           0
     12983 W2       4328     TIP3     H1       HT       0.417000       1.00800           0
     12984 W2       4328     TIP3     H2       HT       0.417000       1.00800           0
     12985 W2       4329     TIP3     OH2      OT      -0.834000       15.9994           0
     12986 W2       4329     TIP3     H1       HT       0.417000       1.00800           0
     12987 W2       4329     TIP3     H2       HT       0.417000       1.00800           0
     12988 W2       4330     TIP3     OH2      OT      -0.834000       15.9994           0
     12989 W2       4330     TIP3     H1       HT       0.417000       1.00800           0
     12990 W2       4330     TIP3     H2       HT       0.417000       1.00800           0
     12991 W2       4331     TIP3     OH2      OT      -0.834000       15.9994           0
     12992 W2       4331     TIP3     H1       HT       0.417000       1.00800           0
     12993 W2       4331     TIP3     H2       HT       0.417000       1.00800           0
     12994 W2       4332     TIP3     OH2      OT      -0.834000       15.9994           0
     12995 W2       4332     TIP3     H1       HT       0.417000       1.00800           0
     12996 W2       4332     TIP3     H2       HT       0.417000       1.00800           0
     12997 W2       4333     TIP3     OH2      OT      -0.834000       15.9994           0
     12998 W2       4333     TIP3     H1       HT       0.417000       1.00800           0
     12999 W2       4333     TIP3     H2       HT       0.417000       1.00800           0
     13000 W2       4334     TIP3     OH2      OT      -0.834000       15.9994           0
     13001 W2       4334     TIP3     H1       HT       0.417000       1.00800           0
     13002 W2       4334     TIP3     H2       HT       0.417000       1.00800           0
     13003 W2       4335     TIP3     OH2      OT      -0.834000       15.9994           0
     13004 W2       4335     TIP3     H1       HT       0.417000       1.00800           0
     13005 W2       4335     TIP3     H2       HT       0.417000       1.00800           0
     13006 W2       4336     TIP3     OH2      OT      -0.834000       15.9994           0
     13007 W2       4336     TIP3     H1       HT       0.417000       1.00800           0
     13008 W2       4336     TIP3     H2       HT       0.417000       1.00800           0
     13009 W2       4337     TIP3     OH2      OT      -0.834000       15.9994           0
     13010 W2       4337     TIP3     H1       HT       0.417000       1.00800           0
     13011 W2       4337     TIP3     H2       HT       0.417000       1.00800           0
     13012 W2       4338     TIP3     OH2      OT      -0.834000       15.9994           0
     13013 W2       4338     TIP3     H1       HT       0.417000       1.00800           0
     13014 W2       4338     TIP3     H2       HT       0.417000       1.00800           0
     13015 W2       4339     TIP3     OH2      OT      -0.834000       15.9994           0
     13016 W2       4339     TIP3     H1       HT       0.417000       1.00800           0
     13017 W2       4339     TIP3     H2       HT       0.417000       1.00800           0
     13018 W2       4340     TIP3     OH2      OT      -0.834000       15.9994           0
     13019 W2       4340     TIP3     H1       HT       0.417000       1.00800           0
     13020 W2       4340     TIP3     H2       HT       0.417000       1.00800           0
     13021 W2       4341     TIP3     OH2      OT      -0.834000       15.9994           0
     13022 W2       4341     TIP3     H1       HT       0.417000       1.00800           0
     13023 W2       4341     TIP3     H2       HT       0.417000       1.00800           0
     13024 W2       4342     TIP3     OH2      OT      -0.834000       15.9994           0
     13025 W2       4342     TIP3     H1       HT       0.417000       1.00800           0
     13026 W2       4342     TIP3     H2       HT       0.417000       1.00800           0
     13027 W2       4343     TIP3     OH2      OT      -0.834000       15.9994           0
     13028 W2       4343     TIP3     H1       HT       0.417000       1.00800           0
     13029 W2       4343     TIP3     H2       HT       0.417000       1.00800           0
     13030 W2       4344     TIP3     OH2      OT      -0.834000       15.9994           0
     13031 W2       4344     TIP3     H1       HT       0.417000       1.00800           0
     13032 W2       4344     TIP3     H2       HT       0.417000       1.00800           0
     13033 W2       4345     TIP3     OH2      OT      -0.834000       15.9994           0
     13034 W2       4345     TIP3     H1       HT       0.417000       1.00800           0
     13035 W2       4345     TIP3     H2       HT       0.417000       1.00800           0
     13036 W2       4346     TIP3     OH2      OT      -0.834000       15.9994           0
     13037 W2       4346     TIP3     H1       HT       0.417000       1.00800           0
     13038 W2       4346     TIP3     H2       HT       0.417000       1.00800           0
     13039 W2       4347     TIP3     OH2      OT      -0.834000       15.9994           0
     13040 W2       4347     TIP3     H1       HT       0.417000       1.00800           0
     13041 W2       4347     TIP3     H2       HT       0.417000       1.00800           0
     13042 W2       4348     TIP3     OH2      OT      -0.834000       15.9994           0
     13043 W2       4348     TIP3     H1       HT       0.417000       1.00800           0
     13044 W2       4348     TIP3     H2       HT       0.417000       1.00800           0
     13045 W2       4349     TIP3     OH2      OT      -0.834000       15.9994           0
     13046 W2       4349     TIP3     H1       HT       0.417000       1.00800           0
     13047 W2       4349     TIP3     H2       HT       0.417000       1.00800           0
     13048 W2       4350     TIP3     OH2      OT      -0.834000       15.9994           0
     13049 W2       4350     TIP3     H1       HT       0.417000       1.00800           0
     13050 W2       4350     TIP3     H2       HT       0.417000       1.00800           0
     13051 W2       4351     TIP3     OH2      OT      -0.834000       15.9994           0
     13052 W2       4351     TIP3     H1       HT       0.417000       1.00800           0
     13053 W2       4351     TIP3     H2       HT       0.417000       1.00800           0
     13054 W2       4352     TIP3     OH2      OT      -0.834000       15.9994           0
     13055 W2       4352     TIP3     H1       HT       0.417000       1.00800           0
     13056 W2       4352     TIP3     H2       HT       0.417000       1.00800           0
     13057 W2       4353     TIP3     OH2      OT      -0.834000       15.9994           0
     13058 W2       4353     TIP3     H1       HT       0.417000       1.00800           0
     13059 W2       4353     TIP3     H2       HT       0.417000       1.00800           0
     13060 W2       4354     TIP3     OH2      OT      -0.834000       15.9994           0
     13061 W2       4354     TIP3     H1       HT       0.417000       1.00800           0
     13062 W2       4354     TIP3     H2       HT       0.417000       1.00800           0
     13063 W2       4355     TIP3     OH2      OT      -0.834000       15.9994           0
     13064 W2       4355     TIP3     H1       HT       0.417000       1.00800           0
     13065 W2       4355     TIP3     H2       HT       0.417000       1.00800           0
     13066 W2       4356     TIP3     OH2      OT      -0.834000       15.9994           0
     13067 W2       4356     TIP3     H1       HT       0.417000       1.00800           0
     13068 W2       4356     TIP3     H2       HT       0.417000       1.00800           0
     13069 W2       4357     TIP3     OH2      OT      -0.834000       15.9994           0
     13070 W2       4357     TIP3     H1       HT       0.417000       1.00800           0
     13071 W2       4357     TIP3     H2       HT       0.417000       1.00800           0
     13072 W2       4358     TIP3     OH2      OT      -0.834000       15.9994           0
     13073 W2       4358     TIP3     H1       HT       0.417000       1.00800           0
     13074 W2       4358     TIP3     H2       HT       0.417000       1.00800           0
     13075 W2       4359     TIP3     OH2      OT      -0.834000       15.9994           0
     13076 W2       4359     TIP3     H1       HT       0.417000       1.00800           0
     13077 W2       4359     TIP3     H2       HT       0.417000       1.00800           0
     13078 W2       4360     TIP3     OH2      OT      -0.834000       15.9994           0
     13079 W2       4360     TIP3     H1       HT       0.417000       1.00800           0
     13080 W2       4360     TIP3     H2       HT       0.417000       1.00800           0
     13081 W2       4361     TIP3     OH2      OT      -0.834000       15.9994           0
     13082 W2       4361     TIP3     H1       HT       0.417000       1.00800           0
     13083 W2       4361     TIP3     H2       HT       0.417000       1.00800           0
     13084 W2       4362     TIP3     OH2      OT      -0.834000       15.9994           0
     13085 W2       4362     TIP3     H1       HT       0.417000       1.00800           0
     13086 W2       4362     TIP3     H2       HT       0.417000       1.00800           0
     13087 W2       4363     TIP3     OH2      OT      -0.834000       15.9994           0
     13088 W2       4363     TIP3     H1       HT       0.417000       1.00800           0
     13089 W2       4363     TIP3     H2       HT       0.417000       1.00800           0
     13090 W2       4364     TIP3     OH2      OT      -0.834000       15.9994           0
     13091 W2       4364     TIP3     H1       HT       0.417000       1.00800           0
     13092 W2       4364     TIP3     H2       HT       0.417000       1.00800           0
     13093 W2       4365     TIP3     OH2      OT      -0.834000       15.9994           0
     13094 W2       4365     TIP3     H1       HT       0.417000       1.00800           0
     13095 W2       4365     TIP3     H2       HT       0.417000       1.00800           0
     13096 W2       4366     TIP3     OH2      OT      -0.834000       15.9994           0
     13097 W2       4366     TIP3     H1       HT       0.417000       1.00800           0
     13098 W2       4366     TIP3     H2       HT       0.417000       1.00800           0
     13099 W2       4367     TIP3     OH2      OT      -0.834000       15.9994           0
     13100 W2       4367     TIP3     H1       HT       0.417000       1.00800           0
     13101 W2       4367     TIP3     H2       HT       0.417000       1.00800           0
     13102 W2       4368     TIP3     OH2      OT      -0.834000       15.9994           0
     13103 W2       4368     TIP3     H1       HT       0.417000       1.00800           0
     13104 W2       4368     TIP3     H2       HT       0.417000       1.00800           0
     13105 W2       4369     TIP3     OH2      OT      -0.834000       15.9994           0
     13106 W2       4369     TIP3     H1       HT       0.417000       1.00800           0
     13107 W2       4369     TIP3     H2       HT       0.417000       1.00800           0
     13108 W2       4370     TIP3     OH2      OT      -0.834000       15.9994           0
     13109 W2       4370     TIP3     H1       HT       0.417000       1.00800           0
     13110 W2       4370     TIP3     H2       HT       0.417000       1.00800           0
     13111 W2       4371     TIP3     OH2      OT      -0.834000       15.9994           0
     13112 W2       4371     TIP3     H1       HT       0.417000       1.00800           0
     13113 W2       4371     TIP3     H2       HT       0.417000       1.00800           0
     13114 W2       4372     TIP3     OH2      OT      -0.834000       15.9994           0
     13115 W2       4372     TIP3     H1       HT       0.417000       1.00800           0
     13116 W2       4372     TIP3     H2       HT       0.417000       1.00800           0
     13117 W2       4373     TIP3     OH2      OT      -0.834000       15.9994           0
     13118 W2       4373     TIP3     H1       HT       0.417000       1.00800           0
     13119 W2       4373     TIP3     H2       HT       0.417000       1.00800           0
     13120 W2       4374     TIP3     OH2      OT      -0.834000       15.9994           0
     13121 W2       4374     TIP3     H1       HT       0.417000       1.00800           0
     13122 W2       4374     TIP3     H2       HT       0.417000       1.00800           0
     13123 W2       4375     TIP3     OH2      OT      -0.834000       15.9994           0
     13124 W2       4375     TIP3     H1       HT       0.417000       1.00800           0
     13125 W2       4375     TIP3     H2       HT       0.417000       1.00800           0
     13126 W2       4376     TIP3     OH2      OT      -0.834000       15.9994           0
     13127 W2       4376     TIP3     H1       HT       0.417000       1.00800           0
     13128 W2       4376     TIP3     H2       HT       0.417000       1.00800           0
     13129 W2       4377     TIP3     OH2      OT      -0.834000       15.9994           0
     13130 W2       4377     TIP3     H1       HT       0.417000       1.00800           0
     13131 W2       4377     TIP3     H2       HT       0.417000       1.00800           0
     13132 W2       4378     TIP3     OH2      OT      -0.834000       15.9994           0
     13133 W2       4378     TIP3     H1       HT       0.417000       1.00800           0
     13134 W2       4378     TIP3     H2       HT       0.417000       1.00800           0
     13135 W2       4379     TIP3     OH2      OT      -0.834000       15.9994           0
     13136 W2       4379     TIP3     H1       HT       0.417000       1.00800           0
     13137 W2       4379     TIP3     H2       HT       0.417000       1.00800           0
     13138 W2       4380     TIP3     OH2      OT      -0.834000       15.9994           0
     13139 W2       4380     TIP3     H1       HT       0.417000       1.00800           0
     13140 W2       4380     TIP3     H2       HT       0.417000       1.00800           0
     13141 W2       4381     TIP3     OH2      OT      -0.834000       15.9994           0
     13142 W2       4381     TIP3     H1       HT       0.417000       1.00800           0
     13143 W2       4381     TIP3     H2       HT       0.417000       1.00800           0
     13144 W2       4382     TIP3     OH2      OT      -0.834000       15.9994           0
     13145 W2       4382     TIP3     H1       HT       0.417000       1.00800           0
     13146 W2       4382     TIP3     H2       HT       0.417000       1.00800           0
     13147 W2       4383     TIP3     OH2      OT      -0.834000       15.9994           0
     13148 W2       4383     TIP3     H1       HT       0.417000       1.00800           0
     13149 W2       4383     TIP3     H2       HT       0.417000       1.00800           0
     13150 W2       4384     TIP3     OH2      OT      -0.834000       15.9994           0
     13151 W2       4384     TIP3     H1       HT       0.417000       1.00800           0
     13152 W2       4384     TIP3     H2       HT       0.417000       1.00800           0
     13153 W2       4385     TIP3     OH2      OT      -0.834000       15.9994           0
     13154 W2       4385     TIP3     H1       HT       0.417000       1.00800           0
     13155 W2       4385     TIP3     H2       HT       0.417000       1.00800           0
     13156 W2       4386     TIP3     OH2      OT      -0.834000       15.9994           0
     13157 W2       4386     TIP3     H1       HT       0.417000       1.00800           0
     13158 W2       4386     TIP3     H2       HT       0.417000       1.00800           0
     13159 W2       4387     TIP3     OH2      OT      -0.834000       15.9994           0
     13160 W2       4387     TIP3     H1       HT       0.417000       1.00800           0
     13161 W2       4387     TIP3     H2       HT       0.417000       1.00800           0
     13162 W2       4388     TIP3     OH2      OT      -0.834000       15.9994           0
     13163 W2       4388     TIP3     H1       HT       0.417000       1.00800           0
     13164 W2       4388     TIP3     H2       HT       0.417000       1.00800           0
     13165 W2       4389     TIP3     OH2      OT      -0.834000       15.9994           0
     13166 W2       4389     TIP3     H1       HT       0.417000       1.00800           0
     13167 W2       4389     TIP3     H2       HT       0.417000       1.00800           0
     13168 W2       4390     TIP3     OH2      OT      -0.834000       15.9994           0
     13169 W2       4390     TIP3     H1       HT       0.417000       1.00800           0
     13170 W2       4390     TIP3     H2       HT       0.417000       1.00800           0
     13171 W2       4391     TIP3     OH2      OT      -0.834000       15.9994           0
     13172 W2       4391     TIP3     H1       HT       0.417000       1.00800           0
     13173 W2       4391     TIP3     H2       HT       0.417000       1.00800           0
     13174 W2       4392     TIP3     OH2      OT      -0.834000       15.9994           0
     13175 W2       4392     TIP3     H1       HT       0.417000       1.00800           0
     13176 W2       4392     TIP3     H2       HT       0.417000       1.00800           0
     13177 W2       4393     TIP3     OH2      OT      -0.834000       15.9994           0
     13178 W2       4393     TIP3     H1       HT       0.417000       1.00800           0
     13179 W2       4393     TIP3     H2       HT       0.417000       1.00800           0
     13180 W2       4394     TIP3     OH2      OT      -0.834000       15.9994           0
     13181 W2       4394     TIP3     H1       HT       0.417000       1.00800           0
     13182 W2       4394     TIP3     H2       HT       0.417000       1.00800           0
     13183 W2       4395     TIP3     OH2      OT      -0.834000       15.9994           0
     13184 W2       4395     TIP3     H1       HT       0.417000       1.00800           0
     13185 W2       4395     TIP3     H2       HT       0.417000       1.00800           0
     13186 W2       4396     TIP3     OH2      OT      -0.834000       15.9994           0
     13187 W2       4396     TIP3     H1       HT       0.417000       1.00800           0
     13188 W2       4396     TIP3     H2       HT       0.417000       1.00800           0
     13189 W2       4397     TIP3     OH2      OT      -0.834000       15.9994           0
     13190 W2       4397     TIP3     H1       HT       0.417000       1.00800           0
     13191 W2       4397     TIP3     H2       HT       0.417000       1.00800           0
     13192 W2       4398     TIP3     OH2      OT      -0.834000       15.9994           0
     13193 W2       4398     TIP3     H1       HT       0.417000       1.00800           0
     13194 W2       4398     TIP3     H2       HT       0.417000       1.00800           0
     13195 W2       4399     TIP3     OH2      OT      -0.834000       15.9994           0
     13196 W2       4399     TIP3     H1       HT       0.417000       1.00800           0
     13197 W2       4399     TIP3     H2       HT       0.417000       1.00800           0
     13198 W2       4400     TIP3     OH2      OT      -0.834000       15.9994           0
     13199 W2       4400     TIP3     H1       HT       0.417000       1.00800           0
     13200 W2       4400     TIP3     H2       HT       0.417000       1.00800           0
     13201 W2       4401     TIP3     OH2      OT      -0.834000       15.9994           0
     13202 W2       4401     TIP3     H1       HT       0.417000       1.00800           0
     13203 W2       4401     TIP3     H2       HT       0.417000       1.00800           0
     13204 W2       4402     TIP3     OH2      OT      -0.834000       15.9994           0
     13205 W2       4402     TIP3     H1       HT       0.417000       1.00800           0
     13206 W2       4402     TIP3     H2       HT       0.417000       1.00800           0
     13207 W2       4403     TIP3     OH2      OT      -0.834000       15.9994           0
     13208 W2       4403     TIP3     H1       HT       0.417000       1.00800           0
     13209 W2       4403     TIP3     H2       HT       0.417000       1.00800           0
     13210 W2       4404     TIP3     OH2      OT      -0.834000       15.9994           0
     13211 W2       4404     TIP3     H1       HT       0.417000       1.00800           0
     13212 W2       4404     TIP3     H2       HT       0.417000       1.00800           0
     13213 W2       4405     TIP3     OH2      OT      -0.834000       15.9994           0
     13214 W2       4405     TIP3     H1       HT       0.417000       1.00800           0
     13215 W2       4405     TIP3     H2       HT       0.417000       1.00800           0
     13216 W2       4406     TIP3     OH2      OT      -0.834000       15.9994           0
     13217 W2       4406     TIP3     H1       HT       0.417000       1.00800           0
     13218 W2       4406     TIP3     H2       HT       0.417000       1.00800           0
     13219 W2       4407     TIP3     OH2      OT      -0.834000       15.9994           0
     13220 W2       4407     TIP3     H1       HT       0.417000       1.00800           0
     13221 W2       4407     TIP3     H2       HT       0.417000       1.00800           0
     13222 W2       4408     TIP3     OH2      OT      -0.834000       15.9994           0
     13223 W2       4408     TIP3     H1       HT       0.417000       1.00800           0
     13224 W2       4408     TIP3     H2       HT       0.417000       1.00800           0
     13225 W2       4409     TIP3     OH2      OT      -0.834000       15.9994           0
     13226 W2       4409     TIP3     H1       HT       0.417000       1.00800           0
     13227 W2       4409     TIP3     H2       HT       0.417000       1.00800           0
     13228 W2       4410     TIP3     OH2      OT      -0.834000       15.9994           0
     13229 W2       4410     TIP3     H1       HT       0.417000       1.00800           0
     13230 W2       4410     TIP3     H2       HT       0.417000       1.00800           0
     13231 W2       4411     TIP3     OH2      OT      -0.834000       15.9994           0
     13232 W2       4411     TIP3     H1       HT       0.417000       1.00800           0
     13233 W2       4411     TIP3     H2       HT       0.417000       1.00800           0
     13234 W2       4412     TIP3     OH2      OT      -0.834000       15.9994           0
     13235 W2       4412     TIP3     H1       HT       0.417000       1.00800           0
     13236 W2       4412     TIP3     H2       HT       0.417000       1.00800           0
     13237 W2       4413     TIP3     OH2      OT      -0.834000       15.9994           0
     13238 W2       4413     TIP3     H1       HT       0.417000       1.00800           0
     13239 W2       4413     TIP3     H2       HT       0.417000       1.00800           0
     13240 W2       4414     TIP3     OH2      OT      -0.834000       15.9994           0
     13241 W2       4414     TIP3     H1       HT       0.417000       1.00800           0
     13242 W2       4414     TIP3     H2       HT       0.417000       1.00800           0
     13243 W2       4415     TIP3     OH2      OT      -0.834000       15.9994           0
     13244 W2       4415     TIP3     H1       HT       0.417000       1.00800           0
     13245 W2       4415     TIP3     H2       HT       0.417000       1.00800           0
     13246 W2       4416     TIP3     OH2      OT      -0.834000       15.9994           0
     13247 W2       4416     TIP3     H1       HT       0.417000       1.00800           0
     13248 W2       4416     TIP3     H2       HT       0.417000       1.00800           0
     13249 W2       4417     TIP3     OH2      OT      -0.834000       15.9994           0
     13250 W2       4417     TIP3     H1       HT       0.417000       1.00800           0
     13251 W2       4417     TIP3     H2       HT       0.417000       1.00800           0
     13252 W2       4418     TIP3     OH2      OT      -0.834000       15.9994           0
     13253 W2       4418     TIP3     H1       HT       0.417000       1.00800           0
     13254 W2       4418     TIP3     H2       HT       0.417000       1.00800           0
     13255 W2       4419     TIP3     OH2      OT      -0.834000       15.9994           0
     13256 W2       4419     TIP3     H1       HT       0.417000       1.00800           0
     13257 W2       4419     TIP3     H2       HT       0.417000       1.00800           0
     13258 W2       4420     TIP3     OH2      OT      -0.834000       15.9994           0
     13259 W2       4420     TIP3     H1       HT       0.417000       1.00800           0
     13260 W2       4420     TIP3     H2       HT       0.417000       1.00800           0
     13261 W2       4421     TIP3     OH2      OT      -0.834000       15.9994           0
     13262 W2       4421     TIP3     H1       HT       0.417000       1.00800           0
     13263 W2       4421     TIP3     H2       HT       0.417000       1.00800           0
     13264 W2       4422     TIP3     OH2      OT      -0.834000       15.9994           0
     13265 W2       4422     TIP3     H1       HT       0.417000       1.00800           0
     13266 W2       4422     TIP3     H2       HT       0.417000       1.00800           0
     13267 W2       4423     TIP3     OH2      OT      -0.834000       15.9994           0
     13268 W2       4423     TIP3     H1       HT       0.417000       1.00800           0
     13269 W2       4423     TIP3     H2       HT       0.417000       1.00800           0
     13270 W2       4424     TIP3     OH2      OT      -0.834000       15.9994           0
     13271 W2       4424     TIP3     H1       HT       0.417000       1.00800           0
     13272 W2       4424     TIP3     H2       HT       0.417000       1.00800           0
     13273 W2       4425     TIP3     OH2      OT      -0.834000       15.9994           0
     13274 W2       4425     TIP3     H1       HT       0.417000       1.00800           0
     13275 W2       4425     TIP3     H2       HT       0.417000       1.00800           0
     13276 W2       4426     TIP3     OH2      OT      -0.834000       15.9994           0
     13277 W2       4426     TIP3     H1       HT       0.417000       1.00800           0
     13278 W2       4426     TIP3     H2       HT       0.417000       1.00800           0
     13279 W2       4427     TIP3     OH2      OT      -0.834000       15.9994           0
     13280 W2       4427     TIP3     H1       HT       0.417000       1.00800           0
     13281 W2       4427     TIP3     H2       HT       0.417000       1.00800           0
     13282 W2       4428     TIP3     OH2      OT      -0.834000       15.9994           0
     13283 W2       4428     TIP3     H1       HT       0.417000       1.00800           0
     13284 W2       4428     TIP3     H2       HT       0.417000       1.00800           0
     13285 W2       4429     TIP3     OH2      OT      -0.834000       15.9994           0
     13286 W2       4429     TIP3     H1       HT       0.417000       1.00800           0
     13287 W2       4429     TIP3     H2       HT       0.417000       1.00800           0
     13288 W2       4430     TIP3     OH2      OT      -0.834000       15.9994           0
     13289 W2       4430     TIP3     H1       HT       0.417000       1.00800           0
     13290 W2       4430     TIP3     H2       HT       0.417000       1.00800           0
     13291 W2       4431     TIP3     OH2      OT      -0.834000       15.9994           0
     13292 W2       4431     TIP3     H1       HT       0.417000       1.00800           0
     13293 W2       4431     TIP3     H2       HT       0.417000       1.00800           0
     13294 W2       4432     TIP3     OH2      OT      -0.834000       15.9994           0
     13295 W2       4432     TIP3     H1       HT       0.417000       1.00800           0
     13296 W2       4432     TIP3     H2       HT       0.417000       1.00800           0
     13297 W2       4433     TIP3     OH2      OT      -0.834000       15.9994           0
     13298 W2       4433     TIP3     H1       HT       0.417000       1.00800           0
     13299 W2       4433     TIP3     H2       HT       0.417000       1.00800           0
     13300 W2       4434     TIP3     OH2      OT      -0.834000       15.9994           0
     13301 W2       4434     TIP3     H1       HT       0.417000       1.00800           0
     13302 W2       4434     TIP3     H2       HT       0.417000       1.00800           0
     13303 W2       4435     TIP3     OH2      OT      -0.834000       15.9994           0
     13304 W2       4435     TIP3     H1       HT       0.417000       1.00800           0
     13305 W2       4435     TIP3     H2       HT       0.417000       1.00800           0
     13306 W2       4436     TIP3     OH2      OT      -0.834000       15.9994           0
     13307 W2       4436     TIP3     H1       HT       0.417000       1.00800           0
     13308 W2       4436     TIP3     H2       HT       0.417000       1.00800           0
     13309 W2       4437     TIP3     OH2      OT      -0.834000       15.9994           0
     13310 W2       4437     TIP3     H1       HT       0.417000       1.00800           0
     13311 W2       4437     TIP3     H2       HT       0.417000       1.00800           0
     13312 W2       4438     TIP3     OH2      OT      -0.834000       15.9994           0
     13313 W2       4438     TIP3     H1       HT       0.417000       1.00800           0
     13314 W2       4438     TIP3     H2       HT       0.417000       1.00800           0
     13315 W2       4439     TIP3     OH2      OT      -0.834000       15.9994           0
     13316 W2       4439     TIP3     H1       HT       0.417000       1.00800           0
     13317 W2       4439     TIP3     H2       HT       0.417000       1.00800           0
     13318 W2       4440     TIP3     OH2      OT      -0.834000       15.9994           0
     13319 W2       4440     TIP3     H1       HT       0.417000       1.00800           0
     13320 W2       4440     TIP3     H2       HT       0.417000       1.00800           0
     13321 W2       4441     TIP3     OH2      OT      -0.834000       15.9994           0
     13322 W2       4441     TIP3     H1       HT       0.417000       1.00800           0
     13323 W2       4441     TIP3     H2       HT       0.417000       1.00800           0
     13324 W2       4442     TIP3     OH2      OT      -0.834000       15.9994           0
     13325 W2       4442     TIP3     H1       HT       0.417000       1.00800           0
     13326 W2       4442     TIP3     H2       HT       0.417000       1.00800           0
     13327 W2       4443     TIP3     OH2      OT      -0.834000       15.9994           0
     13328 W2       4443     TIP3     H1       HT       0.417000       1.00800           0
     13329 W2       4443     TIP3     H2       HT       0.417000       1.00800           0
     13330 W2       4444     TIP3     OH2      OT      -0.834000       15.9994           0
     13331 W2       4444     TIP3     H1       HT       0.417000       1.00800           0
     13332 W2       4444     TIP3     H2       HT       0.417000       1.00800           0
     13333 W2       4445     TIP3     OH2      OT      -0.834000       15.9994           0
     13334 W2       4445     TIP3     H1       HT       0.417000       1.00800           0
     13335 W2       4445     TIP3     H2       HT       0.417000       1.00800           0
     13336 W2       4446     TIP3     OH2      OT      -0.834000       15.9994           0
     13337 W2       4446     TIP3     H1       HT       0.417000       1.00800           0
     13338 W2       4446     TIP3     H2       HT       0.417000       1.00800           0
     13339 W2       4447     TIP3     OH2      OT      -0.834000       15.9994           0
     13340 W2       4447     TIP3     H1       HT       0.417000       1.00800           0
     13341 W2       4447     TIP3     H2       HT       0.417000       1.00800           0
     13342 W2       4448     TIP3     OH2      OT      -0.834000       15.9994           0
     13343 W2       4448     TIP3     H1       HT       0.417000       1.00800           0
     13344 W2       4448     TIP3     H2       HT       0.417000       1.00800           0
     13345 W2       4449     TIP3     OH2      OT      -0.834000       15.9994           0
     13346 W2       4449     TIP3     H1       HT       0.417000       1.00800           0
     13347 W2       4449     TIP3     H2       HT       0.417000       1.00800           0
     13348 W2       4450     TIP3     OH2      OT      -0.834000       15.9994           0
     13349 W2       4450     TIP3     H1       HT       0.417000       1.00800           0
     13350 W2       4450     TIP3     H2       HT       0.417000       1.00800           0
     13351 W2       4451     TIP3     OH2      OT      -0.834000       15.9994           0
     13352 W2       4451     TIP3     H1       HT       0.417000       1.00800           0
     13353 W2       4451     TIP3     H2       HT       0.417000       1.00800           0
     13354 W2       4452     TIP3     OH2      OT      -0.834000       15.9994           0
     13355 W2       4452     TIP3     H1       HT       0.417000       1.00800           0
     13356 W2       4452     TIP3     H2       HT       0.417000       1.00800           0
     13357 W2       4453     TIP3     OH2      OT      -0.834000       15.9994           0
     13358 W2       4453     TIP3     H1       HT       0.417000       1.00800           0
     13359 W2       4453     TIP3     H2       HT       0.417000       1.00800           0
     13360 W2       4454     TIP3     OH2      OT      -0.834000       15.9994           0
     13361 W2       4454     TIP3     H1       HT       0.417000       1.00800           0
     13362 W2       4454     TIP3     H2       HT       0.417000       1.00800           0
     13363 W2       4455     TIP3     OH2      OT      -0.834000       15.9994           0
     13364 W2       4455     TIP3     H1       HT       0.417000       1.00800           0
     13365 W2       4455     TIP3     H2       HT       0.417000       1.00800           0
     13366 W2       4456     TIP3     OH2      OT      -0.834000       15.9994           0
     13367 W2       4456     TIP3     H1       HT       0.417000       1.00800           0
     13368 W2       4456     TIP3     H2       HT       0.417000       1.00800           0
     13369 W2       4457     TIP3     OH2      OT      -0.834000       15.9994           0
     13370 W2       4457     TIP3     H1       HT       0.417000       1.00800           0
     13371 W2       4457     TIP3     H2       HT       0.417000       1.00800           0
     13372 W2       4458     TIP3     OH2      OT      -0.834000       15.9994           0
     13373 W2       4458     TIP3     H1       HT       0.417000       1.00800           0
     13374 W2       4458     TIP3     H2       HT       0.417000       1.00800           0
     13375 W2       4459     TIP3     OH2      OT      -0.834000       15.9994           0
     13376 W2       4459     TIP3     H1       HT       0.417000       1.00800           0
     13377 W2       4459     TIP3     H2       HT       0.417000       1.00800           0
     13378 W2       4460     TIP3     OH2      OT      -0.834000       15.9994           0
     13379 W2       4460     TIP3     H1       HT       0.417000       1.00800           0
     13380 W2       4460     TIP3     H2       HT       0.417000       1.00800           0
     13381 W2       4461     TIP3     OH2      OT      -0.834000       15.9994           0
     13382 W2       4461     TIP3     H1       HT       0.417000       1.00800           0
     13383 W2       4461     TIP3     H2       HT       0.417000       1.00800           0
     13384 W2       4462     TIP3     OH2      OT      -0.834000       15.9994           0
     13385 W2       4462     TIP3     H1       HT       0.417000       1.00800           0
     13386 W2       4462     TIP3     H2       HT       0.417000       1.00800           0
     13387 W2       4463     TIP3     OH2      OT      -0.834000       15.9994           0
     13388 W2       4463     TIP3     H1       HT       0.417000       1.00800           0
     13389 W2       4463     TIP3     H2       HT       0.417000       1.00800           0
     13390 W2       4464     TIP3     OH2      OT      -0.834000       15.9994           0
     13391 W2       4464     TIP3     H1       HT       0.417000       1.00800           0
     13392 W2       4464     TIP3     H2       HT       0.417000       1.00800           0
     13393 W2       4465     TIP3     OH2      OT      -0.834000       15.9994           0
     13394 W2       4465     TIP3     H1       HT       0.417000       1.00800           0
     13395 W2       4465     TIP3     H2       HT       0.417000       1.00800           0
     13396 W2       4466     TIP3     OH2      OT      -0.834000       15.9994           0
     13397 W2       4466     TIP3     H1       HT       0.417000       1.00800           0
     13398 W2       4466     TIP3     H2       HT       0.417000       1.00800           0
     13399 W2       4467     TIP3     OH2      OT      -0.834000       15.9994           0
     13400 W2       4467     TIP3     H1       HT       0.417000       1.00800           0
     13401 W2       4467     TIP3     H2       HT       0.417000       1.00800           0
     13402 W2       4468     TIP3     OH2      OT      -0.834000       15.9994           0
     13403 W2       4468     TIP3     H1       HT       0.417000       1.00800           0
     13404 W2       4468     TIP3     H2       HT       0.417000       1.00800           0
     13405 W2       4469     TIP3     OH2      OT      -0.834000       15.9994           0
     13406 W2       4469     TIP3     H1       HT       0.417000       1.00800           0
     13407 W2       4469     TIP3     H2       HT       0.417000       1.00800           0
     13408 W2       4470     TIP3     OH2      OT      -0.834000       15.9994           0
     13409 W2       4470     TIP3     H1       HT       0.417000       1.00800           0
     13410 W2       4470     TIP3     H2       HT       0.417000       1.00800           0
     13411 W2       4471     TIP3     OH2      OT      -0.834000       15.9994           0
     13412 W2       4471     TIP3     H1       HT       0.417000       1.00800           0
     13413 W2       4471     TIP3     H2       HT       0.417000       1.00800           0
     13414 W2       4472     TIP3     OH2      OT      -0.834000       15.9994           0
     13415 W2       4472     TIP3     H1       HT       0.417000       1.00800           0
     13416 W2       4472     TIP3     H2       HT       0.417000       1.00800           0
     13417 W2       4473     TIP3     OH2      OT      -0.834000       15.9994           0
     13418 W2       4473     TIP3     H1       HT       0.417000       1.00800           0
     13419 W2       4473     TIP3     H2       HT       0.417000       1.00800           0
     13420 W2       4474     TIP3     OH2      OT      -0.834000       15.9994           0
     13421 W2       4474     TIP3     H1       HT       0.417000       1.00800           0
     13422 W2       4474     TIP3     H2       HT       0.417000       1.00800           0
     13423 W2       4475     TIP3     OH2      OT      -0.834000       15.9994           0
     13424 W2       4475     TIP3     H1       HT       0.417000       1.00800           0
     13425 W2       4475     TIP3     H2       HT       0.417000       1.00800           0
     13426 W2       4476     TIP3     OH2      OT      -0.834000       15.9994           0
     13427 W2       4476     TIP3     H1       HT       0.417000       1.00800           0
     13428 W2       4476     TIP3     H2       HT       0.417000       1.00800           0
     13429 W2       4477     TIP3     OH2      OT      -0.834000       15.9994           0
     13430 W2       4477     TIP3     H1       HT       0.417000       1.00800           0
     13431 W2       4477     TIP3     H2       HT       0.417000       1.00800           0
     13432 W2       4478     TIP3     OH2      OT      -0.834000       15.9994           0
     13433 W2       4478     TIP3     H1       HT       0.417000       1.00800           0
     13434 W2       4478     TIP3     H2       HT       0.417000       1.00800           0
     13435 W2       4479     TIP3     OH2      OT      -0.834000       15.9994           0
     13436 W2       4479     TIP3     H1       HT       0.417000       1.00800           0
     13437 W2       4479     TIP3     H2       HT       0.417000       1.00800           0
     13438 W2       4480     TIP3     OH2      OT      -0.834000       15.9994           0
     13439 W2       4480     TIP3     H1       HT       0.417000       1.00800           0
     13440 W2       4480     TIP3     H2       HT       0.417000       1.00800           0
     13441 W2       4481     TIP3     OH2      OT      -0.834000       15.9994           0
     13442 W2       4481     TIP3     H1       HT       0.417000       1.00800           0
     13443 W2       4481     TIP3     H2       HT       0.417000       1.00800           0
     13444 W2       4482     TIP3     OH2      OT      -0.834000       15.9994           0
     13445 W2       4482     TIP3     H1       HT       0.417000       1.00800           0
     13446 W2       4482     TIP3     H2       HT       0.417000       1.00800           0
     13447 W2       4483     TIP3     OH2      OT      -0.834000       15.9994           0
     13448 W2       4483     TIP3     H1       HT       0.417000       1.00800           0
     13449 W2       4483     TIP3     H2       HT       0.417000       1.00800           0
     13450 W2       4484     TIP3     OH2      OT      -0.834000       15.9994           0
     13451 W2       4484     TIP3     H1       HT       0.417000       1.00800           0
     13452 W2       4484     TIP3     H2       HT       0.417000       1.00800           0
     13453 W2       4485     TIP3     OH2      OT      -0.834000       15.9994           0
     13454 W2       4485     TIP3     H1       HT       0.417000       1.00800           0
     13455 W2       4485     TIP3     H2       HT       0.417000       1.00800           0
     13456 W2       4486     TIP3     OH2      OT      -0.834000       15.9994           0
     13457 W2       4486     TIP3     H1       HT       0.417000       1.00800           0
     13458 W2       4486     TIP3     H2       HT       0.417000       1.00800           0
     13459 W2       4487     TIP3     OH2      OT      -0.834000       15.9994           0
     13460 W2       4487     TIP3     H1       HT       0.417000       1.00800           0
     13461 W2       4487     TIP3     H2       HT       0.417000       1.00800           0
     13462 W2       4488     TIP3     OH2      OT      -0.834000       15.9994           0
     13463 W2       4488     TIP3     H1       HT       0.417000       1.00800           0
     13464 W2       4488     TIP3     H2       HT       0.417000       1.00800           0
     13465 W2       4489     TIP3     OH2      OT      -0.834000       15.9994           0
     13466 W2       4489     TIP3     H1       HT       0.417000       1.00800           0
     13467 W2       4489     TIP3     H2       HT       0.417000       1.00800           0
     13468 W2       4490     TIP3     OH2      OT      -0.834000       15.9994           0
     13469 W2       4490     TIP3     H1       HT       0.417000       1.00800           0
     13470 W2       4490     TIP3     H2       HT       0.417000       1.00800           0
     13471 W2       4491     TIP3     OH2      OT      -0.834000       15.9994           0
     13472 W2       4491     TIP3     H1       HT       0.417000       1.00800           0
     13473 W2       4491     TIP3     H2       HT       0.417000       1.00800           0
     13474 W2       4492     TIP3     OH2      OT      -0.834000       15.9994           0
     13475 W2       4492     TIP3     H1       HT       0.417000       1.00800           0
     13476 W2       4492     TIP3     H2       HT       0.417000       1.00800           0
     13477 W2       4493     TIP3     OH2      OT      -0.834000       15.9994           0
     13478 W2       4493     TIP3     H1       HT       0.417000       1.00800           0
     13479 W2       4493     TIP3     H2       HT       0.417000       1.00800           0
     13480 W2       4494     TIP3     OH2      OT      -0.834000       15.9994           0
     13481 W2       4494     TIP3     H1       HT       0.417000       1.00800           0
     13482 W2       4494     TIP3     H2       HT       0.417000       1.00800           0
     13483 W2       4495     TIP3     OH2      OT      -0.834000       15.9994           0
     13484 W2       4495     TIP3     H1       HT       0.417000       1.00800           0
     13485 W2       4495     TIP3     H2       HT       0.417000       1.00800           0
     13486 W2       4496     TIP3     OH2      OT      -0.834000       15.9994           0
     13487 W2       4496     TIP3     H1       HT       0.417000       1.00800           0
     13488 W2       4496     TIP3     H2       HT       0.417000       1.00800           0
     13489 W2       4497     TIP3     OH2      OT      -0.834000       15.9994           0
     13490 W2       4497     TIP3     H1       HT       0.417000       1.00800           0
     13491 W2       4497     TIP3     H2       HT       0.417000       1.00800           0
     13492 W2       4498     TIP3     OH2      OT      -0.834000       15.9994           0
     13493 W2       4498     TIP3     H1       HT       0.417000       1.00800           0
     13494 W2       4498     TIP3     H2       HT       0.417000       1.00800           0
     13495 W2       4499     TIP3     OH2      OT      -0.834000       15.9994           0
     13496 W2       4499     TIP3     H1       HT       0.417000       1.00800           0
     13497 W2       4499     TIP3     H2       HT       0.417000       1.00800           0
     13498 W2       4500     TIP3     OH2      OT      -0.834000       15.9994           0
     13499 W2       4500     TIP3     H1       HT       0.417000       1.00800           0
     13500 W2       4500     TIP3     H2       HT       0.417000       1.00800           0
     13501 W2       4501     TIP3     OH2      OT      -0.834000       15.9994           0
     13502 W2       4501     TIP3     H1       HT       0.417000       1.00800           0
     13503 W2       4501     TIP3     H2       HT       0.417000       1.00800           0
     13504 W2       4502     TIP3     OH2      OT      -0.834000       15.9994           0
     13505 W2       4502     TIP3     H1       HT       0.417000       1.00800           0
     13506 W2       4502     TIP3     H2       HT       0.417000       1.00800           0
     13507 W2       4503     TIP3     OH2      OT      -0.834000       15.9994           0
     13508 W2       4503     TIP3     H1       HT       0.417000       1.00800           0
     13509 W2       4503     TIP3     H2       HT       0.417000       1.00800           0
     13510 W2       4504     TIP3     OH2      OT      -0.834000       15.9994           0
     13511 W2       4504     TIP3     H1       HT       0.417000       1.00800           0
     13512 W2       4504     TIP3     H2       HT       0.417000       1.00800           0
     13513 W2       4505     TIP3     OH2      OT      -0.834000       15.9994           0
     13514 W2       4505     TIP3     H1       HT       0.417000       1.00800           0
     13515 W2       4505     TIP3     H2       HT       0.417000       1.00800           0
     13516 W2       4506     TIP3     OH2      OT      -0.834000       15.9994           0
     13517 W2       4506     TIP3     H1       HT       0.417000       1.00800           0
     13518 W2       4506     TIP3     H2       HT       0.417000       1.00800           0
     13519 W2       4507     TIP3     OH2      OT      -0.834000       15.9994           0
     13520 W2       4507     TIP3     H1       HT       0.417000       1.00800           0
     13521 W2       4507     TIP3     H2       HT       0.417000       1.00800           0
     13522 W2       4508     TIP3     OH2      OT      -0.834000       15.9994           0
     13523 W2       4508     TIP3     H1       HT       0.417000       1.00800           0
     13524 W2       4508     TIP3     H2       HT       0.417000       1.00800           0
     13525 W2       4509     TIP3     OH2      OT      -0.834000       15.9994           0
     13526 W2       4509     TIP3     H1       HT       0.417000       1.00800           0
     13527 W2       4509     TIP3     H2       HT       0.417000       1.00800           0
     13528 W2       4510     TIP3     OH2      OT      -0.834000       15.9994           0
     13529 W2       4510     TIP3     H1       HT       0.417000       1.00800           0
     13530 W2       4510     TIP3     H2       HT       0.417000       1.00800           0
     13531 W2       4511     TIP3     OH2      OT      -0.834000       15.9994           0
     13532 W2       4511     TIP3     H1       HT       0.417000       1.00800           0
     13533 W2       4511     TIP3     H2       HT       0.417000       1.00800           0
     13534 W2       4512     TIP3     OH2      OT      -0.834000       15.9994           0
     13535 W2       4512     TIP3     H1       HT       0.417000       1.00800           0
     13536 W2       4512     TIP3     H2       HT       0.417000       1.00800           0
     13537 W2       4513     TIP3     OH2      OT      -0.834000       15.9994           0
     13538 W2       4513     TIP3     H1       HT       0.417000       1.00800           0
     13539 W2       4513     TIP3     H2       HT       0.417000       1.00800           0
     13540 W2       4514     TIP3     OH2      OT      -0.834000       15.9994           0
     13541 W2       4514     TIP3     H1       HT       0.417000       1.00800           0
     13542 W2       4514     TIP3     H2       HT       0.417000       1.00800           0
     13543 W2       4515     TIP3     OH2      OT      -0.834000       15.9994           0
     13544 W2       4515     TIP3     H1       HT       0.417000       1.00800           0
     13545 W2       4515     TIP3     H2       HT       0.417000       1.00800           0
     13546 W2       4516     TIP3     OH2      OT      -0.834000       15.9994           0
     13547 W2       4516     TIP3     H1       HT       0.417000       1.00800           0
     13548 W2       4516     TIP3     H2       HT       0.417000       1.00800           0
     13549 W2       4517     TIP3     OH2      OT      -0.834000       15.9994           0
     13550 W2       4517     TIP3     H1       HT       0.417000       1.00800           0
     13551 W2       4517     TIP3     H2       HT       0.417000       1.00800           0
     13552 W2       4518     TIP3     OH2      OT      -0.834000       15.9994           0
     13553 W2       4518     TIP3     H1       HT       0.417000       1.00800           0
     13554 W2       4518     TIP3     H2       HT       0.417000       1.00800           0
     13555 W2       4519     TIP3     OH2      OT      -0.834000       15.9994           0
     13556 W2       4519     TIP3     H1       HT       0.417000       1.00800           0
     13557 W2       4519     TIP3     H2       HT       0.417000       1.00800           0
     13558 W2       4520     TIP3     OH2      OT      -0.834000       15.9994           0
     13559 W2       4520     TIP3     H1       HT       0.417000       1.00800           0
     13560 W2       4520     TIP3     H2       HT       0.417000       1.00800           0
     13561 W2       4521     TIP3     OH2      OT      -0.834000       15.9994           0
     13562 W2       4521     TIP3     H1       HT       0.417000       1.00800           0
     13563 W2       4521     TIP3     H2       HT       0.417000       1.00800           0
     13564 W2       4522     TIP3     OH2      OT      -0.834000       15.9994           0
     13565 W2       4522     TIP3     H1       HT       0.417000       1.00800           0
     13566 W2       4522     TIP3     H2       HT       0.417000       1.00800           0
     13567 W2       4523     TIP3     OH2      OT      -0.834000       15.9994           0
     13568 W2       4523     TIP3     H1       HT       0.417000       1.00800           0
     13569 W2       4523     TIP3     H2       HT       0.417000       1.00800           0
     13570 W2       4524     TIP3     OH2      OT      -0.834000       15.9994           0
     13571 W2       4524     TIP3     H1       HT       0.417000       1.00800           0
     13572 W2       4524     TIP3     H2       HT       0.417000       1.00800           0
     13573 W2       4525     TIP3     OH2      OT      -0.834000       15.9994           0
     13574 W2       4525     TIP3     H1       HT       0.417000       1.00800           0
     13575 W2       4525     TIP3     H2       HT       0.417000       1.00800           0
     13576 W2       4526     TIP3     OH2      OT      -0.834000       15.9994           0
     13577 W2       4526     TIP3     H1       HT       0.417000       1.00800           0
     13578 W2       4526     TIP3     H2       HT       0.417000       1.00800           0
     13579 W2       4527     TIP3     OH2      OT      -0.834000       15.9994           0
     13580 W2       4527     TIP3     H1       HT       0.417000       1.00800           0
     13581 W2       4527     TIP3     H2       HT       0.417000       1.00800           0
     13582 W2       4528     TIP3     OH2      OT      -0.834000       15.9994           0
     13583 W2       4528     TIP3     H1       HT       0.417000       1.00800           0
     13584 W2       4528     TIP3     H2       HT       0.417000       1.00800           0
     13585 W2       4529     TIP3     OH2      OT      -0.834000       15.9994           0
     13586 W2       4529     TIP3     H1       HT       0.417000       1.00800           0
     13587 W2       4529     TIP3     H2       HT       0.417000       1.00800           0
     13588 W2       4530     TIP3     OH2      OT      -0.834000       15.9994           0
     13589 W2       4530     TIP3     H1       HT       0.417000       1.00800           0
     13590 W2       4530     TIP3     H2       HT       0.417000       1.00800           0
     13591 W2       4531     TIP3     OH2      OT      -0.834000       15.9994           0
     13592 W2       4531     TIP3     H1       HT       0.417000       1.00800           0
     13593 W2       4531     TIP3     H2       HT       0.417000       1.00800           0
     13594 W2       4532     TIP3     OH2      OT      -0.834000       15.9994           0
     13595 W2       4532     TIP3     H1       HT       0.417000       1.00800           0
     13596 W2       4532     TIP3     H2       HT       0.417000       1.00800           0
     13597 W2       4533     TIP3     OH2      OT      -0.834000       15.9994           0
     13598 W2       4533     TIP3     H1       HT       0.417000       1.00800           0
     13599 W2       4533     TIP3     H2       HT       0.417000       1.00800           0
     13600 W2       4534     TIP3     OH2      OT      -0.834000       15.9994           0
     13601 W2       4534     TIP3     H1       HT       0.417000       1.00800           0
     13602 W2       4534     TIP3     H2       HT       0.417000       1.00800           0
     13603 W2       4535     TIP3     OH2      OT      -0.834000       15.9994           0
     13604 W2       4535     TIP3     H1       HT       0.417000       1.00800           0
     13605 W2       4535     TIP3     H2       HT       0.417000       1.00800           0
     13606 W2       4536     TIP3     OH2      OT      -0.834000       15.9994           0
     13607 W2       4536     TIP3     H1       HT       0.417000       1.00800           0
     13608 W2       4536     TIP3     H2       HT       0.417000       1.00800           0
     13609 W2       4537     TIP3     OH2      OT      -0.834000       15.9994           0
     13610 W2       4537     TIP3     H1       HT       0.417000       1.00800           0
     13611 W2       4537     TIP3     H2       HT       0.417000       1.00800           0
     13612 W2       4538     TIP3     OH2      OT      -0.834000       15.9994           0
     13613 W2       4538     TIP3     H1       HT       0.417000       1.00800           0
     13614 W2       4538     TIP3     H2       HT       0.417000       1.00800           0
     13615 W2       4539     TIP3     OH2      OT      -0.834000       15.9994           0
     13616 W2       4539     TIP3     H1       HT       0.417000       1.00800           0
     13617 W2       4539     TIP3     H2       HT       0.417000       1.00800           0
     13618 W2       4540     TIP3     OH2      OT      -0.834000       15.9994           0
     13619 W2       4540     TIP3     H1       HT       0.417000       1.00800           0
     13620 W2       4540     TIP3     H2       HT       0.417000       1.00800           0
     13621 W2       4541     TIP3     OH2      OT      -0.834000       15.9994           0
     13622 W2       4541     TIP3     H1       HT       0.417000       1.00800           0
     13623 W2       4541     TIP3     H2       HT       0.417000       1.00800           0
     13624 W2       4542     TIP3     OH2      OT      -0.834000       15.9994           0
     13625 W2       4542     TIP3     H1       HT       0.417000       1.00800           0
     13626 W2       4542     TIP3     H2       HT       0.417000       1.00800           0
     13627 W2       4543     TIP3     OH2      OT      -0.834000       15.9994           0
     13628 W2       4543     TIP3     H1       HT       0.417000       1.00800           0
     13629 W2       4543     TIP3     H2       HT       0.417000       1.00800           0
     13630 W2       4544     TIP3     OH2      OT      -0.834000       15.9994           0
     13631 W2       4544     TIP3     H1       HT       0.417000       1.00800           0
     13632 W2       4544     TIP3     H2       HT       0.417000       1.00800           0
     13633 W2       4545     TIP3     OH2      OT      -0.834000       15.9994           0
     13634 W2       4545     TIP3     H1       HT       0.417000       1.00800           0
     13635 W2       4545     TIP3     H2       HT       0.417000       1.00800           0
     13636 W2       4546     TIP3     OH2      OT      -0.834000       15.9994           0
     13637 W2       4546     TIP3     H1       HT       0.417000       1.00800           0
     13638 W2       4546     TIP3     H2       HT       0.417000       1.00800           0
     13639 W2       4547     TIP3     OH2      OT      -0.834000       15.9994           0
     13640 W2       4547     TIP3     H1       HT       0.417000       1.00800           0
     13641 W2       4547     TIP3     H2       HT       0.417000       1.00800           0
     13642 W2       4548     TIP3     OH2      OT      -0.834000       15.9994           0
     13643 W2       4548     TIP3     H1       HT       0.417000       1.00800           0
     13644 W2       4548     TIP3     H2       HT       0.417000       1.00800           0
     13645 W2       4549     TIP3     OH2      OT      -0.834000       15.9994           0
     13646 W2       4549     TIP3     H1       HT       0.417000       1.00800           0
     13647 W2       4549     TIP3     H2       HT       0.417000       1.00800           0
     13648 W2       4550     TIP3     OH2      OT      -0.834000       15.9994           0
     13649 W2       4550     TIP3     H1       HT       0.417000       1.00800           0
     13650 W2       4550     TIP3     H2       HT       0.417000       1.00800           0
     13651 W2       4551     TIP3     OH2      OT      -0.834000       15.9994           0
     13652 W2       4551     TIP3     H1       HT       0.417000       1.00800           0
     13653 W2       4551     TIP3     H2       HT       0.417000       1.00800           0
     13654 W2       4552     TIP3     OH2      OT      -0.834000       15.9994           0
     13655 W2       4552     TIP3     H1       HT       0.417000       1.00800           0
     13656 W2       4552     TIP3     H2       HT       0.417000       1.00800           0
     13657 W2       4553     TIP3     OH2      OT      -0.834000       15.9994           0
     13658 W2       4553     TIP3     H1       HT       0.417000       1.00800           0
     13659 W2       4553     TIP3     H2       HT       0.417000       1.00800           0
     13660 W2       4554     TIP3     OH2      OT      -0.834000       15.9994           0
     13661 W2       4554     TIP3     H1       HT       0.417000       1.00800           0
     13662 W2       4554     TIP3     H2       HT       0.417000       1.00800           0
     13663 W2       4555     TIP3     OH2      OT      -0.834000       15.9994           0
     13664 W2       4555     TIP3     H1       HT       0.417000       1.00800           0
     13665 W2       4555     TIP3     H2       HT       0.417000       1.00800           0
     13666 W2       4556     TIP3     OH2      OT      -0.834000       15.9994           0
     13667 W2       4556     TIP3     H1       HT       0.417000       1.00800           0
     13668 W2       4556     TIP3     H2       HT       0.417000       1.00800           0
     13669 W2       4557     TIP3     OH2      OT      -0.834000       15.9994           0
     13670 W2       4557     TIP3     H1       HT       0.417000       1.00800           0
     13671 W2       4557     TIP3     H2       HT       0.417000       1.00800           0
     13672 W2       4558     TIP3     OH2      OT      -0.834000       15.9994           0
     13673 W2       4558     TIP3     H1       HT       0.417000       1.00800           0
     13674 W2       4558     TIP3     H2       HT       0.417000       1.00800           0
     13675 W2       4559     TIP3     OH2      OT      -0.834000       15.9994           0
     13676 W2       4559     TIP3     H1       HT       0.417000       1.00800           0
     13677 W2       4559     TIP3     H2       HT       0.417000       1.00800           0
     13678 W2       4560     TIP3     OH2      OT      -0.834000       15.9994           0
     13679 W2       4560     TIP3     H1       HT       0.417000       1.00800           0
     13680 W2       4560     TIP3     H2       HT       0.417000       1.00800           0
     13681 W2       4561     TIP3     OH2      OT      -0.834000       15.9994           0
     13682 W2       4561     TIP3     H1       HT       0.417000       1.00800           0
     13683 W2       4561     TIP3     H2       HT       0.417000       1.00800           0
     13684 W2       4562     TIP3     OH2      OT      -0.834000       15.9994           0
     13685 W2       4562     TIP3     H1       HT       0.417000       1.00800           0
     13686 W2       4562     TIP3     H2       HT       0.417000       1.00800           0
     13687 W2       4563     TIP3     OH2      OT      -0.834000       15.9994           0
     13688 W2       4563     TIP3     H1       HT       0.417000       1.00800           0
     13689 W2       4563     TIP3     H2       HT       0.417000       1.00800           0
     13690 W2       4564     TIP3     OH2      OT      -0.834000       15.9994           0
     13691 W2       4564     TIP3     H1       HT       0.417000       1.00800           0
     13692 W2       4564     TIP3     H2       HT       0.417000       1.00800           0
     13693 W2       4565     TIP3     OH2      OT      -0.834000       15.9994           0
     13694 W2       4565     TIP3     H1       HT       0.417000       1.00800           0
     13695 W2       4565     TIP3     H2       HT       0.417000       1.00800           0
     13696 W2       4566     TIP3     OH2      OT      -0.834000       15.9994           0
     13697 W2       4566     TIP3     H1       HT       0.417000       1.00800           0
     13698 W2       4566     TIP3     H2       HT       0.417000       1.00800           0
     13699 W2       4567     TIP3     OH2      OT      -0.834000       15.9994           0
     13700 W2       4567     TIP3     H1       HT       0.417000       1.00800           0
     13701 W2       4567     TIP3     H2       HT       0.417000       1.00800           0
     13702 W2       4568     TIP3     OH2      OT      -0.834000       15.9994           0
     13703 W2       4568     TIP3     H1       HT       0.417000       1.00800           0
     13704 W2       4568     TIP3     H2       HT       0.417000       1.00800           0
     13705 W2       4569     TIP3     OH2      OT      -0.834000       15.9994           0
     13706 W2       4569     TIP3     H1       HT       0.417000       1.00800           0
     13707 W2       4569     TIP3     H2       HT       0.417000       1.00800           0
     13708 W2       4570     TIP3     OH2      OT      -0.834000       15.9994           0
     13709 W2       4570     TIP3     H1       HT       0.417000       1.00800           0
     13710 W2       4570     TIP3     H2       HT       0.417000       1.00800           0
     13711 W2       4571     TIP3     OH2      OT      -0.834000       15.9994           0
     13712 W2       4571     TIP3     H1       HT       0.417000       1.00800           0
     13713 W2       4571     TIP3     H2       HT       0.417000       1.00800           0
     13714 W2       4572     TIP3     OH2      OT      -0.834000       15.9994           0
     13715 W2       4572     TIP3     H1       HT       0.417000       1.00800           0
     13716 W2       4572     TIP3     H2       HT       0.417000       1.00800           0
     13717 W2       4573     TIP3     OH2      OT      -0.834000       15.9994           0
     13718 W2       4573     TIP3     H1       HT       0.417000       1.00800           0
     13719 W2       4573     TIP3     H2       HT       0.417000       1.00800           0
     13720 W2       4574     TIP3     OH2      OT      -0.834000       15.9994           0
     13721 W2       4574     TIP3     H1       HT       0.417000       1.00800           0
     13722 W2       4574     TIP3     H2       HT       0.417000       1.00800           0
     13723 W2       4575     TIP3     OH2      OT      -0.834000       15.9994           0
     13724 W2       4575     TIP3     H1       HT       0.417000       1.00800           0
     13725 W2       4575     TIP3     H2       HT       0.417000       1.00800           0
     13726 W2       4576     TIP3     OH2      OT      -0.834000       15.9994           0
     13727 W2       4576     TIP3     H1       HT       0.417000       1.00800           0
     13728 W2       4576     TIP3     H2       HT       0.417000       1.00800           0
     13729 W2       4577     TIP3     OH2      OT      -0.834000       15.9994           0
     13730 W2       4577     TIP3     H1       HT       0.417000       1.00800           0
     13731 W2       4577     TIP3     H2       HT       0.417000       1.00800           0
     13732 W2       4578     TIP3     OH2      OT      -0.834000       15.9994           0
     13733 W2       4578     TIP3     H1       HT       0.417000       1.00800           0
     13734 W2       4578     TIP3     H2       HT       0.417000       1.00800           0
     13735 W2       4579     TIP3     OH2      OT      -0.834000       15.9994           0
     13736 W2       4579     TIP3     H1       HT       0.417000       1.00800           0
     13737 W2       4579     TIP3     H2       HT       0.417000       1.00800           0
     13738 W2       4580     TIP3     OH2      OT      -0.834000       15.9994           0
     13739 W2       4580     TIP3     H1       HT       0.417000       1.00800           0
     13740 W2       4580     TIP3     H2       HT       0.417000       1.00800           0
     13741 W2       4581     TIP3     OH2      OT      -0.834000       15.9994           0
     13742 W2       4581     TIP3     H1       HT       0.417000       1.00800           0
     13743 W2       4581     TIP3     H2       HT       0.417000       1.00800           0
     13744 W2       4582     TIP3     OH2      OT      -0.834000       15.9994           0
     13745 W2       4582     TIP3     H1       HT       0.417000       1.00800           0
     13746 W2       4582     TIP3     H2       HT       0.417000       1.00800           0
     13747 W2       4583     TIP3     OH2      OT      -0.834000       15.9994           0
     13748 W2       4583     TIP3     H1       HT       0.417000       1.00800           0
     13749 W2       4583     TIP3     H2       HT       0.417000       1.00800           0
     13750 W2       4584     TIP3     OH2      OT      -0.834000       15.9994           0
     13751 W2       4584     TIP3     H1       HT       0.417000       1.00800           0
     13752 W2       4584     TIP3     H2       HT       0.417000       1.00800           0
     13753 W2       4585     TIP3     OH2      OT      -0.834000       15.9994           0
     13754 W2       4585     TIP3     H1       HT       0.417000       1.00800           0
     13755 W2       4585     TIP3     H2       HT       0.417000       1.00800           0
     13756 W2       4586     TIP3     OH2      OT      -0.834000       15.9994           0
     13757 W2       4586     TIP3     H1       HT       0.417000       1.00800           0
     13758 W2       4586     TIP3     H2       HT       0.417000       1.00800           0
     13759 W2       4587     TIP3     OH2      OT      -0.834000       15.9994           0
     13760 W2       4587     TIP3     H1       HT       0.417000       1.00800           0
     13761 W2       4587     TIP3     H2       HT       0.417000       1.00800           0
     13762 W2       4588     TIP3     OH2      OT      -0.834000       15.9994           0
     13763 W2       4588     TIP3     H1       HT       0.417000       1.00800           0
     13764 W2       4588     TIP3     H2       HT       0.417000       1.00800           0
     13765 W2       4589     TIP3     OH2      OT      -0.834000       15.9994           0
     13766 W2       4589     TIP3     H1       HT       0.417000       1.00800           0
     13767 W2       4589     TIP3     H2       HT       0.417000       1.00800           0
     13768 W2       4590     TIP3     OH2      OT      -0.834000       15.9994           0
     13769 W2       4590     TIP3     H1       HT       0.417000       1.00800           0
     13770 W2       4590     TIP3     H2       HT       0.417000       1.00800           0
     13771 W2       4591     TIP3     OH2      OT      -0.834000       15.9994           0
     13772 W2       4591     TIP3     H1       HT       0.417000       1.00800           0
     13773 W2       4591     TIP3     H2       HT       0.417000       1.00800           0
     13774 W2       4592     TIP3     OH2      OT      -0.834000       15.9994           0
     13775 W2       4592     TIP3     H1       HT       0.417000       1.00800           0
     13776 W2       4592     TIP3     H2       HT       0.417000       1.00800           0
     13777 W2       4593     TIP3     OH2      OT      -0.834000       15.9994           0
     13778 W2       4593     TIP3     H1       HT       0.417000       1.00800           0
     13779 W2       4593     TIP3     H2       HT       0.417000       1.00800           0
     13780 W2       4594     TIP3     OH2      OT      -0.834000       15.9994           0
     13781 W2       4594     TIP3     H1       HT       0.417000       1.00800           0
     13782 W2       4594     TIP3     H2       HT       0.417000       1.00800           0
     13783 W2       4595     TIP3     OH2      OT      -0.834000       15.9994           0
     13784 W2       4595     TIP3     H1       HT       0.417000       1.00800           0
     13785 W2       4595     TIP3     H2       HT       0.417000       1.00800           0
     13786 W2       4596     TIP3     OH2      OT      -0.834000       15.9994           0
     13787 W2       4596     TIP3     H1       HT       0.417000       1.00800           0
     13788 W2       4596     TIP3     H2       HT       0.417000       1.00800           0
     13789 W2       4597     TIP3     OH2      OT      -0.834000       15.9994           0
     13790 W2       4597     TIP3     H1       HT       0.417000       1.00800           0
     13791 W2       4597     TIP3     H2       HT       0.417000       1.00800           0
     13792 W2       4598     TIP3     OH2      OT      -0.834000       15.9994           0
     13793 W2       4598     TIP3     H1       HT       0.417000       1.00800           0
     13794 W2       4598     TIP3     H2       HT       0.417000       1.00800           0
     13795 W2       4599     TIP3     OH2      OT      -0.834000       15.9994           0
     13796 W2       4599     TIP3     H1       HT       0.417000       1.00800           0
     13797 W2       4599     TIP3     H2       HT       0.417000       1.00800           0
     13798 W2       4600     TIP3     OH2      OT      -0.834000       15.9994           0
     13799 W2       4600     TIP3     H1       HT       0.417000       1.00800           0
     13800 W2       4600     TIP3     H2       HT       0.417000       1.00800           0
     13801 W2       4601     TIP3     OH2      OT      -0.834000       15.9994           0
     13802 W2       4601     TIP3     H1       HT       0.417000       1.00800           0
     13803 W2       4601     TIP3     H2       HT       0.417000       1.00800           0
     13804 W2       4602     TIP3     OH2      OT      -0.834000       15.9994           0
     13805 W2       4602     TIP3     H1       HT       0.417000       1.00800           0
     13806 W2       4602     TIP3     H2       HT       0.417000       1.00800           0
     13807 W2       4603     TIP3     OH2      OT      -0.834000       15.9994           0
     13808 W2       4603     TIP3     H1       HT       0.417000       1.00800           0
     13809 W2       4603     TIP3     H2       HT       0.417000       1.00800           0
     13810 W2       4604     TIP3     OH2      OT      -0.834000       15.9994           0
     13811 W2       4604     TIP3     H1       HT       0.417000       1.00800           0
     13812 W2       4604     TIP3     H2       HT       0.417000       1.00800           0
     13813 W2       4605     TIP3     OH2      OT      -0.834000       15.9994           0
     13814 W2       4605     TIP3     H1       HT       0.417000       1.00800           0
     13815 W2       4605     TIP3     H2       HT       0.417000       1.00800           0
     13816 W2       4606     TIP3     OH2      OT      -0.834000       15.9994           0
     13817 W2       4606     TIP3     H1       HT       0.417000       1.00800           0
     13818 W2       4606     TIP3     H2       HT       0.417000       1.00800           0
     13819 W2       4607     TIP3     OH2      OT      -0.834000       15.9994           0
     13820 W2       4607     TIP3     H1       HT       0.417000       1.00800           0
     13821 W2       4607     TIP3     H2       HT       0.417000       1.00800           0
     13822 W2       4608     TIP3     OH2      OT      -0.834000       15.9994           0
     13823 W2       4608     TIP3     H1       HT       0.417000       1.00800           0
     13824 W2       4608     TIP3     H2       HT       0.417000       1.00800           0
     13825 W2       4609     TIP3     OH2      OT      -0.834000       15.9994           0
     13826 W2       4609     TIP3     H1       HT       0.417000       1.00800           0
     13827 W2       4609     TIP3     H2       HT       0.417000       1.00800           0
     13828 W2       4610     TIP3     OH2      OT      -0.834000       15.9994           0
     13829 W2       4610     TIP3     H1       HT       0.417000       1.00800           0
     13830 W2       4610     TIP3     H2       HT       0.417000       1.00800           0
     13831 W2       4611     TIP3     OH2      OT      -0.834000       15.9994           0
     13832 W2       4611     TIP3     H1       HT       0.417000       1.00800           0
     13833 W2       4611     TIP3     H2       HT       0.417000       1.00800           0
     13834 W2       4612     TIP3     OH2      OT      -0.834000       15.9994           0
     13835 W2       4612     TIP3     H1       HT       0.417000       1.00800           0
     13836 W2       4612     TIP3     H2       HT       0.417000       1.00800           0
     13837 W2       4613     TIP3     OH2      OT      -0.834000       15.9994           0
     13838 W2       4613     TIP3     H1       HT       0.417000       1.00800           0
     13839 W2       4613     TIP3     H2       HT       0.417000       1.00800           0
     13840 W2       4614     TIP3     OH2      OT      -0.834000       15.9994           0
     13841 W2       4614     TIP3     H1       HT       0.417000       1.00800           0
     13842 W2       4614     TIP3     H2       HT       0.417000       1.00800           0
     13843 W2       4615     TIP3     OH2      OT      -0.834000       15.9994           0
     13844 W2       4615     TIP3     H1       HT       0.417000       1.00800           0
     13845 W2       4615     TIP3     H2       HT       0.417000       1.00800           0
     13846 W2       4616     TIP3     OH2      OT      -0.834000       15.9994           0
     13847 W2       4616     TIP3     H1       HT       0.417000       1.00800           0
     13848 W2       4616     TIP3     H2       HT       0.417000       1.00800           0
     13849 W2       4617     TIP3     OH2      OT      -0.834000       15.9994           0
     13850 W2       4617     TIP3     H1       HT       0.417000       1.00800           0
     13851 W2       4617     TIP3     H2       HT       0.417000       1.00800           0
     13852 W2       4618     TIP3     OH2      OT      -0.834000       15.9994           0
     13853 W2       4618     TIP3     H1       HT       0.417000       1.00800           0
     13854 W2       4618     TIP3     H2       HT       0.417000       1.00800           0
     13855 W2       4619     TIP3     OH2      OT      -0.834000       15.9994           0
     13856 W2       4619     TIP3     H1       HT       0.417000       1.00800           0
     13857 W2       4619     TIP3     H2       HT       0.417000       1.00800           0
     13858 W2       4620     TIP3     OH2      OT      -0.834000       15.9994           0
     13859 W2       4620     TIP3     H1       HT       0.417000       1.00800           0
     13860 W2       4620     TIP3     H2       HT       0.417000       1.00800           0
     13861 W2       4621     TIP3     OH2      OT      -0.834000       15.9994           0
     13862 W2       4621     TIP3     H1       HT       0.417000       1.00800           0
     13863 W2       4621     TIP3     H2       HT       0.417000       1.00800           0
     13864 W2       4622     TIP3     OH2      OT      -0.834000       15.9994           0
     13865 W2       4622     TIP3     H1       HT       0.417000       1.00800           0
     13866 W2       4622     TIP3     H2       HT       0.417000       1.00800           0
     13867 W2       4623     TIP3     OH2      OT      -0.834000       15.9994           0
     13868 W2       4623     TIP3     H1       HT       0.417000       1.00800           0
     13869 W2       4623     TIP3     H2       HT       0.417000       1.00800           0
     13870 W2       4624     TIP3     OH2      OT      -0.834000       15.9994           0
     13871 W2       4624     TIP3     H1       HT       0.417000       1.00800           0
     13872 W2       4624     TIP3     H2       HT       0.417000       1.00800           0
     13873 W2       4625     TIP3     OH2      OT      -0.834000       15.9994           0
     13874 W2       4625     TIP3     H1       HT       0.417000       1.00800           0
     13875 W2       4625     TIP3     H2       HT       0.417000       1.00800           0
     13876 W2       4626     TIP3     OH2      OT      -0.834000       15.9994           0
     13877 W2       4626     TIP3     H1       HT       0.417000       1.00800           0
     13878 W2       4626     TIP3     H2       HT       0.417000       1.00800           0
     13879 W2       4627     TIP3     OH2      OT      -0.834000       15.9994           0
     13880 W2       4627     TIP3     H1       HT       0.417000       1.00800           0
     13881 W2       4627     TIP3     H2       HT       0.417000       1.00800           0
     13882 W2       4628     TIP3     OH2      OT      -0.834000       15.9994           0
     13883 W2       4628     TIP3     H1       HT       0.417000       1.00800           0
     13884 W2       4628     TIP3     H2       HT       0.417000       1.00800           0
     13885 W2       4629     TIP3     OH2      OT      -0.834000       15.9994           0
     13886 W2       4629     TIP3     H1       HT       0.417000       1.00800           0
     13887 W2       4629     TIP3     H2       HT       0.417000       1.00800           0
     13888 W2       4630     TIP3     OH2      OT      -0.834000       15.9994           0
     13889 W2       4630     TIP3     H1       HT       0.417000       1.00800           0
     13890 W2       4630     TIP3     H2       HT       0.417000       1.00800           0
     13891 W2       4631     TIP3     OH2      OT      -0.834000       15.9994           0
     13892 W2       4631     TIP3     H1       HT       0.417000       1.00800           0
     13893 W2       4631     TIP3     H2       HT       0.417000       1.00800           0
     13894 W2       4632     TIP3     OH2      OT      -0.834000       15.9994           0
     13895 W2       4632     TIP3     H1       HT       0.417000       1.00800           0
     13896 W2       4632     TIP3     H2       HT       0.417000       1.00800           0
     13897 W2       4633     TIP3     OH2      OT      -0.834000       15.9994           0
     13898 W2       4633     TIP3     H1       HT       0.417000       1.00800           0
     13899 W2       4633     TIP3     H2       HT       0.417000       1.00800           0
     13900 W2       4634     TIP3     OH2      OT      -0.834000       15.9994           0
     13901 W2       4634     TIP3     H1       HT       0.417000       1.00800           0
     13902 W2       4634     TIP3     H2       HT       0.417000       1.00800           0
     13903 W2       4635     TIP3     OH2      OT      -0.834000       15.9994           0
     13904 W2       4635     TIP3     H1       HT       0.417000       1.00800           0
     13905 W2       4635     TIP3     H2       HT       0.417000       1.00800           0
     13906 W2       4636     TIP3     OH2      OT      -0.834000       15.9994           0
     13907 W2       4636     TIP3     H1       HT       0.417000       1.00800           0
     13908 W2       4636     TIP3     H2       HT       0.417000       1.00800           0
     13909 W2       4637     TIP3     OH2      OT      -0.834000       15.9994           0
     13910 W2       4637     TIP3     H1       HT       0.417000       1.00800           0
     13911 W2       4637     TIP3     H2       HT       0.417000       1.00800           0
     13912 W2       4638     TIP3     OH2      OT      -0.834000       15.9994           0
     13913 W2       4638     TIP3     H1       HT       0.417000       1.00800           0
     13914 W2       4638     TIP3     H2       HT       0.417000       1.00800           0
     13915 W2       4639     TIP3     OH2      OT      -0.834000       15.9994           0
     13916 W2       4639     TIP3     H1       HT       0.417000       1.00800           0
     13917 W2       4639     TIP3     H2       HT       0.417000       1.00800           0
     13918 W2       4640     TIP3     OH2      OT      -0.834000       15.9994           0
     13919 W2       4640     TIP3     H1       HT       0.417000       1.00800           0
     13920 W2       4640     TIP3     H2       HT       0.417000       1.00800           0
     13921 W2       4641     TIP3     OH2      OT      -0.834000       15.9994           0
     13922 W2       4641     TIP3     H1       HT       0.417000       1.00800           0
     13923 W2       4641     TIP3     H2       HT       0.417000       1.00800           0
     13924 W2       4642     TIP3     OH2      OT      -0.834000       15.9994           0
     13925 W2       4642     TIP3     H1       HT       0.417000       1.00800           0
     13926 W2       4642     TIP3     H2       HT       0.417000       1.00800           0
     13927 W2       4643     TIP3     OH2      OT      -0.834000       15.9994           0
     13928 W2       4643     TIP3     H1       HT       0.417000       1.00800           0
     13929 W2       4643     TIP3     H2       HT       0.417000       1.00800           0
     13930 W2       4644     TIP3     OH2      OT      -0.834000       15.9994           0
     13931 W2       4644     TIP3     H1       HT       0.417000       1.00800           0
     13932 W2       4644     TIP3     H2       HT       0.417000       1.00800           0
     13933 W2       4645     TIP3     OH2      OT      -0.834000       15.9994           0
     13934 W2       4645     TIP3     H1       HT       0.417000       1.00800           0
     13935 W2       4645     TIP3     H2       HT       0.417000       1.00800           0
     13936 W2       4646     TIP3     OH2      OT      -0.834000       15.9994           0
     13937 W2       4646     TIP3     H1       HT       0.417000       1.00800           0
     13938 W2       4646     TIP3     H2       HT       0.417000       1.00800           0
     13939 W2       4647     TIP3     OH2      OT      -0.834000       15.9994           0
     13940 W2       4647     TIP3     H1       HT       0.417000       1.00800           0
     13941 W2       4647     TIP3     H2       HT       0.417000       1.00800           0
     13942 W2       4648     TIP3     OH2      OT      -0.834000       15.9994           0
     13943 W2       4648     TIP3     H1       HT       0.417000       1.00800           0
     13944 W2       4648     TIP3     H2       HT       0.417000       1.00800           0
     13945 W2       4649     TIP3     OH2      OT      -0.834000       15.9994           0
     13946 W2       4649     TIP3     H1       HT       0.417000       1.00800           0
     13947 W2       4649     TIP3     H2       HT       0.417000       1.00800           0
     13948 W2       4650     TIP3     OH2      OT      -0.834000       15.9994           0
     13949 W2       4650     TIP3     H1       HT       0.417000       1.00800           0
     13950 W2       4650     TIP3     H2       HT       0.417000       1.00800           0
     13951 W2       4651     TIP3     OH2      OT      -0.834000       15.9994           0
     13952 W2       4651     TIP3     H1       HT       0.417000       1.00800           0
     13953 W2       4651     TIP3     H2       HT       0.417000       1.00800           0
     13954 W2       4652     TIP3     OH2      OT      -0.834000       15.9994           0
     13955 W2       4652     TIP3     H1       HT       0.417000       1.00800           0
     13956 W2       4652     TIP3     H2       HT       0.417000       1.00800           0
     13957 W2       4653     TIP3     OH2      OT      -0.834000       15.9994           0
     13958 W2       4653     TIP3     H1       HT       0.417000       1.00800           0
     13959 W2       4653     TIP3     H2       HT       0.417000       1.00800           0
     13960 W2       4654     TIP3     OH2      OT      -0.834000       15.9994           0
     13961 W2       4654     TIP3     H1       HT       0.417000       1.00800           0
     13962 W2       4654     TIP3     H2       HT       0.417000       1.00800           0
     13963 W2       4655     TIP3     OH2      OT      -0.834000       15.9994           0
     13964 W2       4655     TIP3     H1       HT       0.417000       1.00800           0
     13965 W2       4655     TIP3     H2       HT       0.417000       1.00800           0
     13966 W2       4656     TIP3     OH2      OT      -0.834000       15.9994           0
     13967 W2       4656     TIP3     H1       HT       0.417000       1.00800           0
     13968 W2       4656     TIP3     H2       HT       0.417000       1.00800           0
     13969 W2       4657     TIP3     OH2      OT      -0.834000       15.9994           0
     13970 W2       4657     TIP3     H1       HT       0.417000       1.00800           0
     13971 W2       4657     TIP3     H2       HT       0.417000       1.00800           0
     13972 W2       4658     TIP3     OH2      OT      -0.834000       15.9994           0
     13973 W2       4658     TIP3     H1       HT       0.417000       1.00800           0
     13974 W2       4658     TIP3     H2       HT       0.417000       1.00800           0
     13975 W2       4659     TIP3     OH2      OT      -0.834000       15.9994           0
     13976 W2       4659     TIP3     H1       HT       0.417000       1.00800           0
     13977 W2       4659     TIP3     H2       HT       0.417000       1.00800           0
     13978 W2       4660     TIP3     OH2      OT      -0.834000       15.9994           0
     13979 W2       4660     TIP3     H1       HT       0.417000       1.00800           0
     13980 W2       4660     TIP3     H2       HT       0.417000       1.00800           0
     13981 W2       4661     TIP3     OH2      OT      -0.834000       15.9994           0
     13982 W2       4661     TIP3     H1       HT       0.417000       1.00800           0
     13983 W2       4661     TIP3     H2       HT       0.417000       1.00800           0
     13984 W2       4662     TIP3     OH2      OT      -0.834000       15.9994           0
     13985 W2       4662     TIP3     H1       HT       0.417000       1.00800           0
     13986 W2       4662     TIP3     H2       HT       0.417000       1.00800           0
     13987 W2       4663     TIP3     OH2      OT      -0.834000       15.9994           0
     13988 W2       4663     TIP3     H1       HT       0.417000       1.00800           0
     13989 W2       4663     TIP3     H2       HT       0.417000       1.00800           0
     13990 W2       4664     TIP3     OH2      OT      -0.834000       15.9994           0
     13991 W2       4664     TIP3     H1       HT       0.417000       1.00800           0
     13992 W2       4664     TIP3     H2       HT       0.417000       1.00800           0
     13993 W2       4665     TIP3     OH2      OT      -0.834000       15.9994           0
     13994 W2       4665     TIP3     H1       HT       0.417000       1.00800           0
     13995 W2       4665     TIP3     H2       HT       0.417000       1.00800           0
     13996 W2       4666     TIP3     OH2      OT      -0.834000       15.9994           0
     13997 W2       4666     TIP3     H1       HT       0.417000       1.00800           0
     13998 W2       4666     TIP3     H2       HT       0.417000       1.00800           0
     13999 W2       4667     TIP3     OH2      OT      -0.834000       15.9994           0
     14000 W2       4667     TIP3     H1       HT       0.417000       1.00800           0
     14001 W2       4667     TIP3     H2       HT       0.417000       1.00800           0
     14002 W2       4668     TIP3     OH2      OT      -0.834000       15.9994           0
     14003 W2       4668     TIP3     H1       HT       0.417000       1.00800           0
     14004 W2       4668     TIP3     H2       HT       0.417000       1.00800           0
     14005 W2       4669     TIP3     OH2      OT      -0.834000       15.9994           0
     14006 W2       4669     TIP3     H1       HT       0.417000       1.00800           0
     14007 W2       4669     TIP3     H2       HT       0.417000       1.00800           0
     14008 W2       4670     TIP3     OH2      OT      -0.834000       15.9994           0
     14009 W2       4670     TIP3     H1       HT       0.417000       1.00800           0
     14010 W2       4670     TIP3     H2       HT       0.417000       1.00800           0
     14011 W2       4671     TIP3     OH2      OT      -0.834000       15.9994           0
     14012 W2       4671     TIP3     H1       HT       0.417000       1.00800           0
     14013 W2       4671     TIP3     H2       HT       0.417000       1.00800           0
     14014 W2       4672     TIP3     OH2      OT      -0.834000       15.9994           0
     14015 W2       4672     TIP3     H1       HT       0.417000       1.00800           0
     14016 W2       4672     TIP3     H2       HT       0.417000       1.00800           0
     14017 W2       4673     TIP3     OH2      OT      -0.834000       15.9994           0
     14018 W2       4673     TIP3     H1       HT       0.417000       1.00800           0
     14019 W2       4673     TIP3     H2       HT       0.417000       1.00800           0
     14020 W2       4674     TIP3     OH2      OT      -0.834000       15.9994           0
     14021 W2       4674     TIP3     H1       HT       0.417000       1.00800           0
     14022 W2       4674     TIP3     H2       HT       0.417000       1.00800           0
     14023 W2       4675     TIP3     OH2      OT      -0.834000       15.9994           0
     14024 W2       4675     TIP3     H1       HT       0.417000       1.00800           0
     14025 W2       4675     TIP3     H2       HT       0.417000       1.00800           0
     14026 W2       4676     TIP3     OH2      OT      -0.834000       15.9994           0
     14027 W2       4676     TIP3     H1       HT       0.417000       1.00800           0
     14028 W2       4676     TIP3     H2       HT       0.417000       1.00800           0
     14029 W2       4677     TIP3     OH2      OT      -0.834000       15.9994           0
     14030 W2       4677     TIP3     H1       HT       0.417000       1.00800           0
     14031 W2       4677     TIP3     H2       HT       0.417000       1.00800           0
     14032 W2       4678     TIP3     OH2      OT      -0.834000       15.9994           0
     14033 W2       4678     TIP3     H1       HT       0.417000       1.00800           0
     14034 W2       4678     TIP3     H2       HT       0.417000       1.00800           0
     14035 W2       4679     TIP3     OH2      OT      -0.834000       15.9994           0
     14036 W2       4679     TIP3     H1       HT       0.417000       1.00800           0
     14037 W2       4679     TIP3     H2       HT       0.417000       1.00800           0
     14038 W2       4680     TIP3     OH2      OT      -0.834000       15.9994           0
     14039 W2       4680     TIP3     H1       HT       0.417000       1.00800           0
     14040 W2       4680     TIP3     H2       HT       0.417000       1.00800           0
     14041 W2       4681     TIP3     OH2      OT      -0.834000       15.9994           0
     14042 W2       4681     TIP3     H1       HT       0.417000       1.00800           0
     14043 W2       4681     TIP3     H2       HT       0.417000       1.00800           0
     14044 W2       4682     TIP3     OH2      OT      -0.834000       15.9994           0
     14045 W2       4682     TIP3     H1       HT       0.417000       1.00800           0
     14046 W2       4682     TIP3     H2       HT       0.417000       1.00800           0
     14047 W2       4683     TIP3     OH2      OT      -0.834000       15.9994           0
     14048 W2       4683     TIP3     H1       HT       0.417000       1.00800           0
     14049 W2       4683     TIP3     H2       HT       0.417000       1.00800           0
     14050 W2       4684     TIP3     OH2      OT      -0.834000       15.9994           0
     14051 W2       4684     TIP3     H1       HT       0.417000       1.00800           0
     14052 W2       4684     TIP3     H2       HT       0.417000       1.00800           0
     14053 W2       4685     TIP3     OH2      OT      -0.834000       15.9994           0
     14054 W2       4685     TIP3     H1       HT       0.417000       1.00800           0
     14055 W2       4685     TIP3     H2       HT       0.417000       1.00800           0
     14056 W2       4686     TIP3     OH2      OT      -0.834000       15.9994           0
     14057 W2       4686     TIP3     H1       HT       0.417000       1.00800           0
     14058 W2       4686     TIP3     H2       HT       0.417000       1.00800           0
     14059 W2       4687     TIP3     OH2      OT      -0.834000       15.9994           0
     14060 W2       4687     TIP3     H1       HT       0.417000       1.00800           0
     14061 W2       4687     TIP3     H2       HT       0.417000       1.00800           0
     14062 W2       4688     TIP3     OH2      OT      -0.834000       15.9994           0
     14063 W2       4688     TIP3     H1       HT       0.417000       1.00800           0
     14064 W2       4688     TIP3     H2       HT       0.417000       1.00800           0
     14065 W2       4689     TIP3     OH2      OT      -0.834000       15.9994           0
     14066 W2       4689     TIP3     H1       HT       0.417000       1.00800           0
     14067 W2       4689     TIP3     H2       HT       0.417000       1.00800           0
     14068 W2       4690     TIP3     OH2      OT      -0.834000       15.9994           0
     14069 W2       4690     TIP3     H1       HT       0.417000       1.00800           0
     14070 W2       4690     TIP3     H2       HT       0.417000       1.00800           0
     14071 W2       4691     TIP3     OH2      OT      -0.834000       15.9994           0
     14072 W2       4691     TIP3     H1       HT       0.417000       1.00800           0
     14073 W2       4691     TIP3     H2       HT       0.417000       1.00800           0
     14074 W2       4692     TIP3     OH2      OT      -0.834000       15.9994           0
     14075 W2       4692     TIP3     H1       HT       0.417000       1.00800           0
     14076 W2       4692     TIP3     H2       HT       0.417000       1.00800           0
     14077 W2       4693     TIP3     OH2      OT      -0.834000       15.9994           0
     14078 W2       4693     TIP3     H1       HT       0.417000       1.00800           0
     14079 W2       4693     TIP3     H2       HT       0.417000       1.00800           0
     14080 W2       4694     TIP3     OH2      OT      -0.834000       15.9994           0
     14081 W2       4694     TIP3     H1       HT       0.417000       1.00800           0
     14082 W2       4694     TIP3     H2       HT       0.417000       1.00800           0
     14083 W2       4695     TIP3     OH2      OT      -0.834000       15.9994           0
     14084 W2       4695     TIP3     H1       HT       0.417000       1.00800           0
     14085 W2       4695     TIP3     H2       HT       0.417000       1.00800           0
     14086 W2       4696     TIP3     OH2      OT      -0.834000       15.9994           0
     14087 W2       4696     TIP3     H1       HT       0.417000       1.00800           0
     14088 W2       4696     TIP3     H2       HT       0.417000       1.00800           0
     14089 W2       4697     TIP3     OH2      OT      -0.834000       15.9994           0
     14090 W2       4697     TIP3     H1       HT       0.417000       1.00800           0
     14091 W2       4697     TIP3     H2       HT       0.417000       1.00800           0
     14092 W2       4698     TIP3     OH2      OT      -0.834000       15.9994           0
     14093 W2       4698     TIP3     H1       HT       0.417000       1.00800           0
     14094 W2       4698     TIP3     H2       HT       0.417000       1.00800           0
     14095 W2       4699     TIP3     OH2      OT      -0.834000       15.9994           0
     14096 W2       4699     TIP3     H1       HT       0.417000       1.00800           0
     14097 W2       4699     TIP3     H2       HT       0.417000       1.00800           0
     14098 W2       4700     TIP3     OH2      OT      -0.834000       15.9994           0
     14099 W2       4700     TIP3     H1       HT       0.417000       1.00800           0
     14100 W2       4700     TIP3     H2       HT       0.417000       1.00800           0
     14101 W2       4701     TIP3     OH2      OT      -0.834000       15.9994           0
     14102 W2       4701     TIP3     H1       HT       0.417000       1.00800           0
     14103 W2       4701     TIP3     H2       HT       0.417000       1.00800           0
     14104 W2       4702     TIP3     OH2      OT      -0.834000       15.9994           0
     14105 W2       4702     TIP3     H1       HT       0.417000       1.00800           0
     14106 W2       4702     TIP3     H2       HT       0.417000       1.00800           0
     14107 W2       4703     TIP3     OH2      OT      -0.834000       15.9994           0
     14108 W2       4703     TIP3     H1       HT       0.417000       1.00800           0
     14109 W2       4703     TIP3     H2       HT       0.417000       1.00800           0
     14110 W2       4704     TIP3     OH2      OT      -0.834000       15.9994           0
     14111 W2       4704     TIP3     H1       HT       0.417000       1.00800           0
     14112 W2       4704     TIP3     H2       HT       0.417000       1.00800           0
     14113 W2       4705     TIP3     OH2      OT      -0.834000       15.9994           0
     14114 W2       4705     TIP3     H1       HT       0.417000       1.00800           0
     14115 W2       4705     TIP3     H2       HT       0.417000       1.00800           0
     14116 W2       4706     TIP3     OH2      OT      -0.834000       15.9994           0
     14117 W2       4706     TIP3     H1       HT       0.417000       1.00800           0
     14118 W2       4706     TIP3     H2       HT       0.417000       1.00800           0
     14119 W2       4707     TIP3     OH2      OT      -0.834000       15.9994           0
     14120 W2       4707     TIP3     H1       HT       0.417000       1.00800           0
     14121 W2       4707     TIP3     H2       HT       0.417000       1.00800           0
     14122 W2       4708     TIP3     OH2      OT      -0.834000       15.9994           0
     14123 W2       4708     TIP3     H1       HT       0.417000       1.00800           0
     14124 W2       4708     TIP3     H2       HT       0.417000       1.00800           0
     14125 W2       4709     TIP3     OH2      OT      -0.834000       15.9994           0
     14126 W2       4709     TIP3     H1       HT       0.417000       1.00800           0
     14127 W2       4709     TIP3     H2       HT       0.417000       1.00800           0
     14128 W2       4710     TIP3     OH2      OT      -0.834000       15.9994           0
     14129 W2       4710     TIP3     H1       HT       0.417000       1.00800           0
     14130 W2       4710     TIP3     H2       HT       0.417000       1.00800           0
     14131 W2       4711     TIP3     OH2      OT      -0.834000       15.9994           0
     14132 W2       4711     TIP3     H1       HT       0.417000       1.00800           0
     14133 W2       4711     TIP3     H2       HT       0.417000       1.00800           0
     14134 W2       4712     TIP3     OH2      OT      -0.834000       15.9994           0
     14135 W2       4712     TIP3     H1       HT       0.417000       1.00800           0
     14136 W2       4712     TIP3     H2       HT       0.417000       1.00800           0
     14137 W2       4713     TIP3     OH2      OT      -0.834000       15.9994           0
     14138 W2       4713     TIP3     H1       HT       0.417000       1.00800           0
     14139 W2       4713     TIP3     H2       HT       0.417000       1.00800           0
     14140 W2       4714     TIP3     OH2      OT      -0.834000       15.9994           0
     14141 W2       4714     TIP3     H1       HT       0.417000       1.00800           0
     14142 W2       4714     TIP3     H2       HT       0.417000       1.00800           0
     14143 W2       4715     TIP3     OH2      OT      -0.834000       15.9994           0
     14144 W2       4715     TIP3     H1       HT       0.417000       1.00800           0
     14145 W2       4715     TIP3     H2       HT       0.417000       1.00800           0
     14146 W2       4716     TIP3     OH2      OT      -0.834000       15.9994           0
     14147 W2       4716     TIP3     H1       HT       0.417000       1.00800           0
     14148 W2       4716     TIP3     H2       HT       0.417000       1.00800           0
     14149 W2       4717     TIP3     OH2      OT      -0.834000       15.9994           0
     14150 W2       4717     TIP3     H1       HT       0.417000       1.00800           0
     14151 W2       4717     TIP3     H2       HT       0.417000       1.00800           0
     14152 W2       4718     TIP3     OH2      OT      -0.834000       15.9994           0
     14153 W2       4718     TIP3     H1       HT       0.417000       1.00800           0
     14154 W2       4718     TIP3     H2       HT       0.417000       1.00800           0
     14155 W2       4719     TIP3     OH2      OT      -0.834000       15.9994           0
     14156 W2       4719     TIP3     H1       HT       0.417000       1.00800           0
     14157 W2       4719     TIP3     H2       HT       0.417000       1.00800           0
     14158 W2       4720     TIP3     OH2      OT      -0.834000       15.9994           0
     14159 W2       4720     TIP3     H1       HT       0.417000       1.00800           0
     14160 W2       4720     TIP3     H2       HT       0.417000       1.00800           0
     14161 W2       4721     TIP3     OH2      OT      -0.834000       15.9994           0
     14162 W2       4721     TIP3     H1       HT       0.417000       1.00800           0
     14163 W2       4721     TIP3     H2       HT       0.417000       1.00800           0
     14164 W2       4722     TIP3     OH2      OT      -0.834000       15.9994           0
     14165 W2       4722     TIP3     H1       HT       0.417000       1.00800           0
     14166 W2       4722     TIP3     H2       HT       0.417000       1.00800           0
     14167 W2       4723     TIP3     OH2      OT      -0.834000       15.9994           0
     14168 W2       4723     TIP3     H1       HT       0.417000       1.00800           0
     14169 W2       4723     TIP3     H2       HT       0.417000       1.00800           0
     14170 W2       4724     TIP3     OH2      OT      -0.834000       15.9994           0
     14171 W2       4724     TIP3     H1       HT       0.417000       1.00800           0
     14172 W2       4724     TIP3     H2       HT       0.417000       1.00800           0
     14173 W2       4725     TIP3     OH2      OT      -0.834000       15.9994           0
     14174 W2       4725     TIP3     H1       HT       0.417000       1.00800           0
     14175 W2       4725     TIP3     H2       HT       0.417000       1.00800           0
     14176 W2       4726     TIP3     OH2      OT      -0.834000       15.9994           0
     14177 W2       4726     TIP3     H1       HT       0.417000       1.00800           0
     14178 W2       4726     TIP3     H2       HT       0.417000       1.00800           0
     14179 W2       4727     TIP3     OH2      OT      -0.834000       15.9994           0
     14180 W2       4727     TIP3     H1       HT       0.417000       1.00800           0
     14181 W2       4727     TIP3     H2       HT       0.417000       1.00800           0
     14182 W2       4728     TIP3     OH2      OT      -0.834000       15.9994           0
     14183 W2       4728     TIP3     H1       HT       0.417000       1.00800           0
     14184 W2       4728     TIP3     H2       HT       0.417000       1.00800           0
     14185 W2       4729     TIP3     OH2      OT      -0.834000       15.9994           0
     14186 W2       4729     TIP3     H1       HT       0.417000       1.00800           0
     14187 W2       4729     TIP3     H2       HT       0.417000       1.00800           0
     14188 W2       4730     TIP3     OH2      OT      -0.834000       15.9994           0
     14189 W2       4730     TIP3     H1       HT       0.417000       1.00800           0
     14190 W2       4730     TIP3     H2       HT       0.417000       1.00800           0
     14191 W2       4731     TIP3     OH2      OT      -0.834000       15.9994           0
     14192 W2       4731     TIP3     H1       HT       0.417000       1.00800           0
     14193 W2       4731     TIP3     H2       HT       0.417000       1.00800           0
     14194 W2       4732     TIP3     OH2      OT      -0.834000       15.9994           0
     14195 W2       4732     TIP3     H1       HT       0.417000       1.00800           0
     14196 W2       4732     TIP3     H2       HT       0.417000       1.00800           0
     14197 W2       4733     TIP3     OH2      OT      -0.834000       15.9994           0
     14198 W2       4733     TIP3     H1       HT       0.417000       1.00800           0
     14199 W2       4733     TIP3     H2       HT       0.417000       1.00800           0
     14200 W2       4734     TIP3     OH2      OT      -0.834000       15.9994           0
     14201 W2       4734     TIP3     H1       HT       0.417000       1.00800           0
     14202 W2       4734     TIP3     H2       HT       0.417000       1.00800           0
     14203 W2       4735     TIP3     OH2      OT      -0.834000       15.9994           0
     14204 W2       4735     TIP3     H1       HT       0.417000       1.00800           0
     14205 W2       4735     TIP3     H2       HT       0.417000       1.00800           0
     14206 W2       4736     TIP3     OH2      OT      -0.834000       15.9994           0
     14207 W2       4736     TIP3     H1       HT       0.417000       1.00800           0
     14208 W2       4736     TIP3     H2       HT       0.417000       1.00800           0
     14209 W2       4737     TIP3     OH2      OT      -0.834000       15.9994           0
     14210 W2       4737     TIP3     H1       HT       0.417000       1.00800           0
     14211 W2       4737     TIP3     H2       HT       0.417000       1.00800           0
     14212 W2       4738     TIP3     OH2      OT      -0.834000       15.9994           0
     14213 W2       4738     TIP3     H1       HT       0.417000       1.00800           0
     14214 W2       4738     TIP3     H2       HT       0.417000       1.00800           0
     14215 W2       4739     TIP3     OH2      OT      -0.834000       15.9994           0
     14216 W2       4739     TIP3     H1       HT       0.417000       1.00800           0
     14217 W2       4739     TIP3     H2       HT       0.417000       1.00800           0
     14218 W2       4740     TIP3     OH2      OT      -0.834000       15.9994           0
     14219 W2       4740     TIP3     H1       HT       0.417000       1.00800           0
     14220 W2       4740     TIP3     H2       HT       0.417000       1.00800           0
     14221 W2       4741     TIP3     OH2      OT      -0.834000       15.9994           0
     14222 W2       4741     TIP3     H1       HT       0.417000       1.00800           0
     14223 W2       4741     TIP3     H2       HT       0.417000       1.00800           0
     14224 W2       4742     TIP3     OH2      OT      -0.834000       15.9994           0
     14225 W2       4742     TIP3     H1       HT       0.417000       1.00800           0
     14226 W2       4742     TIP3     H2       HT       0.417000       1.00800           0
     14227 W2       4743     TIP3     OH2      OT      -0.834000       15.9994           0
     14228 W2       4743     TIP3     H1       HT       0.417000       1.00800           0
     14229 W2       4743     TIP3     H2       HT       0.417000       1.00800           0
     14230 W2       4744     TIP3     OH2      OT      -0.834000       15.9994           0
     14231 W2       4744     TIP3     H1       HT       0.417000       1.00800           0
     14232 W2       4744     TIP3     H2       HT       0.417000       1.00800           0
     14233 W2       4745     TIP3     OH2      OT      -0.834000       15.9994           0
     14234 W2       4745     TIP3     H1       HT       0.417000       1.00800           0
     14235 W2       4745     TIP3     H2       HT       0.417000       1.00800           0
     14236 W2       4746     TIP3     OH2      OT      -0.834000       15.9994           0
     14237 W2       4746     TIP3     H1       HT       0.417000       1.00800           0
     14238 W2       4746     TIP3     H2       HT       0.417000       1.00800           0
     14239 W2       4747     TIP3     OH2      OT      -0.834000       15.9994           0
     14240 W2       4747     TIP3     H1       HT       0.417000       1.00800           0
     14241 W2       4747     TIP3     H2       HT       0.417000       1.00800           0
     14242 W2       4748     TIP3     OH2      OT      -0.834000       15.9994           0
     14243 W2       4748     TIP3     H1       HT       0.417000       1.00800           0
     14244 W2       4748     TIP3     H2       HT       0.417000       1.00800           0
     14245 W2       4749     TIP3     OH2      OT      -0.834000       15.9994           0
     14246 W2       4749     TIP3     H1       HT       0.417000       1.00800           0
     14247 W2       4749     TIP3     H2       HT       0.417000       1.00800           0
     14248 W2       4750     TIP3     OH2      OT      -0.834000       15.9994           0
     14249 W2       4750     TIP3     H1       HT       0.417000       1.00800           0
     14250 W2       4750     TIP3     H2       HT       0.417000       1.00800           0
     14251 W2       4751     TIP3     OH2      OT      -0.834000       15.9994           0
     14252 W2       4751     TIP3     H1       HT       0.417000       1.00800           0
     14253 W2       4751     TIP3     H2       HT       0.417000       1.00800           0
     14254 W2       4752     TIP3     OH2      OT      -0.834000       15.9994           0
     14255 W2       4752     TIP3     H1       HT       0.417000       1.00800           0
     14256 W2       4752     TIP3     H2       HT       0.417000       1.00800           0
     14257 W2       4753     TIP3     OH2      OT      -0.834000       15.9994           0
     14258 W2       4753     TIP3     H1       HT       0.417000       1.00800           0
     14259 W2       4753     TIP3     H2       HT       0.417000       1.00800           0
     14260 W2       4754     TIP3     OH2      OT      -0.834000       15.9994           0
     14261 W2       4754     TIP3     H1       HT       0.417000       1.00800           0
     14262 W2       4754     TIP3     H2       HT       0.417000       1.00800           0
     14263 W2       4755     TIP3     OH2      OT      -0.834000       15.9994           0
     14264 W2       4755     TIP3     H1       HT       0.417000       1.00800           0
     14265 W2       4755     TIP3     H2       HT       0.417000       1.00800           0
     14266 W2       4756     TIP3     OH2      OT      -0.834000       15.9994           0
     14267 W2       4756     TIP3     H1       HT       0.417000       1.00800           0
     14268 W2       4756     TIP3     H2       HT       0.417000       1.00800           0
     14269 W2       4757     TIP3     OH2      OT      -0.834000       15.9994           0
     14270 W2       4757     TIP3     H1       HT       0.417000       1.00800           0
     14271 W2       4757     TIP3     H2       HT       0.417000       1.00800           0
     14272 W2       4758     TIP3     OH2      OT      -0.834000       15.9994           0
     14273 W2       4758     TIP3     H1       HT       0.417000       1.00800           0
     14274 W2       4758     TIP3     H2       HT       0.417000       1.00800           0
     14275 W2       4759     TIP3     OH2      OT      -0.834000       15.9994           0
     14276 W2       4759     TIP3     H1       HT       0.417000       1.00800           0
     14277 W2       4759     TIP3     H2       HT       0.417000       1.00800           0
     14278 W2       4760     TIP3     OH2      OT      -0.834000       15.9994           0
     14279 W2       4760     TIP3     H1       HT       0.417000       1.00800           0
     14280 W2       4760     TIP3     H2       HT       0.417000       1.00800           0
     14281 W2       4761     TIP3     OH2      OT      -0.834000       15.9994           0
     14282 W2       4761     TIP3     H1       HT       0.417000       1.00800           0
     14283 W2       4761     TIP3     H2       HT       0.417000       1.00800           0
     14284 W2       4762     TIP3     OH2      OT      -0.834000       15.9994           0
     14285 W2       4762     TIP3     H1       HT       0.417000       1.00800           0
     14286 W2       4762     TIP3     H2       HT       0.417000       1.00800           0
     14287 W2       4763     TIP3     OH2      OT      -0.834000       15.9994           0
     14288 W2       4763     TIP3     H1       HT       0.417000       1.00800           0
     14289 W2       4763     TIP3     H2       HT       0.417000       1.00800           0
     14290 W2       4764     TIP3     OH2      OT      -0.834000       15.9994           0
     14291 W2       4764     TIP3     H1       HT       0.417000       1.00800           0
     14292 W2       4764     TIP3     H2       HT       0.417000       1.00800           0
     14293 W2       4765     TIP3     OH2      OT      -0.834000       15.9994           0
     14294 W2       4765     TIP3     H1       HT       0.417000       1.00800           0
     14295 W2       4765     TIP3     H2       HT       0.417000       1.00800           0
     14296 W2       4766     TIP3     OH2      OT      -0.834000       15.9994           0
     14297 W2       4766     TIP3     H1       HT       0.417000       1.00800           0
     14298 W2       4766     TIP3     H2       HT       0.417000       1.00800           0
     14299 W2       4767     TIP3     OH2      OT      -0.834000       15.9994           0
     14300 W2       4767     TIP3     H1       HT       0.417000       1.00800           0
     14301 W2       4767     TIP3     H2       HT       0.417000       1.00800           0
     14302 W2       4768     TIP3     OH2      OT      -0.834000       15.9994           0
     14303 W2       4768     TIP3     H1       HT       0.417000       1.00800           0
     14304 W2       4768     TIP3     H2       HT       0.417000       1.00800           0
     14305 W2       4769     TIP3     OH2      OT      -0.834000       15.9994           0
     14306 W2       4769     TIP3     H1       HT       0.417000       1.00800           0
     14307 W2       4769     TIP3     H2       HT       0.417000       1.00800           0
     14308 W2       4770     TIP3     OH2      OT      -0.834000       15.9994           0
     14309 W2       4770     TIP3     H1       HT       0.417000       1.00800           0
     14310 W2       4770     TIP3     H2       HT       0.417000       1.00800           0
     14311 W2       4771     TIP3     OH2      OT      -0.834000       15.9994           0
     14312 W2       4771     TIP3     H1       HT       0.417000       1.00800           0
     14313 W2       4771     TIP3     H2       HT       0.417000       1.00800           0
     14314 W2       4772     TIP3     OH2      OT      -0.834000       15.9994           0
     14315 W2       4772     TIP3     H1       HT       0.417000       1.00800           0
     14316 W2       4772     TIP3     H2       HT       0.417000       1.00800           0
     14317 W2       4773     TIP3     OH2      OT      -0.834000       15.9994           0
     14318 W2       4773     TIP3     H1       HT       0.417000       1.00800           0
     14319 W2       4773     TIP3     H2       HT       0.417000       1.00800           0
     14320 W2       4774     TIP3     OH2      OT      -0.834000       15.9994           0
     14321 W2       4774     TIP3     H1       HT       0.417000       1.00800           0
     14322 W2       4774     TIP3     H2       HT       0.417000       1.00800           0
     14323 W2       4775     TIP3     OH2      OT      -0.834000       15.9994           0
     14324 W2       4775     TIP3     H1       HT       0.417000       1.00800           0
     14325 W2       4775     TIP3     H2       HT       0.417000       1.00800           0
     14326 W2       4776     TIP3     OH2      OT      -0.834000       15.9994           0
     14327 W2       4776     TIP3     H1       HT       0.417000       1.00800           0
     14328 W2       4776     TIP3     H2       HT       0.417000       1.00800           0
     14329 W2       4777     TIP3     OH2      OT      -0.834000       15.9994           0
     14330 W2       4777     TIP3     H1       HT       0.417000       1.00800           0
     14331 W2       4777     TIP3     H2       HT       0.417000       1.00800           0
     14332 W2       4778     TIP3     OH2      OT      -0.834000       15.9994           0
     14333 W2       4778     TIP3     H1       HT       0.417000       1.00800           0
     14334 W2       4778     TIP3     H2       HT       0.417000       1.00800           0
     14335 W2       4779     TIP3     OH2      OT      -0.834000       15.9994           0
     14336 W2       4779     TIP3     H1       HT       0.417000       1.00800           0
     14337 W2       4779     TIP3     H2       HT       0.417000       1.00800           0
     14338 W2       4780     TIP3     OH2      OT      -0.834000       15.9994           0
     14339 W2       4780     TIP3     H1       HT       0.417000       1.00800           0
     14340 W2       4780     TIP3     H2       HT       0.417000       1.00800           0
     14341 W2       4781     TIP3     OH2      OT      -0.834000       15.9994           0
     14342 W2       4781     TIP3     H1       HT       0.417000       1.00800           0
     14343 W2       4781     TIP3     H2       HT       0.417000       1.00800           0
     14344 W2       4782     TIP3     OH2      OT      -0.834000       15.9994           0
     14345 W2       4782     TIP3     H1       HT       0.417000       1.00800           0
     14346 W2       4782     TIP3     H2       HT       0.417000       1.00800           0
     14347 W2       4783     TIP3     OH2      OT      -0.834000       15.9994           0
     14348 W2       4783     TIP3     H1       HT       0.417000       1.00800           0
     14349 W2       4783     TIP3     H2       HT       0.417000       1.00800           0
     14350 W2       4784     TIP3     OH2      OT      -0.834000       15.9994           0
     14351 W2       4784     TIP3     H1       HT       0.417000       1.00800           0
     14352 W2       4784     TIP3     H2       HT       0.417000       1.00800           0
     14353 W2       4785     TIP3     OH2      OT      -0.834000       15.9994           0
     14354 W2       4785     TIP3     H1       HT       0.417000       1.00800           0
     14355 W2       4785     TIP3     H2       HT       0.417000       1.00800           0
     14356 W2       4786     TIP3     OH2      OT      -0.834000       15.9994           0
     14357 W2       4786     TIP3     H1       HT       0.417000       1.00800           0
     14358 W2       4786     TIP3     H2       HT       0.417000       1.00800           0
     14359 W2       4787     TIP3     OH2      OT      -0.834000       15.9994           0
     14360 W2       4787     TIP3     H1       HT       0.417000       1.00800           0
     14361 W2       4787     TIP3     H2       HT       0.417000       1.00800           0
     14362 W2       4788     TIP3     OH2      OT      -0.834000       15.9994           0
     14363 W2       4788     TIP3     H1       HT       0.417000       1.00800           0
     14364 W2       4788     TIP3     H2       HT       0.417000       1.00800           0
     14365 W2       4789     TIP3     OH2      OT      -0.834000       15.9994           0
     14366 W2       4789     TIP3     H1       HT       0.417000       1.00800           0
     14367 W2       4789     TIP3     H2       HT       0.417000       1.00800           0
     14368 W2       4790     TIP3     OH2      OT      -0.834000       15.9994           0
     14369 W2       4790     TIP3     H1       HT       0.417000       1.00800           0
     14370 W2       4790     TIP3     H2       HT       0.417000       1.00800           0
     14371 W2       4791     TIP3     OH2      OT      -0.834000       15.9994           0
     14372 W2       4791     TIP3     H1       HT       0.417000       1.00800           0
     14373 W2       4791     TIP3     H2       HT       0.417000       1.00800           0
     14374 W2       4792     TIP3     OH2      OT      -0.834000       15.9994           0
     14375 W2       4792     TIP3     H1       HT       0.417000       1.00800           0
     14376 W2       4792     TIP3     H2       HT       0.417000       1.00800           0
     14377 W2       4793     TIP3     OH2      OT      -0.834000       15.9994           0
     14378 W2       4793     TIP3     H1       HT       0.417000       1.00800           0
     14379 W2       4793     TIP3     H2       HT       0.417000       1.00800           0
     14380 W2       4794     TIP3     OH2      OT      -0.834000       15.9994           0
     14381 W2       4794     TIP3     H1       HT       0.417000       1.00800           0
     14382 W2       4794     TIP3     H2       HT       0.417000       1.00800           0
     14383 W2       4795     TIP3     OH2      OT      -0.834000       15.9994           0
     14384 W2       4795     TIP3     H1       HT       0.417000       1.00800           0
     14385 W2       4795     TIP3     H2       HT       0.417000       1.00800           0
     14386 W2       4796     TIP3     OH2      OT      -0.834000       15.9994           0
     14387 W2       4796     TIP3     H1       HT       0.417000       1.00800           0
     14388 W2       4796     TIP3     H2       HT       0.417000       1.00800           0
     14389 W2       4797     TIP3     OH2      OT      -0.834000       15.9994           0
     14390 W2       4797     TIP3     H1       HT       0.417000       1.00800           0
     14391 W2       4797     TIP3     H2       HT       0.417000       1.00800           0
     14392 W2       4798     TIP3     OH2      OT      -0.834000       15.9994           0
     14393 W2       4798     TIP3     H1       HT       0.417000       1.00800           0
     14394 W2       4798     TIP3     H2       HT       0.417000       1.00800           0
     14395 W2       4799     TIP3     OH2      OT      -0.834000       15.9994           0
     14396 W2       4799     TIP3     H1       HT       0.417000       1.00800           0
     14397 W2       4799     TIP3     H2       HT       0.417000       1.00800           0
     14398 W2       4800     TIP3     OH2      OT      -0.834000       15.9994           0
     14399 W2       4800     TIP3     H1       HT       0.417000       1.00800           0
     14400 W2       4800     TIP3     H2       HT       0.417000       1.00800           0
     14401 W2       4801     TIP3     OH2      OT      -0.834000       15.9994           0
     14402 W2       4801     TIP3     H1       HT       0.417000       1.00800           0
     14403 W2       4801     TIP3     H2       HT       0.417000       1.00800           0
     14404 W2       4802     TIP3     OH2      OT      -0.834000       15.9994           0
     14405 W2       4802     TIP3     H1       HT       0.417000       1.00800           0
     14406 W2       4802     TIP3     H2       HT       0.417000       1.00800           0
     14407 W2       4803     TIP3     OH2      OT      -0.834000       15.9994           0
     14408 W2       4803     TIP3     H1       HT       0.417000       1.00800           0
     14409 W2       4803     TIP3     H2       HT       0.417000       1.00800           0
     14410 W2       4804     TIP3     OH2      OT      -0.834000       15.9994           0
     14411 W2       4804     TIP3     H1       HT       0.417000       1.00800           0
     14412 W2       4804     TIP3     H2       HT       0.417000       1.00800           0
     14413 W2       4805     TIP3     OH2      OT      -0.834000       15.9994           0
     14414 W2       4805     TIP3     H1       HT       0.417000       1.00800           0
     14415 W2       4805     TIP3     H2       HT       0.417000       1.00800           0
     14416 W2       4806     TIP3     OH2      OT      -0.834000       15.9994           0
     14417 W2       4806     TIP3     H1       HT       0.417000       1.00800           0
     14418 W2       4806     TIP3     H2       HT       0.417000       1.00800           0
     14419 W2       4807     TIP3     OH2      OT      -0.834000       15.9994           0
     14420 W2       4807     TIP3     H1       HT       0.417000       1.00800           0
     14421 W2       4807     TIP3     H2       HT       0.417000       1.00800           0
     14422 W2       4808     TIP3     OH2      OT      -0.834000       15.9994           0
     14423 W2       4808     TIP3     H1       HT       0.417000       1.00800           0
     14424 W2       4808     TIP3     H2       HT       0.417000       1.00800           0
     14425 W2       4809     TIP3     OH2      OT      -0.834000       15.9994           0
     14426 W2       4809     TIP3     H1       HT       0.417000       1.00800           0
     14427 W2       4809     TIP3     H2       HT       0.417000       1.00800           0
     14428 W2       4810     TIP3     OH2      OT      -0.834000       15.9994           0
     14429 W2       4810     TIP3     H1       HT       0.417000       1.00800           0
     14430 W2       4810     TIP3     H2       HT       0.417000       1.00800           0
     14431 W2       4811     TIP3     OH2      OT      -0.834000       15.9994           0
     14432 W2       4811     TIP3     H1       HT       0.417000       1.00800           0
     14433 W2       4811     TIP3     H2       HT       0.417000       1.00800           0
     14434 W2       4812     TIP3     OH2      OT      -0.834000       15.9994           0
     14435 W2       4812     TIP3     H1       HT       0.417000       1.00800           0
     14436 W2       4812     TIP3     H2       HT       0.417000       1.00800           0
     14437 W2       4813     TIP3     OH2      OT      -0.834000       15.9994           0
     14438 W2       4813     TIP3     H1       HT       0.417000       1.00800           0
     14439 W2       4813     TIP3     H2       HT       0.417000       1.00800           0
     14440 W2       4814     TIP3     OH2      OT      -0.834000       15.9994           0
     14441 W2       4814     TIP3     H1       HT       0.417000       1.00800           0
     14442 W2       4814     TIP3     H2       HT       0.417000       1.00800           0
     14443 W2       4815     TIP3     OH2      OT      -0.834000       15.9994           0
     14444 W2       4815     TIP3     H1       HT       0.417000       1.00800           0
     14445 W2       4815     TIP3     H2       HT       0.417000       1.00800           0
     14446 W2       4816     TIP3     OH2      OT      -0.834000       15.9994           0
     14447 W2       4816     TIP3     H1       HT       0.417000       1.00800           0
     14448 W2       4816     TIP3     H2       HT       0.417000       1.00800           0
     14449 W2       4817     TIP3     OH2      OT      -0.834000       15.9994           0
     14450 W2       4817     TIP3     H1       HT       0.417000       1.00800           0
     14451 W2       4817     TIP3     H2       HT       0.417000       1.00800           0
     14452 W2       4818     TIP3     OH2      OT      -0.834000       15.9994           0
     14453 W2       4818     TIP3     H1       HT       0.417000       1.00800           0
     14454 W2       4818     TIP3     H2       HT       0.417000       1.00800           0
     14455 W2       4819     TIP3     OH2      OT      -0.834000       15.9994           0
     14456 W2       4819     TIP3     H1       HT       0.417000       1.00800           0
     14457 W2       4819     TIP3     H2       HT       0.417000       1.00800           0
     14458 W2       4820     TIP3     OH2      OT      -0.834000       15.9994           0
     14459 W2       4820     TIP3     H1       HT       0.417000       1.00800           0
     14460 W2       4820     TIP3     H2       HT       0.417000       1.00800           0
     14461 W2       4821     TIP3     OH2      OT      -0.834000       15.9994           0
     14462 W2       4821     TIP3     H1       HT       0.417000       1.00800           0
     14463 W2       4821     TIP3     H2       HT       0.417000       1.00800           0
     14464 W2       4822     TIP3     OH2      OT      -0.834000       15.9994           0
     14465 W2       4822     TIP3     H1       HT       0.417000       1.00800           0
     14466 W2       4822     TIP3     H2       HT       0.417000       1.00800           0
     14467 W2       4823     TIP3     OH2      OT      -0.834000       15.9994           0
     14468 W2       4823     TIP3     H1       HT       0.417000       1.00800           0
     14469 W2       4823     TIP3     H2       HT       0.417000       1.00800           0
     14470 W2       4824     TIP3     OH2      OT      -0.834000       15.9994           0
     14471 W2       4824     TIP3     H1       HT       0.417000       1.00800           0
     14472 W2       4824     TIP3     H2       HT       0.417000       1.00800           0
     14473 W2       4825     TIP3     OH2      OT      -0.834000       15.9994           0
     14474 W2       4825     TIP3     H1       HT       0.417000       1.00800           0
     14475 W2       4825     TIP3     H2       HT       0.417000       1.00800           0
     14476 W2       4826     TIP3     OH2      OT      -0.834000       15.9994           0
     14477 W2       4826     TIP3     H1       HT       0.417000       1.00800           0
     14478 W2       4826     TIP3     H2       HT       0.417000       1.00800           0
     14479 W2       4827     TIP3     OH2      OT      -0.834000       15.9994           0
     14480 W2       4827     TIP3     H1       HT       0.417000       1.00800           0
     14481 W2       4827     TIP3     H2       HT       0.417000       1.00800           0
     14482 W2       4828     TIP3     OH2      OT      -0.834000       15.9994           0
     14483 W2       4828     TIP3     H1       HT       0.417000       1.00800           0
     14484 W2       4828     TIP3     H2       HT       0.417000       1.00800           0
     14485 W2       4829     TIP3     OH2      OT      -0.834000       15.9994           0
     14486 W2       4829     TIP3     H1       HT       0.417000       1.00800           0
     14487 W2       4829     TIP3     H2       HT       0.417000       1.00800           0
     14488 W2       4830     TIP3     OH2      OT      -0.834000       15.9994           0
     14489 W2       4830     TIP3     H1       HT       0.417000       1.00800           0
     14490 W2       4830     TIP3     H2       HT       0.417000       1.00800           0
     14491 W2       4831     TIP3     OH2      OT      -0.834000       15.9994           0
     14492 W2       4831     TIP3     H1       HT       0.417000       1.00800           0
     14493 W2       4831     TIP3     H2       HT       0.417000       1.00800           0
     14494 W2       4832     TIP3     OH2      OT      -0.834000       15.9994           0
     14495 W2       4832     TIP3     H1       HT       0.417000       1.00800           0
     14496 W2       4832     TIP3     H2       HT       0.417000       1.00800           0
     14497 W2       4833     TIP3     OH2      OT      -0.834000       15.9994           0
     14498 W2       4833     TIP3     H1       HT       0.417000       1.00800           0
     14499 W2       4833     TIP3     H2       HT       0.417000       1.00800           0
     14500 W2       4834     TIP3     OH2      OT      -0.834000       15.9994           0
     14501 W2       4834     TIP3     H1       HT       0.417000       1.00800           0
     14502 W2       4834     TIP3     H2       HT       0.417000       1.00800           0
     14503 W2       4835     TIP3     OH2      OT      -0.834000       15.9994           0
     14504 W2       4835     TIP3     H1       HT       0.417000       1.00800           0
     14505 W2       4835     TIP3     H2       HT       0.417000       1.00800           0
     14506 W2       4836     TIP3     OH2      OT      -0.834000       15.9994           0
     14507 W2       4836     TIP3     H1       HT       0.417000       1.00800           0
     14508 W2       4836     TIP3     H2       HT       0.417000       1.00800           0
     14509 W2       4837     TIP3     OH2      OT      -0.834000       15.9994           0
     14510 W2       4837     TIP3     H1       HT       0.417000       1.00800           0
     14511 W2       4837     TIP3     H2       HT       0.417000       1.00800           0
     14512 W2       4838     TIP3     OH2      OT      -0.834000       15.9994           0
     14513 W2       4838     TIP3     H1       HT       0.417000       1.00800           0
     14514 W2       4838     TIP3     H2       HT       0.417000       1.00800           0
     14515 W2       4839     TIP3     OH2      OT      -0.834000       15.9994           0
     14516 W2       4839     TIP3     H1       HT       0.417000       1.00800           0
     14517 W2       4839     TIP3     H2       HT       0.417000       1.00800           0
     14518 W2       4840     TIP3     OH2      OT      -0.834000       15.9994           0
     14519 W2       4840     TIP3     H1       HT       0.417000       1.00800           0
     14520 W2       4840     TIP3     H2       HT       0.417000       1.00800           0
     14521 W2       4841     TIP3     OH2      OT      -0.834000       15.9994           0
     14522 W2       4841     TIP3     H1       HT       0.417000       1.00800           0
     14523 W2       4841     TIP3     H2       HT       0.417000       1.00800           0
     14524 W2       4842     TIP3     OH2      OT      -0.834000       15.9994           0
     14525 W2       4842     TIP3     H1       HT       0.417000       1.00800           0
     14526 W2       4842     TIP3     H2       HT       0.417000       1.00800           0
     14527 W2       4843     TIP3     OH2      OT      -0.834000       15.9994           0
     14528 W2       4843     TIP3     H1       HT       0.417000       1.00800           0
     14529 W2       4843     TIP3     H2       HT       0.417000       1.00800           0
     14530 W2       4844     TIP3     OH2      OT      -0.834000       15.9994           0
     14531 W2       4844     TIP3     H1       HT       0.417000       1.00800           0
     14532 W2       4844     TIP3     H2       HT       0.417000       1.00800           0
     14533 W2       4845     TIP3     OH2      OT      -0.834000       15.9994           0
     14534 W2       4845     TIP3     H1       HT       0.417000       1.00800           0
     14535 W2       4845     TIP3     H2       HT       0.417000       1.00800           0
     14536 W2       4846     TIP3     OH2      OT      -0.834000       15.9994           0
     14537 W2       4846     TIP3     H1       HT       0.417000       1.00800           0
     14538 W2       4846     TIP3     H2       HT       0.417000       1.00800           0
     14539 W2       4847     TIP3     OH2      OT      -0.834000       15.9994           0
     14540 W2       4847     TIP3     H1       HT       0.417000       1.00800           0
     14541 W2       4847     TIP3     H2       HT       0.417000       1.00800           0
     14542 W2       4848     TIP3     OH2      OT      -0.834000       15.9994           0
     14543 W2       4848     TIP3     H1       HT       0.417000       1.00800           0
     14544 W2       4848     TIP3     H2       HT       0.417000       1.00800           0
     14545 W2       4849     TIP3     OH2      OT      -0.834000       15.9994           0
     14546 W2       4849     TIP3     H1       HT       0.417000       1.00800           0
     14547 W2       4849     TIP3     H2       HT       0.417000       1.00800           0
     14548 W2       4850     TIP3     OH2      OT      -0.834000       15.9994           0
     14549 W2       4850     TIP3     H1       HT       0.417000       1.00800           0
     14550 W2       4850     TIP3     H2       HT       0.417000       1.00800           0
     14551 W2       4851     TIP3     OH2      OT      -0.834000       15.9994           0
     14552 W2       4851     TIP3     H1       HT       0.417000       1.00800           0
     14553 W2       4851     TIP3     H2       HT       0.417000       1.00800           0
     14554 W2       4852     TIP3     OH2      OT      -0.834000       15.9994           0
     14555 W2       4852     TIP3     H1       HT       0.417000       1.00800           0
     14556 W2       4852     TIP3     H2       HT       0.417000       1.00800           0
     14557 W2       4853     TIP3     OH2      OT      -0.834000       15.9994           0
     14558 W2       4853     TIP3     H1       HT       0.417000       1.00800           0
     14559 W2       4853     TIP3     H2       HT       0.417000       1.00800           0
     14560 W2       4854     TIP3     OH2      OT      -0.834000       15.9994           0
     14561 W2       4854     TIP3     H1       HT       0.417000       1.00800           0
     14562 W2       4854     TIP3     H2       HT       0.417000       1.00800           0
     14563 W2       4855     TIP3     OH2      OT      -0.834000       15.9994           0
     14564 W2       4855     TIP3     H1       HT       0.417000       1.00800           0
     14565 W2       4855     TIP3     H2       HT       0.417000       1.00800           0
     14566 W2       4856     TIP3     OH2      OT      -0.834000       15.9994           0
     14567 W2       4856     TIP3     H1       HT       0.417000       1.00800           0
     14568 W2       4856     TIP3     H2       HT       0.417000       1.00800           0
     14569 W2       4857     TIP3     OH2      OT      -0.834000       15.9994           0
     14570 W2       4857     TIP3     H1       HT       0.417000       1.00800           0
     14571 W2       4857     TIP3     H2       HT       0.417000       1.00800           0
     14572 W2       4858     TIP3     OH2      OT      -0.834000       15.9994           0
     14573 W2       4858     TIP3     H1       HT       0.417000       1.00800           0
     14574 W2       4858     TIP3     H2       HT       0.417000       1.00800           0
     14575 W2       4859     TIP3     OH2      OT      -0.834000       15.9994           0
     14576 W2       4859     TIP3     H1       HT       0.417000       1.00800           0
     14577 W2       4859     TIP3     H2       HT       0.417000       1.00800           0
     14578 W2       4860     TIP3     OH2      OT      -0.834000       15.9994           0
     14579 W2       4860     TIP3     H1       HT       0.417000       1.00800           0
     14580 W2       4860     TIP3     H2       HT       0.417000       1.00800           0
     14581 W2       4861     TIP3     OH2      OT      -0.834000       15.9994           0
     14582 W2       4861     TIP3     H1       HT       0.417000       1.00800           0
     14583 W2       4861     TIP3     H2       HT       0.417000       1.00800           0
     14584 W2       4862     TIP3     OH2      OT      -0.834000       15.9994           0
     14585 W2       4862     TIP3     H1       HT       0.417000       1.00800           0
     14586 W2       4862     TIP3     H2       HT       0.417000       1.00800           0
     14587 W2       4863     TIP3     OH2      OT      -0.834000       15.9994           0
     14588 W2       4863     TIP3     H1       HT       0.417000       1.00800           0
     14589 W2       4863     TIP3     H2       HT       0.417000       1.00800           0
     14590 W2       4864     TIP3     OH2      OT      -0.834000       15.9994           0
     14591 W2       4864     TIP3     H1       HT       0.417000       1.00800           0
     14592 W2       4864     TIP3     H2       HT       0.417000       1.00800           0
     14593 W2       4865     TIP3     OH2      OT      -0.834000       15.9994           0
     14594 W2       4865     TIP3     H1       HT       0.417000       1.00800           0
     14595 W2       4865     TIP3     H2       HT       0.417000       1.00800           0
     14596 W2       4866     TIP3     OH2      OT      -0.834000       15.9994           0
     14597 W2       4866     TIP3     H1       HT       0.417000       1.00800           0
     14598 W2       4866     TIP3     H2       HT       0.417000       1.00800           0
     14599 W2       4867     TIP3     OH2      OT      -0.834000       15.9994           0
     14600 W2       4867     TIP3     H1       HT       0.417000       1.00800           0
     14601 W2       4867     TIP3     H2       HT       0.417000       1.00800           0
     14602 W2       4868     TIP3     OH2      OT      -0.834000       15.9994           0
     14603 W2       4868     TIP3     H1       HT       0.417000       1.00800           0
     14604 W2       4868     TIP3     H2       HT       0.417000       1.00800           0
     14605 W2       4869     TIP3     OH2      OT      -0.834000       15.9994           0
     14606 W2       4869     TIP3     H1       HT       0.417000       1.00800           0
     14607 W2       4869     TIP3     H2       HT       0.417000       1.00800           0
     14608 W2       4870     TIP3     OH2      OT      -0.834000       15.9994           0
     14609 W2       4870     TIP3     H1       HT       0.417000       1.00800           0
     14610 W2       4870     TIP3     H2       HT       0.417000       1.00800           0
     14611 W2       4871     TIP3     OH2      OT      -0.834000       15.9994           0
     14612 W2       4871     TIP3     H1       HT       0.417000       1.00800           0
     14613 W2       4871     TIP3     H2       HT       0.417000       1.00800           0
     14614 W2       4872     TIP3     OH2      OT      -0.834000       15.9994           0
     14615 W2       4872     TIP3     H1       HT       0.417000       1.00800           0
     14616 W2       4872     TIP3     H2       HT       0.417000       1.00800           0
     14617 W2       4873     TIP3     OH2      OT      -0.834000       15.9994           0
     14618 W2       4873     TIP3     H1       HT       0.417000       1.00800           0
     14619 W2       4873     TIP3     H2       HT       0.417000       1.00800           0
     14620 W2       4874     TIP3     OH2      OT      -0.834000       15.9994           0
     14621 W2       4874     TIP3     H1       HT       0.417000       1.00800           0
     14622 W2       4874     TIP3     H2       HT       0.417000       1.00800           0
     14623 W2       4875     TIP3     OH2      OT      -0.834000       15.9994           0
     14624 W2       4875     TIP3     H1       HT       0.417000       1.00800           0
     14625 W2       4875     TIP3     H2       HT       0.417000       1.00800           0
     14626 W2       4876     TIP3     OH2      OT      -0.834000       15.9994           0
     14627 W2       4876     TIP3     H1       HT       0.417000       1.00800           0
     14628 W2       4876     TIP3     H2       HT       0.417000       1.00800           0
     14629 W2       4877     TIP3     OH2      OT      -0.834000       15.9994           0
     14630 W2       4877     TIP3     H1       HT       0.417000       1.00800           0
     14631 W2       4877     TIP3     H2       HT       0.417000       1.00800           0
     14632 W2       4878     TIP3     OH2      OT      -0.834000       15.9994           0
     14633 W2       4878     TIP3     H1       HT       0.417000       1.00800           0
     14634 W2       4878     TIP3     H2       HT       0.417000       1.00800           0
     14635 W2       4879     TIP3     OH2      OT      -0.834000       15.9994           0
     14636 W2       4879     TIP3     H1       HT       0.417000       1.00800           0
     14637 W2       4879     TIP3     H2       HT       0.417000       1.00800           0
     14638 W2       4880     TIP3     OH2      OT      -0.834000       15.9994           0
     14639 W2       4880     TIP3     H1       HT       0.417000       1.00800           0
     14640 W2       4880     TIP3     H2       HT       0.417000       1.00800           0
     14641 W2       4881     TIP3     OH2      OT      -0.834000       15.9994           0
     14642 W2       4881     TIP3     H1       HT       0.417000       1.00800           0
     14643 W2       4881     TIP3     H2       HT       0.417000       1.00800           0
     14644 W2       4882     TIP3     OH2      OT      -0.834000       15.9994           0
     14645 W2       4882     TIP3     H1       HT       0.417000       1.00800           0
     14646 W2       4882     TIP3     H2       HT       0.417000       1.00800           0
     14647 W2       4883     TIP3     OH2      OT      -0.834000       15.9994           0
     14648 W2       4883     TIP3     H1       HT       0.417000       1.00800           0
     14649 W2       4883     TIP3     H2       HT       0.417000       1.00800           0
     14650 W2       4884     TIP3     OH2      OT      -0.834000       15.9994           0
     14651 W2       4884     TIP3     H1       HT       0.417000       1.00800           0
     14652 W2       4884     TIP3     H2       HT       0.417000       1.00800           0
     14653 W2       4885     TIP3     OH2      OT      -0.834000       15.9994           0
     14654 W2       4885     TIP3     H1       HT       0.417000       1.00800           0
     14655 W2       4885     TIP3     H2       HT       0.417000       1.00800           0
     14656 W2       4886     TIP3     OH2      OT      -0.834000       15.9994           0
     14657 W2       4886     TIP3     H1       HT       0.417000       1.00800           0
     14658 W2       4886     TIP3     H2       HT       0.417000       1.00800           0
     14659 W2       4887     TIP3     OH2      OT      -0.834000       15.9994           0
     14660 W2       4887     TIP3     H1       HT       0.417000       1.00800           0
     14661 W2       4887     TIP3     H2       HT       0.417000       1.00800           0
     14662 W2       4888     TIP3     OH2      OT      -0.834000       15.9994           0
     14663 W2       4888     TIP3     H1       HT       0.417000       1.00800           0
     14664 W2       4888     TIP3     H2       HT       0.417000       1.00800           0
     14665 W2       4889     TIP3     OH2      OT      -0.834000       15.9994           0
     14666 W2       4889     TIP3     H1       HT       0.417000       1.00800           0
     14667 W2       4889     TIP3     H2       HT       0.417000       1.00800           0
     14668 W2       4890     TIP3     OH2      OT      -0.834000       15.9994           0
     14669 W2       4890     TIP3     H1       HT       0.417000       1.00800           0
     14670 W2       4890     TIP3     H2       HT       0.417000       1.00800           0
     14671 W2       4891     TIP3     OH2      OT      -0.834000       15.9994           0
     14672 W2       4891     TIP3     H1       HT       0.417000       1.00800           0
     14673 W2       4891     TIP3     H2       HT       0.417000       1.00800           0
     14674 W2       4892     TIP3     OH2      OT      -0.834000       15.9994           0
     14675 W2       4892     TIP3     H1       HT       0.417000       1.00800           0
     14676 W2       4892     TIP3     H2       HT       0.417000       1.00800           0
     14677 W2       4893     TIP3     OH2      OT      -0.834000       15.9994           0
     14678 W2       4893     TIP3     H1       HT       0.417000       1.00800           0
     14679 W2       4893     TIP3     H2       HT       0.417000       1.00800           0
     14680 W2       4894     TIP3     OH2      OT      -0.834000       15.9994           0
     14681 W2       4894     TIP3     H1       HT       0.417000       1.00800           0
     14682 W2       4894     TIP3     H2       HT       0.417000       1.00800           0
     14683 W2       4895     TIP3     OH2      OT      -0.834000       15.9994           0
     14684 W2       4895     TIP3     H1       HT       0.417000       1.00800           0
     14685 W2       4895     TIP3     H2       HT       0.417000       1.00800           0
     14686 W2       4896     TIP3     OH2      OT      -0.834000       15.9994           0
     14687 W2       4896     TIP3     H1       HT       0.417000       1.00800           0
     14688 W2       4896     TIP3     H2       HT       0.417000       1.00800           0
     14689 W2       4897     TIP3     OH2      OT      -0.834000       15.9994           0
     14690 W2       4897     TIP3     H1       HT       0.417000       1.00800           0
     14691 W2       4897     TIP3     H2       HT       0.417000       1.00800           0
     14692 W2       4898     TIP3     OH2      OT      -0.834000       15.9994           0
     14693 W2       4898     TIP3     H1       HT       0.417000       1.00800           0
     14694 W2       4898     TIP3     H2       HT       0.417000       1.00800           0
     14695 W2       4899     TIP3     OH2      OT      -0.834000       15.9994           0
     14696 W2       4899     TIP3     H1       HT       0.417000       1.00800           0
     14697 W2       4899     TIP3     H2       HT       0.417000       1.00800           0
     14698 W2       4900     TIP3     OH2      OT      -0.834000       15.9994           0
     14699 W2       4900     TIP3     H1       HT       0.417000       1.00800           0
     14700 W2       4900     TIP3     H2       HT       0.417000       1.00800           0
     14701 W2       4901     TIP3     OH2      OT      -0.834000       15.9994           0
     14702 W2       4901     TIP3     H1       HT       0.417000       1.00800           0
     14703 W2       4901     TIP3     H2       HT       0.417000       1.00800           0
     14704 W2       4902     TIP3     OH2      OT      -0.834000       15.9994           0
     14705 W2       4902     TIP3     H1       HT       0.417000       1.00800           0
     14706 W2       4902     TIP3     H2       HT       0.417000       1.00800           0
     14707 W2       4903     TIP3     OH2      OT      -0.834000       15.9994           0
     14708 W2       4903     TIP3     H1       HT       0.417000       1.00800           0
     14709 W2       4903     TIP3     H2       HT       0.417000       1.00800           0
     14710 W2       4904     TIP3     OH2      OT      -0.834000       15.9994           0
     14711 W2       4904     TIP3     H1       HT       0.417000       1.00800           0
     14712 W2       4904     TIP3     H2       HT       0.417000       1.00800           0
     14713 W2       4905     TIP3     OH2      OT      -0.834000       15.9994           0
     14714 W2       4905     TIP3     H1       HT       0.417000       1.00800           0
     14715 W2       4905     TIP3     H2       HT       0.417000       1.00800           0
     14716 W2       4906     TIP3     OH2      OT      -0.834000       15.9994           0
     14717 W2       4906     TIP3     H1       HT       0.417000       1.00800           0
     14718 W2       4906     TIP3     H2       HT       0.417000       1.00800           0
     14719 W2       4907     TIP3     OH2      OT      -0.834000       15.9994           0
     14720 W2       4907     TIP3     H1       HT       0.417000       1.00800           0
     14721 W2       4907     TIP3     H2       HT       0.417000       1.00800           0
     14722 W2       4908     TIP3     OH2      OT      -0.834000       15.9994           0
     14723 W2       4908     TIP3     H1       HT       0.417000       1.00800           0
     14724 W2       4908     TIP3     H2       HT       0.417000       1.00800           0
     14725 W2       4909     TIP3     OH2      OT      -0.834000       15.9994           0
     14726 W2       4909     TIP3     H1       HT       0.417000       1.00800           0
     14727 W2       4909     TIP3     H2       HT       0.417000       1.00800           0
     14728 W2       4910     TIP3     OH2      OT      -0.834000       15.9994           0
     14729 W2       4910     TIP3     H1       HT       0.417000       1.00800           0
     14730 W2       4910     TIP3     H2       HT       0.417000       1.00800           0
     14731 W2       4911     TIP3     OH2      OT      -0.834000       15.9994           0
     14732 W2       4911     TIP3     H1       HT       0.417000       1.00800           0
     14733 W2       4911     TIP3     H2       HT       0.417000       1.00800           0
     14734 W2       4912     TIP3     OH2      OT      -0.834000       15.9994           0
     14735 W2       4912     TIP3     H1       HT       0.417000       1.00800           0
     14736 W2       4912     TIP3     H2       HT       0.417000       1.00800           0
     14737 W2       4913     TIP3     OH2      OT      -0.834000       15.9994           0
     14738 W2       4913     TIP3     H1       HT       0.417000       1.00800           0
     14739 W2       4913     TIP3     H2       HT       0.417000       1.00800           0
     14740 W2       4914     TIP3     OH2      OT      -0.834000       15.9994           0
     14741 W2       4914     TIP3     H1       HT       0.417000       1.00800           0
     14742 W2       4914     TIP3     H2       HT       0.417000       1.00800           0
     14743 W2       4915     TIP3     OH2      OT      -0.834000       15.9994           0
     14744 W2       4915     TIP3     H1       HT       0.417000       1.00800           0
     14745 W2       4915     TIP3     H2       HT       0.417000       1.00800           0
     14746 W2       4916     TIP3     OH2      OT      -0.834000       15.9994           0
     14747 W2       4916     TIP3     H1       HT       0.417000       1.00800           0
     14748 W2       4916     TIP3     H2       HT       0.417000       1.00800           0
     14749 W2       4917     TIP3     OH2      OT      -0.834000       15.9994           0
     14750 W2       4917     TIP3     H1       HT       0.417000       1.00800           0
     14751 W2       4917     TIP3     H2       HT       0.417000       1.00800           0
     14752 W2       4918     TIP3     OH2      OT      -0.834000       15.9994           0
     14753 W2       4918     TIP3     H1       HT       0.417000       1.00800           0
     14754 W2       4918     TIP3     H2       HT       0.417000       1.00800           0
     14755 W2       4919     TIP3     OH2      OT      -0.834000       15.9994           0
     14756 W2       4919     TIP3     H1       HT       0.417000       1.00800           0
     14757 W2       4919     TIP3     H2       HT       0.417000       1.00800           0
     14758 W2       4920     TIP3     OH2      OT      -0.834000       15.9994           0
     14759 W2       4920     TIP3     H1       HT       0.417000       1.00800           0
     14760 W2       4920     TIP3     H2       HT       0.417000       1.00800           0
     14761 W2       4921     TIP3     OH2      OT      -0.834000       15.9994           0
     14762 W2       4921     TIP3     H1       HT       0.417000       1.00800           0
     14763 W2       4921     TIP3     H2       HT       0.417000       1.00800           0
     14764 W2       4922     TIP3     OH2      OT      -0.834000       15.9994           0
     14765 W2       4922     TIP3     H1       HT       0.417000       1.00800           0
     14766 W2       4922     TIP3     H2       HT       0.417000       1.00800           0
     14767 W2       4923     TIP3     OH2      OT      -0.834000       15.9994           0
     14768 W2       4923     TIP3     H1       HT       0.417000       1.00800           0
     14769 W2       4923     TIP3     H2       HT       0.417000       1.00800           0
     14770 W2       4924     TIP3     OH2      OT      -0.834000       15.9994           0
     14771 W2       4924     TIP3     H1       HT       0.417000       1.00800           0
     14772 W2       4924     TIP3     H2       HT       0.417000       1.00800           0
     14773 W2       4925     TIP3     OH2      OT      -0.834000       15.9994           0
     14774 W2       4925     TIP3     H1       HT       0.417000       1.00800           0
     14775 W2       4925     TIP3     H2       HT       0.417000       1.00800           0
     14776 W2       4926     TIP3     OH2      OT      -0.834000       15.9994           0
     14777 W2       4926     TIP3     H1       HT       0.417000       1.00800           0
     14778 W2       4926     TIP3     H2       HT       0.417000       1.00800           0
     14779 W2       4927     TIP3     OH2      OT      -0.834000       15.9994           0
     14780 W2       4927     TIP3     H1       HT       0.417000       1.00800           0
     14781 W2       4927     TIP3     H2       HT       0.417000       1.00800           0
     14782 W2       4928     TIP3     OH2      OT      -0.834000       15.9994           0
     14783 W2       4928     TIP3     H1       HT       0.417000       1.00800           0
     14784 W2       4928     TIP3     H2       HT       0.417000       1.00800           0
     14785 W2       4929     TIP3     OH2      OT      -0.834000       15.9994           0
     14786 W2       4929     TIP3     H1       HT       0.417000       1.00800           0
     14787 W2       4929     TIP3     H2       HT       0.417000       1.00800           0
     14788 W2       4930     TIP3     OH2      OT      -0.834000       15.9994           0
     14789 W2       4930     TIP3     H1       HT       0.417000       1.00800           0
     14790 W2       4930     TIP3     H2       HT       0.417000       1.00800           0
     14791 W2       4931     TIP3     OH2      OT      -0.834000       15.9994           0
     14792 W2       4931     TIP3     H1       HT       0.417000       1.00800           0
     14793 W2       4931     TIP3     H2       HT       0.417000       1.00800           0
     14794 W2       4932     TIP3     OH2      OT      -0.834000       15.9994           0
     14795 W2       4932     TIP3     H1       HT       0.417000       1.00800           0
     14796 W2       4932     TIP3     H2       HT       0.417000       1.00800           0
     14797 W2       4933     TIP3     OH2      OT      -0.834000       15.9994           0
     14798 W2       4933     TIP3     H1       HT       0.417000       1.00800           0
     14799 W2       4933     TIP3     H2       HT       0.417000       1.00800           0
     14800 W2       4934     TIP3     OH2      OT      -0.834000       15.9994           0
     14801 W2       4934     TIP3     H1       HT       0.417000       1.00800           0
     14802 W2       4934     TIP3     H2       HT       0.417000       1.00800           0
     14803 W2       4935     TIP3     OH2      OT      -0.834000       15.9994           0
     14804 W2       4935     TIP3     H1       HT       0.417000       1.00800           0
     14805 W2       4935     TIP3     H2       HT       0.417000       1.00800           0
     14806 W2       4936     TIP3     OH2      OT      -0.834000       15.9994           0
     14807 W2       4936     TIP3     H1       HT       0.417000       1.00800           0
     14808 W2       4936     TIP3     H2       HT       0.417000       1.00800           0
     14809 W2       4937     TIP3     OH2      OT      -0.834000       15.9994           0
     14810 W2       4937     TIP3     H1       HT       0.417000       1.00800           0
     14811 W2       4937     TIP3     H2       HT       0.417000       1.00800           0
     14812 W2       4938     TIP3     OH2      OT      -0.834000       15.9994           0
     14813 W2       4938     TIP3     H1       HT       0.417000       1.00800           0
     14814 W2       4938     TIP3     H2       HT       0.417000       1.00800           0
     14815 W2       4939     TIP3     OH2      OT      -0.834000       15.9994           0
     14816 W2       4939     TIP3     H1       HT       0.417000       1.00800           0
     14817 W2       4939     TIP3     H2       HT       0.417000       1.00800           0
     14818 W2       4940     TIP3     OH2      OT      -0.834000       15.9994           0
     14819 W2       4940     TIP3     H1       HT       0.417000       1.00800           0
     14820 W2       4940     TIP3     H2       HT       0.417000       1.00800           0
     14821 W2       4941     TIP3     OH2      OT      -0.834000       15.9994           0
     14822 W2       4941     TIP3     H1       HT       0.417000       1.00800           0
     14823 W2       4941     TIP3     H2       HT       0.417000       1.00800           0
     14824 W2       4942     TIP3     OH2      OT      -0.834000       15.9994           0
     14825 W2       4942     TIP3     H1       HT       0.417000       1.00800           0
     14826 W2       4942     TIP3     H2       HT       0.417000       1.00800           0
     14827 W2       4943     TIP3     OH2      OT      -0.834000       15.9994           0
     14828 W2       4943     TIP3     H1       HT       0.417000       1.00800           0
     14829 W2       4943     TIP3     H2       HT       0.417000       1.00800           0
     14830 W2       4944     TIP3     OH2      OT      -0.834000       15.9994           0
     14831 W2       4944     TIP3     H1       HT       0.417000       1.00800           0
     14832 W2       4944     TIP3     H2       HT       0.417000       1.00800           0
     14833 W2       4945     TIP3     OH2      OT      -0.834000       15.9994           0
     14834 W2       4945     TIP3     H1       HT       0.417000       1.00800           0
     14835 W2       4945     TIP3     H2       HT       0.417000       1.00800           0
     14836 W2       4946     TIP3     OH2      OT      -0.834000       15.9994           0
     14837 W2       4946     TIP3     H1       HT       0.417000       1.00800           0
     14838 W2       4946     TIP3     H2       HT       0.417000       1.00800           0
     14839 W2       4947     TIP3     OH2      OT      -0.834000       15.9994           0
     14840 W2       4947     TIP3     H1       HT       0.417000       1.00800           0
     14841 W2       4947     TIP3     H2       HT       0.417000       1.00800           0
     14842 W2       4948     TIP3     OH2      OT      -0.834000       15.9994           0
     14843 W2       4948     TIP3     H1       HT       0.417000       1.00800           0
     14844 W2       4948     TIP3     H2       HT       0.417000       1.00800           0
     14845 W2       4949     TIP3     OH2      OT      -0.834000       15.9994           0
     14846 W2       4949     TIP3     H1       HT       0.417000       1.00800           0
     14847 W2       4949     TIP3     H2       HT       0.417000       1.00800           0
     14848 W2       4950     TIP3     OH2      OT      -0.834000       15.9994           0
     14849 W2       4950     TIP3     H1       HT       0.417000       1.00800           0
     14850 W2       4950     TIP3     H2       HT       0.417000       1.00800           0
     14851 W2       4951     TIP3     OH2      OT      -0.834000       15.9994           0
     14852 W2       4951     TIP3     H1       HT       0.417000       1.00800           0
     14853 W2       4951     TIP3     H2       HT       0.417000       1.00800           0
     14854 W2       4952     TIP3     OH2      OT      -0.834000       15.9994           0
     14855 W2       4952     TIP3     H1       HT       0.417000       1.00800           0
     14856 W2       4952     TIP3     H2       HT       0.417000       1.00800           0
     14857 W2       4953     TIP3     OH2      OT      -0.834000       15.9994           0
     14858 W2       4953     TIP3     H1       HT       0.417000       1.00800           0
     14859 W2       4953     TIP3     H2       HT       0.417000       1.00800           0
     14860 W2       4954     TIP3     OH2      OT      -0.834000       15.9994           0
     14861 W2       4954     TIP3     H1       HT       0.417000       1.00800           0
     14862 W2       4954     TIP3     H2       HT       0.417000       1.00800           0
     14863 W2       4955     TIP3     OH2      OT      -0.834000       15.9994           0
     14864 W2       4955     TIP3     H1       HT       0.417000       1.00800           0
     14865 W2       4955     TIP3     H2       HT       0.417000       1.00800           0
     14866 W2       4956     TIP3     OH2      OT      -0.834000       15.9994           0
     14867 W2       4956     TIP3     H1       HT       0.417000       1.00800           0
     14868 W2       4956     TIP3     H2       HT       0.417000       1.00800           0
     14869 W2       4957     TIP3     OH2      OT      -0.834000       15.9994           0
     14870 W2       4957     TIP3     H1       HT       0.417000       1.00800           0
     14871 W2       4957     TIP3     H2       HT       0.417000       1.00800           0
     14872 W2       4958     TIP3     OH2      OT      -0.834000       15.9994           0
     14873 W2       4958     TIP3     H1       HT       0.417000       1.00800           0
     14874 W2       4958     TIP3     H2       HT       0.417000       1.00800           0
     14875 W2       4959     TIP3     OH2      OT      -0.834000       15.9994           0
     14876 W2       4959     TIP3     H1       HT       0.417000       1.00800           0
     14877 W2       4959     TIP3     H2       HT       0.417000       1.00800           0
     14878 W2       4960     TIP3     OH2      OT      -0.834000       15.9994           0
     14879 W2       4960     TIP3     H1       HT       0.417000       1.00800           0
     14880 W2       4960     TIP3     H2       HT       0.417000       1.00800           0
     14881 W2       4961     TIP3     OH2      OT      -0.834000       15.9994           0
     14882 W2       4961     TIP3     H1       HT       0.417000       1.00800           0
     14883 W2       4961     TIP3     H2       HT       0.417000       1.00800           0
     14884 W2       4962     TIP3     OH2      OT      -0.834000       15.9994           0
     14885 W2       4962     TIP3     H1       HT       0.417000       1.00800           0
     14886 W2       4962     TIP3     H2       HT       0.417000       1.00800           0
     14887 W2       4963     TIP3     OH2      OT      -0.834000       15.9994           0
     14888 W2       4963     TIP3     H1       HT       0.417000       1.00800           0
     14889 W2       4963     TIP3     H2       HT       0.417000       1.00800           0
     14890 W2       4964     TIP3     OH2      OT      -0.834000       15.9994           0
     14891 W2       4964     TIP3     H1       HT       0.417000       1.00800           0
     14892 W2       4964     TIP3     H2       HT       0.417000       1.00800           0
     14893 W2       4965     TIP3     OH2      OT      -0.834000       15.9994           0
     14894 W2       4965     TIP3     H1       HT       0.417000       1.00800           0
     14895 W2       4965     TIP3     H2       HT       0.417000       1.00800           0
     14896 W2       4966     TIP3     OH2      OT      -0.834000       15.9994           0
     14897 W2       4966     TIP3     H1       HT       0.417000       1.00800           0
     14898 W2       4966     TIP3     H2       HT       0.417000       1.00800           0
     14899 W2       4967     TIP3     OH2      OT      -0.834000       15.9994           0
     14900 W2       4967     TIP3     H1       HT       0.417000       1.00800           0
     14901 W2       4967     TIP3     H2       HT       0.417000       1.00800           0
     14902 W2       4968     TIP3     OH2      OT      -0.834000       15.9994           0
     14903 W2       4968     TIP3     H1       HT       0.417000       1.00800           0
     14904 W2       4968     TIP3     H2       HT       0.417000       1.00800           0
     14905 W2       4969     TIP3     OH2      OT      -0.834000       15.9994           0
     14906 W2       4969     TIP3     H1       HT       0.417000       1.00800           0
     14907 W2       4969     TIP3     H2       HT       0.417000       1.00800           0
     14908 W2       4970     TIP3     OH2      OT      -0.834000       15.9994           0
     14909 W2       4970     TIP3     H1       HT       0.417000       1.00800           0
     14910 W2       4970     TIP3     H2       HT       0.417000       1.00800           0
     14911 W2       4971     TIP3     OH2      OT      -0.834000       15.9994           0
     14912 W2       4971     TIP3     H1       HT       0.417000       1.00800           0
     14913 W2       4971     TIP3     H2       HT       0.417000       1.00800           0
     14914 W2       4972     TIP3     OH2      OT      -0.834000       15.9994           0
     14915 W2       4972     TIP3     H1       HT       0.417000       1.00800           0
     14916 W2       4972     TIP3     H2       HT       0.417000       1.00800           0
     14917 W2       4973     TIP3     OH2      OT      -0.834000       15.9994           0
     14918 W2       4973     TIP3     H1       HT       0.417000       1.00800           0
     14919 W2       4973     TIP3     H2       HT       0.417000       1.00800           0
     14920 W2       4974     TIP3     OH2      OT      -0.834000       15.9994           0
     14921 W2       4974     TIP3     H1       HT       0.417000       1.00800           0
     14922 W2       4974     TIP3     H2       HT       0.417000       1.00800           0
     14923 W2       4975     TIP3     OH2      OT      -0.834000       15.9994           0
     14924 W2       4975     TIP3     H1       HT       0.417000       1.00800           0
     14925 W2       4975     TIP3     H2       HT       0.417000       1.00800           0
     14926 W2       4976     TIP3     OH2      OT      -0.834000       15.9994           0
     14927 W2       4976     TIP3     H1       HT       0.417000       1.00800           0
     14928 W2       4976     TIP3     H2       HT       0.417000       1.00800           0
     14929 W2       4977     TIP3     OH2      OT      -0.834000       15.9994           0
     14930 W2       4977     TIP3     H1       HT       0.417000       1.00800           0
     14931 W2       4977     TIP3     H2       HT       0.417000       1.00800           0
     14932 W2       4978     TIP3     OH2      OT      -0.834000       15.9994           0
     14933 W2       4978     TIP3     H1       HT       0.417000       1.00800           0
     14934 W2       4978     TIP3     H2       HT       0.417000       1.00800           0
     14935 W2       4979     TIP3     OH2      OT      -0.834000       15.9994           0
     14936 W2       4979     TIP3     H1       HT       0.417000       1.00800           0
     14937 W2       4979     TIP3     H2       HT       0.417000       1.00800           0
     14938 W2       4980     TIP3     OH2      OT      -0.834000       15.9994           0
     14939 W2       4980     TIP3     H1       HT       0.417000       1.00800           0
     14940 W2       4980     TIP3     H2       HT       0.417000       1.00800           0
     14941 W2       4981     TIP3     OH2      OT      -0.834000       15.9994           0
     14942 W2       4981     TIP3     H1       HT       0.417000       1.00800           0
     14943 W2       4981     TIP3     H2       HT       0.417000       1.00800           0
     14944 W2       4982     TIP3     OH2      OT      -0.834000       15.9994           0
     14945 W2       4982     TIP3     H1       HT       0.417000       1.00800           0
     14946 W2       4982     TIP3     H2       HT       0.417000       1.00800           0
     14947 W2       4983     TIP3     OH2      OT      -0.834000       15.9994           0
     14948 W2       4983     TIP3     H1       HT       0.417000       1.00800           0
     14949 W2       4983     TIP3     H2       HT       0.417000       1.00800           0
     14950 W2       4984     TIP3     OH2      OT      -0.834000       15.9994           0
     14951 W2       4984     TIP3     H1       HT       0.417000       1.00800           0
     14952 W2       4984     TIP3     H2       HT       0.417000       1.00800           0
     14953 W2       4985     TIP3     OH2      OT      -0.834000       15.9994           0
     14954 W2       4985     TIP3     H1       HT       0.417000       1.00800           0
     14955 W2       4985     TIP3     H2       HT       0.417000       1.00800           0
     14956 W2       4986     TIP3     OH2      OT      -0.834000       15.9994           0
     14957 W2       4986     TIP3     H1       HT       0.417000       1.00800           0
     14958 W2       4986     TIP3     H2       HT       0.417000       1.00800           0
     14959 W2       4987     TIP3     OH2      OT      -0.834000       15.9994           0
     14960 W2       4987     TIP3     H1       HT       0.417000       1.00800           0
     14961 W2       4987     TIP3     H2       HT       0.417000       1.00800           0
     14962 W2       4988     TIP3     OH2      OT      -0.834000       15.9994           0
     14963 W2       4988     TIP3     H1       HT       0.417000       1.00800           0
     14964 W2       4988     TIP3     H2       HT       0.417000       1.00800           0
     14965 W2       4989     TIP3     OH2      OT      -0.834000       15.9994           0
     14966 W2       4989     TIP3     H1       HT       0.417000       1.00800           0
     14967 W2       4989     TIP3     H2       HT       0.417000       1.00800           0
     14968 W2       4990     TIP3     OH2      OT      -0.834000       15.9994           0
     14969 W2       4990     TIP3     H1       HT       0.417000       1.00800           0
     14970 W2       4990     TIP3     H2       HT       0.417000       1.00800           0
     14971 W2       4991     TIP3     OH2      OT      -0.834000       15.9994           0
     14972 W2       4991     TIP3     H1       HT       0.417000       1.00800           0
     14973 W2       4991     TIP3     H2       HT       0.417000       1.00800           0
     14974 W2       4992     TIP3     OH2      OT      -0.834000       15.9994           0
     14975 W2       4992     TIP3     H1       HT       0.417000       1.00800           0
     14976 W2       4992     TIP3     H2       HT       0.417000       1.00800           0
     14977 W2       4993     TIP3     OH2      OT      -0.834000       15.9994           0
     14978 W2       4993     TIP3     H1       HT       0.417000       1.00800           0
     14979 W2       4993     TIP3     H2       HT       0.417000       1.00800           0
     14980 W2       4994     TIP3     OH2      OT      -0.834000       15.9994           0
     14981 W2       4994     TIP3     H1       HT       0.417000       1.00800           0
     14982 W2       4994     TIP3     H2       HT       0.417000       1.00800           0
     14983 W2       4995     TIP3     OH2      OT      -0.834000       15.9994           0
     14984 W2       4995     TIP3     H1       HT       0.417000       1.00800           0
     14985 W2       4995     TIP3     H2       HT       0.417000       1.00800           0
     14986 W2       4996     TIP3     OH2      OT      -0.834000       15.9994           0
     14987 W2       4996     TIP3     H1       HT       0.417000       1.00800           0
     14988 W2       4996     TIP3     H2       HT       0.417000       1.00800           0
     14989 W2       4997     TIP3     OH2      OT      -0.834000       15.9994           0
     14990 W2       4997     TIP3     H1       HT       0.417000       1.00800           0
     14991 W2       4997     TIP3     H2       HT       0.417000       1.00800           0
     14992 W2       4998     TIP3     OH2      OT      -0.834000       15.9994           0
     14993 W2       4998     TIP3     H1       HT       0.417000       1.00800           0
     14994 W2       4998     TIP3     H2       HT       0.417000       1.00800           0
     14995 W2       4999     TIP3     OH2      OT      -0.834000       15.9994           0
     14996 W2       4999     TIP3     H1       HT       0.417000       1.00800           0
     14997 W2       4999     TIP3     H2       HT       0.417000       1.00800           0
     14998 W2       5000     TIP3     OH2      OT      -0.834000       15.9994           0
     14999 W2       5000     TIP3     H1       HT       0.417000       1.00800           0
     15000 W2       5000     TIP3     H2       HT       0.417000       1.00800           0
     15001 W2       5001     TIP3     OH2      OT      -0.834000       15.9994           0
     15002 W2       5001     TIP3     H1       HT       0.417000       1.00800           0
     15003 W2       5001     TIP3     H2       HT       0.417000       1.00800           0
     15004 W2       5002     TIP3     OH2      OT      -0.834000       15.9994           0
     15005 W2       5002     TIP3     H1       HT       0.417000       1.00800           0
     15006 W2       5002     TIP3     H2       HT       0.417000       1.00800           0
     15007 W2       5003     TIP3     OH2      OT      -0.834000       15.9994           0
     15008 W2       5003     TIP3     H1       HT       0.417000       1.00800           0
     15009 W2       5003     TIP3     H2       HT       0.417000       1.00800           0
     15010 W2       5004     TIP3     OH2      OT      -0.834000       15.9994           0
     15011 W2       5004     TIP3     H1       HT       0.417000       1.00800           0
     15012 W2       5004     TIP3     H2       HT       0.417000       1.00800           0
     15013 W2       5005     TIP3     OH2      OT      -0.834000       15.9994           0
     15014 W2       5005     TIP3     H1       HT       0.417000       1.00800           0
     15015 W2       5005     TIP3     H2       HT       0.417000       1.00800           0
     15016 W2       5006     TIP3     OH2      OT      -0.834000       15.9994           0
     15017 W2       5006     TIP3     H1       HT       0.417000       1.00800           0
     15018 W2       5006     TIP3     H2       HT       0.417000       1.00800           0
     15019 W2       5007     TIP3     OH2      OT      -0.834000       15.9994           0
     15020 W2       5007     TIP3     H1       HT       0.417000       1.00800           0
     15021 W2       5007     TIP3     H2       HT       0.417000       1.00800           0
     15022 W2       5008     TIP3     OH2      OT      -0.834000       15.9994           0
     15023 W2       5008     TIP3     H1       HT       0.417000       1.00800           0
     15024 W2       5008     TIP3     H2       HT       0.417000       1.00800           0
     15025 W2       5009     TIP3     OH2      OT      -0.834000       15.9994           0
     15026 W2       5009     TIP3     H1       HT       0.417000       1.00800           0
     15027 W2       5009     TIP3     H2       HT       0.417000       1.00800           0
     15028 W2       5010     TIP3     OH2      OT      -0.834000       15.9994           0
     15029 W2       5010     TIP3     H1       HT       0.417000       1.00800           0
     15030 W2       5010     TIP3     H2       HT       0.417000       1.00800           0
     15031 W2       5011     TIP3     OH2      OT      -0.834000       15.9994           0
     15032 W2       5011     TIP3     H1       HT       0.417000       1.00800           0
     15033 W2       5011     TIP3     H2       HT       0.417000       1.00800           0
     15034 W2       5012     TIP3     OH2      OT      -0.834000       15.9994           0
     15035 W2       5012     TIP3     H1       HT       0.417000       1.00800           0
     15036 W2       5012     TIP3     H2       HT       0.417000       1.00800           0
     15037 W2       5013     TIP3     OH2      OT      -0.834000       15.9994           0
     15038 W2       5013     TIP3     H1       HT       0.417000       1.00800           0
     15039 W2       5013     TIP3     H2       HT       0.417000       1.00800           0
     15040 W2       5014     TIP3     OH2      OT      -0.834000       15.9994           0
     15041 W2       5014     TIP3     H1       HT       0.417000       1.00800           0
     15042 W2       5014     TIP3     H2       HT       0.417000       1.00800           0
     15043 W2       5015     TIP3     OH2      OT      -0.834000       15.9994           0
     15044 W2       5015     TIP3     H1       HT       0.417000       1.00800           0
     15045 W2       5015     TIP3     H2       HT       0.417000       1.00800           0
     15046 W2       5016     TIP3     OH2      OT      -0.834000       15.9994           0
     15047 W2       5016     TIP3     H1       HT       0.417000       1.00800           0
     15048 W2       5016     TIP3     H2       HT       0.417000       1.00800           0
     15049 W2       5017     TIP3     OH2      OT      -0.834000       15.9994           0
     15050 W2       5017     TIP3     H1       HT       0.417000       1.00800           0
     15051 W2       5017     TIP3     H2       HT       0.417000       1.00800           0
     15052 W2       5018     TIP3     OH2      OT      -0.834000       15.9994           0
     15053 W2       5018     TIP3     H1       HT       0.417000       1.00800           0
     15054 W2       5018     TIP3     H2       HT       0.417000       1.00800           0
     15055 W2       5019     TIP3     OH2      OT      -0.834000       15.9994           0
     15056 W2       5019     TIP3     H1       HT       0.417000       1.00800           0
     15057 W2       5019     TIP3     H2       HT       0.417000       1.00800           0
     15058 W2       5020     TIP3     OH2      OT      -0.834000       15.9994           0
     15059 W2       5020     TIP3     H1       HT       0.417000       1.00800           0
     15060 W2       5020     TIP3     H2       HT       0.417000       1.00800           0
     15061 W2       5021     TIP3     OH2      OT      -0.834000       15.9994           0
     15062 W2       5021     TIP3     H1       HT       0.417000       1.00800           0
     15063 W2       5021     TIP3     H2       HT       0.417000       1.00800           0
     15064 W2       5022     TIP3     OH2      OT      -0.834000       15.9994           0
     15065 W2       5022     TIP3     H1       HT       0.417000       1.00800           0
     15066 W2       5022     TIP3     H2       HT       0.417000       1.00800           0
     15067 W2       5023     TIP3     OH2      OT      -0.834000       15.9994           0
     15068 W2       5023     TIP3     H1       HT       0.417000       1.00800           0
     15069 W2       5023     TIP3     H2       HT       0.417000       1.00800           0
     15070 W2       5024     TIP3     OH2      OT      -0.834000       15.9994           0
     15071 W2       5024     TIP3     H1       HT       0.417000       1.00800           0
     15072 W2       5024     TIP3     H2       HT       0.417000       1.00800           0
     15073 W2       5025     TIP3     OH2      OT      -0.834000       15.9994           0
     15074 W2       5025     TIP3     H1       HT       0.417000       1.00800           0
     15075 W2       5025     TIP3     H2       HT       0.417000       1.00800           0
     15076 W2       5026     TIP3     OH2      OT      -0.834000       15.9994           0
     15077 W2       5026     TIP3     H1       HT       0.417000       1.00800           0
     15078 W2       5026     TIP3     H2       HT       0.417000       1.00800           0
     15079 W2       5027     TIP3     OH2      OT      -0.834000       15.9994           0
     15080 W2       5027     TIP3     H1       HT       0.417000       1.00800           0
     15081 W2       5027     TIP3     H2       HT       0.417000       1.00800           0
     15082 W2       5028     TIP3     OH2      OT      -0.834000       15.9994           0
     15083 W2       5028     TIP3     H1       HT       0.417000       1.00800           0
     15084 W2       5028     TIP3     H2       HT       0.417000       1.00800           0
     15085 W2       5029     TIP3     OH2      OT      -0.834000       15.9994           0
     15086 W2       5029     TIP3     H1       HT       0.417000       1.00800           0
     15087 W2       5029     TIP3     H2       HT       0.417000       1.00800           0
     15088 W2       5030     TIP3     OH2      OT      -0.834000       15.9994           0
     15089 W2       5030     TIP3     H1       HT       0.417000       1.00800           0
     15090 W2       5030     TIP3     H2       HT       0.417000       1.00800           0
     15091 W2       5031     TIP3     OH2      OT      -0.834000       15.9994           0
     15092 W2       5031     TIP3     H1       HT       0.417000       1.00800           0
     15093 W2       5031     TIP3     H2       HT       0.417000       1.00800           0
     15094 W2       5032     TIP3     OH2      OT      -0.834000       15.9994           0
     15095 W2       5032     TIP3     H1       HT       0.417000       1.00800           0
     15096 W2       5032     TIP3     H2       HT       0.417000       1.00800           0
     15097 W2       5033     TIP3     OH2      OT      -0.834000       15.9994           0
     15098 W2       5033     TIP3     H1       HT       0.417000       1.00800           0
     15099 W2       5033     TIP3     H2       HT       0.417000       1.00800           0
     15100 W2       5034     TIP3     OH2      OT      -0.834000       15.9994           0
     15101 W2       5034     TIP3     H1       HT       0.417000       1.00800           0
     15102 W2       5034     TIP3     H2       HT       0.417000       1.00800           0
     15103 W2       5035     TIP3     OH2      OT      -0.834000       15.9994           0
     15104 W2       5035     TIP3     H1       HT       0.417000       1.00800           0
     15105 W2       5035     TIP3     H2       HT       0.417000       1.00800           0
     15106 W2       5036     TIP3     OH2      OT      -0.834000       15.9994           0
     15107 W2       5036     TIP3     H1       HT       0.417000       1.00800           0
     15108 W2       5036     TIP3     H2       HT       0.417000       1.00800           0
     15109 W2       5037     TIP3     OH2      OT      -0.834000       15.9994           0
     15110 W2       5037     TIP3     H1       HT       0.417000       1.00800           0
     15111 W2       5037     TIP3     H2       HT       0.417000       1.00800           0
     15112 W2       5038     TIP3     OH2      OT      -0.834000       15.9994           0
     15113 W2       5038     TIP3     H1       HT       0.417000       1.00800           0
     15114 W2       5038     TIP3     H2       HT       0.417000       1.00800           0
     15115 W2       5039     TIP3     OH2      OT      -0.834000       15.9994           0
     15116 W2       5039     TIP3     H1       HT       0.417000       1.00800           0
     15117 W2       5039     TIP3     H2       HT       0.417000       1.00800           0
     15118 W2       5040     TIP3     OH2      OT      -0.834000       15.9994           0
     15119 W2       5040     TIP3     H1       HT       0.417000       1.00800           0
     15120 W2       5040     TIP3     H2       HT       0.417000       1.00800           0
     15121 W2       5041     TIP3     OH2      OT      -0.834000       15.9994           0
     15122 W2       5041     TIP3     H1       HT       0.417000       1.00800           0
     15123 W2       5041     TIP3     H2       HT       0.417000       1.00800           0
     15124 W2       5042     TIP3     OH2      OT      -0.834000       15.9994           0
     15125 W2       5042     TIP3     H1       HT       0.417000       1.00800           0
     15126 W2       5042     TIP3     H2       HT       0.417000       1.00800           0
     15127 W2       5043     TIP3     OH2      OT      -0.834000       15.9994           0
     15128 W2       5043     TIP3     H1       HT       0.417000       1.00800           0
     15129 W2       5043     TIP3     H2       HT       0.417000       1.00800           0
     15130 W2       5044     TIP3     OH2      OT      -0.834000       15.9994           0
     15131 W2       5044     TIP3     H1       HT       0.417000       1.00800           0
     15132 W2       5044     TIP3     H2       HT       0.417000       1.00800           0
     15133 W2       5045     TIP3     OH2      OT      -0.834000       15.9994           0
     15134 W2       5045     TIP3     H1       HT       0.417000       1.00800           0
     15135 W2       5045     TIP3     H2       HT       0.417000       1.00800           0
     15136 W2       5046     TIP3     OH2      OT      -0.834000       15.9994           0
     15137 W2       5046     TIP3     H1       HT       0.417000       1.00800           0
     15138 W2       5046     TIP3     H2       HT       0.417000       1.00800           0
     15139 W2       5047     TIP3     OH2      OT      -0.834000       15.9994           0
     15140 W2       5047     TIP3     H1       HT       0.417000       1.00800           0
     15141 W2       5047     TIP3     H2       HT       0.417000       1.00800           0
     15142 W2       5048     TIP3     OH2      OT      -0.834000       15.9994           0
     15143 W2       5048     TIP3     H1       HT       0.417000       1.00800           0
     15144 W2       5048     TIP3     H2       HT       0.417000       1.00800           0
     15145 W2       5049     TIP3     OH2      OT      -0.834000       15.9994           0
     15146 W2       5049     TIP3     H1       HT       0.417000       1.00800           0
     15147 W2       5049     TIP3     H2       HT       0.417000       1.00800           0
     15148 W2       5050     TIP3     OH2      OT      -0.834000       15.9994           0
     15149 W2       5050     TIP3     H1       HT       0.417000       1.00800           0
     15150 W2       5050     TIP3     H2       HT       0.417000       1.00800           0
     15151 W2       5051     TIP3     OH2      OT      -0.834000       15.9994           0
     15152 W2       5051     TIP3     H1       HT       0.417000       1.00800           0
     15153 W2       5051     TIP3     H2       HT       0.417000       1.00800           0
     15154 W2       5052     TIP3     OH2      OT      -0.834000       15.9994           0
     15155 W2       5052     TIP3     H1       HT       0.417000       1.00800           0
     15156 W2       5052     TIP3     H2       HT       0.417000       1.00800           0
     15157 W2       5053     TIP3     OH2      OT      -0.834000       15.9994           0
     15158 W2       5053     TIP3     H1       HT       0.417000       1.00800           0
     15159 W2       5053     TIP3     H2       HT       0.417000       1.00800           0
     15160 W2       5054     TIP3     OH2      OT      -0.834000       15.9994           0
     15161 W2       5054     TIP3     H1       HT       0.417000       1.00800           0
     15162 W2       5054     TIP3     H2       HT       0.417000       1.00800           0
     15163 W2       5055     TIP3     OH2      OT      -0.834000       15.9994           0
     15164 W2       5055     TIP3     H1       HT       0.417000       1.00800           0
     15165 W2       5055     TIP3     H2       HT       0.417000       1.00800           0
     15166 W2       5056     TIP3     OH2      OT      -0.834000       15.9994           0
     15167 W2       5056     TIP3     H1       HT       0.417000       1.00800           0
     15168 W2       5056     TIP3     H2       HT       0.417000       1.00800           0
     15169 W2       5057     TIP3     OH2      OT      -0.834000       15.9994           0
     15170 W2       5057     TIP3     H1       HT       0.417000       1.00800           0
     15171 W2       5057     TIP3     H2       HT       0.417000       1.00800           0
     15172 W2       5058     TIP3     OH2      OT      -0.834000       15.9994           0
     15173 W2       5058     TIP3     H1       HT       0.417000       1.00800           0
     15174 W2       5058     TIP3     H2       HT       0.417000       1.00800           0
     15175 W2       5059     TIP3     OH2      OT      -0.834000       15.9994           0
     15176 W2       5059     TIP3     H1       HT       0.417000       1.00800           0
     15177 W2       5059     TIP3     H2       HT       0.417000       1.00800           0
     15178 W2       5060     TIP3     OH2      OT      -0.834000       15.9994           0
     15179 W2       5060     TIP3     H1       HT       0.417000       1.00800           0
     15180 W2       5060     TIP3     H2       HT       0.417000       1.00800           0
     15181 W2       5061     TIP3     OH2      OT      -0.834000       15.9994           0
     15182 W2       5061     TIP3     H1       HT       0.417000       1.00800           0
     15183 W2       5061     TIP3     H2       HT       0.417000       1.00800           0
     15184 W2       5062     TIP3     OH2      OT      -0.834000       15.9994           0
     15185 W2       5062     TIP3     H1       HT       0.417000       1.00800           0
     15186 W2       5062     TIP3     H2       HT       0.417000       1.00800           0
     15187 W2       5063     TIP3     OH2      OT      -0.834000       15.9994           0
     15188 W2       5063     TIP3     H1       HT       0.417000       1.00800           0
     15189 W2       5063     TIP3     H2       HT       0.417000       1.00800           0
     15190 W2       5064     TIP3     OH2      OT      -0.834000       15.9994           0
     15191 W2       5064     TIP3     H1       HT       0.417000       1.00800           0
     15192 W2       5064     TIP3     H2       HT       0.417000       1.00800           0
     15193 W2       5065     TIP3     OH2      OT      -0.834000       15.9994           0
     15194 W2       5065     TIP3     H1       HT       0.417000       1.00800           0
     15195 W2       5065     TIP3     H2       HT       0.417000       1.00800           0
     15196 W2       5066     TIP3     OH2      OT      -0.834000       15.9994           0
     15197 W2       5066     TIP3     H1       HT       0.417000       1.00800           0
     15198 W2       5066     TIP3     H2       HT       0.417000       1.00800           0
     15199 W2       5067     TIP3     OH2      OT      -0.834000       15.9994           0
     15200 W2       5067     TIP3     H1       HT       0.417000       1.00800           0
     15201 W2       5067     TIP3     H2       HT       0.417000       1.00800           0
     15202 W2       5068     TIP3     OH2      OT      -0.834000       15.9994           0
     15203 W2       5068     TIP3     H1       HT       0.417000       1.00800           0
     15204 W2       5068     TIP3     H2       HT       0.417000       1.00800           0
     15205 W2       5069     TIP3     OH2      OT      -0.834000       15.9994           0
     15206 W2       5069     TIP3     H1       HT       0.417000       1.00800           0
     15207 W2       5069     TIP3     H2       HT       0.417000       1.00800           0
     15208 W2       5070     TIP3     OH2      OT      -0.834000       15.9994           0
     15209 W2       5070     TIP3     H1       HT       0.417000       1.00800           0
     15210 W2       5070     TIP3     H2       HT       0.417000       1.00800           0
     15211 W2       5071     TIP3     OH2      OT      -0.834000       15.9994           0
     15212 W2       5071     TIP3     H1       HT       0.417000       1.00800           0
     15213 W2       5071     TIP3     H2       HT       0.417000       1.00800           0
     15214 W2       5072     TIP3     OH2      OT      -0.834000       15.9994           0
     15215 W2       5072     TIP3     H1       HT       0.417000       1.00800           0
     15216 W2       5072     TIP3     H2       HT       0.417000       1.00800           0
     15217 W2       5073     TIP3     OH2      OT      -0.834000       15.9994           0
     15218 W2       5073     TIP3     H1       HT       0.417000       1.00800           0
     15219 W2       5073     TIP3     H2       HT       0.417000       1.00800           0
     15220 W2       5074     TIP3     OH2      OT      -0.834000       15.9994           0
     15221 W2       5074     TIP3     H1       HT       0.417000       1.00800           0
     15222 W2       5074     TIP3     H2       HT       0.417000       1.00800           0
     15223 W2       5075     TIP3     OH2      OT      -0.834000       15.9994           0
     15224 W2       5075     TIP3     H1       HT       0.417000       1.00800           0
     15225 W2       5075     TIP3     H2       HT       0.417000       1.00800           0
     15226 W2       5076     TIP3     OH2      OT      -0.834000       15.9994           0
     15227 W2       5076     TIP3     H1       HT       0.417000       1.00800           0
     15228 W2       5076     TIP3     H2       HT       0.417000       1.00800           0
     15229 W2       5077     TIP3     OH2      OT      -0.834000       15.9994           0
     15230 W2       5077     TIP3     H1       HT       0.417000       1.00800           0
     15231 W2       5077     TIP3     H2       HT       0.417000       1.00800           0
     15232 W2       5078     TIP3     OH2      OT      -0.834000       15.9994           0
     15233 W2       5078     TIP3     H1       HT       0.417000       1.00800           0
     15234 W2       5078     TIP3     H2       HT       0.417000       1.00800           0
     15235 W2       5079     TIP3     OH2      OT      -0.834000       15.9994           0
     15236 W2       5079     TIP3     H1       HT       0.417000       1.00800           0
     15237 W2       5079     TIP3     H2       HT       0.417000       1.00800           0
     15238 W2       5080     TIP3     OH2      OT      -0.834000       15.9994           0
     15239 W2       5080     TIP3     H1       HT       0.417000       1.00800           0
     15240 W2       5080     TIP3     H2       HT       0.417000       1.00800           0
     15241 W2       5081     TIP3     OH2      OT      -0.834000       15.9994           0
     15242 W2       5081     TIP3     H1       HT       0.417000       1.00800           0
     15243 W2       5081     TIP3     H2       HT       0.417000       1.00800           0
     15244 W2       5082     TIP3     OH2      OT      -0.834000       15.9994           0
     15245 W2       5082     TIP3     H1       HT       0.417000       1.00800           0
     15246 W2       5082     TIP3     H2       HT       0.417000       1.00800           0
     15247 W2       5083     TIP3     OH2      OT      -0.834000       15.9994           0
     15248 W2       5083     TIP3     H1       HT       0.417000       1.00800           0
     15249 W2       5083     TIP3     H2       HT       0.417000       1.00800           0
     15250 W2       5084     TIP3     OH2      OT      -0.834000       15.9994           0
     15251 W2       5084     TIP3     H1       HT       0.417000       1.00800           0
     15252 W2       5084     TIP3     H2       HT       0.417000       1.00800           0
     15253 W2       5085     TIP3     OH2      OT      -0.834000       15.9994           0
     15254 W2       5085     TIP3     H1       HT       0.417000       1.00800           0
     15255 W2       5085     TIP3     H2       HT       0.417000       1.00800           0
     15256 W2       5086     TIP3     OH2      OT      -0.834000       15.9994           0
     15257 W2       5086     TIP3     H1       HT       0.417000       1.00800           0
     15258 W2       5086     TIP3     H2       HT       0.417000       1.00800           0
     15259 W2       5087     TIP3     OH2      OT      -0.834000       15.9994           0
     15260 W2       5087     TIP3     H1       HT       0.417000       1.00800           0
     15261 W2       5087     TIP3     H2       HT       0.417000       1.00800           0
     15262 W2       5088     TIP3     OH2      OT      -0.834000       15.9994           0
     15263 W2       5088     TIP3     H1       HT       0.417000       1.00800           0
     15264 W2       5088     TIP3     H2       HT       0.417000       1.00800           0
     15265 W2       5089     TIP3     OH2      OT      -0.834000       15.9994           0
     15266 W2       5089     TIP3     H1       HT       0.417000       1.00800           0
     15267 W2       5089     TIP3     H2       HT       0.417000       1.00800           0
     15268 W2       5090     TIP3     OH2      OT      -0.834000       15.9994           0
     15269 W2       5090     TIP3     H1       HT       0.417000       1.00800           0
     15270 W2       5090     TIP3     H2       HT       0.417000       1.00800           0
     15271 W2       5091     TIP3     OH2      OT      -0.834000       15.9994           0
     15272 W2       5091     TIP3     H1       HT       0.417000       1.00800           0
     15273 W2       5091     TIP3     H2       HT       0.417000       1.00800           0
     15274 W2       5092     TIP3     OH2      OT      -0.834000       15.9994           0
     15275 W2       5092     TIP3     H1       HT       0.417000       1.00800           0
     15276 W2       5092     TIP3     H2       HT       0.417000       1.00800           0
     15277 W2       5093     TIP3     OH2      OT      -0.834000       15.9994           0
     15278 W2       5093     TIP3     H1       HT       0.417000       1.00800           0
     15279 W2       5093     TIP3     H2       HT       0.417000       1.00800           0
     15280 W2       5094     TIP3     OH2      OT      -0.834000       15.9994           0
     15281 W2       5094     TIP3     H1       HT       0.417000       1.00800           0
     15282 W2       5094     TIP3     H2       HT       0.417000       1.00800           0
     15283 W2       5095     TIP3     OH2      OT      -0.834000       15.9994           0
     15284 W2       5095     TIP3     H1       HT       0.417000       1.00800           0
     15285 W2       5095     TIP3     H2       HT       0.417000       1.00800           0
     15286 W2       5096     TIP3     OH2      OT      -0.834000       15.9994           0
     15287 W2       5096     TIP3     H1       HT       0.417000       1.00800           0
     15288 W2       5096     TIP3     H2       HT       0.417000       1.00800           0
     15289 W2       5097     TIP3     OH2      OT      -0.834000       15.9994           0
     15290 W2       5097     TIP3     H1       HT       0.417000       1.00800           0
     15291 W2       5097     TIP3     H2       HT       0.417000       1.00800           0
     15292 W2       5098     TIP3     OH2      OT      -0.834000       15.9994           0
     15293 W2       5098     TIP3     H1       HT       0.417000       1.00800           0
     15294 W2       5098     TIP3     H2       HT       0.417000       1.00800           0
     15295 W2       5099     TIP3     OH2      OT      -0.834000       15.9994           0
     15296 W2       5099     TIP3     H1       HT       0.417000       1.00800           0
     15297 W2       5099     TIP3     H2       HT       0.417000       1.00800           0
     15298 W2       5100     TIP3     OH2      OT      -0.834000       15.9994           0
     15299 W2       5100     TIP3     H1       HT       0.417000       1.00800           0
     15300 W2       5100     TIP3     H2       HT       0.417000       1.00800           0
     15301 W2       5101     TIP3     OH2      OT      -0.834000       15.9994           0
     15302 W2       5101     TIP3     H1       HT       0.417000       1.00800           0
     15303 W2       5101     TIP3     H2       HT       0.417000       1.00800           0
     15304 W2       5102     TIP3     OH2      OT      -0.834000       15.9994           0
     15305 W2       5102     TIP3     H1       HT       0.417000       1.00800           0
     15306 W2       5102     TIP3     H2       HT       0.417000       1.00800           0
     15307 W2       5103     TIP3     OH2      OT      -0.834000       15.9994           0
     15308 W2       5103     TIP3     H1       HT       0.417000       1.00800           0
     15309 W2       5103     TIP3     H2       HT       0.417000       1.00800           0
     15310 W2       5104     TIP3     OH2      OT      -0.834000       15.9994           0
     15311 W2       5104     TIP3     H1       HT       0.417000       1.00800           0
     15312 W2       5104     TIP3     H2       HT       0.417000       1.00800           0
     15313 W2       5105     TIP3     OH2      OT      -0.834000       15.9994           0
     15314 W2       5105     TIP3     H1       HT       0.417000       1.00800           0
     15315 W2       5105     TIP3     H2       HT       0.417000       1.00800           0
     15316 W2       5106     TIP3     OH2      OT      -0.834000       15.9994           0
     15317 W2       5106     TIP3     H1       HT       0.417000       1.00800           0
     15318 W2       5106     TIP3     H2       HT       0.417000       1.00800           0
     15319 W2       5107     TIP3     OH2      OT      -0.834000       15.9994           0
     15320 W2       5107     TIP3     H1       HT       0.417000       1.00800           0
     15321 W2       5107     TIP3     H2       HT       0.417000       1.00800           0
     15322 W2       5108     TIP3     OH2      OT      -0.834000       15.9994           0
     15323 W2       5108     TIP3     H1       HT       0.417000       1.00800           0
     15324 W2       5108     TIP3     H2       HT       0.417000       1.00800           0
     15325 W2       5109     TIP3     OH2      OT      -0.834000       15.9994           0
     15326 W2       5109     TIP3     H1       HT       0.417000       1.00800           0
     15327 W2       5109     TIP3     H2       HT       0.417000       1.00800           0
     15328 W2       5110     TIP3     OH2      OT      -0.834000       15.9994           0
     15329 W2       5110     TIP3     H1       HT       0.417000       1.00800           0
     15330 W2       5110     TIP3     H2       HT       0.417000       1.00800           0
     15331 W2       5111     TIP3     OH2      OT      -0.834000       15.9994           0
     15332 W2       5111     TIP3     H1       HT       0.417000       1.00800           0
     15333 W2       5111     TIP3     H2       HT       0.417000       1.00800           0
     15334 W2       5112     TIP3     OH2      OT      -0.834000       15.9994           0
     15335 W2       5112     TIP3     H1       HT       0.417000       1.00800           0
     15336 W2       5112     TIP3     H2       HT       0.417000       1.00800           0
     15337 W2       5113     TIP3     OH2      OT      -0.834000       15.9994           0
     15338 W2       5113     TIP3     H1       HT       0.417000       1.00800           0
     15339 W2       5113     TIP3     H2       HT       0.417000       1.00800           0
     15340 W2       5114     TIP3     OH2      OT      -0.834000       15.9994           0
     15341 W2       5114     TIP3     H1       HT       0.417000       1.00800           0
     15342 W2       5114     TIP3     H2       HT       0.417000       1.00800           0
     15343 W2       5115     TIP3     OH2      OT      -0.834000       15.9994           0
     15344 W2       5115     TIP3     H1       HT       0.417000       1.00800           0
     15345 W2       5115     TIP3     H2       HT       0.417000       1.00800           0
     15346 W2       5116     TIP3     OH2      OT      -0.834000       15.9994           0
     15347 W2       5116     TIP3     H1       HT       0.417000       1.00800           0
     15348 W2       5116     TIP3     H2       HT       0.417000       1.00800           0
     15349 W2       5117     TIP3     OH2      OT      -0.834000       15.9994           0
     15350 W2       5117     TIP3     H1       HT       0.417000       1.00800           0
     15351 W2       5117     TIP3     H2       HT       0.417000       1.00800           0
     15352 W2       5118     TIP3     OH2      OT      -0.834000       15.9994           0
     15353 W2       5118     TIP3     H1       HT       0.417000       1.00800           0
     15354 W2       5118     TIP3     H2       HT       0.417000       1.00800           0
     15355 W2       5119     TIP3     OH2      OT      -0.834000       15.9994           0
     15356 W2       5119     TIP3     H1       HT       0.417000       1.00800           0
     15357 W2       5119     TIP3     H2       HT       0.417000       1.00800           0
     15358 W2       5120     TIP3     OH2      OT      -0.834000       15.9994           0
     15359 W2       5120     TIP3     H1       HT       0.417000       1.00800           0
     15360 W2       5120     TIP3     H2       HT       0.417000       1.00800           0
     15361 W2       5121     TIP3     OH2      OT      -0.834000       15.9994           0
     15362 W2       5121     TIP3     H1       HT       0.417000       1.00800           0
     15363 W2       5121     TIP3     H2       HT       0.417000       1.00800           0
     15364 W2       5122     TIP3     OH2      OT      -0.834000       15.9994           0
     15365 W2       5122     TIP3     H1       HT       0.417000       1.00800           0
     15366 W2       5122     TIP3     H2       HT       0.417000       1.00800           0
     15367 W2       5123     TIP3     OH2      OT      -0.834000       15.9994           0
     15368 W2       5123     TIP3     H1       HT       0.417000       1.00800           0
     15369 W2       5123     TIP3     H2       HT       0.417000       1.00800           0
     15370 W2       5124     TIP3     OH2      OT      -0.834000       15.9994           0
     15371 W2       5124     TIP3     H1       HT       0.417000       1.00800           0
     15372 W2       5124     TIP3     H2       HT       0.417000       1.00800           0
     15373 W2       5125     TIP3     OH2      OT      -0.834000       15.9994           0
     15374 W2       5125     TIP3     H1       HT       0.417000       1.00800           0
     15375 W2       5125     TIP3     H2       HT       0.417000       1.00800           0
     15376 W2       5126     TIP3     OH2      OT      -0.834000       15.9994           0
     15377 W2       5126     TIP3     H1       HT       0.417000       1.00800           0
     15378 W2       5126     TIP3     H2       HT       0.417000       1.00800           0
     15379 W2       5127     TIP3     OH2      OT      -0.834000       15.9994           0
     15380 W2       5127     TIP3     H1       HT       0.417000       1.00800           0
     15381 W2       5127     TIP3     H2       HT       0.417000       1.00800           0
     15382 W2       5128     TIP3     OH2      OT      -0.834000       15.9994           0
     15383 W2       5128     TIP3     H1       HT       0.417000       1.00800           0
     15384 W2       5128     TIP3     H2       HT       0.417000       1.00800           0
     15385 W2       5129     TIP3     OH2      OT      -0.834000       15.9994           0
     15386 W2       5129     TIP3     H1       HT       0.417000       1.00800           0
     15387 W2       5129     TIP3     H2       HT       0.417000       1.00800           0
     15388 W2       5130     TIP3     OH2      OT      -0.834000       15.9994           0
     15389 W2       5130     TIP3     H1       HT       0.417000       1.00800           0
     15390 W2       5130     TIP3     H2       HT       0.417000       1.00800           0
     15391 W2       5131     TIP3     OH2      OT      -0.834000       15.9994           0
     15392 W2       5131     TIP3     H1       HT       0.417000       1.00800           0
     15393 W2       5131     TIP3     H2       HT       0.417000       1.00800           0
     15394 W2       5132     TIP3     OH2      OT      -0.834000       15.9994           0
     15395 W2       5132     TIP3     H1       HT       0.417000       1.00800           0
     15396 W2       5132     TIP3     H2       HT       0.417000       1.00800           0
     15397 W2       5133     TIP3     OH2      OT      -0.834000       15.9994           0
     15398 W2       5133     TIP3     H1       HT       0.417000       1.00800           0
     15399 W2       5133     TIP3     H2       HT       0.417000       1.00800           0
     15400 W2       5134     TIP3     OH2      OT      -0.834000       15.9994           0
     15401 W2       5134     TIP3     H1       HT       0.417000       1.00800           0
     15402 W2       5134     TIP3     H2       HT       0.417000       1.00800           0
     15403 W2       5135     TIP3     OH2      OT      -0.834000       15.9994           0
     15404 W2       5135     TIP3     H1       HT       0.417000       1.00800           0
     15405 W2       5135     TIP3     H2       HT       0.417000       1.00800           0
     15406 W2       5136     TIP3     OH2      OT      -0.834000       15.9994           0
     15407 W2       5136     TIP3     H1       HT       0.417000       1.00800           0
     15408 W2       5136     TIP3     H2       HT       0.417000       1.00800           0
     15409 W2       5137     TIP3     OH2      OT      -0.834000       15.9994           0
     15410 W2       5137     TIP3     H1       HT       0.417000       1.00800           0
     15411 W2       5137     TIP3     H2       HT       0.417000       1.00800           0
     15412 W2       5138     TIP3     OH2      OT      -0.834000       15.9994           0
     15413 W2       5138     TIP3     H1       HT       0.417000       1.00800           0
     15414 W2       5138     TIP3     H2       HT       0.417000       1.00800           0
     15415 W2       5139     TIP3     OH2      OT      -0.834000       15.9994           0
     15416 W2       5139     TIP3     H1       HT       0.417000       1.00800           0
     15417 W2       5139     TIP3     H2       HT       0.417000       1.00800           0
     15418 W2       5140     TIP3     OH2      OT      -0.834000       15.9994           0
     15419 W2       5140     TIP3     H1       HT       0.417000       1.00800           0
     15420 W2       5140     TIP3     H2       HT       0.417000       1.00800           0
     15421 W2       5141     TIP3     OH2      OT      -0.834000       15.9994           0
     15422 W2       5141     TIP3     H1       HT       0.417000       1.00800           0
     15423 W2       5141     TIP3     H2       HT       0.417000       1.00800           0
     15424 W2       5142     TIP3     OH2      OT      -0.834000       15.9994           0
     15425 W2       5142     TIP3     H1       HT       0.417000       1.00800           0
     15426 W2       5142     TIP3     H2       HT       0.417000       1.00800           0
     15427 W2       5143     TIP3     OH2      OT      -0.834000       15.9994           0
     15428 W2       5143     TIP3     H1       HT       0.417000       1.00800           0
     15429 W2       5143     TIP3     H2       HT       0.417000       1.00800           0
     15430 W2       5144     TIP3     OH2      OT      -0.834000       15.9994           0
     15431 W2       5144     TIP3     H1       HT       0.417000       1.00800           0
     15432 W2       5144     TIP3     H2       HT       0.417000       1.00800           0
     15433 W2       5145     TIP3     OH2      OT      -0.834000       15.9994           0
     15434 W2       5145     TIP3     H1       HT       0.417000       1.00800           0
     15435 W2       5145     TIP3     H2       HT       0.417000       1.00800           0
     15436 W2       5146     TIP3     OH2      OT      -0.834000       15.9994           0
     15437 W2       5146     TIP3     H1       HT       0.417000       1.00800           0
     15438 W2       5146     TIP3     H2       HT       0.417000       1.00800           0
     15439 W2       5147     TIP3     OH2      OT      -0.834000       15.9994           0
     15440 W2       5147     TIP3     H1       HT       0.417000       1.00800           0
     15441 W2       5147     TIP3     H2       HT       0.417000       1.00800           0
     15442 W2       5148     TIP3     OH2      OT      -0.834000       15.9994           0
     15443 W2       5148     TIP3     H1       HT       0.417000       1.00800           0
     15444 W2       5148     TIP3     H2       HT       0.417000       1.00800           0
     15445 W2       5149     TIP3     OH2      OT      -0.834000       15.9994           0
     15446 W2       5149     TIP3     H1       HT       0.417000       1.00800           0
     15447 W2       5149     TIP3     H2       HT       0.417000       1.00800           0
     15448 W2       5150     TIP3     OH2      OT      -0.834000       15.9994           0
     15449 W2       5150     TIP3     H1       HT       0.417000       1.00800           0
     15450 W2       5150     TIP3     H2       HT       0.417000       1.00800           0
     15451 W2       5151     TIP3     OH2      OT      -0.834000       15.9994           0
     15452 W2       5151     TIP3     H1       HT       0.417000       1.00800           0
     15453 W2       5151     TIP3     H2       HT       0.417000       1.00800           0
     15454 W2       5152     TIP3     OH2      OT      -0.834000       15.9994           0
     15455 W2       5152     TIP3     H1       HT       0.417000       1.00800           0
     15456 W2       5152     TIP3     H2       HT       0.417000       1.00800           0
     15457 W2       5153     TIP3     OH2      OT      -0.834000       15.9994           0
     15458 W2       5153     TIP3     H1       HT       0.417000       1.00800           0
     15459 W2       5153     TIP3     H2       HT       0.417000       1.00800           0
     15460 W2       5154     TIP3     OH2      OT      -0.834000       15.9994           0
     15461 W2       5154     TIP3     H1       HT       0.417000       1.00800           0
     15462 W2       5154     TIP3     H2       HT       0.417000       1.00800           0
     15463 W2       5155     TIP3     OH2      OT      -0.834000       15.9994           0
     15464 W2       5155     TIP3     H1       HT       0.417000       1.00800           0
     15465 W2       5155     TIP3     H2       HT       0.417000       1.00800           0
     15466 W2       5156     TIP3     OH2      OT      -0.834000       15.9994           0
     15467 W2       5156     TIP3     H1       HT       0.417000       1.00800           0
     15468 W2       5156     TIP3     H2       HT       0.417000       1.00800           0
     15469 W2       5157     TIP3     OH2      OT      -0.834000       15.9994           0
     15470 W2       5157     TIP3     H1       HT       0.417000       1.00800           0
     15471 W2       5157     TIP3     H2       HT       0.417000       1.00800           0
     15472 W2       5158     TIP3     OH2      OT      -0.834000       15.9994           0
     15473 W2       5158     TIP3     H1       HT       0.417000       1.00800           0
     15474 W2       5158     TIP3     H2       HT       0.417000       1.00800           0
     15475 W2       5159     TIP3     OH2      OT      -0.834000       15.9994           0
     15476 W2       5159     TIP3     H1       HT       0.417000       1.00800           0
     15477 W2       5159     TIP3     H2       HT       0.417000       1.00800           0
     15478 W2       5160     TIP3     OH2      OT      -0.834000       15.9994           0
     15479 W2       5160     TIP3     H1       HT       0.417000       1.00800           0
     15480 W2       5160     TIP3     H2       HT       0.417000       1.00800           0
     15481 W2       5161     TIP3     OH2      OT      -0.834000       15.9994           0
     15482 W2       5161     TIP3     H1       HT       0.417000       1.00800           0
     15483 W2       5161     TIP3     H2       HT       0.417000       1.00800           0
     15484 W2       5162     TIP3     OH2      OT      -0.834000       15.9994           0
     15485 W2       5162     TIP3     H1       HT       0.417000       1.00800           0
     15486 W2       5162     TIP3     H2       HT       0.417000       1.00800           0
     15487 W2       5163     TIP3     OH2      OT      -0.834000       15.9994           0
     15488 W2       5163     TIP3     H1       HT       0.417000       1.00800           0
     15489 W2       5163     TIP3     H2       HT       0.417000       1.00800           0
     15490 W2       5164     TIP3     OH2      OT      -0.834000       15.9994           0
     15491 W2       5164     TIP3     H1       HT       0.417000       1.00800           0
     15492 W2       5164     TIP3     H2       HT       0.417000       1.00800           0
     15493 W2       5165     TIP3     OH2      OT      -0.834000       15.9994           0
     15494 W2       5165     TIP3     H1       HT       0.417000       1.00800           0
     15495 W2       5165     TIP3     H2       HT       0.417000       1.00800           0
     15496 W2       5166     TIP3     OH2      OT      -0.834000       15.9994           0
     15497 W2       5166     TIP3     H1       HT       0.417000       1.00800           0
     15498 W2       5166     TIP3     H2       HT       0.417000       1.00800           0
     15499 W2       5167     TIP3     OH2      OT      -0.834000       15.9994           0
     15500 W2       5167     TIP3     H1       HT       0.417000       1.00800           0
     15501 W2       5167     TIP3     H2       HT       0.417000       1.00800           0
     15502 W2       5168     TIP3     OH2      OT      -0.834000       15.9994           0
     15503 W2       5168     TIP3     H1       HT       0.417000       1.00800           0
     15504 W2       5168     TIP3     H2       HT       0.417000       1.00800           0
     15505 W2       5169     TIP3     OH2      OT      -0.834000       15.9994           0
     15506 W2       5169     TIP3     H1       HT       0.417000       1.00800           0
     15507 W2       5169     TIP3     H2       HT       0.417000       1.00800           0
     15508 W2       5170     TIP3     OH2      OT      -0.834000       15.9994           0
     15509 W2       5170     TIP3     H1       HT       0.417000       1.00800           0
     15510 W2       5170     TIP3     H2       HT       0.417000       1.00800           0
     15511 W2       5171     TIP3     OH2      OT      -0.834000       15.9994           0
     15512 W2       5171     TIP3     H1       HT       0.417000       1.00800           0
     15513 W2       5171     TIP3     H2       HT       0.417000       1.00800           0
     15514 W2       5172     TIP3     OH2      OT      -0.834000       15.9994           0
     15515 W2       5172     TIP3     H1       HT       0.417000       1.00800           0
     15516 W2       5172     TIP3     H2       HT       0.417000       1.00800           0
     15517 W2       5173     TIP3     OH2      OT      -0.834000       15.9994           0
     15518 W2       5173     TIP3     H1       HT       0.417000       1.00800           0
     15519 W2       5173     TIP3     H2       HT       0.417000       1.00800           0
     15520 W2       5174     TIP3     OH2      OT      -0.834000       15.9994           0
     15521 W2       5174     TIP3     H1       HT       0.417000       1.00800           0
     15522 W2       5174     TIP3     H2       HT       0.417000       1.00800           0
     15523 W2       5175     TIP3     OH2      OT      -0.834000       15.9994           0
     15524 W2       5175     TIP3     H1       HT       0.417000       1.00800           0
     15525 W2       5175     TIP3     H2       HT       0.417000       1.00800           0
     15526 W2       5176     TIP3     OH2      OT      -0.834000       15.9994           0
     15527 W2       5176     TIP3     H1       HT       0.417000       1.00800           0
     15528 W2       5176     TIP3     H2       HT       0.417000       1.00800           0
     15529 W2       5177     TIP3     OH2      OT      -0.834000       15.9994           0
     15530 W2       5177     TIP3     H1       HT       0.417000       1.00800           0
     15531 W2       5177     TIP3     H2       HT       0.417000       1.00800           0
     15532 W2       5178     TIP3     OH2      OT      -0.834000       15.9994           0
     15533 W2       5178     TIP3     H1       HT       0.417000       1.00800           0
     15534 W2       5178     TIP3     H2       HT       0.417000       1.00800           0
     15535 W2       5179     TIP3     OH2      OT      -0.834000       15.9994           0
     15536 W2       5179     TIP3     H1       HT       0.417000       1.00800           0
     15537 W2       5179     TIP3     H2       HT       0.417000       1.00800           0
     15538 W2       5180     TIP3     OH2      OT      -0.834000       15.9994           0
     15539 W2       5180     TIP3     H1       HT       0.417000       1.00800           0
     15540 W2       5180     TIP3     H2       HT       0.417000       1.00800           0
     15541 W2       5181     TIP3     OH2      OT      -0.834000       15.9994           0
     15542 W2       5181     TIP3     H1       HT       0.417000       1.00800           0
     15543 W2       5181     TIP3     H2       HT       0.417000       1.00800           0
     15544 W2       5182     TIP3     OH2      OT      -0.834000       15.9994           0
     15545 W2       5182     TIP3     H1       HT       0.417000       1.00800           0
     15546 W2       5182     TIP3     H2       HT       0.417000       1.00800           0
     15547 W2       5183     TIP3     OH2      OT      -0.834000       15.9994           0
     15548 W2       5183     TIP3     H1       HT       0.417000       1.00800           0
     15549 W2       5183     TIP3     H2       HT       0.417000       1.00800           0
     15550 W2       5184     TIP3     OH2      OT      -0.834000       15.9994           0
     15551 W2       5184     TIP3     H1       HT       0.417000       1.00800           0
     15552 W2       5184     TIP3     H2       HT       0.417000       1.00800           0
     15553 W2       5185     TIP3     OH2      OT      -0.834000       15.9994           0
     15554 W2       5185     TIP3     H1       HT       0.417000       1.00800           0
     15555 W2       5185     TIP3     H2       HT       0.417000       1.00800           0
     15556 W2       5186     TIP3     OH2      OT      -0.834000       15.9994           0
     15557 W2       5186     TIP3     H1       HT       0.417000       1.00800           0
     15558 W2       5186     TIP3     H2       HT       0.417000       1.00800           0
     15559 W2       5187     TIP3     OH2      OT      -0.834000       15.9994           0
     15560 W2       5187     TIP3     H1       HT       0.417000       1.00800           0
     15561 W2       5187     TIP3     H2       HT       0.417000       1.00800           0
     15562 W2       5188     TIP3     OH2      OT      -0.834000       15.9994           0
     15563 W2       5188     TIP3     H1       HT       0.417000       1.00800           0
     15564 W2       5188     TIP3     H2       HT       0.417000       1.00800           0
     15565 W2       5189     TIP3     OH2      OT      -0.834000       15.9994           0
     15566 W2       5189     TIP3     H1       HT       0.417000       1.00800           0
     15567 W2       5189     TIP3     H2       HT       0.417000       1.00800           0
     15568 W2       5190     TIP3     OH2      OT      -0.834000       15.9994           0
     15569 W2       5190     TIP3     H1       HT       0.417000       1.00800           0
     15570 W2       5190     TIP3     H2       HT       0.417000       1.00800           0
     15571 W2       5191     TIP3     OH2      OT      -0.834000       15.9994           0
     15572 W2       5191     TIP3     H1       HT       0.417000       1.00800           0
     15573 W2       5191     TIP3     H2       HT       0.417000       1.00800           0
     15574 W2       5192     TIP3     OH2      OT      -0.834000       15.9994           0
     15575 W2       5192     TIP3     H1       HT       0.417000       1.00800           0
     15576 W2       5192     TIP3     H2       HT       0.417000       1.00800           0
     15577 W2       5193     TIP3     OH2      OT      -0.834000       15.9994           0
     15578 W2       5193     TIP3     H1       HT       0.417000       1.00800           0
     15579 W2       5193     TIP3     H2       HT       0.417000       1.00800           0
     15580 W2       5194     TIP3     OH2      OT      -0.834000       15.9994           0
     15581 W2       5194     TIP3     H1       HT       0.417000       1.00800           0
     15582 W2       5194     TIP3     H2       HT       0.417000       1.00800           0
     15583 W2       5195     TIP3     OH2      OT      -0.834000       15.9994           0
     15584 W2       5195     TIP3     H1       HT       0.417000       1.00800           0
     15585 W2       5195     TIP3     H2       HT       0.417000       1.00800           0
     15586 W2       5196     TIP3     OH2      OT      -0.834000       15.9994           0
     15587 W2       5196     TIP3     H1       HT       0.417000       1.00800           0
     15588 W2       5196     TIP3     H2       HT       0.417000       1.00800           0
     15589 W2       5197     TIP3     OH2      OT      -0.834000       15.9994           0
     15590 W2       5197     TIP3     H1       HT       0.417000       1.00800           0
     15591 W2       5197     TIP3     H2       HT       0.417000       1.00800           0
     15592 W2       5198     TIP3     OH2      OT      -0.834000       15.9994           0
     15593 W2       5198     TIP3     H1       HT       0.417000       1.00800           0
     15594 W2       5198     TIP3     H2       HT       0.417000       1.00800           0
     15595 W2       5199     TIP3     OH2      OT      -0.834000       15.9994           0
     15596 W2       5199     TIP3     H1       HT       0.417000       1.00800           0
     15597 W2       5199     TIP3     H2       HT       0.417000       1.00800           0
     15598 W2       5200     TIP3     OH2      OT      -0.834000       15.9994           0
     15599 W2       5200     TIP3     H1       HT       0.417000       1.00800           0
     15600 W2       5200     TIP3     H2       HT       0.417000       1.00800           0
     15601 W2       5201     TIP3     OH2      OT      -0.834000       15.9994           0
     15602 W2       5201     TIP3     H1       HT       0.417000       1.00800           0
     15603 W2       5201     TIP3     H2       HT       0.417000       1.00800           0
     15604 W2       5202     TIP3     OH2      OT      -0.834000       15.9994           0
     15605 W2       5202     TIP3     H1       HT       0.417000       1.00800           0
     15606 W2       5202     TIP3     H2       HT       0.417000       1.00800           0
     15607 W2       5203     TIP3     OH2      OT      -0.834000       15.9994           0
     15608 W2       5203     TIP3     H1       HT       0.417000       1.00800           0
     15609 W2       5203     TIP3     H2       HT       0.417000       1.00800           0
     15610 W2       5204     TIP3     OH2      OT      -0.834000       15.9994           0
     15611 W2       5204     TIP3     H1       HT       0.417000       1.00800           0
     15612 W2       5204     TIP3     H2       HT       0.417000       1.00800           0
     15613 W2       5205     TIP3     OH2      OT      -0.834000       15.9994           0
     15614 W2       5205     TIP3     H1       HT       0.417000       1.00800           0
     15615 W2       5205     TIP3     H2       HT       0.417000       1.00800           0
     15616 W2       5206     TIP3     OH2      OT      -0.834000       15.9994           0
     15617 W2       5206     TIP3     H1       HT       0.417000       1.00800           0
     15618 W2       5206     TIP3     H2       HT       0.417000       1.00800           0
     15619 W2       5207     TIP3     OH2      OT      -0.834000       15.9994           0
     15620 W2       5207     TIP3     H1       HT       0.417000       1.00800           0
     15621 W2       5207     TIP3     H2       HT       0.417000       1.00800           0
     15622 W2       5208     TIP3     OH2      OT      -0.834000       15.9994           0
     15623 W2       5208     TIP3     H1       HT       0.417000       1.00800           0
     15624 W2       5208     TIP3     H2       HT       0.417000       1.00800           0
     15625 W2       5209     TIP3     OH2      OT      -0.834000       15.9994           0
     15626 W2       5209     TIP3     H1       HT       0.417000       1.00800           0
     15627 W2       5209     TIP3     H2       HT       0.417000       1.00800           0
     15628 W2       5210     TIP3     OH2      OT      -0.834000       15.9994           0
     15629 W2       5210     TIP3     H1       HT       0.417000       1.00800           0
     15630 W2       5210     TIP3     H2       HT       0.417000       1.00800           0
     15631 W2       5211     TIP3     OH2      OT      -0.834000       15.9994           0
     15632 W2       5211     TIP3     H1       HT       0.417000       1.00800           0
     15633 W2       5211     TIP3     H2       HT       0.417000       1.00800           0
     15634 W2       5212     TIP3     OH2      OT      -0.834000       15.9994           0
     15635 W2       5212     TIP3     H1       HT       0.417000       1.00800           0
     15636 W2       5212     TIP3     H2       HT       0.417000       1.00800           0
     15637 W2       5213     TIP3     OH2      OT      -0.834000       15.9994           0
     15638 W2       5213     TIP3     H1       HT       0.417000       1.00800           0
     15639 W2       5213     TIP3     H2       HT       0.417000       1.00800           0
     15640 W2       5214     TIP3     OH2      OT      -0.834000       15.9994           0
     15641 W2       5214     TIP3     H1       HT       0.417000       1.00800           0
     15642 W2       5214     TIP3     H2       HT       0.417000       1.00800           0
     15643 W2       5215     TIP3     OH2      OT      -0.834000       15.9994           0
     15644 W2       5215     TIP3     H1       HT       0.417000       1.00800           0
     15645 W2       5215     TIP3     H2       HT       0.417000       1.00800           0
     15646 W2       5216     TIP3     OH2      OT      -0.834000       15.9994           0
     15647 W2       5216     TIP3     H1       HT       0.417000       1.00800           0
     15648 W2       5216     TIP3     H2       HT       0.417000       1.00800           0
     15649 W2       5217     TIP3     OH2      OT      -0.834000       15.9994           0
     15650 W2       5217     TIP3     H1       HT       0.417000       1.00800           0
     15651 W2       5217     TIP3     H2       HT       0.417000       1.00800           0
     15652 W2       5218     TIP3     OH2      OT      -0.834000       15.9994           0
     15653 W2       5218     TIP3     H1       HT       0.417000       1.00800           0
     15654 W2       5218     TIP3     H2       HT       0.417000       1.00800           0
     15655 W2       5219     TIP3     OH2      OT      -0.834000       15.9994           0
     15656 W2       5219     TIP3     H1       HT       0.417000       1.00800           0
     15657 W2       5219     TIP3     H2       HT       0.417000       1.00800           0
     15658 W2       5220     TIP3     OH2      OT      -0.834000       15.9994           0
     15659 W2       5220     TIP3     H1       HT       0.417000       1.00800           0
     15660 W2       5220     TIP3     H2       HT       0.417000       1.00800           0
     15661 W2       5221     TIP3     OH2      OT      -0.834000       15.9994           0
     15662 W2       5221     TIP3     H1       HT       0.417000       1.00800           0
     15663 W2       5221     TIP3     H2       HT       0.417000       1.00800           0
     15664 W2       5222     TIP3     OH2      OT      -0.834000       15.9994           0
     15665 W2       5222     TIP3     H1       HT       0.417000       1.00800           0
     15666 W2       5222     TIP3     H2       HT       0.417000       1.00800           0
     15667 W2       5223     TIP3     OH2      OT      -0.834000       15.9994           0
     15668 W2       5223     TIP3     H1       HT       0.417000       1.00800           0
     15669 W2       5223     TIP3     H2       HT       0.417000       1.00800           0
     15670 W2       5224     TIP3     OH2      OT      -0.834000       15.9994           0
     15671 W2       5224     TIP3     H1       HT       0.417000       1.00800           0
     15672 W2       5224     TIP3     H2       HT       0.417000       1.00800           0
     15673 W2       5225     TIP3     OH2      OT      -0.834000       15.9994           0
     15674 W2       5225     TIP3     H1       HT       0.417000       1.00800           0
     15675 W2       5225     TIP3     H2       HT       0.417000       1.00800           0
     15676 W2       5226     TIP3     OH2      OT      -0.834000       15.9994           0
     15677 W2       5226     TIP3     H1       HT       0.417000       1.00800           0
     15678 W2       5226     TIP3     H2       HT       0.417000       1.00800           0
     15679 W2       5227     TIP3     OH2      OT      -0.834000       15.9994           0
     15680 W2       5227     TIP3     H1       HT       0.417000       1.00800           0
     15681 W2       5227     TIP3     H2       HT       0.417000       1.00800           0
     15682 W2       5228     TIP3     OH2      OT      -0.834000       15.9994           0
     15683 W2       5228     TIP3     H1       HT       0.417000       1.00800           0
     15684 W2       5228     TIP3     H2       HT       0.417000       1.00800           0
     15685 W2       5229     TIP3     OH2      OT      -0.834000       15.9994           0
     15686 W2       5229     TIP3     H1       HT       0.417000       1.00800           0
     15687 W2       5229     TIP3     H2       HT       0.417000       1.00800           0
     15688 W2       5230     TIP3     OH2      OT      -0.834000       15.9994           0
     15689 W2       5230     TIP3     H1       HT       0.417000       1.00800           0
     15690 W2       5230     TIP3     H2       HT       0.417000       1.00800           0
     15691 W2       5231     TIP3     OH2      OT      -0.834000       15.9994           0
     15692 W2       5231     TIP3     H1       HT       0.417000       1.00800           0
     15693 W2       5231     TIP3     H2       HT       0.417000       1.00800           0
     15694 W2       5232     TIP3     OH2      OT      -0.834000       15.9994           0
     15695 W2       5232     TIP3     H1       HT       0.417000       1.00800           0
     15696 W2       5232     TIP3     H2       HT       0.417000       1.00800           0
     15697 W2       5233     TIP3     OH2      OT      -0.834000       15.9994           0
     15698 W2       5233     TIP3     H1       HT       0.417000       1.00800           0
     15699 W2       5233     TIP3     H2       HT       0.417000       1.00800           0
     15700 W2       5234     TIP3     OH2      OT      -0.834000       15.9994           0
     15701 W2       5234     TIP3     H1       HT       0.417000       1.00800           0
     15702 W2       5234     TIP3     H2       HT       0.417000       1.00800           0
     15703 W2       5235     TIP3     OH2      OT      -0.834000       15.9994           0
     15704 W2       5235     TIP3     H1       HT       0.417000       1.00800           0
     15705 W2       5235     TIP3     H2       HT       0.417000       1.00800           0
     15706 W2       5236     TIP3     OH2      OT      -0.834000       15.9994           0
     15707 W2       5236     TIP3     H1       HT       0.417000       1.00800           0
     15708 W2       5236     TIP3     H2       HT       0.417000       1.00800           0
     15709 W2       5237     TIP3     OH2      OT      -0.834000       15.9994           0
     15710 W2       5237     TIP3     H1       HT       0.417000       1.00800           0
     15711 W2       5237     TIP3     H2       HT       0.417000       1.00800           0
     15712 W2       5238     TIP3     OH2      OT      -0.834000       15.9994           0
     15713 W2       5238     TIP3     H1       HT       0.417000       1.00800           0
     15714 W2       5238     TIP3     H2       HT       0.417000       1.00800           0
     15715 W2       5239     TIP3     OH2      OT      -0.834000       15.9994           0
     15716 W2       5239     TIP3     H1       HT       0.417000       1.00800           0
     15717 W2       5239     TIP3     H2       HT       0.417000       1.00800           0
     15718 W2       5240     TIP3     OH2      OT      -0.834000       15.9994           0
     15719 W2       5240     TIP3     H1       HT       0.417000       1.00800           0
     15720 W2       5240     TIP3     H2       HT       0.417000       1.00800           0
     15721 W2       5241     TIP3     OH2      OT      -0.834000       15.9994           0
     15722 W2       5241     TIP3     H1       HT       0.417000       1.00800           0
     15723 W2       5241     TIP3     H2       HT       0.417000       1.00800           0
     15724 W2       5242     TIP3     OH2      OT      -0.834000       15.9994           0
     15725 W2       5242     TIP3     H1       HT       0.417000       1.00800           0
     15726 W2       5242     TIP3     H2       HT       0.417000       1.00800           0
     15727 W2       5243     TIP3     OH2      OT      -0.834000       15.9994           0
     15728 W2       5243     TIP3     H1       HT       0.417000       1.00800           0
     15729 W2       5243     TIP3     H2       HT       0.417000       1.00800           0
     15730 W2       5244     TIP3     OH2      OT      -0.834000       15.9994           0
     15731 W2       5244     TIP3     H1       HT       0.417000       1.00800           0
     15732 W2       5244     TIP3     H2       HT       0.417000       1.00800           0
     15733 W2       5245     TIP3     OH2      OT      -0.834000       15.9994           0
     15734 W2       5245     TIP3     H1       HT       0.417000       1.00800           0
     15735 W2       5245     TIP3     H2       HT       0.417000       1.00800           0
     15736 W2       5246     TIP3     OH2      OT      -0.834000       15.9994           0
     15737 W2       5246     TIP3     H1       HT       0.417000       1.00800           0
     15738 W2       5246     TIP3     H2       HT       0.417000       1.00800           0
     15739 W2       5247     TIP3     OH2      OT      -0.834000       15.9994           0
     15740 W2       5247     TIP3     H1       HT       0.417000       1.00800           0
     15741 W2       5247     TIP3     H2       HT       0.417000       1.00800           0
     15742 W2       5248     TIP3     OH2      OT      -0.834000       15.9994           0
     15743 W2       5248     TIP3     H1       HT       0.417000       1.00800           0
     15744 W2       5248     TIP3     H2       HT       0.417000       1.00800           0
     15745 W2       5249     TIP3     OH2      OT      -0.834000       15.9994           0
     15746 W2       5249     TIP3     H1       HT       0.417000       1.00800           0
     15747 W2       5249     TIP3     H2       HT       0.417000       1.00800           0
     15748 W2       5250     TIP3     OH2      OT      -0.834000       15.9994           0
     15749 W2       5250     TIP3     H1       HT       0.417000       1.00800           0
     15750 W2       5250     TIP3     H2       HT       0.417000       1.00800           0
     15751 W2       5251     TIP3     OH2      OT      -0.834000       15.9994           0
     15752 W2       5251     TIP3     H1       HT       0.417000       1.00800           0
     15753 W2       5251     TIP3     H2       HT       0.417000       1.00800           0
     15754 W2       5252     TIP3     OH2      OT      -0.834000       15.9994           0
     15755 W2       5252     TIP3     H1       HT       0.417000       1.00800           0
     15756 W2       5252     TIP3     H2       HT       0.417000       1.00800           0
     15757 W2       5253     TIP3     OH2      OT      -0.834000       15.9994           0
     15758 W2       5253     TIP3     H1       HT       0.417000       1.00800           0
     15759 W2       5253     TIP3     H2       HT       0.417000       1.00800           0
     15760 W2       5254     TIP3     OH2      OT      -0.834000       15.9994           0
     15761 W2       5254     TIP3     H1       HT       0.417000       1.00800           0
     15762 W2       5254     TIP3     H2       HT       0.417000       1.00800           0
     15763 W2       5255     TIP3     OH2      OT      -0.834000       15.9994           0
     15764 W2       5255     TIP3     H1       HT       0.417000       1.00800           0
     15765 W2       5255     TIP3     H2       HT       0.417000       1.00800           0
     15766 W2       5256     TIP3     OH2      OT      -0.834000       15.9994           0
     15767 W2       5256     TIP3     H1       HT       0.417000       1.00800           0
     15768 W2       5256     TIP3     H2       HT       0.417000       1.00800           0
     15769 W2       5257     TIP3     OH2      OT      -0.834000       15.9994           0
     15770 W2       5257     TIP3     H1       HT       0.417000       1.00800           0
     15771 W2       5257     TIP3     H2       HT       0.417000       1.00800           0
     15772 W2       5258     TIP3     OH2      OT      -0.834000       15.9994           0
     15773 W2       5258     TIP3     H1       HT       0.417000       1.00800           0
     15774 W2       5258     TIP3     H2       HT       0.417000       1.00800           0
     15775 W2       5259     TIP3     OH2      OT      -0.834000       15.9994           0
     15776 W2       5259     TIP3     H1       HT       0.417000       1.00800           0
     15777 W2       5259     TIP3     H2       HT       0.417000       1.00800           0
     15778 W2       5260     TIP3     OH2      OT      -0.834000       15.9994           0
     15779 W2       5260     TIP3     H1       HT       0.417000       1.00800           0
     15780 W2       5260     TIP3     H2       HT       0.417000       1.00800           0
     15781 W2       5261     TIP3     OH2      OT      -0.834000       15.9994           0
     15782 W2       5261     TIP3     H1       HT       0.417000       1.00800           0
     15783 W2       5261     TIP3     H2       HT       0.417000       1.00800           0
     15784 W2       5262     TIP3     OH2      OT      -0.834000       15.9994           0
     15785 W2       5262     TIP3     H1       HT       0.417000       1.00800           0
     15786 W2       5262     TIP3     H2       HT       0.417000       1.00800           0
     15787 W2       5263     TIP3     OH2      OT      -0.834000       15.9994           0
     15788 W2       5263     TIP3     H1       HT       0.417000       1.00800           0
     15789 W2       5263     TIP3     H2       HT       0.417000       1.00800           0
     15790 W2       5264     TIP3     OH2      OT      -0.834000       15.9994           0
     15791 W2       5264     TIP3     H1       HT       0.417000       1.00800           0
     15792 W2       5264     TIP3     H2       HT       0.417000       1.00800           0
     15793 W2       5265     TIP3     OH2      OT      -0.834000       15.9994           0
     15794 W2       5265     TIP3     H1       HT       0.417000       1.00800           0
     15795 W2       5265     TIP3     H2       HT       0.417000       1.00800           0
     15796 W2       5266     TIP3     OH2      OT      -0.834000       15.9994           0
     15797 W2       5266     TIP3     H1       HT       0.417000       1.00800           0
     15798 W2       5266     TIP3     H2       HT       0.417000       1.00800           0
     15799 W2       5267     TIP3     OH2      OT      -0.834000       15.9994           0
     15800 W2       5267     TIP3     H1       HT       0.417000       1.00800           0
     15801 W2       5267     TIP3     H2       HT       0.417000       1.00800           0
     15802 W2       5268     TIP3     OH2      OT      -0.834000       15.9994           0
     15803 W2       5268     TIP3     H1       HT       0.417000       1.00800           0
     15804 W2       5268     TIP3     H2       HT       0.417000       1.00800           0
     15805 W2       5269     TIP3     OH2      OT      -0.834000       15.9994           0
     15806 W2       5269     TIP3     H1       HT       0.417000       1.00800           0
     15807 W2       5269     TIP3     H2       HT       0.417000       1.00800           0
     15808 W2       5270     TIP3     OH2      OT      -0.834000       15.9994           0
     15809 W2       5270     TIP3     H1       HT       0.417000       1.00800           0
     15810 W2       5270     TIP3     H2       HT       0.417000       1.00800           0
     15811 W2       5271     TIP3     OH2      OT      -0.834000       15.9994           0
     15812 W2       5271     TIP3     H1       HT       0.417000       1.00800           0
     15813 W2       5271     TIP3     H2       HT       0.417000       1.00800           0
     15814 W2       5272     TIP3     OH2      OT      -0.834000       15.9994           0
     15815 W2       5272     TIP3     H1       HT       0.417000       1.00800           0
     15816 W2       5272     TIP3     H2       HT       0.417000       1.00800           0
     15817 W2       5273     TIP3     OH2      OT      -0.834000       15.9994           0
     15818 W2       5273     TIP3     H1       HT       0.417000       1.00800           0
     15819 W2       5273     TIP3     H2       HT       0.417000       1.00800           0
     15820 W2       5274     TIP3     OH2      OT      -0.834000       15.9994           0
     15821 W2       5274     TIP3     H1       HT       0.417000       1.00800           0
     15822 W2       5274     TIP3     H2       HT       0.417000       1.00800           0
     15823 W2       5275     TIP3     OH2      OT      -0.834000       15.9994           0
     15824 W2       5275     TIP3     H1       HT       0.417000       1.00800           0
     15825 W2       5275     TIP3     H2       HT       0.417000       1.00800           0
     15826 W2       5276     TIP3     OH2      OT      -0.834000       15.9994           0
     15827 W2       5276     TIP3     H1       HT       0.417000       1.00800           0
     15828 W2       5276     TIP3     H2       HT       0.417000       1.00800           0
     15829 W2       5277     TIP3     OH2      OT      -0.834000       15.9994           0
     15830 W2       5277     TIP3     H1       HT       0.417000       1.00800           0
     15831 W2       5277     TIP3     H2       HT       0.417000       1.00800           0
     15832 W2       5278     TIP3     OH2      OT      -0.834000       15.9994           0
     15833 W2       5278     TIP3     H1       HT       0.417000       1.00800           0
     15834 W2       5278     TIP3     H2       HT       0.417000       1.00800           0
     15835 W2       5279     TIP3     OH2      OT      -0.834000       15.9994           0
     15836 W2       5279     TIP3     H1       HT       0.417000       1.00800           0
     15837 W2       5279     TIP3     H2       HT       0.417000       1.00800           0
     15838 W2       5280     TIP3     OH2      OT      -0.834000       15.9994           0
     15839 W2       5280     TIP3     H1       HT       0.417000       1.00800           0
     15840 W2       5280     TIP3     H2       HT       0.417000       1.00800           0
     15841 W2       5281     TIP3     OH2      OT      -0.834000       15.9994           0
     15842 W2       5281     TIP3     H1       HT       0.417000       1.00800           0
     15843 W2       5281     TIP3     H2       HT       0.417000       1.00800           0
     15844 W2       5282     TIP3     OH2      OT      -0.834000       15.9994           0
     15845 W2       5282     TIP3     H1       HT       0.417000       1.00800           0
     15846 W2       5282     TIP3     H2       HT       0.417000       1.00800           0
     15847 W2       5283     TIP3     OH2      OT      -0.834000       15.9994           0
     15848 W2       5283     TIP3     H1       HT       0.417000       1.00800           0
     15849 W2       5283     TIP3     H2       HT       0.417000       1.00800           0
     15850 W2       5284     TIP3     OH2      OT      -0.834000       15.9994           0
     15851 W2       5284     TIP3     H1       HT       0.417000       1.00800           0
     15852 W2       5284     TIP3     H2       HT       0.417000       1.00800           0
     15853 W2       5285     TIP3     OH2      OT      -0.834000       15.9994           0
     15854 W2       5285     TIP3     H1       HT       0.417000       1.00800           0
     15855 W2       5285     TIP3     H2       HT       0.417000       1.00800           0
     15856 W2       5286     TIP3     OH2      OT      -0.834000       15.9994           0
     15857 W2       5286     TIP3     H1       HT       0.417000       1.00800           0
     15858 W2       5286     TIP3     H2       HT       0.417000       1.00800           0
     15859 W2       5287     TIP3     OH2      OT      -0.834000       15.9994           0
     15860 W2       5287     TIP3     H1       HT       0.417000       1.00800           0
     15861 W2       5287     TIP3     H2       HT       0.417000       1.00800           0
     15862 W2       5288     TIP3     OH2      OT      -0.834000       15.9994           0
     15863 W2       5288     TIP3     H1       HT       0.417000       1.00800           0
     15864 W2       5288     TIP3     H2       HT       0.417000       1.00800           0
     15865 W2       5289     TIP3     OH2      OT      -0.834000       15.9994           0
     15866 W2       5289     TIP3     H1       HT       0.417000       1.00800           0
     15867 W2       5289     TIP3     H2       HT       0.417000       1.00800           0
     15868 W2       5290     TIP3     OH2      OT      -0.834000       15.9994           0
     15869 W2       5290     TIP3     H1       HT       0.417000       1.00800           0
     15870 W2       5290     TIP3     H2       HT       0.417000       1.00800           0
     15871 W2       5291     TIP3     OH2      OT      -0.834000       15.9994           0
     15872 W2       5291     TIP3     H1       HT       0.417000       1.00800           0
     15873 W2       5291     TIP3     H2       HT       0.417000       1.00800           0
     15874 W2       5292     TIP3     OH2      OT      -0.834000       15.9994           0
     15875 W2       5292     TIP3     H1       HT       0.417000       1.00800           0
     15876 W2       5292     TIP3     H2       HT       0.417000       1.00800           0
     15877 W2       5293     TIP3     OH2      OT      -0.834000       15.9994           0
     15878 W2       5293     TIP3     H1       HT       0.417000       1.00800           0
     15879 W2       5293     TIP3     H2       HT       0.417000       1.00800           0
     15880 W2       5294     TIP3     OH2      OT      -0.834000       15.9994           0
     15881 W2       5294     TIP3     H1       HT       0.417000       1.00800           0
     15882 W2       5294     TIP3     H2       HT       0.417000       1.00800           0
     15883 W2       5295     TIP3     OH2      OT      -0.834000       15.9994           0
     15884 W2       5295     TIP3     H1       HT       0.417000       1.00800           0
     15885 W2       5295     TIP3     H2       HT       0.417000       1.00800           0
     15886 W2       5296     TIP3     OH2      OT      -0.834000       15.9994           0
     15887 W2       5296     TIP3     H1       HT       0.417000       1.00800           0
     15888 W2       5296     TIP3     H2       HT       0.417000       1.00800           0
     15889 W2       5297     TIP3     OH2      OT      -0.834000       15.9994           0
     15890 W2       5297     TIP3     H1       HT       0.417000       1.00800           0
     15891 W2       5297     TIP3     H2       HT       0.417000       1.00800           0
     15892 W2       5298     TIP3     OH2      OT      -0.834000       15.9994           0
     15893 W2       5298     TIP3     H1       HT       0.417000       1.00800           0
     15894 W2       5298     TIP3     H2       HT       0.417000       1.00800           0
     15895 W2       5299     TIP3     OH2      OT      -0.834000       15.9994           0
     15896 W2       5299     TIP3     H1       HT       0.417000       1.00800           0
     15897 W2       5299     TIP3     H2       HT       0.417000       1.00800           0
     15898 W2       5300     TIP3     OH2      OT      -0.834000       15.9994           0
     15899 W2       5300     TIP3     H1       HT       0.417000       1.00800           0
     15900 W2       5300     TIP3     H2       HT       0.417000       1.00800           0
     15901 W2       5301     TIP3     OH2      OT      -0.834000       15.9994           0
     15902 W2       5301     TIP3     H1       HT       0.417000       1.00800           0
     15903 W2       5301     TIP3     H2       HT       0.417000       1.00800           0
     15904 W2       5302     TIP3     OH2      OT      -0.834000       15.9994           0
     15905 W2       5302     TIP3     H1       HT       0.417000       1.00800           0
     15906 W2       5302     TIP3     H2       HT       0.417000       1.00800           0
     15907 W2       5303     TIP3     OH2      OT      -0.834000       15.9994           0
     15908 W2       5303     TIP3     H1       HT       0.417000       1.00800           0
     15909 W2       5303     TIP3     H2       HT       0.417000       1.00800           0
     15910 W2       5304     TIP3     OH2      OT      -0.834000       15.9994           0
     15911 W2       5304     TIP3     H1       HT       0.417000       1.00800           0
     15912 W2       5304     TIP3     H2       HT       0.417000       1.00800           0
     15913 W2       5305     TIP3     OH2      OT      -0.834000       15.9994           0
     15914 W2       5305     TIP3     H1       HT       0.417000       1.00800           0
     15915 W2       5305     TIP3     H2       HT       0.417000       1.00800           0
     15916 W2       5306     TIP3     OH2      OT      -0.834000       15.9994           0
     15917 W2       5306     TIP3     H1       HT       0.417000       1.00800           0
     15918 W2       5306     TIP3     H2       HT       0.417000       1.00800           0
     15919 W2       5307     TIP3     OH2      OT      -0.834000       15.9994           0
     15920 W2       5307     TIP3     H1       HT       0.417000       1.00800           0
     15921 W2       5307     TIP3     H2       HT       0.417000       1.00800           0
     15922 W2       5308     TIP3     OH2      OT      -0.834000       15.9994           0
     15923 W2       5308     TIP3     H1       HT       0.417000       1.00800           0
     15924 W2       5308     TIP3     H2       HT       0.417000       1.00800           0
     15925 W2       5309     TIP3     OH2      OT      -0.834000       15.9994           0
     15926 W2       5309     TIP3     H1       HT       0.417000       1.00800           0
     15927 W2       5309     TIP3     H2       HT       0.417000       1.00800           0
     15928 W2       5310     TIP3     OH2      OT      -0.834000       15.9994           0
     15929 W2       5310     TIP3     H1       HT       0.417000       1.00800           0
     15930 W2       5310     TIP3     H2       HT       0.417000       1.00800           0
     15931 W2       5311     TIP3     OH2      OT      -0.834000       15.9994           0
     15932 W2       5311     TIP3     H1       HT       0.417000       1.00800           0
     15933 W2       5311     TIP3     H2       HT       0.417000       1.00800           0
     15934 W2       5312     TIP3     OH2      OT      -0.834000       15.9994           0
     15935 W2       5312     TIP3     H1       HT       0.417000       1.00800           0
     15936 W2       5312     TIP3     H2       HT       0.417000       1.00800           0
     15937 W2       5313     TIP3     OH2      OT      -0.834000       15.9994           0
     15938 W2       5313     TIP3     H1       HT       0.417000       1.00800           0
     15939 W2       5313     TIP3     H2       HT       0.417000       1.00800           0
     15940 W2       5314     TIP3     OH2      OT      -0.834000       15.9994           0
     15941 W2       5314     TIP3     H1       HT       0.417000       1.00800           0
     15942 W2       5314     TIP3     H2       HT       0.417000       1.00800           0
     15943 W2       5315     TIP3     OH2      OT      -0.834000       15.9994           0
     15944 W2       5315     TIP3     H1       HT       0.417000       1.00800           0
     15945 W2       5315     TIP3     H2       HT       0.417000       1.00800           0
     15946 W2       5316     TIP3     OH2      OT      -0.834000       15.9994           0
     15947 W2       5316     TIP3     H1       HT       0.417000       1.00800           0
     15948 W2       5316     TIP3     H2       HT       0.417000       1.00800           0
     15949 W2       5317     TIP3     OH2      OT      -0.834000       15.9994           0
     15950 W2       5317     TIP3     H1       HT       0.417000       1.00800           0
     15951 W2       5317     TIP3     H2       HT       0.417000       1.00800           0
     15952 W2       5318     TIP3     OH2      OT      -0.834000       15.9994           0
     15953 W2       5318     TIP3     H1       HT       0.417000       1.00800           0
     15954 W2       5318     TIP3     H2       HT       0.417000       1.00800           0
     15955 W2       5319     TIP3     OH2      OT      -0.834000       15.9994           0
     15956 W2       5319     TIP3     H1       HT       0.417000       1.00800           0
     15957 W2       5319     TIP3     H2       HT       0.417000       1.00800           0
     15958 W2       5320     TIP3     OH2      OT      -0.834000       15.9994           0
     15959 W2       5320     TIP3     H1       HT       0.417000       1.00800           0
     15960 W2       5320     TIP3     H2       HT       0.417000       1.00800           0
     15961 W2       5321     TIP3     OH2      OT      -0.834000       15.9994           0
     15962 W2       5321     TIP3     H1       HT       0.417000       1.00800           0
     15963 W2       5321     TIP3     H2       HT       0.417000       1.00800           0
     15964 W2       5322     TIP3     OH2      OT      -0.834000       15.9994           0
     15965 W2       5322     TIP3     H1       HT       0.417000       1.00800           0
     15966 W2       5322     TIP3     H2       HT       0.417000       1.00800           0
     15967 W2       5323     TIP3     OH2      OT      -0.834000       15.9994           0
     15968 W2       5323     TIP3     H1       HT       0.417000       1.00800           0
     15969 W2       5323     TIP3     H2       HT       0.417000       1.00800           0
     15970 W2       5324     TIP3     OH2      OT      -0.834000       15.9994           0
     15971 W2       5324     TIP3     H1       HT       0.417000       1.00800           0
     15972 W2       5324     TIP3     H2       HT       0.417000       1.00800           0
     15973 W2       5325     TIP3     OH2      OT      -0.834000       15.9994           0
     15974 W2       5325     TIP3     H1       HT       0.417000       1.00800           0
     15975 W2       5325     TIP3     H2       HT       0.417000       1.00800           0
     15976 W2       5326     TIP3     OH2      OT      -0.834000       15.9994           0
     15977 W2       5326     TIP3     H1       HT       0.417000       1.00800           0
     15978 W2       5326     TIP3     H2       HT       0.417000       1.00800           0
     15979 W2       5327     TIP3     OH2      OT      -0.834000       15.9994           0
     15980 W2       5327     TIP3     H1       HT       0.417000       1.00800           0
     15981 W2       5327     TIP3     H2       HT       0.417000       1.00800           0
     15982 W2       5328     TIP3     OH2      OT      -0.834000       15.9994           0
     15983 W2       5328     TIP3     H1       HT       0.417000       1.00800           0
     15984 W2       5328     TIP3     H2       HT       0.417000       1.00800           0
     15985 W2       5329     TIP3     OH2      OT      -0.834000       15.9994           0
     15986 W2       5329     TIP3     H1       HT       0.417000       1.00800           0
     15987 W2       5329     TIP3     H2       HT       0.417000       1.00800           0
     15988 W2       5330     TIP3     OH2      OT      -0.834000       15.9994           0
     15989 W2       5330     TIP3     H1       HT       0.417000       1.00800           0
     15990 W2       5330     TIP3     H2       HT       0.417000       1.00800           0
     15991 W2       5331     TIP3     OH2      OT      -0.834000       15.9994           0
     15992 W2       5331     TIP3     H1       HT       0.417000       1.00800           0
     15993 W2       5331     TIP3     H2       HT       0.417000       1.00800           0
     15994 W2       5332     TIP3     OH2      OT      -0.834000       15.9994           0
     15995 W2       5332     TIP3     H1       HT       0.417000       1.00800           0
     15996 W2       5332     TIP3     H2       HT       0.417000       1.00800           0
     15997 W2       5333     TIP3     OH2      OT      -0.834000       15.9994           0
     15998 W2       5333     TIP3     H1       HT       0.417000       1.00800           0
     15999 W2       5333     TIP3     H2       HT       0.417000       1.00800           0
     16000 W2       5334     TIP3     OH2      OT      -0.834000       15.9994           0
     16001 W2       5334     TIP3     H1       HT       0.417000       1.00800           0
     16002 W2       5334     TIP3     H2       HT       0.417000       1.00800           0
     16003 W2       5335     TIP3     OH2      OT      -0.834000       15.9994           0
     16004 W2       5335     TIP3     H1       HT       0.417000       1.00800           0
     16005 W2       5335     TIP3     H2       HT       0.417000       1.00800           0
     16006 W2       5336     TIP3     OH2      OT      -0.834000       15.9994           0
     16007 W2       5336     TIP3     H1       HT       0.417000       1.00800           0
     16008 W2       5336     TIP3     H2       HT       0.417000       1.00800           0
     16009 W2       5337     TIP3     OH2      OT      -0.834000       15.9994           0
     16010 W2       5337     TIP3     H1       HT       0.417000       1.00800           0
     16011 W2       5337     TIP3     H2       HT       0.417000       1.00800           0
     16012 W2       5338     TIP3     OH2      OT      -0.834000       15.9994           0
     16013 W2       5338     TIP3     H1       HT       0.417000       1.00800           0
     16014 W2       5338     TIP3     H2       HT       0.417000       1.00800           0
     16015 W2       5339     TIP3     OH2      OT      -0.834000       15.9994           0
     16016 W2       5339     TIP3     H1       HT       0.417000       1.00800           0
     16017 W2       5339     TIP3     H2       HT       0.417000       1.00800           0
     16018 W2       5340     TIP3     OH2      OT      -0.834000       15.9994           0
     16019 W2       5340     TIP3     H1       HT       0.417000       1.00800           0
     16020 W2       5340     TIP3     H2       HT       0.417000       1.00800           0
     16021 W2       5341     TIP3     OH2      OT      -0.834000       15.9994           0
     16022 W2       5341     TIP3     H1       HT       0.417000       1.00800           0
     16023 W2       5341     TIP3     H2       HT       0.417000       1.00800           0
     16024 W2       5342     TIP3     OH2      OT      -0.834000       15.9994           0
     16025 W2       5342     TIP3     H1       HT       0.417000       1.00800           0
     16026 W2       5342     TIP3     H2       HT       0.417000       1.00800           0
     16027 W2       5343     TIP3     OH2      OT      -0.834000       15.9994           0
     16028 W2       5343     TIP3     H1       HT       0.417000       1.00800           0
     16029 W2       5343     TIP3     H2       HT       0.417000       1.00800           0
     16030 W2       5344     TIP3     OH2      OT      -0.834000       15.9994           0
     16031 W2       5344     TIP3     H1       HT       0.417000       1.00800           0
     16032 W2       5344     TIP3     H2       HT       0.417000       1.00800           0
     16033 W2       5345     TIP3     OH2      OT      -0.834000       15.9994           0
     16034 W2       5345     TIP3     H1       HT       0.417000       1.00800           0
     16035 W2       5345     TIP3     H2       HT       0.417000       1.00800           0
     16036 W2       5346     TIP3     OH2      OT      -0.834000       15.9994           0
     16037 W2       5346     TIP3     H1       HT       0.417000       1.00800           0
     16038 W2       5346     TIP3     H2       HT       0.417000       1.00800           0
     16039 W2       5347     TIP3     OH2      OT      -0.834000       15.9994           0
     16040 W2       5347     TIP3     H1       HT       0.417000       1.00800           0
     16041 W2       5347     TIP3     H2       HT       0.417000       1.00800           0
     16042 W2       5348     TIP3     OH2      OT      -0.834000       15.9994           0
     16043 W2       5348     TIP3     H1       HT       0.417000       1.00800           0
     16044 W2       5348     TIP3     H2       HT       0.417000       1.00800           0
     16045 W2       5349     TIP3     OH2      OT      -0.834000       15.9994           0
     16046 W2       5349     TIP3     H1       HT       0.417000       1.00800           0
     16047 W2       5349     TIP3     H2       HT       0.417000       1.00800           0
     16048 W2       5350     TIP3     OH2      OT      -0.834000       15.9994           0
     16049 W2       5350     TIP3     H1       HT       0.417000       1.00800           0
     16050 W2       5350     TIP3     H2       HT       0.417000       1.00800           0
     16051 W2       5351     TIP3     OH2      OT      -0.834000       15.9994           0
     16052 W2       5351     TIP3     H1       HT       0.417000       1.00800           0
     16053 W2       5351     TIP3     H2       HT       0.417000       1.00800           0
     16054 W2       5352     TIP3     OH2      OT      -0.834000       15.9994           0
     16055 W2       5352     TIP3     H1       HT       0.417000       1.00800           0
     16056 W2       5352     TIP3     H2       HT       0.417000       1.00800           0
     16057 W2       5353     TIP3     OH2      OT      -0.834000       15.9994           0
     16058 W2       5353     TIP3     H1       HT       0.417000       1.00800           0
     16059 W2       5353     TIP3     H2       HT       0.417000       1.00800           0
     16060 W2       5354     TIP3     OH2      OT      -0.834000       15.9994           0
     16061 W2       5354     TIP3     H1       HT       0.417000       1.00800           0
     16062 W2       5354     TIP3     H2       HT       0.417000       1.00800           0
     16063 W2       5355     TIP3     OH2      OT      -0.834000       15.9994           0
     16064 W2       5355     TIP3     H1       HT       0.417000       1.00800           0
     16065 W2       5355     TIP3     H2       HT       0.417000       1.00800           0
     16066 W2       5356     TIP3     OH2      OT      -0.834000       15.9994           0
     16067 W2       5356     TIP3     H1       HT       0.417000       1.00800           0
     16068 W2       5356     TIP3     H2       HT       0.417000       1.00800           0
     16069 W2       5357     TIP3     OH2      OT      -0.834000       15.9994           0
     16070 W2       5357     TIP3     H1       HT       0.417000       1.00800           0
     16071 W2       5357     TIP3     H2       HT       0.417000       1.00800           0
     16072 W2       5358     TIP3     OH2      OT      -0.834000       15.9994           0
     16073 W2       5358     TIP3     H1       HT       0.417000       1.00800           0
     16074 W2       5358     TIP3     H2       HT       0.417000       1.00800           0
     16075 W2       5359     TIP3     OH2      OT      -0.834000       15.9994           0
     16076 W2       5359     TIP3     H1       HT       0.417000       1.00800           0
     16077 W2       5359     TIP3     H2       HT       0.417000       1.00800           0
     16078 W2       5360     TIP3     OH2      OT      -0.834000       15.9994           0
     16079 W2       5360     TIP3     H1       HT       0.417000       1.00800           0
     16080 W2       5360     TIP3     H2       HT       0.417000       1.00800           0
     16081 W2       5361     TIP3     OH2      OT      -0.834000       15.9994           0
     16082 W2       5361     TIP3     H1       HT       0.417000       1.00800           0
     16083 W2       5361     TIP3     H2       HT       0.417000       1.00800           0
     16084 W2       5362     TIP3     OH2      OT      -0.834000       15.9994           0
     16085 W2       5362     TIP3     H1       HT       0.417000       1.00800           0
     16086 W2       5362     TIP3     H2       HT       0.417000       1.00800           0
     16087 W2       5363     TIP3     OH2      OT      -0.834000       15.9994           0
     16088 W2       5363     TIP3     H1       HT       0.417000       1.00800           0
     16089 W2       5363     TIP3     H2       HT       0.417000       1.00800           0
     16090 W2       5364     TIP3     OH2      OT      -0.834000       15.9994           0
     16091 W2       5364     TIP3     H1       HT       0.417000       1.00800           0
     16092 W2       5364     TIP3     H2       HT       0.417000       1.00800           0
     16093 W2       5365     TIP3     OH2      OT      -0.834000       15.9994           0
     16094 W2       5365     TIP3     H1       HT       0.417000       1.00800           0
     16095 W2       5365     TIP3     H2       HT       0.417000       1.00800           0
     16096 W2       5366     TIP3     OH2      OT      -0.834000       15.9994           0
     16097 W2       5366     TIP3     H1       HT       0.417000       1.00800           0
     16098 W2       5366     TIP3     H2       HT       0.417000       1.00800           0
     16099 W2       5367     TIP3     OH2      OT      -0.834000       15.9994           0
     16100 W2       5367     TIP3     H1       HT       0.417000       1.00800           0
     16101 W2       5367     TIP3     H2       HT       0.417000       1.00800           0
     16102 W2       5368     TIP3     OH2      OT      -0.834000       15.9994           0
     16103 W2       5368     TIP3     H1       HT       0.417000       1.00800           0
     16104 W2       5368     TIP3     H2       HT       0.417000       1.00800           0
     16105 W2       5369     TIP3     OH2      OT      -0.834000       15.9994           0
     16106 W2       5369     TIP3     H1       HT       0.417000       1.00800           0
     16107 W2       5369     TIP3     H2       HT       0.417000       1.00800           0
     16108 W2       5370     TIP3     OH2      OT      -0.834000       15.9994           0
     16109 W2       5370     TIP3     H1       HT       0.417000       1.00800           0
     16110 W2       5370     TIP3     H2       HT       0.417000       1.00800           0
     16111 W2       5371     TIP3     OH2      OT      -0.834000       15.9994           0
     16112 W2       5371     TIP3     H1       HT       0.417000       1.00800           0
     16113 W2       5371     TIP3     H2       HT       0.417000       1.00800           0
     16114 W2       5372     TIP3     OH2      OT      -0.834000       15.9994           0
     16115 W2       5372     TIP3     H1       HT       0.417000       1.00800           0
     16116 W2       5372     TIP3     H2       HT       0.417000       1.00800           0
     16117 W2       5373     TIP3     OH2      OT      -0.834000       15.9994           0
     16118 W2       5373     TIP3     H1       HT       0.417000       1.00800           0
     16119 W2       5373     TIP3     H2       HT       0.417000       1.00800           0
     16120 W2       5374     TIP3     OH2      OT      -0.834000       15.9994           0
     16121 W2       5374     TIP3     H1       HT       0.417000       1.00800           0
     16122 W2       5374     TIP3     H2       HT       0.417000       1.00800           0
     16123 W2       5375     TIP3     OH2      OT      -0.834000       15.9994           0
     16124 W2       5375     TIP3     H1       HT       0.417000       1.00800           0
     16125 W2       5375     TIP3     H2       HT       0.417000       1.00800           0
     16126 W2       5376     TIP3     OH2      OT      -0.834000       15.9994           0
     16127 W2       5376     TIP3     H1       HT       0.417000       1.00800           0
     16128 W2       5376     TIP3     H2       HT       0.417000       1.00800           0
     16129 W2       5377     TIP3     OH2      OT      -0.834000       15.9994           0
     16130 W2       5377     TIP3     H1       HT       0.417000       1.00800           0
     16131 W2       5377     TIP3     H2       HT       0.417000       1.00800           0
     16132 W2       5378     TIP3     OH2      OT      -0.834000       15.9994           0
     16133 W2       5378     TIP3     H1       HT       0.417000       1.00800           0
     16134 W2       5378     TIP3     H2       HT       0.417000       1.00800           0
     16135 W2       5379     TIP3     OH2      OT      -0.834000       15.9994           0
     16136 W2       5379     TIP3     H1       HT       0.417000       1.00800           0
     16137 W2       5379     TIP3     H2       HT       0.417000       1.00800           0
     16138 W2       5380     TIP3     OH2      OT      -0.834000       15.9994           0
     16139 W2       5380     TIP3     H1       HT       0.417000       1.00800           0
     16140 W2       5380     TIP3     H2       HT       0.417000       1.00800           0
     16141 W2       5381     TIP3     OH2      OT      -0.834000       15.9994           0
     16142 W2       5381     TIP3     H1       HT       0.417000       1.00800           0
     16143 W2       5381     TIP3     H2       HT       0.417000       1.00800           0
     16144 W2       5382     TIP3     OH2      OT      -0.834000       15.9994           0
     16145 W2       5382     TIP3     H1       HT       0.417000       1.00800           0
     16146 W2       5382     TIP3     H2       HT       0.417000       1.00800           0
     16147 W2       5383     TIP3     OH2      OT      -0.834000       15.9994           0
     16148 W2       5383     TIP3     H1       HT       0.417000       1.00800           0
     16149 W2       5383     TIP3     H2       HT       0.417000       1.00800           0
     16150 W2       5384     TIP3     OH2      OT      -0.834000       15.9994           0
     16151 W2       5384     TIP3     H1       HT       0.417000       1.00800           0
     16152 W2       5384     TIP3     H2       HT       0.417000       1.00800           0
     16153 W2       5385     TIP3     OH2      OT      -0.834000       15.9994           0
     16154 W2       5385     TIP3     H1       HT       0.417000       1.00800           0
     16155 W2       5385     TIP3     H2       HT       0.417000       1.00800           0
     16156 W2       5386     TIP3     OH2      OT      -0.834000       15.9994           0
     16157 W2       5386     TIP3     H1       HT       0.417000       1.00800           0
     16158 W2       5386     TIP3     H2       HT       0.417000       1.00800           0
     16159 W2       5387     TIP3     OH2      OT      -0.834000       15.9994           0
     16160 W2       5387     TIP3     H1       HT       0.417000       1.00800           0
     16161 W2       5387     TIP3     H2       HT       0.417000       1.00800           0
     16162 W2       5388     TIP3     OH2      OT      -0.834000       15.9994           0
     16163 W2       5388     TIP3     H1       HT       0.417000       1.00800           0
     16164 W2       5388     TIP3     H2       HT       0.417000       1.00800           0
     16165 W2       5389     TIP3     OH2      OT      -0.834000       15.9994           0
     16166 W2       5389     TIP3     H1       HT       0.417000       1.00800           0
     16167 W2       5389     TIP3     H2       HT       0.417000       1.00800           0
     16168 W2       5390     TIP3     OH2      OT      -0.834000       15.9994           0
     16169 W2       5390     TIP3     H1       HT       0.417000       1.00800           0
     16170 W2       5390     TIP3     H2       HT       0.417000       1.00800           0
     16171 W2       5391     TIP3     OH2      OT      -0.834000       15.9994           0
     16172 W2       5391     TIP3     H1       HT       0.417000       1.00800           0
     16173 W2       5391     TIP3     H2       HT       0.417000       1.00800           0
     16174 W2       5392     TIP3     OH2      OT      -0.834000       15.9994           0
     16175 W2       5392     TIP3     H1       HT       0.417000       1.00800           0
     16176 W2       5392     TIP3     H2       HT       0.417000       1.00800           0
     16177 W2       5393     TIP3     OH2      OT      -0.834000       15.9994           0
     16178 W2       5393     TIP3     H1       HT       0.417000       1.00800           0
     16179 W2       5393     TIP3     H2       HT       0.417000       1.00800           0
     16180 W2       5394     TIP3     OH2      OT      -0.834000       15.9994           0
     16181 W2       5394     TIP3     H1       HT       0.417000       1.00800           0
     16182 W2       5394     TIP3     H2       HT       0.417000       1.00800           0
     16183 W2       5395     TIP3     OH2      OT      -0.834000       15.9994           0
     16184 W2       5395     TIP3     H1       HT       0.417000       1.00800           0
     16185 W2       5395     TIP3     H2       HT       0.417000       1.00800           0
     16186 W2       5396     TIP3     OH2      OT      -0.834000       15.9994           0
     16187 W2       5396     TIP3     H1       HT       0.417000       1.00800           0
     16188 W2       5396     TIP3     H2       HT       0.417000       1.00800           0
     16189 W2       5397     TIP3     OH2      OT      -0.834000       15.9994           0
     16190 W2       5397     TIP3     H1       HT       0.417000       1.00800           0
     16191 W2       5397     TIP3     H2       HT       0.417000       1.00800           0
     16192 W2       5398     TIP3     OH2      OT      -0.834000       15.9994           0
     16193 W2       5398     TIP3     H1       HT       0.417000       1.00800           0
     16194 W2       5398     TIP3     H2       HT       0.417000       1.00800           0
     16195 W2       5399     TIP3     OH2      OT      -0.834000       15.9994           0
     16196 W2       5399     TIP3     H1       HT       0.417000       1.00800           0
     16197 W2       5399     TIP3     H2       HT       0.417000       1.00800           0
     16198 W2       5400     TIP3     OH2      OT      -0.834000       15.9994           0
     16199 W2       5400     TIP3     H1       HT       0.417000       1.00800           0
     16200 W2       5400     TIP3     H2       HT       0.417000       1.00800           0
     16201 W2       5401     TIP3     OH2      OT      -0.834000       15.9994           0
     16202 W2       5401     TIP3     H1       HT       0.417000       1.00800           0
     16203 W2       5401     TIP3     H2       HT       0.417000       1.00800           0
     16204 W2       5402     TIP3     OH2      OT      -0.834000       15.9994           0
     16205 W2       5402     TIP3     H1       HT       0.417000       1.00800           0
     16206 W2       5402     TIP3     H2       HT       0.417000       1.00800           0
     16207 W2       5403     TIP3     OH2      OT      -0.834000       15.9994           0
     16208 W2       5403     TIP3     H1       HT       0.417000       1.00800           0
     16209 W2       5403     TIP3     H2       HT       0.417000       1.00800           0
     16210 W2       5404     TIP3     OH2      OT      -0.834000       15.9994           0
     16211 W2       5404     TIP3     H1       HT       0.417000       1.00800           0
     16212 W2       5404     TIP3     H2       HT       0.417000       1.00800           0
     16213 W2       5405     TIP3     OH2      OT      -0.834000       15.9994           0
     16214 W2       5405     TIP3     H1       HT       0.417000       1.00800           0
     16215 W2       5405     TIP3     H2       HT       0.417000       1.00800           0
     16216 W2       5406     TIP3     OH2      OT      -0.834000       15.9994           0
     16217 W2       5406     TIP3     H1       HT       0.417000       1.00800           0
     16218 W2       5406     TIP3     H2       HT       0.417000       1.00800           0
     16219 W2       5407     TIP3     OH2      OT      -0.834000       15.9994           0
     16220 W2       5407     TIP3     H1       HT       0.417000       1.00800           0
     16221 W2       5407     TIP3     H2       HT       0.417000       1.00800           0
     16222 W2       5408     TIP3     OH2      OT      -0.834000       15.9994           0
     16223 W2       5408     TIP3     H1       HT       0.417000       1.00800           0
     16224 W2       5408     TIP3     H2       HT       0.417000       1.00800           0
     16225 W2       5409     TIP3     OH2      OT      -0.834000       15.9994           0
     16226 W2       5409     TIP3     H1       HT       0.417000       1.00800           0
     16227 W2       5409     TIP3     H2       HT       0.417000       1.00800           0
     16228 W2       5410     TIP3     OH2      OT      -0.834000       15.9994           0
     16229 W2       5410     TIP3     H1       HT       0.417000       1.00800           0
     16230 W2       5410     TIP3     H2       HT       0.417000       1.00800           0
     16231 W2       5411     TIP3     OH2      OT      -0.834000       15.9994           0
     16232 W2       5411     TIP3     H1       HT       0.417000       1.00800           0
     16233 W2       5411     TIP3     H2       HT       0.417000       1.00800           0
     16234 W2       5412     TIP3     OH2      OT      -0.834000       15.9994           0
     16235 W2       5412     TIP3     H1       HT       0.417000       1.00800           0
     16236 W2       5412     TIP3     H2       HT       0.417000       1.00800           0
     16237 W2       5413     TIP3     OH2      OT      -0.834000       15.9994           0
     16238 W2       5413     TIP3     H1       HT       0.417000       1.00800           0
     16239 W2       5413     TIP3     H2       HT       0.417000       1.00800           0
     16240 W2       5414     TIP3     OH2      OT      -0.834000       15.9994           0
     16241 W2       5414     TIP3     H1       HT       0.417000       1.00800           0
     16242 W2       5414     TIP3     H2       HT       0.417000       1.00800           0
     16243 W2       5415     TIP3     OH2      OT      -0.834000       15.9994           0
     16244 W2       5415     TIP3     H1       HT       0.417000       1.00800           0
     16245 W2       5415     TIP3     H2       HT       0.417000       1.00800           0
     16246 W2       5416     TIP3     OH2      OT      -0.834000       15.9994           0
     16247 W2       5416     TIP3     H1       HT       0.417000       1.00800           0
     16248 W2       5416     TIP3     H2       HT       0.417000       1.00800           0
     16249 W2       5417     TIP3     OH2      OT      -0.834000       15.9994           0
     16250 W2       5417     TIP3     H1       HT       0.417000       1.00800           0
     16251 W2       5417     TIP3     H2       HT       0.417000       1.00800           0
     16252 W2       5418     TIP3     OH2      OT      -0.834000       15.9994           0
     16253 W2       5418     TIP3     H1       HT       0.417000       1.00800           0
     16254 W2       5418     TIP3     H2       HT       0.417000       1.00800           0
     16255 W2       5419     TIP3     OH2      OT      -0.834000       15.9994           0
     16256 W2       5419     TIP3     H1       HT       0.417000       1.00800           0
     16257 W2       5419     TIP3     H2       HT       0.417000       1.00800           0
     16258 W2       5420     TIP3     OH2      OT      -0.834000       15.9994           0
     16259 W2       5420     TIP3     H1       HT       0.417000       1.00800           0
     16260 W2       5420     TIP3     H2       HT       0.417000       1.00800           0
     16261 W2       5421     TIP3     OH2      OT      -0.834000       15.9994           0
     16262 W2       5421     TIP3     H1       HT       0.417000       1.00800           0
     16263 W2       5421     TIP3     H2       HT       0.417000       1.00800           0
     16264 W2       5422     TIP3     OH2      OT      -0.834000       15.9994           0
     16265 W2       5422     TIP3     H1       HT       0.417000       1.00800           0
     16266 W2       5422     TIP3     H2       HT       0.417000       1.00800           0
     16267 W2       5423     TIP3     OH2      OT      -0.834000       15.9994           0
     16268 W2       5423     TIP3     H1       HT       0.417000       1.00800           0
     16269 W2       5423     TIP3     H2       HT       0.417000       1.00800           0
     16270 W2       5424     TIP3     OH2      OT      -0.834000       15.9994           0
     16271 W2       5424     TIP3     H1       HT       0.417000       1.00800           0
     16272 W2       5424     TIP3     H2       HT       0.417000       1.00800           0
     16273 W2       5425     TIP3     OH2      OT      -0.834000       15.9994           0
     16274 W2       5425     TIP3     H1       HT       0.417000       1.00800           0
     16275 W2       5425     TIP3     H2       HT       0.417000       1.00800           0
     16276 W2       5426     TIP3     OH2      OT      -0.834000       15.9994           0
     16277 W2       5426     TIP3     H1       HT       0.417000       1.00800           0
     16278 W2       5426     TIP3     H2       HT       0.417000       1.00800           0
     16279 W2       5427     TIP3     OH2      OT      -0.834000       15.9994           0
     16280 W2       5427     TIP3     H1       HT       0.417000       1.00800           0
     16281 W2       5427     TIP3     H2       HT       0.417000       1.00800           0
     16282 W2       5428     TIP3     OH2      OT      -0.834000       15.9994           0
     16283 W2       5428     TIP3     H1       HT       0.417000       1.00800           0
     16284 W2       5428     TIP3     H2       HT       0.417000       1.00800           0
     16285 W2       5429     TIP3     OH2      OT      -0.834000       15.9994           0
     16286 W2       5429     TIP3     H1       HT       0.417000       1.00800           0
     16287 W2       5429     TIP3     H2       HT       0.417000       1.00800           0
     16288 W2       5430     TIP3     OH2      OT      -0.834000       15.9994           0
     16289 W2       5430     TIP3     H1       HT       0.417000       1.00800           0
     16290 W2       5430     TIP3     H2       HT       0.417000       1.00800           0
     16291 W2       5431     TIP3     OH2      OT      -0.834000       15.9994           0
     16292 W2       5431     TIP3     H1       HT       0.417000       1.00800           0
     16293 W2       5431     TIP3     H2       HT       0.417000       1.00800           0
     16294 W2       5432     TIP3     OH2      OT      -0.834000       15.9994           0
     16295 W2       5432     TIP3     H1       HT       0.417000       1.00800           0
     16296 W2       5432     TIP3     H2       HT       0.417000       1.00800           0
     16297 W2       5433     TIP3     OH2      OT      -0.834000       15.9994           0
     16298 W2       5433     TIP3     H1       HT       0.417000       1.00800           0
     16299 W2       5433     TIP3     H2       HT       0.417000       1.00800           0
     16300 W2       5434     TIP3     OH2      OT      -0.834000       15.9994           0
     16301 W2       5434     TIP3     H1       HT       0.417000       1.00800           0
     16302 W2       5434     TIP3     H2       HT       0.417000       1.00800           0
     16303 W2       5435     TIP3     OH2      OT      -0.834000       15.9994           0
     16304 W2       5435     TIP3     H1       HT       0.417000       1.00800           0
     16305 W2       5435     TIP3     H2       HT       0.417000       1.00800           0
     16306 W2       5436     TIP3     OH2      OT      -0.834000       15.9994           0
     16307 W2       5436     TIP3     H1       HT       0.417000       1.00800           0
     16308 W2       5436     TIP3     H2       HT       0.417000       1.00800           0
     16309 W2       5437     TIP3     OH2      OT      -0.834000       15.9994           0
     16310 W2       5437     TIP3     H1       HT       0.417000       1.00800           0
     16311 W2       5437     TIP3     H2       HT       0.417000       1.00800           0
     16312 W2       5438     TIP3     OH2      OT      -0.834000       15.9994           0
     16313 W2       5438     TIP3     H1       HT       0.417000       1.00800           0
     16314 W2       5438     TIP3     H2       HT       0.417000       1.00800           0
     16315 W2       5439     TIP3     OH2      OT      -0.834000       15.9994           0
     16316 W2       5439     TIP3     H1       HT       0.417000       1.00800           0
     16317 W2       5439     TIP3     H2       HT       0.417000       1.00800           0
     16318 W2       5440     TIP3     OH2      OT      -0.834000       15.9994           0
     16319 W2       5440     TIP3     H1       HT       0.417000       1.00800           0
     16320 W2       5440     TIP3     H2       HT       0.417000       1.00800           0
     16321 W2       5441     TIP3     OH2      OT      -0.834000       15.9994           0
     16322 W2       5441     TIP3     H1       HT       0.417000       1.00800           0
     16323 W2       5441     TIP3     H2       HT       0.417000       1.00800           0
     16324 W2       5442     TIP3     OH2      OT      -0.834000       15.9994           0
     16325 W2       5442     TIP3     H1       HT       0.417000       1.00800           0
     16326 W2       5442     TIP3     H2       HT       0.417000       1.00800           0
     16327 W2       5443     TIP3     OH2      OT      -0.834000       15.9994           0
     16328 W2       5443     TIP3     H1       HT       0.417000       1.00800           0
     16329 W2       5443     TIP3     H2       HT       0.417000       1.00800           0
     16330 W2       5444     TIP3     OH2      OT      -0.834000       15.9994           0
     16331 W2       5444     TIP3     H1       HT       0.417000       1.00800           0
     16332 W2       5444     TIP3     H2       HT       0.417000       1.00800           0
     16333 W2       5445     TIP3     OH2      OT      -0.834000       15.9994           0
     16334 W2       5445     TIP3     H1       HT       0.417000       1.00800           0
     16335 W2       5445     TIP3     H2       HT       0.417000       1.00800           0
     16336 W2       5446     TIP3     OH2      OT      -0.834000       15.9994           0
     16337 W2       5446     TIP3     H1       HT       0.417000       1.00800           0
     16338 W2       5446     TIP3     H2       HT       0.417000       1.00800           0
     16339 W2       5447     TIP3     OH2      OT      -0.834000       15.9994           0
     16340 W2       5447     TIP3     H1       HT       0.417000       1.00800           0
     16341 W2       5447     TIP3     H2       HT       0.417000       1.00800           0
     16342 W2       5448     TIP3     OH2      OT      -0.834000       15.9994           0
     16343 W2       5448     TIP3     H1       HT       0.417000       1.00800           0
     16344 W2       5448     TIP3     H2       HT       0.417000       1.00800           0
     16345 W2       5449     TIP3     OH2      OT      -0.834000       15.9994           0
     16346 W2       5449     TIP3     H1       HT       0.417000       1.00800           0
     16347 W2       5449     TIP3     H2       HT       0.417000       1.00800           0
     16348 W2       5450     TIP3     OH2      OT      -0.834000       15.9994           0
     16349 W2       5450     TIP3     H1       HT       0.417000       1.00800           0
     16350 W2       5450     TIP3     H2       HT       0.417000       1.00800           0
     16351 W2       5451     TIP3     OH2      OT      -0.834000       15.9994           0
     16352 W2       5451     TIP3     H1       HT       0.417000       1.00800           0
     16353 W2       5451     TIP3     H2       HT       0.417000       1.00800           0
     16354 W2       5452     TIP3     OH2      OT      -0.834000       15.9994           0
     16355 W2       5452     TIP3     H1       HT       0.417000       1.00800           0
     16356 W2       5452     TIP3     H2       HT       0.417000       1.00800           0
     16357 W2       5453     TIP3     OH2      OT      -0.834000       15.9994           0
     16358 W2       5453     TIP3     H1       HT       0.417000       1.00800           0
     16359 W2       5453     TIP3     H2       HT       0.417000       1.00800           0
     16360 W2       5454     TIP3     OH2      OT      -0.834000       15.9994           0
     16361 W2       5454     TIP3     H1       HT       0.417000       1.00800           0
     16362 W2       5454     TIP3     H2       HT       0.417000       1.00800           0
     16363 W2       5455     TIP3     OH2      OT      -0.834000       15.9994           0
     16364 W2       5455     TIP3     H1       HT       0.417000       1.00800           0
     16365 W2       5455     TIP3     H2       HT       0.417000       1.00800           0
     16366 W2       5456     TIP3     OH2      OT      -0.834000       15.9994           0
     16367 W2       5456     TIP3     H1       HT       0.417000       1.00800           0
     16368 W2       5456     TIP3     H2       HT       0.417000       1.00800           0
     16369 W2       5457     TIP3     OH2      OT      -0.834000       15.9994           0
     16370 W2       5457     TIP3     H1       HT       0.417000       1.00800           0
     16371 W2       5457     TIP3     H2       HT       0.417000       1.00800           0
     16372 W2       5458     TIP3     OH2      OT      -0.834000       15.9994           0
     16373 W2       5458     TIP3     H1       HT       0.417000       1.00800           0
     16374 W2       5458     TIP3     H2       HT       0.417000       1.00800           0
     16375 W2       5459     TIP3     OH2      OT      -0.834000       15.9994           0
     16376 W2       5459     TIP3     H1       HT       0.417000       1.00800           0
     16377 W2       5459     TIP3     H2       HT       0.417000       1.00800           0
     16378 W2       5460     TIP3     OH2      OT      -0.834000       15.9994           0
     16379 W2       5460     TIP3     H1       HT       0.417000       1.00800           0
     16380 W2       5460     TIP3     H2       HT       0.417000       1.00800           0
     16381 W2       5461     TIP3     OH2      OT      -0.834000       15.9994           0
     16382 W2       5461     TIP3     H1       HT       0.417000       1.00800           0
     16383 W2       5461     TIP3     H2       HT       0.417000       1.00800           0
     16384 W2       5462     TIP3     OH2      OT      -0.834000       15.9994           0
     16385 W2       5462     TIP3     H1       HT       0.417000       1.00800           0
     16386 W2       5462     TIP3     H2       HT       0.417000       1.00800           0
     16387 W2       5463     TIP3     OH2      OT      -0.834000       15.9994           0
     16388 W2       5463     TIP3     H1       HT       0.417000       1.00800           0
     16389 W2       5463     TIP3     H2       HT       0.417000       1.00800           0
     16390 W2       5464     TIP3     OH2      OT      -0.834000       15.9994           0
     16391 W2       5464     TIP3     H1       HT       0.417000       1.00800           0
     16392 W2       5464     TIP3     H2       HT       0.417000       1.00800           0
     16393 W2       5465     TIP3     OH2      OT      -0.834000       15.9994           0
     16394 W2       5465     TIP3     H1       HT       0.417000       1.00800           0
     16395 W2       5465     TIP3     H2       HT       0.417000       1.00800           0
     16396 W2       5466     TIP3     OH2      OT      -0.834000       15.9994           0
     16397 W2       5466     TIP3     H1       HT       0.417000       1.00800           0
     16398 W2       5466     TIP3     H2       HT       0.417000       1.00800           0
     16399 W2       5467     TIP3     OH2      OT      -0.834000       15.9994           0
     16400 W2       5467     TIP3     H1       HT       0.417000       1.00800           0
     16401 W2       5467     TIP3     H2       HT       0.417000       1.00800           0
     16402 W2       5468     TIP3     OH2      OT      -0.834000       15.9994           0
     16403 W2       5468     TIP3     H1       HT       0.417000       1.00800           0
     16404 W2       5468     TIP3     H2       HT       0.417000       1.00800           0
     16405 W2       5469     TIP3     OH2      OT      -0.834000       15.9994           0
     16406 W2       5469     TIP3     H1       HT       0.417000       1.00800           0
     16407 W2       5469     TIP3     H2       HT       0.417000       1.00800           0
     16408 W2       5470     TIP3     OH2      OT      -0.834000       15.9994           0
     16409 W2       5470     TIP3     H1       HT       0.417000       1.00800           0
     16410 W2       5470     TIP3     H2       HT       0.417000       1.00800           0
     16411 W2       5471     TIP3     OH2      OT      -0.834000       15.9994           0
     16412 W2       5471     TIP3     H1       HT       0.417000       1.00800           0
     16413 W2       5471     TIP3     H2       HT       0.417000       1.00800           0
     16414 W2       5472     TIP3     OH2      OT      -0.834000       15.9994           0
     16415 W2       5472     TIP3     H1       HT       0.417000       1.00800           0
     16416 W2       5472     TIP3     H2       HT       0.417000       1.00800           0
     16417 W2       5473     TIP3     OH2      OT      -0.834000       15.9994           0
     16418 W2       5473     TIP3     H1       HT       0.417000       1.00800           0
     16419 W2       5473     TIP3     H2       HT       0.417000       1.00800           0
     16420 W2       5474     TIP3     OH2      OT      -0.834000       15.9994           0
     16421 W2       5474     TIP3     H1       HT       0.417000       1.00800           0
     16422 W2       5474     TIP3     H2       HT       0.417000       1.00800           0
     16423 W2       5475     TIP3     OH2      OT      -0.834000       15.9994           0
     16424 W2       5475     TIP3     H1       HT       0.417000       1.00800           0
     16425 W2       5475     TIP3     H2       HT       0.417000       1.00800           0
     16426 W2       5476     TIP3     OH2      OT      -0.834000       15.9994           0
     16427 W2       5476     TIP3     H1       HT       0.417000       1.00800           0
     16428 W2       5476     TIP3     H2       HT       0.417000       1.00800           0
     16429 W2       5477     TIP3     OH2      OT      -0.834000       15.9994           0
     16430 W2       5477     TIP3     H1       HT       0.417000       1.00800           0
     16431 W2       5477     TIP3     H2       HT       0.417000       1.00800           0
     16432 W2       5478     TIP3     OH2      OT      -0.834000       15.9994           0
     16433 W2       5478     TIP3     H1       HT       0.417000       1.00800           0
     16434 W2       5478     TIP3     H2       HT       0.417000       1.00800           0
     16435 W2       5479     TIP3     OH2      OT      -0.834000       15.9994           0
     16436 W2       5479     TIP3     H1       HT       0.417000       1.00800           0
     16437 W2       5479     TIP3     H2       HT       0.417000       1.00800           0
     16438 W2       5480     TIP3     OH2      OT      -0.834000       15.9994           0
     16439 W2       5480     TIP3     H1       HT       0.417000       1.00800           0
     16440 W2       5480     TIP3     H2       HT       0.417000       1.00800           0
     16441 W2       5481     TIP3     OH2      OT      -0.834000       15.9994           0
     16442 W2       5481     TIP3     H1       HT       0.417000       1.00800           0
     16443 W2       5481     TIP3     H2       HT       0.417000       1.00800           0
     16444 W2       5482     TIP3     OH2      OT      -0.834000       15.9994           0
     16445 W2       5482     TIP3     H1       HT       0.417000       1.00800           0
     16446 W2       5482     TIP3     H2       HT       0.417000       1.00800           0
     16447 W2       5483     TIP3     OH2      OT      -0.834000       15.9994           0
     16448 W2       5483     TIP3     H1       HT       0.417000       1.00800           0
     16449 W2       5483     TIP3     H2       HT       0.417000       1.00800           0
     16450 W2       5484     TIP3     OH2      OT      -0.834000       15.9994           0
     16451 W2       5484     TIP3     H1       HT       0.417000       1.00800           0
     16452 W2       5484     TIP3     H2       HT       0.417000       1.00800           0
     16453 W2       5485     TIP3     OH2      OT      -0.834000       15.9994           0
     16454 W2       5485     TIP3     H1       HT       0.417000       1.00800           0
     16455 W2       5485     TIP3     H2       HT       0.417000       1.00800           0
     16456 W2       5486     TIP3     OH2      OT      -0.834000       15.9994           0
     16457 W2       5486     TIP3     H1       HT       0.417000       1.00800           0
     16458 W2       5486     TIP3     H2       HT       0.417000       1.00800           0
     16459 W2       5487     TIP3     OH2      OT      -0.834000       15.9994           0
     16460 W2       5487     TIP3     H1       HT       0.417000       1.00800           0
     16461 W2       5487     TIP3     H2       HT       0.417000       1.00800           0
     16462 W2       5488     TIP3     OH2      OT      -0.834000       15.9994           0
     16463 W2       5488     TIP3     H1       HT       0.417000       1.00800           0
     16464 W2       5488     TIP3     H2       HT       0.417000       1.00800           0
     16465 W2       5489     TIP3     OH2      OT      -0.834000       15.9994           0
     16466 W2       5489     TIP3     H1       HT       0.417000       1.00800           0
     16467 W2       5489     TIP3     H2       HT       0.417000       1.00800           0
     16468 W2       5490     TIP3     OH2      OT      -0.834000       15.9994           0
     16469 W2       5490     TIP3     H1       HT       0.417000       1.00800           0
     16470 W2       5490     TIP3     H2       HT       0.417000       1.00800           0
     16471 W2       5491     TIP3     OH2      OT      -0.834000       15.9994           0
     16472 W2       5491     TIP3     H1       HT       0.417000       1.00800           0
     16473 W2       5491     TIP3     H2       HT       0.417000       1.00800           0
     16474 W2       5492     TIP3     OH2      OT      -0.834000       15.9994           0
     16475 W2       5492     TIP3     H1       HT       0.417000       1.00800           0
     16476 W2       5492     TIP3     H2       HT       0.417000       1.00800           0
     16477 W2       5493     TIP3     OH2      OT      -0.834000       15.9994           0
     16478 W2       5493     TIP3     H1       HT       0.417000       1.00800           0
     16479 W2       5493     TIP3     H2       HT       0.417000       1.00800           0
     16480 W2       5494     TIP3     OH2      OT      -0.834000       15.9994           0
     16481 W2       5494     TIP3     H1       HT       0.417000       1.00800           0
     16482 W2       5494     TIP3     H2       HT       0.417000       1.00800           0
     16483 W2       5495     TIP3     OH2      OT      -0.834000       15.9994           0
     16484 W2       5495     TIP3     H1       HT       0.417000       1.00800           0
     16485 W2       5495     TIP3     H2       HT       0.417000       1.00800           0
     16486 W2       5496     TIP3     OH2      OT      -0.834000       15.9994           0
     16487 W2       5496     TIP3     H1       HT       0.417000       1.00800           0
     16488 W2       5496     TIP3     H2       HT       0.417000       1.00800           0
     16489 W2       5497     TIP3     OH2      OT      -0.834000       15.9994           0
     16490 W2       5497     TIP3     H1       HT       0.417000       1.00800           0
     16491 W2       5497     TIP3     H2       HT       0.417000       1.00800           0
     16492 W2       5498     TIP3     OH2      OT      -0.834000       15.9994           0
     16493 W2       5498     TIP3     H1       HT       0.417000       1.00800           0
     16494 W2       5498     TIP3     H2       HT       0.417000       1.00800           0
     16495 W2       5499     TIP3     OH2      OT      -0.834000       15.9994           0
     16496 W2       5499     TIP3     H1       HT       0.417000       1.00800           0
     16497 W2       5499     TIP3     H2       HT       0.417000       1.00800           0
     16498 W2       5500     TIP3     OH2      OT      -0.834000       15.9994           0
     16499 W2       5500     TIP3     H1       HT       0.417000       1.00800           0
     16500 W2       5500     TIP3     H2       HT       0.417000       1.00800           0
     16501 W2       5501     TIP3     OH2      OT      -0.834000       15.9994           0
     16502 W2       5501     TIP3     H1       HT       0.417000       1.00800           0
     16503 W2       5501     TIP3     H2       HT       0.417000       1.00800           0
     16504 W2       5502     TIP3     OH2      OT      -0.834000       15.9994           0
     16505 W2       5502     TIP3     H1       HT       0.417000       1.00800           0
     16506 W2       5502     TIP3     H2       HT       0.417000       1.00800           0
     16507 W2       5503     TIP3     OH2      OT      -0.834000       15.9994           0
     16508 W2       5503     TIP3     H1       HT       0.417000       1.00800           0
     16509 W2       5503     TIP3     H2       HT       0.417000       1.00800           0
     16510 W2       5504     TIP3     OH2      OT      -0.834000       15.9994           0
     16511 W2       5504     TIP3     H1       HT       0.417000       1.00800           0
     16512 W2       5504     TIP3     H2       HT       0.417000       1.00800           0
     16513 W2       5505     TIP3     OH2      OT      -0.834000       15.9994           0
     16514 W2       5505     TIP3     H1       HT       0.417000       1.00800           0
     16515 W2       5505     TIP3     H2       HT       0.417000       1.00800           0
     16516 W2       5506     TIP3     OH2      OT      -0.834000       15.9994           0
     16517 W2       5506     TIP3     H1       HT       0.417000       1.00800           0
     16518 W2       5506     TIP3     H2       HT       0.417000       1.00800           0
     16519 W2       5507     TIP3     OH2      OT      -0.834000       15.9994           0
     16520 W2       5507     TIP3     H1       HT       0.417000       1.00800           0
     16521 W2       5507     TIP3     H2       HT       0.417000       1.00800           0
     16522 W2       5508     TIP3     OH2      OT      -0.834000       15.9994           0
     16523 W2       5508     TIP3     H1       HT       0.417000       1.00800           0
     16524 W2       5508     TIP3     H2       HT       0.417000       1.00800           0
     16525 W2       5509     TIP3     OH2      OT      -0.834000       15.9994           0
     16526 W2       5509     TIP3     H1       HT       0.417000       1.00800           0
     16527 W2       5509     TIP3     H2       HT       0.417000       1.00800           0
     16528 W2       5510     TIP3     OH2      OT      -0.834000       15.9994           0
     16529 W2       5510     TIP3     H1       HT       0.417000       1.00800           0
     16530 W2       5510     TIP3     H2       HT       0.417000       1.00800           0
     16531 W2       5511     TIP3     OH2      OT      -0.834000       15.9994           0
     16532 W2       5511     TIP3     H1       HT       0.417000       1.00800           0
     16533 W2       5511     TIP3     H2       HT       0.417000       1.00800           0
     16534 W2       5512     TIP3     OH2      OT      -0.834000       15.9994           0
     16535 W2       5512     TIP3     H1       HT       0.417000       1.00800           0
     16536 W2       5512     TIP3     H2       HT       0.417000       1.00800           0
     16537 W2       5513     TIP3     OH2      OT      -0.834000       15.9994           0
     16538 W2       5513     TIP3     H1       HT       0.417000       1.00800           0
     16539 W2       5513     TIP3     H2       HT       0.417000       1.00800           0
     16540 W2       5514     TIP3     OH2      OT      -0.834000       15.9994           0
     16541 W2       5514     TIP3     H1       HT       0.417000       1.00800           0
     16542 W2       5514     TIP3     H2       HT       0.417000       1.00800           0
     16543 W2       5515     TIP3     OH2      OT      -0.834000       15.9994           0
     16544 W2       5515     TIP3     H1       HT       0.417000       1.00800           0
     16545 W2       5515     TIP3     H2       HT       0.417000       1.00800           0
     16546 W2       5516     TIP3     OH2      OT      -0.834000       15.9994           0
     16547 W2       5516     TIP3     H1       HT       0.417000       1.00800           0
     16548 W2       5516     TIP3     H2       HT       0.417000       1.00800           0
     16549 W2       5517     TIP3     OH2      OT      -0.834000       15.9994           0
     16550 W2       5517     TIP3     H1       HT       0.417000       1.00800           0
     16551 W2       5517     TIP3     H2       HT       0.417000       1.00800           0
     16552 W2       5518     TIP3     OH2      OT      -0.834000       15.9994           0
     16553 W2       5518     TIP3     H1       HT       0.417000       1.00800           0
     16554 W2       5518     TIP3     H2       HT       0.417000       1.00800           0
     16555 W2       5519     TIP3     OH2      OT      -0.834000       15.9994           0
     16556 W2       5519     TIP3     H1       HT       0.417000       1.00800           0
     16557 W2       5519     TIP3     H2       HT       0.417000       1.00800           0
     16558 W2       5520     TIP3     OH2      OT      -0.834000       15.9994           0
     16559 W2       5520     TIP3     H1       HT       0.417000       1.00800           0
     16560 W2       5520     TIP3     H2       HT       0.417000       1.00800           0
     16561 W2       5521     TIP3     OH2      OT      -0.834000       15.9994           0
     16562 W2       5521     TIP3     H1       HT       0.417000       1.00800           0
     16563 W2       5521     TIP3     H2       HT       0.417000       1.00800           0
     16564 W2       5522     TIP3     OH2      OT      -0.834000       15.9994           0
     16565 W2       5522     TIP3     H1       HT       0.417000       1.00800           0
     16566 W2       5522     TIP3     H2       HT       0.417000       1.00800           0
     16567 W2       5523     TIP3     OH2      OT      -0.834000       15.9994           0
     16568 W2       5523     TIP3     H1       HT       0.417000       1.00800           0
     16569 W2       5523     TIP3     H2       HT       0.417000       1.00800           0
     16570 W2       5524     TIP3     OH2      OT      -0.834000       15.9994           0
     16571 W2       5524     TIP3     H1       HT       0.417000       1.00800           0
     16572 W2       5524     TIP3     H2       HT       0.417000       1.00800           0
     16573 W2       5525     TIP3     OH2      OT      -0.834000       15.9994           0
     16574 W2       5525     TIP3     H1       HT       0.417000       1.00800           0
     16575 W2       5525     TIP3     H2       HT       0.417000       1.00800           0
     16576 W2       5526     TIP3     OH2      OT      -0.834000       15.9994           0
     16577 W2       5526     TIP3     H1       HT       0.417000       1.00800           0
     16578 W2       5526     TIP3     H2       HT       0.417000       1.00800           0
     16579 W2       5527     TIP3     OH2      OT      -0.834000       15.9994           0
     16580 W2       5527     TIP3     H1       HT       0.417000       1.00800           0
     16581 W2       5527     TIP3     H2       HT       0.417000       1.00800           0
     16582 W2       5528     TIP3     OH2      OT      -0.834000       15.9994           0
     16583 W2       5528     TIP3     H1       HT       0.417000       1.00800           0
     16584 W2       5528     TIP3     H2       HT       0.417000       1.00800           0
     16585 W2       5529     TIP3     OH2      OT      -0.834000       15.9994           0
     16586 W2       5529     TIP3     H1       HT       0.417000       1.00800           0
     16587 W2       5529     TIP3     H2       HT       0.417000       1.00800           0
     16588 W2       5530     TIP3     OH2      OT      -0.834000       15.9994           0
     16589 W2       5530     TIP3     H1       HT       0.417000       1.00800           0
     16590 W2       5530     TIP3     H2       HT       0.417000       1.00800           0
     16591 W2       5531     TIP3     OH2      OT      -0.834000       15.9994           0
     16592 W2       5531     TIP3     H1       HT       0.417000       1.00800           0
     16593 W2       5531     TIP3     H2       HT       0.417000       1.00800           0
     16594 W2       5532     TIP3     OH2      OT      -0.834000       15.9994           0
     16595 W2       5532     TIP3     H1       HT       0.417000       1.00800           0
     16596 W2       5532     TIP3     H2       HT       0.417000       1.00800           0
     16597 W2       5533     TIP3     OH2      OT      -0.834000       15.9994           0
     16598 W2       5533     TIP3     H1       HT       0.417000       1.00800           0
     16599 W2       5533     TIP3     H2       HT       0.417000       1.00800           0
     16600 W2       5534     TIP3     OH2      OT      -0.834000       15.9994           0
     16601 W2       5534     TIP3     H1       HT       0.417000       1.00800           0
     16602 W2       5534     TIP3     H2       HT       0.417000       1.00800           0
     16603 W2       5535     TIP3     OH2      OT      -0.834000       15.9994           0
     16604 W2       5535     TIP3     H1       HT       0.417000       1.00800           0
     16605 W2       5535     TIP3     H2       HT       0.417000       1.00800           0
     16606 W2       5536     TIP3     OH2      OT      -0.834000       15.9994           0
     16607 W2       5536     TIP3     H1       HT       0.417000       1.00800           0
     16608 W2       5536     TIP3     H2       HT       0.417000       1.00800           0
     16609 W2       5537     TIP3     OH2      OT      -0.834000       15.9994           0
     16610 W2       5537     TIP3     H1       HT       0.417000       1.00800           0
     16611 W2       5537     TIP3     H2       HT       0.417000       1.00800           0
     16612 W2       5538     TIP3     OH2      OT      -0.834000       15.9994           0
     16613 W2       5538     TIP3     H1       HT       0.417000       1.00800           0
     16614 W2       5538     TIP3     H2       HT       0.417000       1.00800           0
     16615 W2       5539     TIP3     OH2      OT      -0.834000       15.9994           0
     16616 W2       5539     TIP3     H1       HT       0.417000       1.00800           0
     16617 W2       5539     TIP3     H2       HT       0.417000       1.00800           0
     16618 W2       5540     TIP3     OH2      OT      -0.834000       15.9994           0
     16619 W2       5540     TIP3     H1       HT       0.417000       1.00800           0
     16620 W2       5540     TIP3     H2       HT       0.417000       1.00800           0
     16621 W2       5541     TIP3     OH2      OT      -0.834000       15.9994           0
     16622 W2       5541     TIP3     H1       HT       0.417000       1.00800           0
     16623 W2       5541     TIP3     H2       HT       0.417000       1.00800           0
     16624 W2       5542     TIP3     OH2      OT      -0.834000       15.9994           0
     16625 W2       5542     TIP3     H1       HT       0.417000       1.00800           0
     16626 W2       5542     TIP3     H2       HT       0.417000       1.00800           0
     16627 W2       5543     TIP3     OH2      OT      -0.834000       15.9994           0
     16628 W2       5543     TIP3     H1       HT       0.417000       1.00800           0
     16629 W2       5543     TIP3     H2       HT       0.417000       1.00800           0
     16630 W2       5544     TIP3     OH2      OT      -0.834000       15.9994           0
     16631 W2       5544     TIP3     H1       HT       0.417000       1.00800           0
     16632 W2       5544     TIP3     H2       HT       0.417000       1.00800           0
     16633 W2       5545     TIP3     OH2      OT      -0.834000       15.9994           0
     16634 W2       5545     TIP3     H1       HT       0.417000       1.00800           0
     16635 W2       5545     TIP3     H2       HT       0.417000       1.00800           0
     16636 W2       5546     TIP3     OH2      OT      -0.834000       15.9994           0
     16637 W2       5546     TIP3     H1       HT       0.417000       1.00800           0
     16638 W2       5546     TIP3     H2       HT       0.417000       1.00800           0
     16639 W2       5547     TIP3     OH2      OT      -0.834000       15.9994           0
     16640 W2       5547     TIP3     H1       HT       0.417000       1.00800           0
     16641 W2       5547     TIP3     H2       HT       0.417000       1.00800           0
     16642 W2       5548     TIP3     OH2      OT      -0.834000       15.9994           0
     16643 W2       5548     TIP3     H1       HT       0.417000       1.00800           0
     16644 W2       5548     TIP3     H2       HT       0.417000       1.00800           0
     16645 W2       5549     TIP3     OH2      OT      -0.834000       15.9994           0
     16646 W2       5549     TIP3     H1       HT       0.417000       1.00800           0
     16647 W2       5549     TIP3     H2       HT       0.417000       1.00800           0
     16648 W2       5550     TIP3     OH2      OT      -0.834000       15.9994           0
     16649 W2       5550     TIP3     H1       HT       0.417000       1.00800           0
     16650 W2       5550     TIP3     H2       HT       0.417000       1.00800           0
     16651 W2       5551     TIP3     OH2      OT      -0.834000       15.9994           0
     16652 W2       5551     TIP3     H1       HT       0.417000       1.00800           0
     16653 W2       5551     TIP3     H2       HT       0.417000       1.00800           0
     16654 W2       5552     TIP3     OH2      OT      -0.834000       15.9994           0
     16655 W2       5552     TIP3     H1       HT       0.417000       1.00800           0
     16656 W2       5552     TIP3     H2       HT       0.417000       1.00800           0
     16657 W2       5553     TIP3     OH2      OT      -0.834000       15.9994           0
     16658 W2       5553     TIP3     H1       HT       0.417000       1.00800           0
     16659 W2       5553     TIP3     H2       HT       0.417000       1.00800           0
     16660 W2       5554     TIP3     OH2      OT      -0.834000       15.9994           0
     16661 W2       5554     TIP3     H1       HT       0.417000       1.00800           0
     16662 W2       5554     TIP3     H2       HT       0.417000       1.00800           0
     16663 W2       5555     TIP3     OH2      OT      -0.834000       15.9994           0
     16664 W2       5555     TIP3     H1       HT       0.417000       1.00800           0
     16665 W2       5555     TIP3     H2       HT       0.417000       1.00800           0
     16666 W2       5556     TIP3     OH2      OT      -0.834000       15.9994           0
     16667 W2       5556     TIP3     H1       HT       0.417000       1.00800           0
     16668 W2       5556     TIP3     H2       HT       0.417000       1.00800           0
     16669 W2       5557     TIP3     OH2      OT      -0.834000       15.9994           0
     16670 W2       5557     TIP3     H1       HT       0.417000       1.00800           0
     16671 W2       5557     TIP3     H2       HT       0.417000       1.00800           0
     16672 W2       5558     TIP3     OH2      OT      -0.834000       15.9994           0
     16673 W2       5558     TIP3     H1       HT       0.417000       1.00800           0
     16674 W2       5558     TIP3     H2       HT       0.417000       1.00800           0
     16675 W2       5559     TIP3     OH2      OT      -0.834000       15.9994           0
     16676 W2       5559     TIP3     H1       HT       0.417000       1.00800           0
     16677 W2       5559     TIP3     H2       HT       0.417000       1.00800           0
     16678 W2       5560     TIP3     OH2      OT      -0.834000       15.9994           0
     16679 W2       5560     TIP3     H1       HT       0.417000       1.00800           0
     16680 W2       5560     TIP3     H2       HT       0.417000       1.00800           0
     16681 W2       5561     TIP3     OH2      OT      -0.834000       15.9994           0
     16682 W2       5561     TIP3     H1       HT       0.417000       1.00800           0
     16683 W2       5561     TIP3     H2       HT       0.417000       1.00800           0
     16684 W2       5562     TIP3     OH2      OT      -0.834000       15.9994           0
     16685 W2       5562     TIP3     H1       HT       0.417000       1.00800           0
     16686 W2       5562     TIP3     H2       HT       0.417000       1.00800           0
     16687 W2       5563     TIP3     OH2      OT      -0.834000       15.9994           0
     16688 W2       5563     TIP3     H1       HT       0.417000       1.00800           0
     16689 W2       5563     TIP3     H2       HT       0.417000       1.00800           0
     16690 W2       5564     TIP3     OH2      OT      -0.834000       15.9994           0
     16691 W2       5564     TIP3     H1       HT       0.417000       1.00800           0
     16692 W2       5564     TIP3     H2       HT       0.417000       1.00800           0
     16693 W2       5565     TIP3     OH2      OT      -0.834000       15.9994           0
     16694 W2       5565     TIP3     H1       HT       0.417000       1.00800           0
     16695 W2       5565     TIP3     H2       HT       0.417000       1.00800           0
     16696 W2       5566     TIP3     OH2      OT      -0.834000       15.9994           0
     16697 W2       5566     TIP3     H1       HT       0.417000       1.00800           0
     16698 W2       5566     TIP3     H2       HT       0.417000       1.00800           0
     16699 W2       5567     TIP3     OH2      OT      -0.834000       15.9994           0
     16700 W2       5567     TIP3     H1       HT       0.417000       1.00800           0
     16701 W2       5567     TIP3     H2       HT       0.417000       1.00800           0
     16702 W2       5568     TIP3     OH2      OT      -0.834000       15.9994           0
     16703 W2       5568     TIP3     H1       HT       0.417000       1.00800           0
     16704 W2       5568     TIP3     H2       HT       0.417000       1.00800           0
     16705 W2       5569     TIP3     OH2      OT      -0.834000       15.9994           0
     16706 W2       5569     TIP3     H1       HT       0.417000       1.00800           0
     16707 W2       5569     TIP3     H2       HT       0.417000       1.00800           0
     16708 W2       5570     TIP3     OH2      OT      -0.834000       15.9994           0
     16709 W2       5570     TIP3     H1       HT       0.417000       1.00800           0
     16710 W2       5570     TIP3     H2       HT       0.417000       1.00800           0
     16711 W2       5571     TIP3     OH2      OT      -0.834000       15.9994           0
     16712 W2       5571     TIP3     H1       HT       0.417000       1.00800           0
     16713 W2       5571     TIP3     H2       HT       0.417000       1.00800           0
     16714 W2       5572     TIP3     OH2      OT      -0.834000       15.9994           0
     16715 W2       5572     TIP3     H1       HT       0.417000       1.00800           0
     16716 W2       5572     TIP3     H2       HT       0.417000       1.00800           0
     16717 W2       5573     TIP3     OH2      OT      -0.834000       15.9994           0
     16718 W2       5573     TIP3     H1       HT       0.417000       1.00800           0
     16719 W2       5573     TIP3     H2       HT       0.417000       1.00800           0
     16720 W2       5574     TIP3     OH2      OT      -0.834000       15.9994           0
     16721 W2       5574     TIP3     H1       HT       0.417000       1.00800           0
     16722 W2       5574     TIP3     H2       HT       0.417000       1.00800           0
     16723 W2       5575     TIP3     OH2      OT      -0.834000       15.9994           0
     16724 W2       5575     TIP3     H1       HT       0.417000       1.00800           0
     16725 W2       5575     TIP3     H2       HT       0.417000       1.00800           0
     16726 W2       5576     TIP3     OH2      OT      -0.834000       15.9994           0
     16727 W2       5576     TIP3     H1       HT       0.417000       1.00800           0
     16728 W2       5576     TIP3     H2       HT       0.417000       1.00800           0
     16729 W2       5577     TIP3     OH2      OT      -0.834000       15.9994           0
     16730 W2       5577     TIP3     H1       HT       0.417000       1.00800           0
     16731 W2       5577     TIP3     H2       HT       0.417000       1.00800           0
     16732 W2       5578     TIP3     OH2      OT      -0.834000       15.9994           0
     16733 W2       5578     TIP3     H1       HT       0.417000       1.00800           0
     16734 W2       5578     TIP3     H2       HT       0.417000       1.00800           0
     16735 W2       5579     TIP3     OH2      OT      -0.834000       15.9994           0
     16736 W2       5579     TIP3     H1       HT       0.417000       1.00800           0
     16737 W2       5579     TIP3     H2       HT       0.417000       1.00800           0
     16738 W2       5580     TIP3     OH2      OT      -0.834000       15.9994           0
     16739 W2       5580     TIP3     H1       HT       0.417000       1.00800           0
     16740 W2       5580     TIP3     H2       HT       0.417000       1.00800           0
     16741 W2       5581     TIP3     OH2      OT      -0.834000       15.9994           0
     16742 W2       5581     TIP3     H1       HT       0.417000       1.00800           0
     16743 W2       5581     TIP3     H2       HT       0.417000       1.00800           0
     16744 W2       5582     TIP3     OH2      OT      -0.834000       15.9994           0
     16745 W2       5582     TIP3     H1       HT       0.417000       1.00800           0
     16746 W2       5582     TIP3     H2       HT       0.417000       1.00800           0
     16747 W2       5583     TIP3     OH2      OT      -0.834000       15.9994           0
     16748 W2       5583     TIP3     H1       HT       0.417000       1.00800           0
     16749 W2       5583     TIP3     H2       HT       0.417000       1.00800           0
     16750 W2       5584     TIP3     OH2      OT      -0.834000       15.9994           0
     16751 W2       5584     TIP3     H1       HT       0.417000       1.00800           0
     16752 W2       5584     TIP3     H2       HT       0.417000       1.00800           0
     16753 W2       5585     TIP3     OH2      OT      -0.834000       15.9994           0
     16754 W2       5585     TIP3     H1       HT       0.417000       1.00800           0
     16755 W2       5585     TIP3     H2       HT       0.417000       1.00800           0
     16756 W2       5586     TIP3     OH2      OT      -0.834000       15.9994           0
     16757 W2       5586     TIP3     H1       HT       0.417000       1.00800           0
     16758 W2       5586     TIP3     H2       HT       0.417000       1.00800           0
     16759 W2       5587     TIP3     OH2      OT      -0.834000       15.9994           0
     16760 W2       5587     TIP3     H1       HT       0.417000       1.00800           0
     16761 W2       5587     TIP3     H2       HT       0.417000       1.00800           0
     16762 W2       5588     TIP3     OH2      OT      -0.834000       15.9994           0
     16763 W2       5588     TIP3     H1       HT       0.417000       1.00800           0
     16764 W2       5588     TIP3     H2       HT       0.417000       1.00800           0
     16765 W2       5589     TIP3     OH2      OT      -0.834000       15.9994           0
     16766 W2       5589     TIP3     H1       HT       0.417000       1.00800           0
     16767 W2       5589     TIP3     H2       HT       0.417000       1.00800           0
     16768 W2       5590     TIP3     OH2      OT      -0.834000       15.9994           0
     16769 W2       5590     TIP3     H1       HT       0.417000       1.00800           0
     16770 W2       5590     TIP3     H2       HT       0.417000       1.00800           0
     16771 W2       5591     TIP3     OH2      OT      -0.834000       15.9994           0
     16772 W2       5591     TIP3     H1       HT       0.417000       1.00800           0
     16773 W2       5591     TIP3     H2       HT       0.417000       1.00800           0
     16774 W2       5592     TIP3     OH2      OT      -0.834000       15.9994           0
     16775 W2       5592     TIP3     H1       HT       0.417000       1.00800           0
     16776 W2       5592     TIP3     H2       HT       0.417000       1.00800           0
     16777 W2       5593     TIP3     OH2      OT      -0.834000       15.9994           0
     16778 W2       5593     TIP3     H1       HT       0.417000       1.00800           0
     16779 W2       5593     TIP3     H2       HT       0.417000       1.00800           0
     16780 W2       5594     TIP3     OH2      OT      -0.834000       15.9994           0
     16781 W2       5594     TIP3     H1       HT       0.417000       1.00800           0
     16782 W2       5594     TIP3     H2       HT       0.417000       1.00800           0
     16783 W2       5595     TIP3     OH2      OT      -0.834000       15.9994           0
     16784 W2       5595     TIP3     H1       HT       0.417000       1.00800           0
     16785 W2       5595     TIP3     H2       HT       0.417000       1.00800           0
     16786 W2       5596     TIP3     OH2      OT      -0.834000       15.9994           0
     16787 W2       5596     TIP3     H1       HT       0.417000       1.00800           0
     16788 W2       5596     TIP3     H2       HT       0.417000       1.00800           0
     16789 W2       5597     TIP3     OH2      OT      -0.834000       15.9994           0
     16790 W2       5597     TIP3     H1       HT       0.417000       1.00800           0
     16791 W2       5597     TIP3     H2       HT       0.417000       1.00800           0
     16792 W2       5598     TIP3     OH2      OT      -0.834000       15.9994           0
     16793 W2       5598     TIP3     H1       HT       0.417000       1.00800           0
     16794 W2       5598     TIP3     H2       HT       0.417000       1.00800           0
     16795 W2       5599     TIP3     OH2      OT      -0.834000       15.9994           0
     16796 W2       5599     TIP3     H1       HT       0.417000       1.00800           0
     16797 W2       5599     TIP3     H2       HT       0.417000       1.00800           0
     16798 W2       5600     TIP3     OH2      OT      -0.834000       15.9994           0
     16799 W2       5600     TIP3     H1       HT       0.417000       1.00800           0
     16800 W2       5600     TIP3     H2       HT       0.417000       1.00800           0
     16801 W2       5601     TIP3     OH2      OT      -0.834000       15.9994           0
     16802 W2       5601     TIP3     H1       HT       0.417000       1.00800           0
     16803 W2       5601     TIP3     H2       HT       0.417000       1.00800           0
     16804 W2       5602     TIP3     OH2      OT      -0.834000       15.9994           0
     16805 W2       5602     TIP3     H1       HT       0.417000       1.00800           0
     16806 W2       5602     TIP3     H2       HT       0.417000       1.00800           0
     16807 W2       5603     TIP3     OH2      OT      -0.834000       15.9994           0
     16808 W2       5603     TIP3     H1       HT       0.417000       1.00800           0
     16809 W2       5603     TIP3     H2       HT       0.417000       1.00800           0
     16810 W2       5604     TIP3     OH2      OT      -0.834000       15.9994           0
     16811 W2       5604     TIP3     H1       HT       0.417000       1.00800           0
     16812 W2       5604     TIP3     H2       HT       0.417000       1.00800           0
     16813 W2       5605     TIP3     OH2      OT      -0.834000       15.9994           0
     16814 W2       5605     TIP3     H1       HT       0.417000       1.00800           0
     16815 W2       5605     TIP3     H2       HT       0.417000       1.00800           0
     16816 W2       5606     TIP3     OH2      OT      -0.834000       15.9994           0
     16817 W2       5606     TIP3     H1       HT       0.417000       1.00800           0
     16818 W2       5606     TIP3     H2       HT       0.417000       1.00800           0
     16819 W2       5607     TIP3     OH2      OT      -0.834000       15.9994           0
     16820 W2       5607     TIP3     H1       HT       0.417000       1.00800           0
     16821 W2       5607     TIP3     H2       HT       0.417000       1.00800           0
     16822 W2       5608     TIP3     OH2      OT      -0.834000       15.9994           0
     16823 W2       5608     TIP3     H1       HT       0.417000       1.00800           0
     16824 W2       5608     TIP3     H2       HT       0.417000       1.00800           0
     16825 W2       5609     TIP3     OH2      OT      -0.834000       15.9994           0
     16826 W2       5609     TIP3     H1       HT       0.417000       1.00800           0
     16827 W2       5609     TIP3     H2       HT       0.417000       1.00800           0
     16828 W2       5610     TIP3     OH2      OT      -0.834000       15.9994           0
     16829 W2       5610     TIP3     H1       HT       0.417000       1.00800           0
     16830 W2       5610     TIP3     H2       HT       0.417000       1.00800           0
     16831 W2       5611     TIP3     OH2      OT      -0.834000       15.9994           0
     16832 W2       5611     TIP3     H1       HT       0.417000       1.00800           0
     16833 W2       5611     TIP3     H2       HT       0.417000       1.00800           0
     16834 W2       5612     TIP3     OH2      OT      -0.834000       15.9994           0
     16835 W2       5612     TIP3     H1       HT       0.417000       1.00800           0
     16836 W2       5612     TIP3     H2       HT       0.417000       1.00800           0
     16837 W2       5613     TIP3     OH2      OT      -0.834000       15.9994           0
     16838 W2       5613     TIP3     H1       HT       0.417000       1.00800           0
     16839 W2       5613     TIP3     H2       HT       0.417000       1.00800           0
     16840 W2       5614     TIP3     OH2      OT      -0.834000       15.9994           0
     16841 W2       5614     TIP3     H1       HT       0.417000       1.00800           0
     16842 W2       5614     TIP3     H2       HT       0.417000       1.00800           0
     16843 W2       5615     TIP3     OH2      OT      -0.834000       15.9994           0
     16844 W2       5615     TIP3     H1       HT       0.417000       1.00800           0
     16845 W2       5615     TIP3     H2       HT       0.417000       1.00800           0
     16846 W2       5616     TIP3     OH2      OT      -0.834000       15.9994           0
     16847 W2       5616     TIP3     H1       HT       0.417000       1.00800           0
     16848 W2       5616     TIP3     H2       HT       0.417000       1.00800           0
     16849 W2       5617     TIP3     OH2      OT      -0.834000       15.9994           0
     16850 W2       5617     TIP3     H1       HT       0.417000       1.00800           0
     16851 W2       5617     TIP3     H2       HT       0.417000       1.00800           0
     16852 W2       5618     TIP3     OH2      OT      -0.834000       15.9994           0
     16853 W2       5618     TIP3     H1       HT       0.417000       1.00800           0
     16854 W2       5618     TIP3     H2       HT       0.417000       1.00800           0
     16855 W2       5619     TIP3     OH2      OT      -0.834000       15.9994           0
     16856 W2       5619     TIP3     H1       HT       0.417000       1.00800           0
     16857 W2       5619     TIP3     H2       HT       0.417000       1.00800           0
     16858 W2       5620     TIP3     OH2      OT      -0.834000       15.9994           0
     16859 W2       5620     TIP3     H1       HT       0.417000       1.00800           0
     16860 W2       5620     TIP3     H2       HT       0.417000       1.00800           0
     16861 W2       5621     TIP3     OH2      OT      -0.834000       15.9994           0
     16862 W2       5621     TIP3     H1       HT       0.417000       1.00800           0
     16863 W2       5621     TIP3     H2       HT       0.417000       1.00800           0
     16864 W2       5622     TIP3     OH2      OT      -0.834000       15.9994           0
     16865 W2       5622     TIP3     H1       HT       0.417000       1.00800           0
     16866 W2       5622     TIP3     H2       HT       0.417000       1.00800           0
     16867 W2       5623     TIP3     OH2      OT      -0.834000       15.9994           0
     16868 W2       5623     TIP3     H1       HT       0.417000       1.00800           0
     16869 W2       5623     TIP3     H2       HT       0.417000       1.00800           0
     16870 W2       5624     TIP3     OH2      OT      -0.834000       15.9994           0
     16871 W2       5624     TIP3     H1       HT       0.417000       1.00800           0
     16872 W2       5624     TIP3     H2       HT       0.417000       1.00800           0
     16873 W2       5625     TIP3     OH2      OT      -0.834000       15.9994           0
     16874 W2       5625     TIP3     H1       HT       0.417000       1.00800           0
     16875 W2       5625     TIP3     H2       HT       0.417000       1.00800           0
     16876 W2       5626     TIP3     OH2      OT      -0.834000       15.9994           0
     16877 W2       5626     TIP3     H1       HT       0.417000       1.00800           0
     16878 W2       5626     TIP3     H2       HT       0.417000       1.00800           0
     16879 W2       5627     TIP3     OH2      OT      -0.834000       15.9994           0
     16880 W2       5627     TIP3     H1       HT       0.417000       1.00800           0
     16881 W2       5627     TIP3     H2       HT       0.417000       1.00800           0
     16882 W2       5628     TIP3     OH2      OT      -0.834000       15.9994           0
     16883 W2       5628     TIP3     H1       HT       0.417000       1.00800           0
     16884 W2       5628     TIP3     H2       HT       0.417000       1.00800           0
     16885 W2       5629     TIP3     OH2      OT      -0.834000       15.9994           0
     16886 W2       5629     TIP3     H1       HT       0.417000       1.00800           0
     16887 W2       5629     TIP3     H2       HT       0.417000       1.00800           0
     16888 W2       5630     TIP3     OH2      OT      -0.834000       15.9994           0
     16889 W2       5630     TIP3     H1       HT       0.417000       1.00800           0
     16890 W2       5630     TIP3     H2       HT       0.417000       1.00800           0
     16891 W2       5631     TIP3     OH2      OT      -0.834000       15.9994           0
     16892 W2       5631     TIP3     H1       HT       0.417000       1.00800           0
     16893 W2       5631     TIP3     H2       HT       0.417000       1.00800           0
     16894 W2       5632     TIP3     OH2      OT      -0.834000       15.9994           0
     16895 W2       5632     TIP3     H1       HT       0.417000       1.00800           0
     16896 W2       5632     TIP3     H2       HT       0.417000       1.00800           0
     16897 W2       5633     TIP3     OH2      OT      -0.834000       15.9994           0
     16898 W2       5633     TIP3     H1       HT       0.417000       1.00800           0
     16899 W2       5633     TIP3     H2       HT       0.417000       1.00800           0
     16900 W2       5634     TIP3     OH2      OT      -0.834000       15.9994           0
     16901 W2       5634     TIP3     H1       HT       0.417000       1.00800           0
     16902 W2       5634     TIP3     H2       HT       0.417000       1.00800           0
     16903 W2       5635     TIP3     OH2      OT      -0.834000       15.9994           0
     16904 W2       5635     TIP3     H1       HT       0.417000       1.00800           0
     16905 W2       5635     TIP3     H2       HT       0.417000       1.00800           0
     16906 W2       5636     TIP3     OH2      OT      -0.834000       15.9994           0
     16907 W2       5636     TIP3     H1       HT       0.417000       1.00800           0
     16908 W2       5636     TIP3     H2       HT       0.417000       1.00800           0
     16909 W2       5637     TIP3     OH2      OT      -0.834000       15.9994           0
     16910 W2       5637     TIP3     H1       HT       0.417000       1.00800           0
     16911 W2       5637     TIP3     H2       HT       0.417000       1.00800           0
     16912 W2       5638     TIP3     OH2      OT      -0.834000       15.9994           0
     16913 W2       5638     TIP3     H1       HT       0.417000       1.00800           0
     16914 W2       5638     TIP3     H2       HT       0.417000       1.00800           0
     16915 W2       5639     TIP3     OH2      OT      -0.834000       15.9994           0
     16916 W2       5639     TIP3     H1       HT       0.417000       1.00800           0
     16917 W2       5639     TIP3     H2       HT       0.417000       1.00800           0
     16918 W2       5640     TIP3     OH2      OT      -0.834000       15.9994           0
     16919 W2       5640     TIP3     H1       HT       0.417000       1.00800           0
     16920 W2       5640     TIP3     H2       HT       0.417000       1.00800           0
     16921 W2       5641     TIP3     OH2      OT      -0.834000       15.9994           0
     16922 W2       5641     TIP3     H1       HT       0.417000       1.00800           0
     16923 W2       5641     TIP3     H2       HT       0.417000       1.00800           0
     16924 W2       5642     TIP3     OH2      OT      -0.834000       15.9994           0
     16925 W2       5642     TIP3     H1       HT       0.417000       1.00800           0
     16926 W2       5642     TIP3     H2       HT       0.417000       1.00800           0
     16927 W2       5643     TIP3     OH2      OT      -0.834000       15.9994           0
     16928 W2       5643     TIP3     H1       HT       0.417000       1.00800           0
     16929 W2       5643     TIP3     H2       HT       0.417000       1.00800           0
     16930 W2       5644     TIP3     OH2      OT      -0.834000       15.9994           0
     16931 W2       5644     TIP3     H1       HT       0.417000       1.00800           0
     16932 W2       5644     TIP3     H2       HT       0.417000       1.00800           0
     16933 W2       5645     TIP3     OH2      OT      -0.834000       15.9994           0
     16934 W2       5645     TIP3     H1       HT       0.417000       1.00800           0
     16935 W2       5645     TIP3     H2       HT       0.417000       1.00800           0
     16936 W2       5646     TIP3     OH2      OT      -0.834000       15.9994           0
     16937 W2       5646     TIP3     H1       HT       0.417000       1.00800           0
     16938 W2       5646     TIP3     H2       HT       0.417000       1.00800           0
     16939 W2       5647     TIP3     OH2      OT      -0.834000       15.9994           0
     16940 W2       5647     TIP3     H1       HT       0.417000       1.00800           0
     16941 W2       5647     TIP3     H2       HT       0.417000       1.00800           0
     16942 W2       5648     TIP3     OH2      OT      -0.834000       15.9994           0
     16943 W2       5648     TIP3     H1       HT       0.417000       1.00800           0
     16944 W2       5648     TIP3     H2       HT       0.417000       1.00800           0
     16945 W2       5649     TIP3     OH2      OT      -0.834000       15.9994           0
     16946 W2       5649     TIP3     H1       HT       0.417000       1.00800           0
     16947 W2       5649     TIP3     H2       HT       0.417000       1.00800           0
     16948 W2       5650     TIP3     OH2      OT      -0.834000       15.9994           0
     16949 W2       5650     TIP3     H1       HT       0.417000       1.00800           0
     16950 W2       5650     TIP3     H2       HT       0.417000       1.00800           0
     16951 W2       5651     TIP3     OH2      OT      -0.834000       15.9994           0
     16952 W2       5651     TIP3     H1       HT       0.417000       1.00800           0
     16953 W2       5651     TIP3     H2       HT       0.417000       1.00800           0
     16954 W2       5652     TIP3     OH2      OT      -0.834000       15.9994           0
     16955 W2       5652     TIP3     H1       HT       0.417000       1.00800           0
     16956 W2       5652     TIP3     H2       HT       0.417000       1.00800           0
     16957 W2       5653     TIP3     OH2      OT      -0.834000       15.9994           0
     16958 W2       5653     TIP3     H1       HT       0.417000       1.00800           0
     16959 W2       5653     TIP3     H2       HT       0.417000       1.00800           0
     16960 W2       5654     TIP3     OH2      OT      -0.834000       15.9994           0
     16961 W2       5654     TIP3     H1       HT       0.417000       1.00800           0
     16962 W2       5654     TIP3     H2       HT       0.417000       1.00800           0
     16963 W2       5655     TIP3     OH2      OT      -0.834000       15.9994           0
     16964 W2       5655     TIP3     H1       HT       0.417000       1.00800           0
     16965 W2       5655     TIP3     H2       HT       0.417000       1.00800           0
     16966 W2       5656     TIP3     OH2      OT      -0.834000       15.9994           0
     16967 W2       5656     TIP3     H1       HT       0.417000       1.00800           0
     16968 W2       5656     TIP3     H2       HT       0.417000       1.00800           0
     16969 W2       5657     TIP3     OH2      OT      -0.834000       15.9994           0
     16970 W2       5657     TIP3     H1       HT       0.417000       1.00800           0
     16971 W2       5657     TIP3     H2       HT       0.417000       1.00800           0
     16972 W2       5658     TIP3     OH2      OT      -0.834000       15.9994           0
     16973 W2       5658     TIP3     H1       HT       0.417000       1.00800           0
     16974 W2       5658     TIP3     H2       HT       0.417000       1.00800           0
     16975 W2       5659     TIP3     OH2      OT      -0.834000       15.9994           0
     16976 W2       5659     TIP3     H1       HT       0.417000       1.00800           0
     16977 W2       5659     TIP3     H2       HT       0.417000       1.00800           0
     16978 W2       5660     TIP3     OH2      OT      -0.834000       15.9994           0
     16979 W2       5660     TIP3     H1       HT       0.417000       1.00800           0
     16980 W2       5660     TIP3     H2       HT       0.417000       1.00800           0
     16981 W2       5661     TIP3     OH2      OT      -0.834000       15.9994           0
     16982 W2       5661     TIP3     H1       HT       0.417000       1.00800           0
     16983 W2       5661     TIP3     H2       HT       0.417000       1.00800           0
     16984 W2       5662     TIP3     OH2      OT      -0.834000       15.9994           0
     16985 W2       5662     TIP3     H1       HT       0.417000       1.00800           0
     16986 W2       5662     TIP3     H2       HT       0.417000       1.00800           0
     16987 W2       5663     TIP3     OH2      OT      -0.834000       15.9994           0
     16988 W2       5663     TIP3     H1       HT       0.417000       1.00800           0
     16989 W2       5663     TIP3     H2       HT       0.417000       1.00800           0
     16990 W2       5664     TIP3     OH2      OT      -0.834000       15.9994           0
     16991 W2       5664     TIP3     H1       HT       0.417000       1.00800           0
     16992 W2       5664     TIP3     H2       HT       0.417000       1.00800           0
     16993 W2       5665     TIP3     OH2      OT      -0.834000       15.9994           0
     16994 W2       5665     TIP3     H1       HT       0.417000       1.00800           0
     16995 W2       5665     TIP3     H2       HT       0.417000       1.00800           0
     16996 W2       5666     TIP3     OH2      OT      -0.834000       15.9994           0
     16997 W2       5666     TIP3     H1       HT       0.417000       1.00800           0
     16998 W2       5666     TIP3     H2       HT       0.417000       1.00800           0
     16999 W2       5667     TIP3     OH2      OT      -0.834000       15.9994           0
     17000 W2       5667     TIP3     H1       HT       0.417000       1.00800           0
     17001 W2       5667     TIP3     H2       HT       0.417000       1.00800           0
     17002 W2       5668     TIP3     OH2      OT      -0.834000       15.9994           0
     17003 W2       5668     TIP3     H1       HT       0.417000       1.00800           0
     17004 W2       5668     TIP3     H2       HT       0.417000       1.00800           0
     17005 W2       5669     TIP3     OH2      OT      -0.834000       15.9994           0
     17006 W2       5669     TIP3     H1       HT       0.417000       1.00800           0
     17007 W2       5669     TIP3     H2       HT       0.417000       1.00800           0
     17008 W2       5670     TIP3     OH2      OT      -0.834000       15.9994           0
     17009 W2       5670     TIP3     H1       HT       0.417000       1.00800           0
     17010 W2       5670     TIP3     H2       HT       0.417000       1.00800           0
     17011 W2       5671     TIP3     OH2      OT      -0.834000       15.9994           0
     17012 W2       5671     TIP3     H1       HT       0.417000       1.00800           0
     17013 W2       5671     TIP3     H2       HT       0.417000       1.00800           0
     17014 W2       5672     TIP3     OH2      OT      -0.834000       15.9994           0
     17015 W2       5672     TIP3     H1       HT       0.417000       1.00800           0
     17016 W2       5672     TIP3     H2       HT       0.417000       1.00800           0
     17017 W2       5673     TIP3     OH2      OT      -0.834000       15.9994           0
     17018 W2       5673     TIP3     H1       HT       0.417000       1.00800           0
     17019 W2       5673     TIP3     H2       HT       0.417000       1.00800           0
     17020 W2       5674     TIP3     OH2      OT      -0.834000       15.9994           0
     17021 W2       5674     TIP3     H1       HT       0.417000       1.00800           0
     17022 W2       5674     TIP3     H2       HT       0.417000       1.00800           0
     17023 W2       5675     TIP3     OH2      OT      -0.834000       15.9994           0
     17024 W2       5675     TIP3     H1       HT       0.417000       1.00800           0
     17025 W2       5675     TIP3     H2       HT       0.417000       1.00800           0
     17026 W2       5676     TIP3     OH2      OT      -0.834000       15.9994           0
     17027 W2       5676     TIP3     H1       HT       0.417000       1.00800           0
     17028 W2       5676     TIP3     H2       HT       0.417000       1.00800           0
     17029 W2       5677     TIP3     OH2      OT      -0.834000       15.9994           0
     17030 W2       5677     TIP3     H1       HT       0.417000       1.00800           0
     17031 W2       5677     TIP3     H2       HT       0.417000       1.00800           0
     17032 W2       5678     TIP3     OH2      OT      -0.834000       15.9994           0
     17033 W2       5678     TIP3     H1       HT       0.417000       1.00800           0
     17034 W2       5678     TIP3     H2       HT       0.417000       1.00800           0
     17035 W2       5679     TIP3     OH2      OT      -0.834000       15.9994           0
     17036 W2       5679     TIP3     H1       HT       0.417000       1.00800           0
     17037 W2       5679     TIP3     H2       HT       0.417000       1.00800           0
     17038 W2       5680     TIP3     OH2      OT      -0.834000       15.9994           0
     17039 W2       5680     TIP3     H1       HT       0.417000       1.00800           0
     17040 W2       5680     TIP3     H2       HT       0.417000       1.00800           0
     17041 W2       5681     TIP3     OH2      OT      -0.834000       15.9994           0
     17042 W2       5681     TIP3     H1       HT       0.417000       1.00800           0
     17043 W2       5681     TIP3     H2       HT       0.417000       1.00800           0
     17044 W2       5682     TIP3     OH2      OT      -0.834000       15.9994           0
     17045 W2       5682     TIP3     H1       HT       0.417000       1.00800           0
     17046 W2       5682     TIP3     H2       HT       0.417000       1.00800           0
     17047 W2       5683     TIP3     OH2      OT      -0.834000       15.9994           0
     17048 W2       5683     TIP3     H1       HT       0.417000       1.00800           0
     17049 W2       5683     TIP3     H2       HT       0.417000       1.00800           0
     17050 W2       5684     TIP3     OH2      OT      -0.834000       15.9994           0
     17051 W2       5684     TIP3     H1       HT       0.417000       1.00800           0
     17052 W2       5684     TIP3     H2       HT       0.417000       1.00800           0
     17053 W2       5685     TIP3     OH2      OT      -0.834000       15.9994           0
     17054 W2       5685     TIP3     H1       HT       0.417000       1.00800           0
     17055 W2       5685     TIP3     H2       HT       0.417000       1.00800           0
     17056 W2       5686     TIP3     OH2      OT      -0.834000       15.9994           0
     17057 W2       5686     TIP3     H1       HT       0.417000       1.00800           0
     17058 W2       5686     TIP3     H2       HT       0.417000       1.00800           0
     17059 W2       5687     TIP3     OH2      OT      -0.834000       15.9994           0
     17060 W2       5687     TIP3     H1       HT       0.417000       1.00800           0
     17061 W2       5687     TIP3     H2       HT       0.417000       1.00800           0
     17062 W2       5688     TIP3     OH2      OT      -0.834000       15.9994           0
     17063 W2       5688     TIP3     H1       HT       0.417000       1.00800           0
     17064 W2       5688     TIP3     H2       HT       0.417000       1.00800           0
     17065 W2       5689     TIP3     OH2      OT      -0.834000       15.9994           0
     17066 W2       5689     TIP3     H1       HT       0.417000       1.00800           0
     17067 W2       5689     TIP3     H2       HT       0.417000       1.00800           0
     17068 W2       5690     TIP3     OH2      OT      -0.834000       15.9994           0
     17069 W2       5690     TIP3     H1       HT       0.417000       1.00800           0
     17070 W2       5690     TIP3     H2       HT       0.417000       1.00800           0
     17071 W2       5691     TIP3     OH2      OT      -0.834000       15.9994           0
     17072 W2       5691     TIP3     H1       HT       0.417000       1.00800           0
     17073 W2       5691     TIP3     H2       HT       0.417000       1.00800           0
     17074 W2       5692     TIP3     OH2      OT      -0.834000       15.9994           0
     17075 W2       5692     TIP3     H1       HT       0.417000       1.00800           0
     17076 W2       5692     TIP3     H2       HT       0.417000       1.00800           0
     17077 W2       5693     TIP3     OH2      OT      -0.834000       15.9994           0
     17078 W2       5693     TIP3     H1       HT       0.417000       1.00800           0
     17079 W2       5693     TIP3     H2       HT       0.417000       1.00800           0
     17080 W2       5694     TIP3     OH2      OT      -0.834000       15.9994           0
     17081 W2       5694     TIP3     H1       HT       0.417000       1.00800           0
     17082 W2       5694     TIP3     H2       HT       0.417000       1.00800           0
     17083 W2       5695     TIP3     OH2      OT      -0.834000       15.9994           0
     17084 W2       5695     TIP3     H1       HT       0.417000       1.00800           0
     17085 W2       5695     TIP3     H2       HT       0.417000       1.00800           0
     17086 W2       5696     TIP3     OH2      OT      -0.834000       15.9994           0
     17087 W2       5696     TIP3     H1       HT       0.417000       1.00800           0
     17088 W2       5696     TIP3     H2       HT       0.417000       1.00800           0
     17089 W2       5697     TIP3     OH2      OT      -0.834000       15.9994           0
     17090 W2       5697     TIP3     H1       HT       0.417000       1.00800           0
     17091 W2       5697     TIP3     H2       HT       0.417000       1.00800           0
     17092 W2       5698     TIP3     OH2      OT      -0.834000       15.9994           0
     17093 W2       5698     TIP3     H1       HT       0.417000       1.00800           0
     17094 W2       5698     TIP3     H2       HT       0.417000       1.00800           0
     17095 W2       5699     TIP3     OH2      OT      -0.834000       15.9994           0
     17096 W2       5699     TIP3     H1       HT       0.417000       1.00800           0
     17097 W2       5699     TIP3     H2       HT       0.417000       1.00800           0
     17098 W2       5700     TIP3     OH2      OT      -0.834000       15.9994           0
     17099 W2       5700     TIP3     H1       HT       0.417000       1.00800           0
     17100 W2       5700     TIP3     H2       HT       0.417000       1.00800           0
     17101 W2       5701     TIP3     OH2      OT      -0.834000       15.9994           0
     17102 W2       5701     TIP3     H1       HT       0.417000       1.00800           0
     17103 W2       5701     TIP3     H2       HT       0.417000       1.00800           0
     17104 W2       5702     TIP3     OH2      OT      -0.834000       15.9994           0
     17105 W2       5702     TIP3     H1       HT       0.417000       1.00800           0
     17106 W2       5702     TIP3     H2       HT       0.417000       1.00800           0
     17107 W2       5703     TIP3     OH2      OT      -0.834000       15.9994           0
     17108 W2       5703     TIP3     H1       HT       0.417000       1.00800           0
     17109 W2       5703     TIP3     H2       HT       0.417000       1.00800           0
     17110 W2       5704     TIP3     OH2      OT      -0.834000       15.9994           0
     17111 W2       5704     TIP3     H1       HT       0.417000       1.00800           0
     17112 W2       5704     TIP3     H2       HT       0.417000       1.00800           0
     17113 W2       5705     TIP3     OH2      OT      -0.834000       15.9994           0
     17114 W2       5705     TIP3     H1       HT       0.417000       1.00800           0
     17115 W2       5705     TIP3     H2       HT       0.417000       1.00800           0
     17116 W2       5706     TIP3     OH2      OT      -0.834000       15.9994           0
     17117 W2       5706     TIP3     H1       HT       0.417000       1.00800           0
     17118 W2       5706     TIP3     H2       HT       0.417000       1.00800           0
     17119 W2       5707     TIP3     OH2      OT      -0.834000       15.9994           0
     17120 W2       5707     TIP3     H1       HT       0.417000       1.00800           0
     17121 W2       5707     TIP3     H2       HT       0.417000       1.00800           0
     17122 W2       5708     TIP3     OH2      OT      -0.834000       15.9994           0
     17123 W2       5708     TIP3     H1       HT       0.417000       1.00800           0
     17124 W2       5708     TIP3     H2       HT       0.417000       1.00800           0
     17125 W2       5709     TIP3     OH2      OT      -0.834000       15.9994           0
     17126 W2       5709     TIP3     H1       HT       0.417000       1.00800           0
     17127 W2       5709     TIP3     H2       HT       0.417000       1.00800           0
     17128 W2       5710     TIP3     OH2      OT      -0.834000       15.9994           0
     17129 W2       5710     TIP3     H1       HT       0.417000       1.00800           0
     17130 W2       5710     TIP3     H2       HT       0.417000       1.00800           0
     17131 W2       5711     TIP3     OH2      OT      -0.834000       15.9994           0
     17132 W2       5711     TIP3     H1       HT       0.417000       1.00800           0
     17133 W2       5711     TIP3     H2       HT       0.417000       1.00800           0
     17134 W2       5712     TIP3     OH2      OT      -0.834000       15.9994           0
     17135 W2       5712     TIP3     H1       HT       0.417000       1.00800           0
     17136 W2       5712     TIP3     H2       HT       0.417000       1.00800           0
     17137 W2       5713     TIP3     OH2      OT      -0.834000       15.9994           0
     17138 W2       5713     TIP3     H1       HT       0.417000       1.00800           0
     17139 W2       5713     TIP3     H2       HT       0.417000       1.00800           0
     17140 W2       5714     TIP3     OH2      OT      -0.834000       15.9994           0
     17141 W2       5714     TIP3     H1       HT       0.417000       1.00800           0
     17142 W2       5714     TIP3     H2       HT       0.417000       1.00800           0
     17143 W2       5715     TIP3     OH2      OT      -0.834000       15.9994           0
     17144 W2       5715     TIP3     H1       HT       0.417000       1.00800           0
     17145 W2       5715     TIP3     H2       HT       0.417000       1.00800           0
     17146 W2       5716     TIP3     OH2      OT      -0.834000       15.9994           0
     17147 W2       5716     TIP3     H1       HT       0.417000       1.00800           0
     17148 W2       5716     TIP3     H2       HT       0.417000       1.00800           0
     17149 W2       5717     TIP3     OH2      OT      -0.834000       15.9994           0
     17150 W2       5717     TIP3     H1       HT       0.417000       1.00800           0
     17151 W2       5717     TIP3     H2       HT       0.417000       1.00800           0
     17152 W2       5718     TIP3     OH2      OT      -0.834000       15.9994           0
     17153 W2       5718     TIP3     H1       HT       0.417000       1.00800           0
     17154 W2       5718     TIP3     H2       HT       0.417000       1.00800           0
     17155 W2       5719     TIP3     OH2      OT      -0.834000       15.9994           0
     17156 W2       5719     TIP3     H1       HT       0.417000       1.00800           0
     17157 W2       5719     TIP3     H2       HT       0.417000       1.00800           0
     17158 W2       5720     TIP3     OH2      OT      -0.834000       15.9994           0
     17159 W2       5720     TIP3     H1       HT       0.417000       1.00800           0
     17160 W2       5720     TIP3     H2       HT       0.417000       1.00800           0
     17161 W2       5721     TIP3     OH2      OT      -0.834000       15.9994           0
     17162 W2       5721     TIP3     H1       HT       0.417000       1.00800           0
     17163 W2       5721     TIP3     H2       HT       0.417000       1.00800           0
     17164 W2       5722     TIP3     OH2      OT      -0.834000       15.9994           0
     17165 W2       5722     TIP3     H1       HT       0.417000       1.00800           0
     17166 W2       5722     TIP3     H2       HT       0.417000       1.00800           0
     17167 W2       5723     TIP3     OH2      OT      -0.834000       15.9994           0
     17168 W2       5723     TIP3     H1       HT       0.417000       1.00800           0
     17169 W2       5723     TIP3     H2       HT       0.417000       1.00800           0
     17170 W2       5724     TIP3     OH2      OT      -0.834000       15.9994           0
     17171 W2       5724     TIP3     H1       HT       0.417000       1.00800           0
     17172 W2       5724     TIP3     H2       HT       0.417000       1.00800           0
     17173 W2       5725     TIP3     OH2      OT      -0.834000       15.9994           0
     17174 W2       5725     TIP3     H1       HT       0.417000       1.00800           0
     17175 W2       5725     TIP3     H2       HT       0.417000       1.00800           0
     17176 W2       5726     TIP3     OH2      OT      -0.834000       15.9994           0
     17177 W2       5726     TIP3     H1       HT       0.417000       1.00800           0
     17178 W2       5726     TIP3     H2       HT       0.417000       1.00800           0
     17179 W2       5727     TIP3     OH2      OT      -0.834000       15.9994           0
     17180 W2       5727     TIP3     H1       HT       0.417000       1.00800           0
     17181 W2       5727     TIP3     H2       HT       0.417000       1.00800           0
     17182 W2       5728     TIP3     OH2      OT      -0.834000       15.9994           0
     17183 W2       5728     TIP3     H1       HT       0.417000       1.00800           0
     17184 W2       5728     TIP3     H2       HT       0.417000       1.00800           0
     17185 W2       5729     TIP3     OH2      OT      -0.834000       15.9994           0
     17186 W2       5729     TIP3     H1       HT       0.417000       1.00800           0
     17187 W2       5729     TIP3     H2       HT       0.417000       1.00800           0
     17188 W2       5730     TIP3     OH2      OT      -0.834000       15.9994           0
     17189 W2       5730     TIP3     H1       HT       0.417000       1.00800           0
     17190 W2       5730     TIP3     H2       HT       0.417000       1.00800           0
     17191 W2       5731     TIP3     OH2      OT      -0.834000       15.9994           0
     17192 W2       5731     TIP3     H1       HT       0.417000       1.00800           0
     17193 W2       5731     TIP3     H2       HT       0.417000       1.00800           0
     17194 W2       5732     TIP3     OH2      OT      -0.834000       15.9994           0
     17195 W2       5732     TIP3     H1       HT       0.417000       1.00800           0
     17196 W2       5732     TIP3     H2       HT       0.417000       1.00800           0
     17197 W2       5733     TIP3     OH2      OT      -0.834000       15.9994           0
     17198 W2       5733     TIP3     H1       HT       0.417000       1.00800           0
     17199 W2       5733     TIP3     H2       HT       0.417000       1.00800           0
     17200 W2       5734     TIP3     OH2      OT      -0.834000       15.9994           0
     17201 W2       5734     TIP3     H1       HT       0.417000       1.00800           0
     17202 W2       5734     TIP3     H2       HT       0.417000       1.00800           0
     17203 W2       5735     TIP3     OH2      OT      -0.834000       15.9994           0
     17204 W2       5735     TIP3     H1       HT       0.417000       1.00800           0
     17205 W2       5735     TIP3     H2       HT       0.417000       1.00800           0
     17206 W2       5736     TIP3     OH2      OT      -0.834000       15.9994           0
     17207 W2       5736     TIP3     H1       HT       0.417000       1.00800           0
     17208 W2       5736     TIP3     H2       HT       0.417000       1.00800           0
     17209 W2       5737     TIP3     OH2      OT      -0.834000       15.9994           0
     17210 W2       5737     TIP3     H1       HT       0.417000       1.00800           0
     17211 W2       5737     TIP3     H2       HT       0.417000       1.00800           0
     17212 W2       5738     TIP3     OH2      OT      -0.834000       15.9994           0
     17213 W2       5738     TIP3     H1       HT       0.417000       1.00800           0
     17214 W2       5738     TIP3     H2       HT       0.417000       1.00800           0
     17215 W2       5739     TIP3     OH2      OT      -0.834000       15.9994           0
     17216 W2       5739     TIP3     H1       HT       0.417000       1.00800           0
     17217 W2       5739     TIP3     H2       HT       0.417000       1.00800           0
     17218 W2       5740     TIP3     OH2      OT      -0.834000       15.9994           0
     17219 W2       5740     TIP3     H1       HT       0.417000       1.00800           0
     17220 W2       5740     TIP3     H2       HT       0.417000       1.00800           0
     17221 W2       5741     TIP3     OH2      OT      -0.834000       15.9994           0
     17222 W2       5741     TIP3     H1       HT       0.417000       1.00800           0
     17223 W2       5741     TIP3     H2       HT       0.417000       1.00800           0
     17224 W2       5742     TIP3     OH2      OT      -0.834000       15.9994           0
     17225 W2       5742     TIP3     H1       HT       0.417000       1.00800           0
     17226 W2       5742     TIP3     H2       HT       0.417000       1.00800           0
     17227 W2       5743     TIP3     OH2      OT      -0.834000       15.9994           0
     17228 W2       5743     TIP3     H1       HT       0.417000       1.00800           0
     17229 W2       5743     TIP3     H2       HT       0.417000       1.00800           0
     17230 W2       5744     TIP3     OH2      OT      -0.834000       15.9994           0
     17231 W2       5744     TIP3     H1       HT       0.417000       1.00800           0
     17232 W2       5744     TIP3     H2       HT       0.417000       1.00800           0
     17233 W2       5745     TIP3     OH2      OT      -0.834000       15.9994           0
     17234 W2       5745     TIP3     H1       HT       0.417000       1.00800           0
     17235 W2       5745     TIP3     H2       HT       0.417000       1.00800           0
     17236 W2       5746     TIP3     OH2      OT      -0.834000       15.9994           0
     17237 W2       5746     TIP3     H1       HT       0.417000       1.00800           0
     17238 W2       5746     TIP3     H2       HT       0.417000       1.00800           0
     17239 W2       5747     TIP3     OH2      OT      -0.834000       15.9994           0
     17240 W2       5747     TIP3     H1       HT       0.417000       1.00800           0
     17241 W2       5747     TIP3     H2       HT       0.417000       1.00800           0
     17242 W2       5748     TIP3     OH2      OT      -0.834000       15.9994           0
     17243 W2       5748     TIP3     H1       HT       0.417000       1.00800           0
     17244 W2       5748     TIP3     H2       HT       0.417000       1.00800           0
     17245 W2       5749     TIP3     OH2      OT      -0.834000       15.9994           0
     17246 W2       5749     TIP3     H1       HT       0.417000       1.00800           0
     17247 W2       5749     TIP3     H2       HT       0.417000       1.00800           0
     17248 W2       5750     TIP3     OH2      OT      -0.834000       15.9994           0
     17249 W2       5750     TIP3     H1       HT       0.417000       1.00800           0
     17250 W2       5750     TIP3     H2       HT       0.417000       1.00800           0
     17251 W2       5751     TIP3     OH2      OT      -0.834000       15.9994           0
     17252 W2       5751     TIP3     H1       HT       0.417000       1.00800           0
     17253 W2       5751     TIP3     H2       HT       0.417000       1.00800           0
     17254 W2       5752     TIP3     OH2      OT      -0.834000       15.9994           0
     17255 W2       5752     TIP3     H1       HT       0.417000       1.00800           0
     17256 W2       5752     TIP3     H2       HT       0.417000       1.00800           0
     17257 W2       5753     TIP3     OH2      OT      -0.834000       15.9994           0
     17258 W2       5753     TIP3     H1       HT       0.417000       1.00800           0
     17259 W2       5753     TIP3     H2       HT       0.417000       1.00800           0
     17260 W2       5754     TIP3     OH2      OT      -0.834000       15.9994           0
     17261 W2       5754     TIP3     H1       HT       0.417000       1.00800           0
     17262 W2       5754     TIP3     H2       HT       0.417000       1.00800           0
     17263 W2       5755     TIP3     OH2      OT      -0.834000       15.9994           0
     17264 W2       5755     TIP3     H1       HT       0.417000       1.00800           0
     17265 W2       5755     TIP3     H2       HT       0.417000       1.00800           0
     17266 W2       5756     TIP3     OH2      OT      -0.834000       15.9994           0
     17267 W2       5756     TIP3     H1       HT       0.417000       1.00800           0
     17268 W2       5756     TIP3     H2       HT       0.417000       1.00800           0
     17269 W2       5757     TIP3     OH2      OT      -0.834000       15.9994           0
     17270 W2       5757     TIP3     H1       HT       0.417000       1.00800           0
     17271 W2       5757     TIP3     H2       HT       0.417000       1.00800           0
     17272 W2       5758     TIP3     OH2      OT      -0.834000       15.9994           0
     17273 W2       5758     TIP3     H1       HT       0.417000       1.00800           0
     17274 W2       5758     TIP3     H2       HT       0.417000       1.00800           0
     17275 W2       5759     TIP3     OH2      OT      -0.834000       15.9994           0
     17276 W2       5759     TIP3     H1       HT       0.417000       1.00800           0
     17277 W2       5759     TIP3     H2       HT       0.417000       1.00800           0
     17278 W2       5760     TIP3     OH2      OT      -0.834000       15.9994           0
     17279 W2       5760     TIP3     H1       HT       0.417000       1.00800           0
     17280 W2       5760     TIP3     H2       HT       0.417000       1.00800           0
     17281 W2       5761     TIP3     OH2      OT      -0.834000       15.9994           0
     17282 W2       5761     TIP3     H1       HT       0.417000       1.00800           0
     17283 W2       5761     TIP3     H2       HT       0.417000       1.00800           0
     17284 W2       5762     TIP3     OH2      OT      -0.834000       15.9994           0
     17285 W2       5762     TIP3     H1       HT       0.417000       1.00800           0
     17286 W2       5762     TIP3     H2       HT       0.417000       1.00800           0
     17287 W2       5763     TIP3     OH2      OT      -0.834000       15.9994           0
     17288 W2       5763     TIP3     H1       HT       0.417000       1.00800           0
     17289 W2       5763     TIP3     H2       HT       0.417000       1.00800           0
     17290 W2       5764     TIP3     OH2      OT      -0.834000       15.9994           0
     17291 W2       5764     TIP3     H1       HT       0.417000       1.00800           0
     17292 W2       5764     TIP3     H2       HT       0.417000       1.00800           0
     17293 W2       5765     TIP3     OH2      OT      -0.834000       15.9994           0
     17294 W2       5765     TIP3     H1       HT       0.417000       1.00800           0
     17295 W2       5765     TIP3     H2       HT       0.417000       1.00800           0
     17296 W2       5766     TIP3     OH2      OT      -0.834000       15.9994           0
     17297 W2       5766     TIP3     H1       HT       0.417000       1.00800           0
     17298 W2       5766     TIP3     H2       HT       0.417000       1.00800           0
     17299 W2       5767     TIP3     OH2      OT      -0.834000       15.9994           0
     17300 W2       5767     TIP3     H1       HT       0.417000       1.00800           0
     17301 W2       5767     TIP3     H2       HT       0.417000       1.00800           0
     17302 W2       5768     TIP3     OH2      OT      -0.834000       15.9994           0
     17303 W2       5768     TIP3     H1       HT       0.417000       1.00800           0
     17304 W2       5768     TIP3     H2       HT       0.417000       1.00800           0
     17305 W2       5769     TIP3     OH2      OT      -0.834000       15.9994           0
     17306 W2       5769     TIP3     H1       HT       0.417000       1.00800           0
     17307 W2       5769     TIP3     H2       HT       0.417000       1.00800           0
     17308 W2       5770     TIP3     OH2      OT      -0.834000       15.9994           0
     17309 W2       5770     TIP3     H1       HT       0.417000       1.00800           0
     17310 W2       5770     TIP3     H2       HT       0.417000       1.00800           0
     17311 W2       5771     TIP3     OH2      OT      -0.834000       15.9994           0
     17312 W2       5771     TIP3     H1       HT       0.417000       1.00800           0
     17313 W2       5771     TIP3     H2       HT       0.417000       1.00800           0
     17314 W2       5772     TIP3     OH2      OT      -0.834000       15.9994           0
     17315 W2       5772     TIP3     H1       HT       0.417000       1.00800           0
     17316 W2       5772     TIP3     H2       HT       0.417000       1.00800           0
     17317 W2       5773     TIP3     OH2      OT      -0.834000       15.9994           0
     17318 W2       5773     TIP3     H1       HT       0.417000       1.00800           0
     17319 W2       5773     TIP3     H2       HT       0.417000       1.00800           0
     17320 W2       5774     TIP3     OH2      OT      -0.834000       15.9994           0
     17321 W2       5774     TIP3     H1       HT       0.417000       1.00800           0
     17322 W2       5774     TIP3     H2       HT       0.417000       1.00800           0
     17323 W2       5775     TIP3     OH2      OT      -0.834000       15.9994           0
     17324 W2       5775     TIP3     H1       HT       0.417000       1.00800           0
     17325 W2       5775     TIP3     H2       HT       0.417000       1.00800           0
     17326 W2       5776     TIP3     OH2      OT      -0.834000       15.9994           0
     17327 W2       5776     TIP3     H1       HT       0.417000       1.00800           0
     17328 W2       5776     TIP3     H2       HT       0.417000       1.00800           0
     17329 W2       5777     TIP3     OH2      OT      -0.834000       15.9994           0
     17330 W2       5777     TIP3     H1       HT       0.417000       1.00800           0
     17331 W2       5777     TIP3     H2       HT       0.417000       1.00800           0
     17332 W2       5778     TIP3     OH2      OT      -0.834000       15.9994           0
     17333 W2       5778     TIP3     H1       HT       0.417000       1.00800           0
     17334 W2       5778     TIP3     H2       HT       0.417000       1.00800           0
     17335 W2       5779     TIP3     OH2      OT      -0.834000       15.9994           0
     17336 W2       5779     TIP3     H1       HT       0.417000       1.00800           0
     17337 W2       5779     TIP3     H2       HT       0.417000       1.00800           0
     17338 W2       5780     TIP3     OH2      OT      -0.834000       15.9994           0
     17339 W2       5780     TIP3     H1       HT       0.417000       1.00800           0
     17340 W2       5780     TIP3     H2       HT       0.417000       1.00800           0
     17341 W2       5781     TIP3     OH2      OT      -0.834000       15.9994           0
     17342 W2       5781     TIP3     H1       HT       0.417000       1.00800           0
     17343 W2       5781     TIP3     H2       HT       0.417000       1.00800           0
     17344 W2       5782     TIP3     OH2      OT      -0.834000       15.9994           0
     17345 W2       5782     TIP3     H1       HT       0.417000       1.00800           0
     17346 W2       5782     TIP3     H2       HT       0.417000       1.00800           0
     17347 W2       5783     TIP3     OH2      OT      -0.834000       15.9994           0
     17348 W2       5783     TIP3     H1       HT       0.417000       1.00800           0
     17349 W2       5783     TIP3     H2       HT       0.417000       1.00800           0
     17350 W2       5784     TIP3     OH2      OT      -0.834000       15.9994           0
     17351 W2       5784     TIP3     H1       HT       0.417000       1.00800           0
     17352 W2       5784     TIP3     H2       HT       0.417000       1.00800           0
     17353 W2       5785     TIP3     OH2      OT      -0.834000       15.9994           0
     17354 W2       5785     TIP3     H1       HT       0.417000       1.00800           0
     17355 W2       5785     TIP3     H2       HT       0.417000       1.00800           0
     17356 W2       5786     TIP3     OH2      OT      -0.834000       15.9994           0
     17357 W2       5786     TIP3     H1       HT       0.417000       1.00800           0
     17358 W2       5786     TIP3     H2       HT       0.417000       1.00800           0
     17359 W2       5787     TIP3     OH2      OT      -0.834000       15.9994           0
     17360 W2       5787     TIP3     H1       HT       0.417000       1.00800           0
     17361 W2       5787     TIP3     H2       HT       0.417000       1.00800           0
     17362 W2       5788     TIP3     OH2      OT      -0.834000       15.9994           0
     17363 W2       5788     TIP3     H1       HT       0.417000       1.00800           0
     17364 W2       5788     TIP3     H2       HT       0.417000       1.00800           0
     17365 W2       5789     TIP3     OH2      OT      -0.834000       15.9994           0
     17366 W2       5789     TIP3     H1       HT       0.417000       1.00800           0
     17367 W2       5789     TIP3     H2       HT       0.417000       1.00800           0
     17368 W2       5790     TIP3     OH2      OT      -0.834000       15.9994           0
     17369 W2       5790     TIP3     H1       HT       0.417000       1.00800           0
     17370 W2       5790     TIP3     H2       HT       0.417000       1.00800           0
     17371 W2       5791     TIP3     OH2      OT      -0.834000       15.9994           0
     17372 W2       5791     TIP3     H1       HT       0.417000       1.00800           0
     17373 W2       5791     TIP3     H2       HT       0.417000       1.00800           0
     17374 W2       5792     TIP3     OH2      OT      -0.834000       15.9994           0
     17375 W2       5792     TIP3     H1       HT       0.417000       1.00800           0
     17376 W2       5792     TIP3     H2       HT       0.417000       1.00800           0
     17377 W2       5793     TIP3     OH2      OT      -0.834000       15.9994           0
     17378 W2       5793     TIP3     H1       HT       0.417000       1.00800           0
     17379 W2       5793     TIP3     H2       HT       0.417000       1.00800           0
     17380 W2       5794     TIP3     OH2      OT      -0.834000       15.9994           0
     17381 W2       5794     TIP3     H1       HT       0.417000       1.00800           0
     17382 W2       5794     TIP3     H2       HT       0.417000       1.00800           0
     17383 W2       5795     TIP3     OH2      OT      -0.834000       15.9994           0
     17384 W2       5795     TIP3     H1       HT       0.417000       1.00800           0
     17385 W2       5795     TIP3     H2       HT       0.417000       1.00800           0
     17386 W2       5796     TIP3     OH2      OT      -0.834000       15.9994           0
     17387 W2       5796     TIP3     H1       HT       0.417000       1.00800           0
     17388 W2       5796     TIP3     H2       HT       0.417000       1.00800           0
     17389 W2       5797     TIP3     OH2      OT      -0.834000       15.9994           0
     17390 W2       5797     TIP3     H1       HT       0.417000       1.00800           0
     17391 W2       5797     TIP3     H2       HT       0.417000       1.00800           0
     17392 W2       5798     TIP3     OH2      OT      -0.834000       15.9994           0
     17393 W2       5798     TIP3     H1       HT       0.417000       1.00800           0
     17394 W2       5798     TIP3     H2       HT       0.417000       1.00800           0
     17395 W2       5799     TIP3     OH2      OT      -0.834000       15.9994           0
     17396 W2       5799     TIP3     H1       HT       0.417000       1.00800           0
     17397 W2       5799     TIP3     H2       HT       0.417000       1.00800           0
     17398 W2       5800     TIP3     OH2      OT      -0.834000       15.9994           0
     17399 W2       5800     TIP3     H1       HT       0.417000       1.00800           0
     17400 W2       5800     TIP3     H2       HT       0.417000       1.00800           0
     17401 W2       5801     TIP3     OH2      OT      -0.834000       15.9994           0
     17402 W2       5801     TIP3     H1       HT       0.417000       1.00800           0
     17403 W2       5801     TIP3     H2       HT       0.417000       1.00800           0
     17404 W2       5802     TIP3     OH2      OT      -0.834000       15.9994           0
     17405 W2       5802     TIP3     H1       HT       0.417000       1.00800           0
     17406 W2       5802     TIP3     H2       HT       0.417000       1.00800           0
     17407 W2       5803     TIP3     OH2      OT      -0.834000       15.9994           0
     17408 W2       5803     TIP3     H1       HT       0.417000       1.00800           0
     17409 W2       5803     TIP3     H2       HT       0.417000       1.00800           0
     17410 W2       5804     TIP3     OH2      OT      -0.834000       15.9994           0
     17411 W2       5804     TIP3     H1       HT       0.417000       1.00800           0
     17412 W2       5804     TIP3     H2       HT       0.417000       1.00800           0
     17413 W2       5805     TIP3     OH2      OT      -0.834000       15.9994           0
     17414 W2       5805     TIP3     H1       HT       0.417000       1.00800           0
     17415 W2       5805     TIP3     H2       HT       0.417000       1.00800           0
     17416 W2       5806     TIP3     OH2      OT      -0.834000       15.9994           0
     17417 W2       5806     TIP3     H1       HT       0.417000       1.00800           0
     17418 W2       5806     TIP3     H2       HT       0.417000       1.00800           0
     17419 W2       5807     TIP3     OH2      OT      -0.834000       15.9994           0
     17420 W2       5807     TIP3     H1       HT       0.417000       1.00800           0
     17421 W2       5807     TIP3     H2       HT       0.417000       1.00800           0
     17422 W2       5808     TIP3     OH2      OT      -0.834000       15.9994           0
     17423 W2       5808     TIP3     H1       HT       0.417000       1.00800           0
     17424 W2       5808     TIP3     H2       HT       0.417000       1.00800           0
     17425 W2       5809     TIP3     OH2      OT      -0.834000       15.9994           0
     17426 W2       5809     TIP3     H1       HT       0.417000       1.00800           0
     17427 W2       5809     TIP3     H2       HT       0.417000       1.00800           0
     17428 W2       5810     TIP3     OH2      OT      -0.834000       15.9994           0
     17429 W2       5810     TIP3     H1       HT       0.417000       1.00800           0
     17430 W2       5810     TIP3     H2       HT       0.417000       1.00800           0
     17431 W2       5811     TIP3     OH2      OT      -0.834000       15.9994           0
     17432 W2       5811     TIP3     H1       HT       0.417000       1.00800           0
     17433 W2       5811     TIP3     H2       HT       0.417000       1.00800           0
     17434 W2       5812     TIP3     OH2      OT      -0.834000       15.9994           0
     17435 W2       5812     TIP3     H1       HT       0.417000       1.00800           0
     17436 W2       5812     TIP3     H2       HT       0.417000       1.00800           0
     17437 W2       5813     TIP3     OH2      OT      -0.834000       15.9994           0
     17438 W2       5813     TIP3     H1       HT       0.417000       1.00800           0
     17439 W2       5813     TIP3     H2       HT       0.417000       1.00800           0
     17440 W2       5814     TIP3     OH2      OT      -0.834000       15.9994           0
     17441 W2       5814     TIP3     H1       HT       0.417000       1.00800           0
     17442 W2       5814     TIP3     H2       HT       0.417000       1.00800           0
     17443 W2       5815     TIP3     OH2      OT      -0.834000       15.9994           0
     17444 W2       5815     TIP3     H1       HT       0.417000       1.00800           0
     17445 W2       5815     TIP3     H2       HT       0.417000       1.00800           0
     17446 W2       5816     TIP3     OH2      OT      -0.834000       15.9994           0
     17447 W2       5816     TIP3     H1       HT       0.417000       1.00800           0
     17448 W2       5816     TIP3     H2       HT       0.417000       1.00800           0
     17449 W2       5817     TIP3     OH2      OT      -0.834000       15.9994           0
     17450 W2       5817     TIP3     H1       HT       0.417000       1.00800           0
     17451 W2       5817     TIP3     H2       HT       0.417000       1.00800           0
     17452 W2       5818     TIP3     OH2      OT      -0.834000       15.9994           0
     17453 W2       5818     TIP3     H1       HT       0.417000       1.00800           0
     17454 W2       5818     TIP3     H2       HT       0.417000       1.00800           0
     17455 W2       5819     TIP3     OH2      OT      -0.834000       15.9994           0
     17456 W2       5819     TIP3     H1       HT       0.417000       1.00800           0
     17457 W2       5819     TIP3     H2       HT       0.417000       1.00800           0
     17458 W2       5820     TIP3     OH2      OT      -0.834000       15.9994           0
     17459 W2       5820     TIP3     H1       HT       0.417000       1.00800           0
     17460 W2       5820     TIP3     H2       HT       0.417000       1.00800           0
     17461 W2       5821     TIP3     OH2      OT      -0.834000       15.9994           0
     17462 W2       5821     TIP3     H1       HT       0.417000       1.00800           0
     17463 W2       5821     TIP3     H2       HT       0.417000       1.00800           0
     17464 W2       5822     TIP3     OH2      OT      -0.834000       15.9994           0
     17465 W2       5822     TIP3     H1       HT       0.417000       1.00800           0
     17466 W2       5822     TIP3     H2       HT       0.417000       1.00800           0
     17467 W2       5823     TIP3     OH2      OT      -0.834000       15.9994           0
     17468 W2       5823     TIP3     H1       HT       0.417000       1.00800           0
     17469 W2       5823     TIP3     H2       HT       0.417000       1.00800           0
     17470 W2       5824     TIP3     OH2      OT      -0.834000       15.9994           0
     17471 W2       5824     TIP3     H1       HT       0.417000       1.00800           0
     17472 W2       5824     TIP3     H2       HT       0.417000       1.00800           0
     17473 W2       5825     TIP3     OH2      OT      -0.834000       15.9994           0
     17474 W2       5825     TIP3     H1       HT       0.417000       1.00800           0
     17475 W2       5825     TIP3     H2       HT       0.417000       1.00800           0
     17476 W2       5826     TIP3     OH2      OT      -0.834000       15.9994           0
     17477 W2       5826     TIP3     H1       HT       0.417000       1.00800           0
     17478 W2       5826     TIP3     H2       HT       0.417000       1.00800           0
     17479 W2       5827     TIP3     OH2      OT      -0.834000       15.9994           0
     17480 W2       5827     TIP3     H1       HT       0.417000       1.00800           0
     17481 W2       5827     TIP3     H2       HT       0.417000       1.00800           0
     17482 W2       5828     TIP3     OH2      OT      -0.834000       15.9994           0
     17483 W2       5828     TIP3     H1       HT       0.417000       1.00800           0
     17484 W2       5828     TIP3     H2       HT       0.417000       1.00800           0
     17485 W2       5829     TIP3     OH2      OT      -0.834000       15.9994           0
     17486 W2       5829     TIP3     H1       HT       0.417000       1.00800           0
     17487 W2       5829     TIP3     H2       HT       0.417000       1.00800           0
     17488 W2       5830     TIP3     OH2      OT      -0.834000       15.9994           0
     17489 W2       5830     TIP3     H1       HT       0.417000       1.00800           0
     17490 W2       5830     TIP3     H2       HT       0.417000       1.00800           0
     17491 W2       5831     TIP3     OH2      OT      -0.834000       15.9994           0
     17492 W2       5831     TIP3     H1       HT       0.417000       1.00800           0
     17493 W2       5831     TIP3     H2       HT       0.417000       1.00800           0
     17494 W2       5832     TIP3     OH2      OT      -0.834000       15.9994           0
     17495 W2       5832     TIP3     H1       HT       0.417000       1.00800           0
     17496 W2       5832     TIP3     H2       HT       0.417000       1.00800           0
     17497 W2       5833     TIP3     OH2      OT      -0.834000       15.9994           0
     17498 W2       5833     TIP3     H1       HT       0.417000       1.00800           0
     17499 W2       5833     TIP3     H2       HT       0.417000       1.00800           0
     17500 W2       5834     TIP3     OH2      OT      -0.834000       15.9994           0
     17501 W2       5834     TIP3     H1       HT       0.417000       1.00800           0
     17502 W2       5834     TIP3     H2       HT       0.417000       1.00800           0
     17503 W2       5835     TIP3     OH2      OT      -0.834000       15.9994           0
     17504 W2       5835     TIP3     H1       HT       0.417000       1.00800           0
     17505 W2       5835     TIP3     H2       HT       0.417000       1.00800           0
     17506 W2       5836     TIP3     OH2      OT      -0.834000       15.9994           0
     17507 W2       5836     TIP3     H1       HT       0.417000       1.00800           0
     17508 W2       5836     TIP3     H2       HT       0.417000       1.00800           0
     17509 W2       5837     TIP3     OH2      OT      -0.834000       15.9994           0
     17510 W2       5837     TIP3     H1       HT       0.417000       1.00800           0
     17511 W2       5837     TIP3     H2       HT       0.417000       1.00800           0
     17512 W2       5838     TIP3     OH2      OT      -0.834000       15.9994           0
     17513 W2       5838     TIP3     H1       HT       0.417000       1.00800           0
     17514 W2       5838     TIP3     H2       HT       0.417000       1.00800           0
     17515 W2       5839     TIP3     OH2      OT      -0.834000       15.9994           0
     17516 W2       5839     TIP3     H1       HT       0.417000       1.00800           0
     17517 W2       5839     TIP3     H2       HT       0.417000       1.00800           0
     17518 W2       5840     TIP3     OH2      OT      -0.834000       15.9994           0
     17519 W2       5840     TIP3     H1       HT       0.417000       1.00800           0
     17520 W2       5840     TIP3     H2       HT       0.417000       1.00800           0
     17521 W2       5841     TIP3     OH2      OT      -0.834000       15.9994           0
     17522 W2       5841     TIP3     H1       HT       0.417000       1.00800           0
     17523 W2       5841     TIP3     H2       HT       0.417000       1.00800           0
     17524 W2       5842     TIP3     OH2      OT      -0.834000       15.9994           0
     17525 W2       5842     TIP3     H1       HT       0.417000       1.00800           0
     17526 W2       5842     TIP3     H2       HT       0.417000       1.00800           0
     17527 W2       5843     TIP3     OH2      OT      -0.834000       15.9994           0
     17528 W2       5843     TIP3     H1       HT       0.417000       1.00800           0
     17529 W2       5843     TIP3     H2       HT       0.417000       1.00800           0
     17530 W2       5844     TIP3     OH2      OT      -0.834000       15.9994           0
     17531 W2       5844     TIP3     H1       HT       0.417000       1.00800           0
     17532 W2       5844     TIP3     H2       HT       0.417000       1.00800           0
     17533 W2       5845     TIP3     OH2      OT      -0.834000       15.9994           0
     17534 W2       5845     TIP3     H1       HT       0.417000       1.00800           0
     17535 W2       5845     TIP3     H2       HT       0.417000       1.00800           0
     17536 W2       5846     TIP3     OH2      OT      -0.834000       15.9994           0
     17537 W2       5846     TIP3     H1       HT       0.417000       1.00800           0
     17538 W2       5846     TIP3     H2       HT       0.417000       1.00800           0
     17539 W2       5847     TIP3     OH2      OT      -0.834000       15.9994           0
     17540 W2       5847     TIP3     H1       HT       0.417000       1.00800           0
     17541 W2       5847     TIP3     H2       HT       0.417000       1.00800           0
     17542 W2       5848     TIP3     OH2      OT      -0.834000       15.9994           0
     17543 W2       5848     TIP3     H1       HT       0.417000       1.00800           0
     17544 W2       5848     TIP3     H2       HT       0.417000       1.00800           0
     17545 W2       5849     TIP3     OH2      OT      -0.834000       15.9994           0
     17546 W2       5849     TIP3     H1       HT       0.417000       1.00800           0
     17547 W2       5849     TIP3     H2       HT       0.417000       1.00800           0
     17548 W2       5850     TIP3     OH2      OT      -0.834000       15.9994           0
     17549 W2       5850     TIP3     H1       HT       0.417000       1.00800           0
     17550 W2       5850     TIP3     H2       HT       0.417000       1.00800           0
     17551 W2       5851     TIP3     OH2      OT      -0.834000       15.9994           0
     17552 W2       5851     TIP3     H1       HT       0.417000       1.00800           0
     17553 W2       5851     TIP3     H2       HT       0.417000       1.00800           0
     17554 W2       5852     TIP3     OH2      OT      -0.834000       15.9994           0
     17555 W2       5852     TIP3     H1       HT       0.417000       1.00800           0
     17556 W2       5852     TIP3     H2       HT       0.417000       1.00800           0
     17557 W2       5853     TIP3     OH2      OT      -0.834000       15.9994           0
     17558 W2       5853     TIP3     H1       HT       0.417000       1.00800           0
     17559 W2       5853     TIP3     H2       HT       0.417000       1.00800           0
     17560 W2       5854     TIP3     OH2      OT      -0.834000       15.9994           0
     17561 W2       5854     TIP3     H1       HT       0.417000       1.00800           0
     17562 W2       5854     TIP3     H2       HT       0.417000       1.00800           0
     17563 W2       5855     TIP3     OH2      OT      -0.834000       15.9994           0
     17564 W2       5855     TIP3     H1       HT       0.417000       1.00800           0
     17565 W2       5855     TIP3     H2       HT       0.417000       1.00800           0
     17566 W2       5856     TIP3     OH2      OT      -0.834000       15.9994           0
     17567 W2       5856     TIP3     H1       HT       0.417000       1.00800           0
     17568 W2       5856     TIP3     H2       HT       0.417000       1.00800           0
     17569 W2       5857     TIP3     OH2      OT      -0.834000       15.9994           0
     17570 W2       5857     TIP3     H1       HT       0.417000       1.00800           0
     17571 W2       5857     TIP3     H2       HT       0.417000       1.00800           0
     17572 W2       5858     TIP3     OH2      OT      -0.834000       15.9994           0
     17573 W2       5858     TIP3     H1       HT       0.417000       1.00800           0
     17574 W2       5858     TIP3     H2       HT       0.417000       1.00800           0
     17575 W2       5859     TIP3     OH2      OT      -0.834000       15.9994           0
     17576 W2       5859     TIP3     H1       HT       0.417000       1.00800           0
     17577 W2       5859     TIP3     H2       HT       0.417000       1.00800           0
     17578 W2       5860     TIP3     OH2      OT      -0.834000       15.9994           0
     17579 W2       5860     TIP3     H1       HT       0.417000       1.00800           0
     17580 W2       5860     TIP3     H2       HT       0.417000       1.00800           0
     17581 W2       5861     TIP3     OH2      OT      -0.834000       15.9994           0
     17582 W2       5861     TIP3     H1       HT       0.417000       1.00800           0
     17583 W2       5861     TIP3     H2       HT       0.417000       1.00800           0
     17584 W2       5862     TIP3     OH2      OT      -0.834000       15.9994           0
     17585 W2       5862     TIP3     H1       HT       0.417000       1.00800           0
     17586 W2       5862     TIP3     H2       HT       0.417000       1.00800           0
     17587 W2       5863     TIP3     OH2      OT      -0.834000       15.9994           0
     17588 W2       5863     TIP3     H1       HT       0.417000       1.00800           0
     17589 W2       5863     TIP3     H2       HT       0.417000       1.00800           0
     17590 W2       5864     TIP3     OH2      OT      -0.834000       15.9994           0
     17591 W2       5864     TIP3     H1       HT       0.417000       1.00800           0
     17592 W2       5864     TIP3     H2       HT       0.417000       1.00800           0
     17593 W2       5865     TIP3     OH2      OT      -0.834000       15.9994           0
     17594 W2       5865     TIP3     H1       HT       0.417000       1.00800           0
     17595 W2       5865     TIP3     H2       HT       0.417000       1.00800           0
     17596 W2       5866     TIP3     OH2      OT      -0.834000       15.9994           0
     17597 W2       5866     TIP3     H1       HT       0.417000       1.00800           0
     17598 W2       5866     TIP3     H2       HT       0.417000       1.00800           0
     17599 W2       5867     TIP3     OH2      OT      -0.834000       15.9994           0
     17600 W2       5867     TIP3     H1       HT       0.417000       1.00800           0
     17601 W2       5867     TIP3     H2       HT       0.417000       1.00800           0
     17602 W2       5868     TIP3     OH2      OT      -0.834000       15.9994           0
     17603 W2       5868     TIP3     H1       HT       0.417000       1.00800           0
     17604 W2       5868     TIP3     H2       HT       0.417000       1.00800           0
     17605 W2       5869     TIP3     OH2      OT      -0.834000       15.9994           0
     17606 W2       5869     TIP3     H1       HT       0.417000       1.00800           0
     17607 W2       5869     TIP3     H2       HT       0.417000       1.00800           0
     17608 W2       5870     TIP3     OH2      OT      -0.834000       15.9994           0
     17609 W2       5870     TIP3     H1       HT       0.417000       1.00800           0
     17610 W2       5870     TIP3     H2       HT       0.417000       1.00800           0
     17611 W2       5871     TIP3     OH2      OT      -0.834000       15.9994           0
     17612 W2       5871     TIP3     H1       HT       0.417000       1.00800           0
     17613 W2       5871     TIP3     H2       HT       0.417000       1.00800           0
     17614 W2       5872     TIP3     OH2      OT      -0.834000       15.9994           0
     17615 W2       5872     TIP3     H1       HT       0.417000       1.00800           0
     17616 W2       5872     TIP3     H2       HT       0.417000       1.00800           0
     17617 W2       5873     TIP3     OH2      OT      -0.834000       15.9994           0
     17618 W2       5873     TIP3     H1       HT       0.417000       1.00800           0
     17619 W2       5873     TIP3     H2       HT       0.417000       1.00800           0
     17620 W2       5874     TIP3     OH2      OT      -0.834000       15.9994           0
     17621 W2       5874     TIP3     H1       HT       0.417000       1.00800           0
     17622 W2       5874     TIP3     H2       HT       0.417000       1.00800           0
     17623 W2       5875     TIP3     OH2      OT      -0.834000       15.9994           0
     17624 W2       5875     TIP3     H1       HT       0.417000       1.00800           0
     17625 W2       5875     TIP3     H2       HT       0.417000       1.00800           0
     17626 W2       5876     TIP3     OH2      OT      -0.834000       15.9994           0
     17627 W2       5876     TIP3     H1       HT       0.417000       1.00800           0
     17628 W2       5876     TIP3     H2       HT       0.417000       1.00800           0
     17629 W2       5877     TIP3     OH2      OT      -0.834000       15.9994           0
     17630 W2       5877     TIP3     H1       HT       0.417000       1.00800           0
     17631 W2       5877     TIP3     H2       HT       0.417000       1.00800           0
     17632 W2       5878     TIP3     OH2      OT      -0.834000       15.9994           0
     17633 W2       5878     TIP3     H1       HT       0.417000       1.00800           0
     17634 W2       5878     TIP3     H2       HT       0.417000       1.00800           0
     17635 W2       5879     TIP3     OH2      OT      -0.834000       15.9994           0
     17636 W2       5879     TIP3     H1       HT       0.417000       1.00800           0
     17637 W2       5879     TIP3     H2       HT       0.417000       1.00800           0
     17638 W2       5880     TIP3     OH2      OT      -0.834000       15.9994           0
     17639 W2       5880     TIP3     H1       HT       0.417000       1.00800           0
     17640 W2       5880     TIP3     H2       HT       0.417000       1.00800           0
     17641 W2       5881     TIP3     OH2      OT      -0.834000       15.9994           0
     17642 W2       5881     TIP3     H1       HT       0.417000       1.00800           0
     17643 W2       5881     TIP3     H2       HT       0.417000       1.00800           0
     17644 W2       5882     TIP3     OH2      OT      -0.834000       15.9994           0
     17645 W2       5882     TIP3     H1       HT       0.417000       1.00800           0
     17646 W2       5882     TIP3     H2       HT       0.417000       1.00800           0
     17647 W2       5883     TIP3     OH2      OT      -0.834000       15.9994           0
     17648 W2       5883     TIP3     H1       HT       0.417000       1.00800           0
     17649 W2       5883     TIP3     H2       HT       0.417000       1.00800           0
     17650 W2       5884     TIP3     OH2      OT      -0.834000       15.9994           0
     17651 W2       5884     TIP3     H1       HT       0.417000       1.00800           0
     17652 W2       5884     TIP3     H2       HT       0.417000       1.00800           0
     17653 W2       5885     TIP3     OH2      OT      -0.834000       15.9994           0
     17654 W2       5885     TIP3     H1       HT       0.417000       1.00800           0
     17655 W2       5885     TIP3     H2       HT       0.417000       1.00800           0
     17656 W2       5886     TIP3     OH2      OT      -0.834000       15.9994           0
     17657 W2       5886     TIP3     H1       HT       0.417000       1.00800           0
     17658 W2       5886     TIP3     H2       HT       0.417000       1.00800           0
     17659 W2       5887     TIP3     OH2      OT      -0.834000       15.9994           0
     17660 W2       5887     TIP3     H1       HT       0.417000       1.00800           0
     17661 W2       5887     TIP3     H2       HT       0.417000       1.00800           0
     17662 W2       5888     TIP3     OH2      OT      -0.834000       15.9994           0
     17663 W2       5888     TIP3     H1       HT       0.417000       1.00800           0
     17664 W2       5888     TIP3     H2       HT       0.417000       1.00800           0
     17665 W2       5889     TIP3     OH2      OT      -0.834000       15.9994           0
     17666 W2       5889     TIP3     H1       HT       0.417000       1.00800           0
     17667 W2       5889     TIP3     H2       HT       0.417000       1.00800           0
     17668 W2       5890     TIP3     OH2      OT      -0.834000       15.9994           0
     17669 W2       5890     TIP3     H1       HT       0.417000       1.00800           0
     17670 W2       5890     TIP3     H2       HT       0.417000       1.00800           0
     17671 W2       5891     TIP3     OH2      OT      -0.834000       15.9994           0
     17672 W2       5891     TIP3     H1       HT       0.417000       1.00800           0
     17673 W2       5891     TIP3     H2       HT       0.417000       1.00800           0
     17674 W2       5892     TIP3     OH2      OT      -0.834000       15.9994           0
     17675 W2       5892     TIP3     H1       HT       0.417000       1.00800           0
     17676 W2       5892     TIP3     H2       HT       0.417000       1.00800           0
     17677 W2       5893     TIP3     OH2      OT      -0.834000       15.9994           0
     17678 W2       5893     TIP3     H1       HT       0.417000       1.00800           0
     17679 W2       5893     TIP3     H2       HT       0.417000       1.00800           0
     17680 W2       5894     TIP3     OH2      OT      -0.834000       15.9994           0
     17681 W2       5894     TIP3     H1       HT       0.417000       1.00800           0
     17682 W2       5894     TIP3     H2       HT       0.417000       1.00800           0
     17683 W2       5895     TIP3     OH2      OT      -0.834000       15.9994           0
     17684 W2       5895     TIP3     H1       HT       0.417000       1.00800           0
     17685 W2       5895     TIP3     H2       HT       0.417000       1.00800           0
     17686 W2       5896     TIP3     OH2      OT      -0.834000       15.9994           0
     17687 W2       5896     TIP3     H1       HT       0.417000       1.00800           0
     17688 W2       5896     TIP3     H2       HT       0.417000       1.00800           0
     17689 W2       5897     TIP3     OH2      OT      -0.834000       15.9994           0
     17690 W2       5897     TIP3     H1       HT       0.417000       1.00800           0
     17691 W2       5897     TIP3     H2       HT       0.417000       1.00800           0
     17692 W2       5898     TIP3     OH2      OT      -0.834000       15.9994           0
     17693 W2       5898     TIP3     H1       HT       0.417000       1.00800           0
     17694 W2       5898     TIP3     H2       HT       0.417000       1.00800           0
     17695 W2       5899     TIP3     OH2      OT      -0.834000       15.9994           0
     17696 W2       5899     TIP3     H1       HT       0.417000       1.00800           0
     17697 W2       5899     TIP3     H2       HT       0.417000       1.00800           0
     17698 W2       5900     TIP3     OH2      OT      -0.834000       15.9994           0
     17699 W2       5900     TIP3     H1       HT       0.417000       1.00800           0
     17700 W2       5900     TIP3     H2       HT       0.417000       1.00800           0
     17701 W2       5901     TIP3     OH2      OT      -0.834000       15.9994           0
     17702 W2       5901     TIP3     H1       HT       0.417000       1.00800           0
     17703 W2       5901     TIP3     H2       HT       0.417000       1.00800           0
     17704 W2       5902     TIP3     OH2      OT      -0.834000       15.9994           0
     17705 W2       5902     TIP3     H1       HT       0.417000       1.00800           0
     17706 W2       5902     TIP3     H2       HT       0.417000       1.00800           0
     17707 W2       5903     TIP3     OH2      OT      -0.834000       15.9994           0
     17708 W2       5903     TIP3     H1       HT       0.417000       1.00800           0
     17709 W2       5903     TIP3     H2       HT       0.417000       1.00800           0
     17710 W2       5904     TIP3     OH2      OT      -0.834000       15.9994           0
     17711 W2       5904     TIP3     H1       HT       0.417000       1.00800           0
     17712 W2       5904     TIP3     H2       HT       0.417000       1.00800           0
     17713 W2       5905     TIP3     OH2      OT      -0.834000       15.9994           0
     17714 W2       5905     TIP3     H1       HT       0.417000       1.00800           0
     17715 W2       5905     TIP3     H2       HT       0.417000       1.00800           0
     17716 W2       5906     TIP3     OH2      OT      -0.834000       15.9994           0
     17717 W2       5906     TIP3     H1       HT       0.417000       1.00800           0
     17718 W2       5906     TIP3     H2       HT       0.417000       1.00800           0
     17719 W2       5907     TIP3     OH2      OT      -0.834000       15.9994           0
     17720 W2       5907     TIP3     H1       HT       0.417000       1.00800           0
     17721 W2       5907     TIP3     H2       HT       0.417000       1.00800           0
     17722 W2       5908     TIP3     OH2      OT      -0.834000       15.9994           0
     17723 W2       5908     TIP3     H1       HT       0.417000       1.00800           0
     17724 W2       5908     TIP3     H2       HT       0.417000       1.00800           0
     17725 W2       5909     TIP3     OH2      OT      -0.834000       15.9994           0
     17726 W2       5909     TIP3     H1       HT       0.417000       1.00800           0
     17727 W2       5909     TIP3     H2       HT       0.417000       1.00800           0
     17728 W2       5910     TIP3     OH2      OT      -0.834000       15.9994           0
     17729 W2       5910     TIP3     H1       HT       0.417000       1.00800           0
     17730 W2       5910     TIP3     H2       HT       0.417000       1.00800           0
     17731 W2       5911     TIP3     OH2      OT      -0.834000       15.9994           0
     17732 W2       5911     TIP3     H1       HT       0.417000       1.00800           0
     17733 W2       5911     TIP3     H2       HT       0.417000       1.00800           0
     17734 W2       5912     TIP3     OH2      OT      -0.834000       15.9994           0
     17735 W2       5912     TIP3     H1       HT       0.417000       1.00800           0
     17736 W2       5912     TIP3     H2       HT       0.417000       1.00800           0
     17737 W2       5913     TIP3     OH2      OT      -0.834000       15.9994           0
     17738 W2       5913     TIP3     H1       HT       0.417000       1.00800           0
     17739 W2       5913     TIP3     H2       HT       0.417000       1.00800           0
     17740 W2       5914     TIP3     OH2      OT      -0.834000       15.9994           0
     17741 W2       5914     TIP3     H1       HT       0.417000       1.00800           0
     17742 W2       5914     TIP3     H2       HT       0.417000       1.00800           0
     17743 W2       5915     TIP3     OH2      OT      -0.834000       15.9994           0
     17744 W2       5915     TIP3     H1       HT       0.417000       1.00800           0
     17745 W2       5915     TIP3     H2       HT       0.417000       1.00800           0
     17746 W2       5916     TIP3     OH2      OT      -0.834000       15.9994           0
     17747 W2       5916     TIP3     H1       HT       0.417000       1.00800           0
     17748 W2       5916     TIP3     H2       HT       0.417000       1.00800           0
     17749 W2       5917     TIP3     OH2      OT      -0.834000       15.9994           0
     17750 W2       5917     TIP3     H1       HT       0.417000       1.00800           0
     17751 W2       5917     TIP3     H2       HT       0.417000       1.00800           0
     17752 W2       5918     TIP3     OH2      OT      -0.834000       15.9994           0
     17753 W2       5918     TIP3     H1       HT       0.417000       1.00800           0
     17754 W2       5918     TIP3     H2       HT       0.417000       1.00800           0
     17755 W2       5919     TIP3     OH2      OT      -0.834000       15.9994           0
     17756 W2       5919     TIP3     H1       HT       0.417000       1.00800           0
     17757 W2       5919     TIP3     H2       HT       0.417000       1.00800           0
     17758 W2       5920     TIP3     OH2      OT      -0.834000       15.9994           0
     17759 W2       5920     TIP3     H1       HT       0.417000       1.00800           0
     17760 W2       5920     TIP3     H2       HT       0.417000       1.00800           0
     17761 W2       5921     TIP3     OH2      OT      -0.834000       15.9994           0
     17762 W2       5921     TIP3     H1       HT       0.417000       1.00800           0
     17763 W2       5921     TIP3     H2       HT       0.417000       1.00800           0
     17764 W2       5922     TIP3     OH2      OT      -0.834000       15.9994           0
     17765 W2       5922     TIP3     H1       HT       0.417000       1.00800           0
     17766 W2       5922     TIP3     H2       HT       0.417000       1.00800           0
     17767 W2       5923     TIP3     OH2      OT      -0.834000       15.9994           0
     17768 W2       5923     TIP3     H1       HT       0.417000       1.00800           0
     17769 W2       5923     TIP3     H2       HT       0.417000       1.00800           0
     17770 W2       5924     TIP3     OH2      OT      -0.834000       15.9994           0
     17771 W2       5924     TIP3     H1       HT       0.417000       1.00800           0
     17772 W2       5924     TIP3     H2       HT       0.417000       1.00800           0
     17773 W2       5925     TIP3     OH2      OT      -0.834000       15.9994           0
     17774 W2       5925     TIP3     H1       HT       0.417000       1.00800           0
     17775 W2       5925     TIP3     H2       HT       0.417000       1.00800           0
     17776 W2       5926     TIP3     OH2      OT      -0.834000       15.9994           0
     17777 W2       5926     TIP3     H1       HT       0.417000       1.00800           0
     17778 W2       5926     TIP3     H2       HT       0.417000       1.00800           0
     17779 W2       5927     TIP3     OH2      OT      -0.834000       15.9994           0
     17780 W2       5927     TIP3     H1       HT       0.417000       1.00800           0
     17781 W2       5927     TIP3     H2       HT       0.417000       1.00800           0
     17782 W2       5928     TIP3     OH2      OT      -0.834000       15.9994           0
     17783 W2       5928     TIP3     H1       HT       0.417000       1.00800           0
     17784 W2       5928     TIP3     H2       HT       0.417000       1.00800           0
     17785 W2       5929     TIP3     OH2      OT      -0.834000       15.9994           0
     17786 W2       5929     TIP3     H1       HT       0.417000       1.00800           0
     17787 W2       5929     TIP3     H2       HT       0.417000       1.00800           0
     17788 W2       5930     TIP3     OH2      OT      -0.834000       15.9994           0
     17789 W2       5930     TIP3     H1       HT       0.417000       1.00800           0
     17790 W2       5930     TIP3     H2       HT       0.417000       1.00800           0
     17791 W2       5931     TIP3     OH2      OT      -0.834000       15.9994           0
     17792 W2       5931     TIP3     H1       HT       0.417000       1.00800           0
     17793 W2       5931     TIP3     H2       HT       0.417000       1.00800           0
     17794 W2       5932     TIP3     OH2      OT      -0.834000       15.9994           0
     17795 W2       5932     TIP3     H1       HT       0.417000       1.00800           0
     17796 W2       5932     TIP3     H2       HT       0.417000       1.00800           0
     17797 W2       5933     TIP3     OH2      OT      -0.834000       15.9994           0
     17798 W2       5933     TIP3     H1       HT       0.417000       1.00800           0
     17799 W2       5933     TIP3     H2       HT       0.417000       1.00800           0
     17800 W2       5934     TIP3     OH2      OT      -0.834000       15.9994           0
     17801 W2       5934     TIP3     H1       HT       0.417000       1.00800           0
     17802 W2       5934     TIP3     H2       HT       0.417000       1.00800           0
     17803 W2       5935     TIP3     OH2      OT      -0.834000       15.9994           0
     17804 W2       5935     TIP3     H1       HT       0.417000       1.00800           0
     17805 W2       5935     TIP3     H2       HT       0.417000       1.00800           0
     17806 W2       5936     TIP3     OH2      OT      -0.834000       15.9994           0
     17807 W2       5936     TIP3     H1       HT       0.417000       1.00800           0
     17808 W2       5936     TIP3     H2       HT       0.417000       1.00800           0
     17809 W2       5937     TIP3     OH2      OT      -0.834000       15.9994           0
     17810 W2       5937     TIP3     H1       HT       0.417000       1.00800           0
     17811 W2       5937     TIP3     H2       HT       0.417000       1.00800           0
     17812 W2       5938     TIP3     OH2      OT      -0.834000       15.9994           0
     17813 W2       5938     TIP3     H1       HT       0.417000       1.00800           0
     17814 W2       5938     TIP3     H2       HT       0.417000       1.00800           0
     17815 W2       5939     TIP3     OH2      OT      -0.834000       15.9994           0
     17816 W2       5939     TIP3     H1       HT       0.417000       1.00800           0
     17817 W2       5939     TIP3     H2       HT       0.417000       1.00800           0
     17818 W2       5940     TIP3     OH2      OT      -0.834000       15.9994           0
     17819 W2       5940     TIP3     H1       HT       0.417000       1.00800           0
     17820 W2       5940     TIP3     H2       HT       0.417000       1.00800           0
     17821 W2       5941     TIP3     OH2      OT      -0.834000       15.9994           0
     17822 W2       5941     TIP3     H1       HT       0.417000       1.00800           0
     17823 W2       5941     TIP3     H2       HT       0.417000       1.00800           0
     17824 W2       5942     TIP3     OH2      OT      -0.834000       15.9994           0
     17825 W2       5942     TIP3     H1       HT       0.417000       1.00800           0
     17826 W2       5942     TIP3     H2       HT       0.417000       1.00800           0
     17827 W2       5943     TIP3     OH2      OT      -0.834000       15.9994           0
     17828 W2       5943     TIP3     H1       HT       0.417000       1.00800           0
     17829 W2       5943     TIP3     H2       HT       0.417000       1.00800           0
     17830 W2       5944     TIP3     OH2      OT      -0.834000       15.9994           0
     17831 W2       5944     TIP3     H1       HT       0.417000       1.00800           0
     17832 W2       5944     TIP3     H2       HT       0.417000       1.00800           0
     17833 W2       5945     TIP3     OH2      OT      -0.834000       15.9994           0
     17834 W2       5945     TIP3     H1       HT       0.417000       1.00800           0
     17835 W2       5945     TIP3     H2       HT       0.417000       1.00800           0
     17836 W2       5946     TIP3     OH2      OT      -0.834000       15.9994           0
     17837 W2       5946     TIP3     H1       HT       0.417000       1.00800           0
     17838 W2       5946     TIP3     H2       HT       0.417000       1.00800           0
     17839 W2       5947     TIP3     OH2      OT      -0.834000       15.9994           0
     17840 W2       5947     TIP3     H1       HT       0.417000       1.00800           0
     17841 W2       5947     TIP3     H2       HT       0.417000       1.00800           0
     17842 W2       5948     TIP3     OH2      OT      -0.834000       15.9994           0
     17843 W2       5948     TIP3     H1       HT       0.417000       1.00800           0
     17844 W2       5948     TIP3     H2       HT       0.417000       1.00800           0
     17845 W2       5949     TIP3     OH2      OT      -0.834000       15.9994           0
     17846 W2       5949     TIP3     H1       HT       0.417000       1.00800           0
     17847 W2       5949     TIP3     H2       HT       0.417000       1.00800           0
     17848 W2       5950     TIP3     OH2      OT      -0.834000       15.9994           0
     17849 W2       5950     TIP3     H1       HT       0.417000       1.00800           0
     17850 W2       5950     TIP3     H2       HT       0.417000       1.00800           0
     17851 W2       5951     TIP3     OH2      OT      -0.834000       15.9994           0
     17852 W2       5951     TIP3     H1       HT       0.417000       1.00800           0
     17853 W2       5951     TIP3     H2       HT       0.417000       1.00800           0
     17854 W2       5952     TIP3     OH2      OT      -0.834000       15.9994           0
     17855 W2       5952     TIP3     H1       HT       0.417000       1.00800           0
     17856 W2       5952     TIP3     H2       HT       0.417000       1.00800           0
     17857 W2       5953     TIP3     OH2      OT      -0.834000       15.9994           0
     17858 W2       5953     TIP3     H1       HT       0.417000       1.00800           0
     17859 W2       5953     TIP3     H2       HT       0.417000       1.00800           0
     17860 W2       5954     TIP3     OH2      OT      -0.834000       15.9994           0
     17861 W2       5954     TIP3     H1       HT       0.417000       1.00800           0
     17862 W2       5954     TIP3     H2       HT       0.417000       1.00800           0
     17863 W2       5955     TIP3     OH2      OT      -0.834000       15.9994           0
     17864 W2       5955     TIP3     H1       HT       0.417000       1.00800           0
     17865 W2       5955     TIP3     H2       HT       0.417000       1.00800           0
     17866 W2       5956     TIP3     OH2      OT      -0.834000       15.9994           0
     17867 W2       5956     TIP3     H1       HT       0.417000       1.00800           0
     17868 W2       5956     TIP3     H2       HT       0.417000       1.00800           0
     17869 W2       5957     TIP3     OH2      OT      -0.834000       15.9994           0
     17870 W2       5957     TIP3     H1       HT       0.417000       1.00800           0
     17871 W2       5957     TIP3     H2       HT       0.417000       1.00800           0
     17872 W2       5958     TIP3     OH2      OT      -0.834000       15.9994           0
     17873 W2       5958     TIP3     H1       HT       0.417000       1.00800           0
     17874 W2       5958     TIP3     H2       HT       0.417000       1.00800           0
     17875 W2       5959     TIP3     OH2      OT      -0.834000       15.9994           0
     17876 W2       5959     TIP3     H1       HT       0.417000       1.00800           0
     17877 W2       5959     TIP3     H2       HT       0.417000       1.00800           0
     17878 W2       5960     TIP3     OH2      OT      -0.834000       15.9994           0
     17879 W2       5960     TIP3     H1       HT       0.417000       1.00800           0
     17880 W2       5960     TIP3     H2       HT       0.417000       1.00800           0
     17881 W2       5961     TIP3     OH2      OT      -0.834000       15.9994           0
     17882 W2       5961     TIP3     H1       HT       0.417000       1.00800           0
     17883 W2       5961     TIP3     H2       HT       0.417000       1.00800           0
     17884 W2       5962     TIP3     OH2      OT      -0.834000       15.9994           0
     17885 W2       5962     TIP3     H1       HT       0.417000       1.00800           0
     17886 W2       5962     TIP3     H2       HT       0.417000       1.00800           0
     17887 W2       5963     TIP3     OH2      OT      -0.834000       15.9994           0
     17888 W2       5963     TIP3     H1       HT       0.417000       1.00800           0
     17889 W2       5963     TIP3     H2       HT       0.417000       1.00800           0
     17890 W2       5964     TIP3     OH2      OT      -0.834000       15.9994           0
     17891 W2       5964     TIP3     H1       HT       0.417000       1.00800           0
     17892 W2       5964     TIP3     H2       HT       0.417000       1.00800           0
     17893 W2       5965     TIP3     OH2      OT      -0.834000       15.9994           0
     17894 W2       5965     TIP3     H1       HT       0.417000       1.00800           0
     17895 W2       5965     TIP3     H2       HT       0.417000       1.00800           0
     17896 W2       5966     TIP3     OH2      OT      -0.834000       15.9994           0
     17897 W2       5966     TIP3     H1       HT       0.417000       1.00800           0
     17898 W2       5966     TIP3     H2       HT       0.417000       1.00800           0
     17899 W2       5967     TIP3     OH2      OT      -0.834000       15.9994           0
     17900 W2       5967     TIP3     H1       HT       0.417000       1.00800           0
     17901 W2       5967     TIP3     H2       HT       0.417000       1.00800           0
     17902 W2       5968     TIP3     OH2      OT      -0.834000       15.9994           0
     17903 W2       5968     TIP3     H1       HT       0.417000       1.00800           0
     17904 W2       5968     TIP3     H2       HT       0.417000       1.00800           0
     17905 W2       5969     TIP3     OH2      OT      -0.834000       15.9994           0
     17906 W2       5969     TIP3     H1       HT       0.417000       1.00800           0
     17907 W2       5969     TIP3     H2       HT       0.417000       1.00800           0
     17908 W2       5970     TIP3     OH2      OT      -0.834000       15.9994           0
     17909 W2       5970     TIP3     H1       HT       0.417000       1.00800           0
     17910 W2       5970     TIP3     H2       HT       0.417000       1.00800           0
     17911 W2       5971     TIP3     OH2      OT      -0.834000       15.9994           0
     17912 W2       5971     TIP3     H1       HT       0.417000       1.00800           0
     17913 W2       5971     TIP3     H2       HT       0.417000       1.00800           0
     17914 W2       5972     TIP3     OH2      OT      -0.834000       15.9994           0
     17915 W2       5972     TIP3     H1       HT       0.417000       1.00800           0
     17916 W2       5972     TIP3     H2       HT       0.417000       1.00800           0
     17917 W2       5973     TIP3     OH2      OT      -0.834000       15.9994           0
     17918 W2       5973     TIP3     H1       HT       0.417000       1.00800           0
     17919 W2       5973     TIP3     H2       HT       0.417000       1.00800           0
     17920 W2       5974     TIP3     OH2      OT      -0.834000       15.9994           0
     17921 W2       5974     TIP3     H1       HT       0.417000       1.00800           0
     17922 W2       5974     TIP3     H2       HT       0.417000       1.00800           0
     17923 W2       5975     TIP3     OH2      OT      -0.834000       15.9994           0
     17924 W2       5975     TIP3     H1       HT       0.417000       1.00800           0
     17925 W2       5975     TIP3     H2       HT       0.417000       1.00800           0
     17926 W2       5976     TIP3     OH2      OT      -0.834000       15.9994           0
     17927 W2       5976     TIP3     H1       HT       0.417000       1.00800           0
     17928 W2       5976     TIP3     H2       HT       0.417000       1.00800           0
     17929 W2       5977     TIP3     OH2      OT      -0.834000       15.9994           0
     17930 W2       5977     TIP3     H1       HT       0.417000       1.00800           0
     17931 W2       5977     TIP3     H2       HT       0.417000       1.00800           0
     17932 W2       5978     TIP3     OH2      OT      -0.834000       15.9994           0
     17933 W2       5978     TIP3     H1       HT       0.417000       1.00800           0
     17934 W2       5978     TIP3     H2       HT       0.417000       1.00800           0
     17935 W2       5979     TIP3     OH2      OT      -0.834000       15.9994           0
     17936 W2       5979     TIP3     H1       HT       0.417000       1.00800           0
     17937 W2       5979     TIP3     H2       HT       0.417000       1.00800           0
     17938 W2       5980     TIP3     OH2      OT      -0.834000       15.9994           0
     17939 W2       5980     TIP3     H1       HT       0.417000       1.00800           0
     17940 W2       5980     TIP3     H2       HT       0.417000       1.00800           0
     17941 W2       5981     TIP3     OH2      OT      -0.834000       15.9994           0
     17942 W2       5981     TIP3     H1       HT       0.417000       1.00800           0
     17943 W2       5981     TIP3     H2       HT       0.417000       1.00800           0
     17944 W2       5982     TIP3     OH2      OT      -0.834000       15.9994           0
     17945 W2       5982     TIP3     H1       HT       0.417000       1.00800           0
     17946 W2       5982     TIP3     H2       HT       0.417000       1.00800           0
     17947 W2       5983     TIP3     OH2      OT      -0.834000       15.9994           0
     17948 W2       5983     TIP3     H1       HT       0.417000       1.00800           0
     17949 W2       5983     TIP3     H2       HT       0.417000       1.00800           0
     17950 W2       5984     TIP3     OH2      OT      -0.834000       15.9994           0
     17951 W2       5984     TIP3     H1       HT       0.417000       1.00800           0
     17952 W2       5984     TIP3     H2       HT       0.417000       1.00800           0
     17953 W2       5985     TIP3     OH2      OT      -0.834000       15.9994           0
     17954 W2       5985     TIP3     H1       HT       0.417000       1.00800           0
     17955 W2       5985     TIP3     H2       HT       0.417000       1.00800           0
     17956 W2       5986     TIP3     OH2      OT      -0.834000       15.9994           0
     17957 W2       5986     TIP3     H1       HT       0.417000       1.00800           0
     17958 W2       5986     TIP3     H2       HT       0.417000       1.00800           0
     17959 W2       5987     TIP3     OH2      OT      -0.834000       15.9994           0
     17960 W2       5987     TIP3     H1       HT       0.417000       1.00800           0
     17961 W2       5987     TIP3     H2       HT       0.417000       1.00800           0
     17962 W2       5988     TIP3     OH2      OT      -0.834000       15.9994           0
     17963 W2       5988     TIP3     H1       HT       0.417000       1.00800           0
     17964 W2       5988     TIP3     H2       HT       0.417000       1.00800           0
     17965 W2       5989     TIP3     OH2      OT      -0.834000       15.9994           0
     17966 W2       5989     TIP3     H1       HT       0.417000       1.00800           0
     17967 W2       5989     TIP3     H2       HT       0.417000       1.00800           0
     17968 W2       5990     TIP3     OH2      OT      -0.834000       15.9994           0
     17969 W2       5990     TIP3     H1       HT       0.417000       1.00800           0
     17970 W2       5990     TIP3     H2       HT       0.417000       1.00800           0
     17971 W2       5991     TIP3     OH2      OT      -0.834000       15.9994           0
     17972 W2       5991     TIP3     H1       HT       0.417000       1.00800           0
     17973 W2       5991     TIP3     H2       HT       0.417000       1.00800           0
     17974 W2       5992     TIP3     OH2      OT      -0.834000       15.9994           0
     17975 W2       5992     TIP3     H1       HT       0.417000       1.00800           0
     17976 W2       5992     TIP3     H2       HT       0.417000       1.00800           0
     17977 W2       5993     TIP3     OH2      OT      -0.834000       15.9994           0
     17978 W2       5993     TIP3     H1       HT       0.417000       1.00800           0
     17979 W2       5993     TIP3     H2       HT       0.417000       1.00800           0
     17980 W2       5994     TIP3     OH2      OT      -0.834000       15.9994           0
     17981 W2       5994     TIP3     H1       HT       0.417000       1.00800           0
     17982 W2       5994     TIP3     H2       HT       0.417000       1.00800           0
     17983 W2       5995     TIP3     OH2      OT      -0.834000       15.9994           0
     17984 W2       5995     TIP3     H1       HT       0.417000       1.00800           0
     17985 W2       5995     TIP3     H2       HT       0.417000       1.00800           0
     17986 W2       5996     TIP3     OH2      OT      -0.834000       15.9994           0
     17987 W2       5996     TIP3     H1       HT       0.417000       1.00800           0
     17988 W2       5996     TIP3     H2       HT       0.417000       1.00800           0
     17989 W2       5997     TIP3     OH2      OT      -0.834000       15.9994           0
     17990 W2       5997     TIP3     H1       HT       0.417000       1.00800           0
     17991 W2       5997     TIP3     H2       HT       0.417000       1.00800           0
     17992 W2       5998     TIP3     OH2      OT      -0.834000       15.9994           0
     17993 W2       5998     TIP3     H1       HT       0.417000       1.00800           0
     17994 W2       5998     TIP3     H2       HT       0.417000       1.00800           0
     17995 W2       5999     TIP3     OH2      OT      -0.834000       15.9994           0
     17996 W2       5999     TIP3     H1       HT       0.417000       1.00800           0
     17997 W2       5999     TIP3     H2       HT       0.417000       1.00800           0
     17998 W2       6000     TIP3     OH2      OT      -0.834000       15.9994           0
     17999 W2       6000     TIP3     H1       HT       0.417000       1.00800           0
     18000 W2       6000     TIP3     H2       HT       0.417000       1.00800           0
     18001 W2       6001     TIP3     OH2      OT      -0.834000       15.9994           0
     18002 W2       6001     TIP3     H1       HT       0.417000       1.00800           0
     18003 W2       6001     TIP3     H2       HT       0.417000       1.00800           0
     18004 W2       6002     TIP3     OH2      OT      -0.834000       15.9994           0
     18005 W2       6002     TIP3     H1       HT       0.417000       1.00800           0
     18006 W2       6002     TIP3     H2       HT       0.417000       1.00800           0
     18007 W2       6003     TIP3     OH2      OT      -0.834000       15.9994           0
     18008 W2       6003     TIP3     H1       HT       0.417000       1.00800           0
     18009 W2       6003     TIP3     H2       HT       0.417000       1.00800           0
     18010 W2       6004     TIP3     OH2      OT      -0.834000       15.9994           0
     18011 W2       6004     TIP3     H1       HT       0.417000       1.00800           0
     18012 W2       6004     TIP3     H2       HT       0.417000       1.00800           0
     18013 W2       6005     TIP3     OH2      OT      -0.834000       15.9994           0
     18014 W2       6005     TIP3     H1       HT       0.417000       1.00800           0
     18015 W2       6005     TIP3     H2       HT       0.417000       1.00800           0
     18016 W2       6006     TIP3     OH2      OT      -0.834000       15.9994           0
     18017 W2       6006     TIP3     H1       HT       0.417000       1.00800           0
     18018 W2       6006     TIP3     H2       HT       0.417000       1.00800           0
     18019 W2       6007     TIP3     OH2      OT      -0.834000       15.9994           0
     18020 W2       6007     TIP3     H1       HT       0.417000       1.00800           0
     18021 W2       6007     TIP3     H2       HT       0.417000       1.00800           0
     18022 W2       6008     TIP3     OH2      OT      -0.834000       15.9994           0
     18023 W2       6008     TIP3     H1       HT       0.417000       1.00800           0
     18024 W2       6008     TIP3     H2       HT       0.417000       1.00800           0
     18025 W2       6009     TIP3     OH2      OT      -0.834000       15.9994           0
     18026 W2       6009     TIP3     H1       HT       0.417000       1.00800           0
     18027 W2       6009     TIP3     H2       HT       0.417000       1.00800           0
     18028 W2       6010     TIP3     OH2      OT      -0.834000       15.9994           0
     18029 W2       6010     TIP3     H1       HT       0.417000       1.00800           0
     18030 W2       6010     TIP3     H2       HT       0.417000       1.00800           0
     18031 W2       6011     TIP3     OH2      OT      -0.834000       15.9994           0
     18032 W2       6011     TIP3     H1       HT       0.417000       1.00800           0
     18033 W2       6011     TIP3     H2       HT       0.417000       1.00800           0
     18034 W2       6012     TIP3     OH2      OT      -0.834000       15.9994           0
     18035 W2       6012     TIP3     H1       HT       0.417000       1.00800           0
     18036 W2       6012     TIP3     H2       HT       0.417000       1.00800           0
     18037 W2       6013     TIP3     OH2      OT      -0.834000       15.9994           0
     18038 W2       6013     TIP3     H1       HT       0.417000       1.00800           0
     18039 W2       6013     TIP3     H2       HT       0.417000       1.00800           0
     18040 W2       6014     TIP3     OH2      OT      -0.834000       15.9994           0
     18041 W2       6014     TIP3     H1       HT       0.417000       1.00800           0
     18042 W2       6014     TIP3     H2       HT       0.417000       1.00800           0
     18043 W2       6015     TIP3     OH2      OT      -0.834000       15.9994           0
     18044 W2       6015     TIP3     H1       HT       0.417000       1.00800           0
     18045 W2       6015     TIP3     H2       HT       0.417000       1.00800           0
     18046 W2       6016     TIP3     OH2      OT      -0.834000       15.9994           0
     18047 W2       6016     TIP3     H1       HT       0.417000       1.00800           0
     18048 W2       6016     TIP3     H2       HT       0.417000       1.00800           0
     18049 W2       6017     TIP3     OH2      OT      -0.834000       15.9994           0
     18050 W2       6017     TIP3     H1       HT       0.417000       1.00800           0
     18051 W2       6017     TIP3     H2       HT       0.417000       1.00800           0
     18052 W2       6018     TIP3     OH2      OT      -0.834000       15.9994           0
     18053 W2       6018     TIP3     H1       HT       0.417000       1.00800           0
     18054 W2       6018     TIP3     H2       HT       0.417000       1.00800           0
     18055 W2       6019     TIP3     OH2      OT      -0.834000       15.9994           0
     18056 W2       6019     TIP3     H1       HT       0.417000       1.00800           0
     18057 W2       6019     TIP3     H2       HT       0.417000       1.00800           0
     18058 W2       6020     TIP3     OH2      OT      -0.834000       15.9994           0
     18059 W2       6020     TIP3     H1       HT       0.417000       1.00800           0
     18060 W2       6020     TIP3     H2       HT       0.417000       1.00800           0
     18061 W2       6021     TIP3     OH2      OT      -0.834000       15.9994           0
     18062 W2       6021     TIP3     H1       HT       0.417000       1.00800           0
     18063 W2       6021     TIP3     H2       HT       0.417000       1.00800           0
     18064 W2       6022     TIP3     OH2      OT      -0.834000       15.9994           0
     18065 W2       6022     TIP3     H1       HT       0.417000       1.00800           0
     18066 W2       6022     TIP3     H2       HT       0.417000       1.00800           0
     18067 W2       6023     TIP3     OH2      OT      -0.834000       15.9994           0
     18068 W2       6023     TIP3     H1       HT       0.417000       1.00800           0
     18069 W2       6023     TIP3     H2       HT       0.417000       1.00800           0
     18070 W2       6024     TIP3     OH2      OT      -0.834000       15.9994           0
     18071 W2       6024     TIP3     H1       HT       0.417000       1.00800           0
     18072 W2       6024     TIP3     H2       HT       0.417000       1.00800           0
     18073 W2       6025     TIP3     OH2      OT      -0.834000       15.9994           0
     18074 W2       6025     TIP3     H1       HT       0.417000       1.00800           0
     18075 W2       6025     TIP3     H2       HT       0.417000       1.00800           0
     18076 W2       6026     TIP3     OH2      OT      -0.834000       15.9994           0
     18077 W2       6026     TIP3     H1       HT       0.417000       1.00800           0
     18078 W2       6026     TIP3     H2       HT       0.417000       1.00800           0
     18079 W2       6027     TIP3     OH2      OT      -0.834000       15.9994           0
     18080 W2       6027     TIP3     H1       HT       0.417000       1.00800           0
     18081 W2       6027     TIP3     H2       HT       0.417000       1.00800           0
     18082 W2       6028     TIP3     OH2      OT      -0.834000       15.9994           0
     18083 W2       6028     TIP3     H1       HT       0.417000       1.00800           0
     18084 W2       6028     TIP3     H2       HT       0.417000       1.00800           0
     18085 W2       6029     TIP3     OH2      OT      -0.834000       15.9994           0
     18086 W2       6029     TIP3     H1       HT       0.417000       1.00800           0
     18087 W2       6029     TIP3     H2       HT       0.417000       1.00800           0
     18088 W2       6030     TIP3     OH2      OT      -0.834000       15.9994           0
     18089 W2       6030     TIP3     H1       HT       0.417000       1.00800           0
     18090 W2       6030     TIP3     H2       HT       0.417000       1.00800           0
     18091 W2       6031     TIP3     OH2      OT      -0.834000       15.9994           0
     18092 W2       6031     TIP3     H1       HT       0.417000       1.00800           0
     18093 W2       6031     TIP3     H2       HT       0.417000       1.00800           0
     18094 W2       6032     TIP3     OH2      OT      -0.834000       15.9994           0
     18095 W2       6032     TIP3     H1       HT       0.417000       1.00800           0
     18096 W2       6032     TIP3     H2       HT       0.417000       1.00800           0
     18097 W2       6033     TIP3     OH2      OT      -0.834000       15.9994           0
     18098 W2       6033     TIP3     H1       HT       0.417000       1.00800           0
     18099 W2       6033     TIP3     H2       HT       0.417000       1.00800           0
     18100 W2       6034     TIP3     OH2      OT      -0.834000       15.9994           0
     18101 W2       6034     TIP3     H1       HT       0.417000       1.00800           0
     18102 W2       6034     TIP3     H2       HT       0.417000       1.00800           0
     18103 W2       6035     TIP3     OH2      OT      -0.834000       15.9994           0
     18104 W2       6035     TIP3     H1       HT       0.417000       1.00800           0
     18105 W2       6035     TIP3     H2       HT       0.417000       1.00800           0
     18106 W2       6036     TIP3     OH2      OT      -0.834000       15.9994           0
     18107 W2       6036     TIP3     H1       HT       0.417000       1.00800           0
     18108 W2       6036     TIP3     H2       HT       0.417000       1.00800           0
     18109 W2       6037     TIP3     OH2      OT      -0.834000       15.9994           0
     18110 W2       6037     TIP3     H1       HT       0.417000       1.00800           0
     18111 W2       6037     TIP3     H2       HT       0.417000       1.00800           0
     18112 W2       6038     TIP3     OH2      OT      -0.834000       15.9994           0
     18113 W2       6038     TIP3     H1       HT       0.417000       1.00800           0
     18114 W2       6038     TIP3     H2       HT       0.417000       1.00800           0
     18115 W2       6039     TIP3     OH2      OT      -0.834000       15.9994           0
     18116 W2       6039     TIP3     H1       HT       0.417000       1.00800           0
     18117 W2       6039     TIP3     H2       HT       0.417000       1.00800           0
     18118 W2       6040     TIP3     OH2      OT      -0.834000       15.9994           0
     18119 W2       6040     TIP3     H1       HT       0.417000       1.00800           0
     18120 W2       6040     TIP3     H2       HT       0.417000       1.00800           0
     18121 W2       6041     TIP3     OH2      OT      -0.834000       15.9994           0
     18122 W2       6041     TIP3     H1       HT       0.417000       1.00800           0
     18123 W2       6041     TIP3     H2       HT       0.417000       1.00800           0
     18124 W2       6042     TIP3     OH2      OT      -0.834000       15.9994           0
     18125 W2       6042     TIP3     H1       HT       0.417000       1.00800           0
     18126 W2       6042     TIP3     H2       HT       0.417000       1.00800           0
     18127 W2       6043     TIP3     OH2      OT      -0.834000       15.9994           0
     18128 W2       6043     TIP3     H1       HT       0.417000       1.00800           0
     18129 W2       6043     TIP3     H2       HT       0.417000       1.00800           0
     18130 W2       6044     TIP3     OH2      OT      -0.834000       15.9994           0
     18131 W2       6044     TIP3     H1       HT       0.417000       1.00800           0
     18132 W2       6044     TIP3     H2       HT       0.417000       1.00800           0
     18133 W2       6045     TIP3     OH2      OT      -0.834000       15.9994           0
     18134 W2       6045     TIP3     H1       HT       0.417000       1.00800           0
     18135 W2       6045     TIP3     H2       HT       0.417000       1.00800           0
     18136 W2       6046     TIP3     OH2      OT      -0.834000       15.9994           0
     18137 W2       6046     TIP3     H1       HT       0.417000       1.00800           0
     18138 W2       6046     TIP3     H2       HT       0.417000       1.00800           0
     18139 W2       6047     TIP3     OH2      OT      -0.834000       15.9994           0
     18140 W2       6047     TIP3     H1       HT       0.417000       1.00800           0
     18141 W2       6047     TIP3     H2       HT       0.417000       1.00800           0
     18142 W2       6048     TIP3     OH2      OT      -0.834000       15.9994           0
     18143 W2       6048     TIP3     H1       HT       0.417000       1.00800           0
     18144 W2       6048     TIP3     H2       HT       0.417000       1.00800           0
     18145 W2       6049     TIP3     OH2      OT      -0.834000       15.9994           0
     18146 W2       6049     TIP3     H1       HT       0.417000       1.00800           0
     18147 W2       6049     TIP3     H2       HT       0.417000       1.00800           0
     18148 W2       6050     TIP3     OH2      OT      -0.834000       15.9994           0
     18149 W2       6050     TIP3     H1       HT       0.417000       1.00800           0
     18150 W2       6050     TIP3     H2       HT       0.417000       1.00800           0
     18151 W2       6051     TIP3     OH2      OT      -0.834000       15.9994           0
     18152 W2       6051     TIP3     H1       HT       0.417000       1.00800           0
     18153 W2       6051     TIP3     H2       HT       0.417000       1.00800           0
     18154 W2       6052     TIP3     OH2      OT      -0.834000       15.9994           0
     18155 W2       6052     TIP3     H1       HT       0.417000       1.00800           0
     18156 W2       6052     TIP3     H2       HT       0.417000       1.00800           0
     18157 W2       6053     TIP3     OH2      OT      -0.834000       15.9994           0
     18158 W2       6053     TIP3     H1       HT       0.417000       1.00800           0
     18159 W2       6053     TIP3     H2       HT       0.417000       1.00800           0
     18160 W2       6054     TIP3     OH2      OT      -0.834000       15.9994           0
     18161 W2       6054     TIP3     H1       HT       0.417000       1.00800           0
     18162 W2       6054     TIP3     H2       HT       0.417000       1.00800           0
     18163 W2       6055     TIP3     OH2      OT      -0.834000       15.9994           0
     18164 W2       6055     TIP3     H1       HT       0.417000       1.00800           0
     18165 W2       6055     TIP3     H2       HT       0.417000       1.00800           0
     18166 W2       6056     TIP3     OH2      OT      -0.834000       15.9994           0
     18167 W2       6056     TIP3     H1       HT       0.417000       1.00800           0
     18168 W2       6056     TIP3     H2       HT       0.417000       1.00800           0
     18169 W2       6057     TIP3     OH2      OT      -0.834000       15.9994           0
     18170 W2       6057     TIP3     H1       HT       0.417000       1.00800           0
     18171 W2       6057     TIP3     H2       HT       0.417000       1.00800           0
     18172 W2       6058     TIP3     OH2      OT      -0.834000       15.9994           0
     18173 W2       6058     TIP3     H1       HT       0.417000       1.00800           0
     18174 W2       6058     TIP3     H2       HT       0.417000       1.00800           0
     18175 W2       6059     TIP3     OH2      OT      -0.834000       15.9994           0
     18176 W2       6059     TIP3     H1       HT       0.417000       1.00800           0
     18177 W2       6059     TIP3     H2       HT       0.417000       1.00800           0
     18178 W2       6060     TIP3     OH2      OT      -0.834000       15.9994           0
     18179 W2       6060     TIP3     H1       HT       0.417000       1.00800           0
     18180 W2       6060     TIP3     H2       HT       0.417000       1.00800           0
     18181 W2       6061     TIP3     OH2      OT      -0.834000       15.9994           0
     18182 W2       6061     TIP3     H1       HT       0.417000       1.00800           0
     18183 W2       6061     TIP3     H2       HT       0.417000       1.00800           0
     18184 W2       6062     TIP3     OH2      OT      -0.834000       15.9994           0
     18185 W2       6062     TIP3     H1       HT       0.417000       1.00800           0
     18186 W2       6062     TIP3     H2       HT       0.417000       1.00800           0
     18187 W2       6063     TIP3     OH2      OT      -0.834000       15.9994           0
     18188 W2       6063     TIP3     H1       HT       0.417000       1.00800           0
     18189 W2       6063     TIP3     H2       HT       0.417000       1.00800           0
     18190 W2       6064     TIP3     OH2      OT      -0.834000       15.9994           0
     18191 W2       6064     TIP3     H1       HT       0.417000       1.00800           0
     18192 W2       6064     TIP3     H2       HT       0.417000       1.00800           0
     18193 W2       6065     TIP3     OH2      OT      -0.834000       15.9994           0
     18194 W2       6065     TIP3     H1       HT       0.417000       1.00800           0
     18195 W2       6065     TIP3     H2       HT       0.417000       1.00800           0
     18196 W2       6066     TIP3     OH2      OT      -0.834000       15.9994           0
     18197 W2       6066     TIP3     H1       HT       0.417000       1.00800           0
     18198 W2       6066     TIP3     H2       HT       0.417000       1.00800           0
     18199 W2       6067     TIP3     OH2      OT      -0.834000       15.9994           0
     18200 W2       6067     TIP3     H1       HT       0.417000       1.00800           0
     18201 W2       6067     TIP3     H2       HT       0.417000       1.00800           0
     18202 W2       6068     TIP3     OH2      OT      -0.834000       15.9994           0
     18203 W2       6068     TIP3     H1       HT       0.417000       1.00800           0
     18204 W2       6068     TIP3     H2       HT       0.417000       1.00800           0
     18205 W2       6069     TIP3     OH2      OT      -0.834000       15.9994           0
     18206 W2       6069     TIP3     H1       HT       0.417000       1.00800           0
     18207 W2       6069     TIP3     H2       HT       0.417000       1.00800           0
     18208 W2       6070     TIP3     OH2      OT      -0.834000       15.9994           0
     18209 W2       6070     TIP3     H1       HT       0.417000       1.00800           0
     18210 W2       6070     TIP3     H2       HT       0.417000       1.00800           0
     18211 W2       6071     TIP3     OH2      OT      -0.834000       15.9994           0
     18212 W2       6071     TIP3     H1       HT       0.417000       1.00800           0
     18213 W2       6071     TIP3     H2       HT       0.417000       1.00800           0
     18214 W2       6072     TIP3     OH2      OT      -0.834000       15.9994           0
     18215 W2       6072     TIP3     H1       HT       0.417000       1.00800           0
     18216 W2       6072     TIP3     H2       HT       0.417000       1.00800           0
     18217 W2       6073     TIP3     OH2      OT      -0.834000       15.9994           0
     18218 W2       6073     TIP3     H1       HT       0.417000       1.00800           0
     18219 W2       6073     TIP3     H2       HT       0.417000       1.00800           0
     18220 W2       6074     TIP3     OH2      OT      -0.834000       15.9994           0
     18221 W2       6074     TIP3     H1       HT       0.417000       1.00800           0
     18222 W2       6074     TIP3     H2       HT       0.417000       1.00800           0
     18223 W2       6075     TIP3     OH2      OT      -0.834000       15.9994           0
     18224 W2       6075     TIP3     H1       HT       0.417000       1.00800           0
     18225 W2       6075     TIP3     H2       HT       0.417000       1.00800           0
     18226 W2       6076     TIP3     OH2      OT      -0.834000       15.9994           0
     18227 W2       6076     TIP3     H1       HT       0.417000       1.00800           0
     18228 W2       6076     TIP3     H2       HT       0.417000       1.00800           0
     18229 W2       6077     TIP3     OH2      OT      -0.834000       15.9994           0
     18230 W2       6077     TIP3     H1       HT       0.417000       1.00800           0
     18231 W2       6077     TIP3     H2       HT       0.417000       1.00800           0
     18232 W2       6078     TIP3     OH2      OT      -0.834000       15.9994           0
     18233 W2       6078     TIP3     H1       HT       0.417000       1.00800           0
     18234 W2       6078     TIP3     H2       HT       0.417000       1.00800           0
     18235 W2       6079     TIP3     OH2      OT      -0.834000       15.9994           0
     18236 W2       6079     TIP3     H1       HT       0.417000       1.00800           0
     18237 W2       6079     TIP3     H2       HT       0.417000       1.00800           0
     18238 W2       6080     TIP3     OH2      OT      -0.834000       15.9994           0
     18239 W2       6080     TIP3     H1       HT       0.417000       1.00800           0
     18240 W2       6080     TIP3     H2       HT       0.417000       1.00800           0
     18241 W2       6081     TIP3     OH2      OT      -0.834000       15.9994           0
     18242 W2       6081     TIP3     H1       HT       0.417000       1.00800           0
     18243 W2       6081     TIP3     H2       HT       0.417000       1.00800           0
     18244 W2       6082     TIP3     OH2      OT      -0.834000       15.9994           0
     18245 W2       6082     TIP3     H1       HT       0.417000       1.00800           0
     18246 W2       6082     TIP3     H2       HT       0.417000       1.00800           0
     18247 W2       6083     TIP3     OH2      OT      -0.834000       15.9994           0
     18248 W2       6083     TIP3     H1       HT       0.417000       1.00800           0
     18249 W2       6083     TIP3     H2       HT       0.417000       1.00800           0
     18250 W2       6084     TIP3     OH2      OT      -0.834000       15.9994           0
     18251 W2       6084     TIP3     H1       HT       0.417000       1.00800           0
     18252 W2       6084     TIP3     H2       HT       0.417000       1.00800           0
     18253 W2       6085     TIP3     OH2      OT      -0.834000       15.9994           0
     18254 W2       6085     TIP3     H1       HT       0.417000       1.00800           0
     18255 W2       6085     TIP3     H2       HT       0.417000       1.00800           0
     18256 W2       6086     TIP3     OH2      OT      -0.834000       15.9994           0
     18257 W2       6086     TIP3     H1       HT       0.417000       1.00800           0
     18258 W2       6086     TIP3     H2       HT       0.417000       1.00800           0
     18259 W2       6087     TIP3     OH2      OT      -0.834000       15.9994           0
     18260 W2       6087     TIP3     H1       HT       0.417000       1.00800           0
     18261 W2       6087     TIP3     H2       HT       0.417000       1.00800           0
     18262 W2       6088     TIP3     OH2      OT      -0.834000       15.9994           0
     18263 W2       6088     TIP3     H1       HT       0.417000       1.00800           0
     18264 W2       6088     TIP3     H2       HT       0.417000       1.00800           0
     18265 W2       6089     TIP3     OH2      OT      -0.834000       15.9994           0
     18266 W2       6089     TIP3     H1       HT       0.417000       1.00800           0
     18267 W2       6089     TIP3     H2       HT       0.417000       1.00800           0
     18268 W2       6090     TIP3     OH2      OT      -0.834000       15.9994           0
     18269 W2       6090     TIP3     H1       HT       0.417000       1.00800           0
     18270 W2       6090     TIP3     H2       HT       0.417000       1.00800           0
     18271 W2       6091     TIP3     OH2      OT      -0.834000       15.9994           0
     18272 W2       6091     TIP3     H1       HT       0.417000       1.00800           0
     18273 W2       6091     TIP3     H2       HT       0.417000       1.00800           0
     18274 W2       6092     TIP3     OH2      OT      -0.834000       15.9994           0
     18275 W2       6092     TIP3     H1       HT       0.417000       1.00800           0
     18276 W2       6092     TIP3     H2       HT       0.417000       1.00800           0
     18277 W2       6093     TIP3     OH2      OT      -0.834000       15.9994           0
     18278 W2       6093     TIP3     H1       HT       0.417000       1.00800           0
     18279 W2       6093     TIP3     H2       HT       0.417000       1.00800           0
     18280 W2       6094     TIP3     OH2      OT      -0.834000       15.9994           0
     18281 W2       6094     TIP3     H1       HT       0.417000       1.00800           0
     18282 W2       6094     TIP3     H2       HT       0.417000       1.00800           0
     18283 W2       6095     TIP3     OH2      OT      -0.834000       15.9994           0
     18284 W2       6095     TIP3     H1       HT       0.417000       1.00800           0
     18285 W2       6095     TIP3     H2       HT       0.417000       1.00800           0
     18286 W2       6096     TIP3     OH2      OT      -0.834000       15.9994           0
     18287 W2       6096     TIP3     H1       HT       0.417000       1.00800           0
     18288 W2       6096     TIP3     H2       HT       0.417000       1.00800           0
     18289 W2       6097     TIP3     OH2      OT      -0.834000       15.9994           0
     18290 W2       6097     TIP3     H1       HT       0.417000       1.00800           0
     18291 W2       6097     TIP3     H2       HT       0.417000       1.00800           0
     18292 W2       6098     TIP3     OH2      OT      -0.834000       15.9994           0
     18293 W2       6098     TIP3     H1       HT       0.417000       1.00800           0
     18294 W2       6098     TIP3     H2       HT       0.417000       1.00800           0
     18295 W2       6099     TIP3     OH2      OT      -0.834000       15.9994           0
     18296 W2       6099     TIP3     H1       HT       0.417000       1.00800           0
     18297 W2       6099     TIP3     H2       HT       0.417000       1.00800           0
     18298 W2       6100     TIP3     OH2      OT      -0.834000       15.9994           0
     18299 W2       6100     TIP3     H1       HT       0.417000       1.00800           0
     18300 W2       6100     TIP3     H2       HT       0.417000       1.00800           0
     18301 W2       6101     TIP3     OH2      OT      -0.834000       15.9994           0
     18302 W2       6101     TIP3     H1       HT       0.417000       1.00800           0
     18303 W2       6101     TIP3     H2       HT       0.417000       1.00800           0
     18304 W2       6102     TIP3     OH2      OT      -0.834000       15.9994           0
     18305 W2       6102     TIP3     H1       HT       0.417000       1.00800           0
     18306 W2       6102     TIP3     H2       HT       0.417000       1.00800           0
     18307 W2       6103     TIP3     OH2      OT      -0.834000       15.9994           0
     18308 W2       6103     TIP3     H1       HT       0.417000       1.00800           0
     18309 W2       6103     TIP3     H2       HT       0.417000       1.00800           0
     18310 W2       6104     TIP3     OH2      OT      -0.834000       15.9994           0
     18311 W2       6104     TIP3     H1       HT       0.417000       1.00800           0
     18312 W2       6104     TIP3     H2       HT       0.417000       1.00800           0
     18313 W2       6105     TIP3     OH2      OT      -0.834000       15.9994           0
     18314 W2       6105     TIP3     H1       HT       0.417000       1.00800           0
     18315 W2       6105     TIP3     H2       HT       0.417000       1.00800           0
     18316 W2       6106     TIP3     OH2      OT      -0.834000       15.9994           0
     18317 W2       6106     TIP3     H1       HT       0.417000       1.00800           0
     18318 W2       6106     TIP3     H2       HT       0.417000       1.00800           0
     18319 W2       6107     TIP3     OH2      OT      -0.834000       15.9994           0
     18320 W2       6107     TIP3     H1       HT       0.417000       1.00800           0
     18321 W2       6107     TIP3     H2       HT       0.417000       1.00800           0
     18322 W2       6108     TIP3     OH2      OT      -0.834000       15.9994           0
     18323 W2       6108     TIP3     H1       HT       0.417000       1.00800           0
     18324 W2       6108     TIP3     H2       HT       0.417000       1.00800           0
     18325 W2       6109     TIP3     OH2      OT      -0.834000       15.9994           0
     18326 W2       6109     TIP3     H1       HT       0.417000       1.00800           0
     18327 W2       6109     TIP3     H2       HT       0.417000       1.00800           0
     18328 W2       6110     TIP3     OH2      OT      -0.834000       15.9994           0
     18329 W2       6110     TIP3     H1       HT       0.417000       1.00800           0
     18330 W2       6110     TIP3     H2       HT       0.417000       1.00800           0
     18331 W2       6111     TIP3     OH2      OT      -0.834000       15.9994           0
     18332 W2       6111     TIP3     H1       HT       0.417000       1.00800           0
     18333 W2       6111     TIP3     H2       HT       0.417000       1.00800           0
     18334 W2       6112     TIP3     OH2      OT      -0.834000       15.9994           0
     18335 W2       6112     TIP3     H1       HT       0.417000       1.00800           0
     18336 W2       6112     TIP3     H2       HT       0.417000       1.00800           0
     18337 W2       6113     TIP3     OH2      OT      -0.834000       15.9994           0
     18338 W2       6113     TIP3     H1       HT       0.417000       1.00800           0
     18339 W2       6113     TIP3     H2       HT       0.417000       1.00800           0
     18340 W2       6114     TIP3     OH2      OT      -0.834000       15.9994           0
     18341 W2       6114     TIP3     H1       HT       0.417000       1.00800           0
     18342 W2       6114     TIP3     H2       HT       0.417000       1.00800           0
     18343 W2       6115     TIP3     OH2      OT      -0.834000       15.9994           0
     18344 W2       6115     TIP3     H1       HT       0.417000       1.00800           0
     18345 W2       6115     TIP3     H2       HT       0.417000       1.00800           0
     18346 W2       6116     TIP3     OH2      OT      -0.834000       15.9994           0
     18347 W2       6116     TIP3     H1       HT       0.417000       1.00800           0
     18348 W2       6116     TIP3     H2       HT       0.417000       1.00800           0
     18349 W2       6117     TIP3     OH2      OT      -0.834000       15.9994           0
     18350 W2       6117     TIP3     H1       HT       0.417000       1.00800           0
     18351 W2       6117     TIP3     H2       HT       0.417000       1.00800           0
     18352 W2       6118     TIP3     OH2      OT      -0.834000       15.9994           0
     18353 W2       6118     TIP3     H1       HT       0.417000       1.00800           0
     18354 W2       6118     TIP3     H2       HT       0.417000       1.00800           0
     18355 W2       6119     TIP3     OH2      OT      -0.834000       15.9994           0
     18356 W2       6119     TIP3     H1       HT       0.417000       1.00800           0
     18357 W2       6119     TIP3     H2       HT       0.417000       1.00800           0
     18358 W2       6120     TIP3     OH2      OT      -0.834000       15.9994           0
     18359 W2       6120     TIP3     H1       HT       0.417000       1.00800           0
     18360 W2       6120     TIP3     H2       HT       0.417000       1.00800           0
     18361 W2       6121     TIP3     OH2      OT      -0.834000       15.9994           0
     18362 W2       6121     TIP3     H1       HT       0.417000       1.00800           0
     18363 W2       6121     TIP3     H2       HT       0.417000       1.00800           0
     18364 W2       6122     TIP3     OH2      OT      -0.834000       15.9994           0
     18365 W2       6122     TIP3     H1       HT       0.417000       1.00800           0
     18366 W2       6122     TIP3     H2       HT       0.417000       1.00800           0
     18367 W2       6123     TIP3     OH2      OT      -0.834000       15.9994           0
     18368 W2       6123     TIP3     H1       HT       0.417000       1.00800           0
     18369 W2       6123     TIP3     H2       HT       0.417000       1.00800           0
     18370 W2       6124     TIP3     OH2      OT      -0.834000       15.9994           0
     18371 W2       6124     TIP3     H1       HT       0.417000       1.00800           0
     18372 W2       6124     TIP3     H2       HT       0.417000       1.00800           0
     18373 W2       6125     TIP3     OH2      OT      -0.834000       15.9994           0
     18374 W2       6125     TIP3     H1       HT       0.417000       1.00800           0
     18375 W2       6125     TIP3     H2       HT       0.417000       1.00800           0
     18376 W2       6126     TIP3     OH2      OT      -0.834000       15.9994           0
     18377 W2       6126     TIP3     H1       HT       0.417000       1.00800           0
     18378 W2       6126     TIP3     H2       HT       0.417000       1.00800           0
     18379 W2       6127     TIP3     OH2      OT      -0.834000       15.9994           0
     18380 W2       6127     TIP3     H1       HT       0.417000       1.00800           0
     18381 W2       6127     TIP3     H2       HT       0.417000       1.00800           0
     18382 W2       6128     TIP3     OH2      OT      -0.834000       15.9994           0
     18383 W2       6128     TIP3     H1       HT       0.417000       1.00800           0
     18384 W2       6128     TIP3     H2       HT       0.417000       1.00800           0
     18385 W2       6129     TIP3     OH2      OT      -0.834000       15.9994           0
     18386 W2       6129     TIP3     H1       HT       0.417000       1.00800           0
     18387 W2       6129     TIP3     H2       HT       0.417000       1.00800           0
     18388 W2       6130     TIP3     OH2      OT      -0.834000       15.9994           0
     18389 W2       6130     TIP3     H1       HT       0.417000       1.00800           0
     18390 W2       6130     TIP3     H2       HT       0.417000       1.00800           0
     18391 W2       6131     TIP3     OH2      OT      -0.834000       15.9994           0
     18392 W2       6131     TIP3     H1       HT       0.417000       1.00800           0
     18393 W2       6131     TIP3     H2       HT       0.417000       1.00800           0
     18394 W2       6132     TIP3     OH2      OT      -0.834000       15.9994           0
     18395 W2       6132     TIP3     H1       HT       0.417000       1.00800           0
     18396 W2       6132     TIP3     H2       HT       0.417000       1.00800           0
     18397 W2       6133     TIP3     OH2      OT      -0.834000       15.9994           0
     18398 W2       6133     TIP3     H1       HT       0.417000       1.00800           0
     18399 W2       6133     TIP3     H2       HT       0.417000       1.00800           0
     18400 W2       6134     TIP3     OH2      OT      -0.834000       15.9994           0
     18401 W2       6134     TIP3     H1       HT       0.417000       1.00800           0
     18402 W2       6134     TIP3     H2       HT       0.417000       1.00800           0
     18403 W2       6135     TIP3     OH2      OT      -0.834000       15.9994           0
     18404 W2       6135     TIP3     H1       HT       0.417000       1.00800           0
     18405 W2       6135     TIP3     H2       HT       0.417000       1.00800           0
     18406 W2       6136     TIP3     OH2      OT      -0.834000       15.9994           0
     18407 W2       6136     TIP3     H1       HT       0.417000       1.00800           0
     18408 W2       6136     TIP3     H2       HT       0.417000       1.00800           0
     18409 W2       6137     TIP3     OH2      OT      -0.834000       15.9994           0
     18410 W2       6137     TIP3     H1       HT       0.417000       1.00800           0
     18411 W2       6137     TIP3     H2       HT       0.417000       1.00800           0
     18412 W2       6138     TIP3     OH2      OT      -0.834000       15.9994           0
     18413 W2       6138     TIP3     H1       HT       0.417000       1.00800           0
     18414 W2       6138     TIP3     H2       HT       0.417000       1.00800           0
     18415 W2       6139     TIP3     OH2      OT      -0.834000       15.9994           0
     18416 W2       6139     TIP3     H1       HT       0.417000       1.00800           0
     18417 W2       6139     TIP3     H2       HT       0.417000       1.00800           0
     18418 W2       6140     TIP3     OH2      OT      -0.834000       15.9994           0
     18419 W2       6140     TIP3     H1       HT       0.417000       1.00800           0
     18420 W2       6140     TIP3     H2       HT       0.417000       1.00800           0
     18421 W2       6141     TIP3     OH2      OT      -0.834000       15.9994           0
     18422 W2       6141     TIP3     H1       HT       0.417000       1.00800           0
     18423 W2       6141     TIP3     H2       HT       0.417000       1.00800           0
     18424 W2       6142     TIP3     OH2      OT      -0.834000       15.9994           0
     18425 W2       6142     TIP3     H1       HT       0.417000       1.00800           0
     18426 W2       6142     TIP3     H2       HT       0.417000       1.00800           0
     18427 W2       6143     TIP3     OH2      OT      -0.834000       15.9994           0
     18428 W2       6143     TIP3     H1       HT       0.417000       1.00800           0
     18429 W2       6143     TIP3     H2       HT       0.417000       1.00800           0
     18430 W2       6144     TIP3     OH2      OT      -0.834000       15.9994           0
     18431 W2       6144     TIP3     H1       HT       0.417000       1.00800           0
     18432 W2       6144     TIP3     H2       HT       0.417000       1.00800           0
     18433 W2       6145     TIP3     OH2      OT      -0.834000       15.9994           0
     18434 W2       6145     TIP3     H1       HT       0.417000       1.00800           0
     18435 W2       6145     TIP3     H2       HT       0.417000       1.00800           0
     18436 W2       6146     TIP3     OH2      OT      -0.834000       15.9994           0
     18437 W2       6146     TIP3     H1       HT       0.417000       1.00800           0
     18438 W2       6146     TIP3     H2       HT       0.417000       1.00800           0
     18439 W2       6147     TIP3     OH2      OT      -0.834000       15.9994           0
     18440 W2       6147     TIP3     H1       HT       0.417000       1.00800           0
     18441 W2       6147     TIP3     H2       HT       0.417000       1.00800           0
     18442 W2       6148     TIP3     OH2      OT      -0.834000       15.9994           0
     18443 W2       6148     TIP3     H1       HT       0.417000       1.00800           0
     18444 W2       6148     TIP3     H2       HT       0.417000       1.00800           0
     18445 W2       6149     TIP3     OH2      OT      -0.834000       15.9994           0
     18446 W2       6149     TIP3     H1       HT       0.417000       1.00800           0
     18447 W2       6149     TIP3     H2       HT       0.417000       1.00800           0
     18448 W2       6150     TIP3     OH2      OT      -0.834000       15.9994           0
     18449 W2       6150     TIP3     H1       HT       0.417000       1.00800           0
     18450 W2       6150     TIP3     H2       HT       0.417000       1.00800           0
     18451 W2       6151     TIP3     OH2      OT      -0.834000       15.9994           0
     18452 W2       6151     TIP3     H1       HT       0.417000       1.00800           0
     18453 W2       6151     TIP3     H2       HT       0.417000       1.00800           0
     18454 W2       6152     TIP3     OH2      OT      -0.834000       15.9994           0
     18455 W2       6152     TIP3     H1       HT       0.417000       1.00800           0
     18456 W2       6152     TIP3     H2       HT       0.417000       1.00800           0
     18457 W2       6153     TIP3     OH2      OT      -0.834000       15.9994           0
     18458 W2       6153     TIP3     H1       HT       0.417000       1.00800           0
     18459 W2       6153     TIP3     H2       HT       0.417000       1.00800           0
     18460 W2       6154     TIP3     OH2      OT      -0.834000       15.9994           0
     18461 W2       6154     TIP3     H1       HT       0.417000       1.00800           0
     18462 W2       6154     TIP3     H2       HT       0.417000       1.00800           0
     18463 W2       6155     TIP3     OH2      OT      -0.834000       15.9994           0
     18464 W2       6155     TIP3     H1       HT       0.417000       1.00800           0
     18465 W2       6155     TIP3     H2       HT       0.417000       1.00800           0
     18466 W2       6156     TIP3     OH2      OT      -0.834000       15.9994           0
     18467 W2       6156     TIP3     H1       HT       0.417000       1.00800           0
     18468 W2       6156     TIP3     H2       HT       0.417000       1.00800           0
     18469 W2       6157     TIP3     OH2      OT      -0.834000       15.9994           0
     18470 W2       6157     TIP3     H1       HT       0.417000       1.00800           0
     18471 W2       6157     TIP3     H2       HT       0.417000       1.00800           0
     18472 W2       6158     TIP3     OH2      OT      -0.834000       15.9994           0
     18473 W2       6158     TIP3     H1       HT       0.417000       1.00800           0
     18474 W2       6158     TIP3     H2       HT       0.417000       1.00800           0
     18475 W2       6159     TIP3     OH2      OT      -0.834000       15.9994           0
     18476 W2       6159     TIP3     H1       HT       0.417000       1.00800           0
     18477 W2       6159     TIP3     H2       HT       0.417000       1.00800           0
     18478 W2       6160     TIP3     OH2      OT      -0.834000       15.9994           0
     18479 W2       6160     TIP3     H1       HT       0.417000       1.00800           0
     18480 W2       6160     TIP3     H2       HT       0.417000       1.00800           0
     18481 W2       6161     TIP3     OH2      OT      -0.834000       15.9994           0
     18482 W2       6161     TIP3     H1       HT       0.417000       1.00800           0
     18483 W2       6161     TIP3     H2       HT       0.417000       1.00800           0
     18484 W2       6162     TIP3     OH2      OT      -0.834000       15.9994           0
     18485 W2       6162     TIP3     H1       HT       0.417000       1.00800           0
     18486 W2       6162     TIP3     H2       HT       0.417000       1.00800           0
     18487 W2       6163     TIP3     OH2      OT      -0.834000       15.9994           0
     18488 W2       6163     TIP3     H1       HT       0.417000       1.00800           0
     18489 W2       6163     TIP3     H2       HT       0.417000       1.00800           0
     18490 W2       6164     TIP3     OH2      OT      -0.834000       15.9994           0
     18491 W2       6164     TIP3     H1       HT       0.417000       1.00800           0
     18492 W2       6164     TIP3     H2       HT       0.417000       1.00800           0
     18493 W2       6165     TIP3     OH2      OT      -0.834000       15.9994           0
     18494 W2       6165     TIP3     H1       HT       0.417000       1.00800           0
     18495 W2       6165     TIP3     H2       HT       0.417000       1.00800           0
     18496 W2       6166     TIP3     OH2      OT      -0.834000       15.9994           0
     18497 W2       6166     TIP3     H1       HT       0.417000       1.00800           0
     18498 W2       6166     TIP3     H2       HT       0.417000       1.00800           0
     18499 W2       6167     TIP3     OH2      OT      -0.834000       15.9994           0
     18500 W2       6167     TIP3     H1       HT       0.417000       1.00800           0
     18501 W2       6167     TIP3     H2       HT       0.417000       1.00800           0
     18502 W2       6168     TIP3     OH2      OT      -0.834000       15.9994           0
     18503 W2       6168     TIP3     H1       HT       0.417000       1.00800           0
     18504 W2       6168     TIP3     H2       HT       0.417000       1.00800           0
     18505 W2       6169     TIP3     OH2      OT      -0.834000       15.9994           0
     18506 W2       6169     TIP3     H1       HT       0.417000       1.00800           0
     18507 W2       6169     TIP3     H2       HT       0.417000       1.00800           0
     18508 W2       6170     TIP3     OH2      OT      -0.834000       15.9994           0
     18509 W2       6170     TIP3     H1       HT       0.417000       1.00800           0
     18510 W2       6170     TIP3     H2       HT       0.417000       1.00800           0
     18511 W2       6171     TIP3     OH2      OT      -0.834000       15.9994           0
     18512 W2       6171     TIP3     H1       HT       0.417000       1.00800           0
     18513 W2       6171     TIP3     H2       HT       0.417000       1.00800           0
     18514 W2       6172     TIP3     OH2      OT      -0.834000       15.9994           0
     18515 W2       6172     TIP3     H1       HT       0.417000       1.00800           0
     18516 W2       6172     TIP3     H2       HT       0.417000       1.00800           0
     18517 W2       6173     TIP3     OH2      OT      -0.834000       15.9994           0
     18518 W2       6173     TIP3     H1       HT       0.417000       1.00800           0
     18519 W2       6173     TIP3     H2       HT       0.417000       1.00800           0
     18520 W2       6174     TIP3     OH2      OT      -0.834000       15.9994           0
     18521 W2       6174     TIP3     H1       HT       0.417000       1.00800           0
     18522 W2       6174     TIP3     H2       HT       0.417000       1.00800           0
     18523 W2       6175     TIP3     OH2      OT      -0.834000       15.9994           0
     18524 W2       6175     TIP3     H1       HT       0.417000       1.00800           0
     18525 W2       6175     TIP3     H2       HT       0.417000       1.00800           0
     18526 W2       6176     TIP3     OH2      OT      -0.834000       15.9994           0
     18527 W2       6176     TIP3     H1       HT       0.417000       1.00800           0
     18528 W2       6176     TIP3     H2       HT       0.417000       1.00800           0
     18529 W2       6177     TIP3     OH2      OT      -0.834000       15.9994           0
     18530 W2       6177     TIP3     H1       HT       0.417000       1.00800           0
     18531 W2       6177     TIP3     H2       HT       0.417000       1.00800           0
     18532 W2       6178     TIP3     OH2      OT      -0.834000       15.9994           0
     18533 W2       6178     TIP3     H1       HT       0.417000       1.00800           0
     18534 W2       6178     TIP3     H2       HT       0.417000       1.00800           0
     18535 W2       6179     TIP3     OH2      OT      -0.834000       15.9994           0
     18536 W2       6179     TIP3     H1       HT       0.417000       1.00800           0
     18537 W2       6179     TIP3     H2       HT       0.417000       1.00800           0
     18538 W2       6180     TIP3     OH2      OT      -0.834000       15.9994           0
     18539 W2       6180     TIP3     H1       HT       0.417000       1.00800           0
     18540 W2       6180     TIP3     H2       HT       0.417000       1.00800           0
     18541 W2       6181     TIP3     OH2      OT      -0.834000       15.9994           0
     18542 W2       6181     TIP3     H1       HT       0.417000       1.00800           0
     18543 W2       6181     TIP3     H2       HT       0.417000       1.00800           0
     18544 W2       6182     TIP3     OH2      OT      -0.834000       15.9994           0
     18545 W2       6182     TIP3     H1       HT       0.417000       1.00800           0
     18546 W2       6182     TIP3     H2       HT       0.417000       1.00800           0
     18547 W2       6183     TIP3     OH2      OT      -0.834000       15.9994           0
     18548 W2       6183     TIP3     H1       HT       0.417000       1.00800           0
     18549 W2       6183     TIP3     H2       HT       0.417000       1.00800           0
     18550 W2       6184     TIP3     OH2      OT      -0.834000       15.9994           0
     18551 W2       6184     TIP3     H1       HT       0.417000       1.00800           0
     18552 W2       6184     TIP3     H2       HT       0.417000       1.00800           0
     18553 W2       6185     TIP3     OH2      OT      -0.834000       15.9994           0
     18554 W2       6185     TIP3     H1       HT       0.417000       1.00800           0
     18555 W2       6185     TIP3     H2       HT       0.417000       1.00800           0
     18556 W2       6186     TIP3     OH2      OT      -0.834000       15.9994           0
     18557 W2       6186     TIP3     H1       HT       0.417000       1.00800           0
     18558 W2       6186     TIP3     H2       HT       0.417000       1.00800           0
     18559 W2       6187     TIP3     OH2      OT      -0.834000       15.9994           0
     18560 W2       6187     TIP3     H1       HT       0.417000       1.00800           0
     18561 W2       6187     TIP3     H2       HT       0.417000       1.00800           0
     18562 W2       6188     TIP3     OH2      OT      -0.834000       15.9994           0
     18563 W2       6188     TIP3     H1       HT       0.417000       1.00800           0
     18564 W2       6188     TIP3     H2       HT       0.417000       1.00800           0
     18565 W2       6189     TIP3     OH2      OT      -0.834000       15.9994           0
     18566 W2       6189     TIP3     H1       HT       0.417000       1.00800           0
     18567 W2       6189     TIP3     H2       HT       0.417000       1.00800           0
     18568 W2       6190     TIP3     OH2      OT      -0.834000       15.9994           0
     18569 W2       6190     TIP3     H1       HT       0.417000       1.00800           0
     18570 W2       6190     TIP3     H2       HT       0.417000       1.00800           0
     18571 W2       6191     TIP3     OH2      OT      -0.834000       15.9994           0
     18572 W2       6191     TIP3     H1       HT       0.417000       1.00800           0
     18573 W2       6191     TIP3     H2       HT       0.417000       1.00800           0
     18574 W2       6192     TIP3     OH2      OT      -0.834000       15.9994           0
     18575 W2       6192     TIP3     H1       HT       0.417000       1.00800           0
     18576 W2       6192     TIP3     H2       HT       0.417000       1.00800           0
     18577 W2       6193     TIP3     OH2      OT      -0.834000       15.9994           0
     18578 W2       6193     TIP3     H1       HT       0.417000       1.00800           0
     18579 W2       6193     TIP3     H2       HT       0.417000       1.00800           0
     18580 W2       6194     TIP3     OH2      OT      -0.834000       15.9994           0
     18581 W2       6194     TIP3     H1       HT       0.417000       1.00800           0
     18582 W2       6194     TIP3     H2       HT       0.417000       1.00800           0
     18583 W2       6195     TIP3     OH2      OT      -0.834000       15.9994           0
     18584 W2       6195     TIP3     H1       HT       0.417000       1.00800           0
     18585 W2       6195     TIP3     H2       HT       0.417000       1.00800           0
     18586 W2       6196     TIP3     OH2      OT      -0.834000       15.9994           0
     18587 W2       6196     TIP3     H1       HT       0.417000       1.00800           0
     18588 W2       6196     TIP3     H2       HT       0.417000       1.00800           0
     18589 W2       6197     TIP3     OH2      OT      -0.834000       15.9994           0
     18590 W2       6197     TIP3     H1       HT       0.417000       1.00800           0
     18591 W2       6197     TIP3     H2       HT       0.417000       1.00800           0
     18592 W2       6198     TIP3     OH2      OT      -0.834000       15.9994           0
     18593 W2       6198     TIP3     H1       HT       0.417000       1.00800           0
     18594 W2       6198     TIP3     H2       HT       0.417000       1.00800           0
     18595 W2       6199     TIP3     OH2      OT      -0.834000       15.9994           0
     18596 W2       6199     TIP3     H1       HT       0.417000       1.00800           0
     18597 W2       6199     TIP3     H2       HT       0.417000       1.00800           0
     18598 W2       6200     TIP3     OH2      OT      -0.834000       15.9994           0
     18599 W2       6200     TIP3     H1       HT       0.417000       1.00800           0
     18600 W2       6200     TIP3     H2       HT       0.417000       1.00800           0
     18601 W2       6201     TIP3     OH2      OT      -0.834000       15.9994           0
     18602 W2       6201     TIP3     H1       HT       0.417000       1.00800           0
     18603 W2       6201     TIP3     H2       HT       0.417000       1.00800           0
     18604 W2       6202     TIP3     OH2      OT      -0.834000       15.9994           0
     18605 W2       6202     TIP3     H1       HT       0.417000       1.00800           0
     18606 W2       6202     TIP3     H2       HT       0.417000       1.00800           0
     18607 W2       6203     TIP3     OH2      OT      -0.834000       15.9994           0
     18608 W2       6203     TIP3     H1       HT       0.417000       1.00800           0
     18609 W2       6203     TIP3     H2       HT       0.417000       1.00800           0
     18610 W2       6204     TIP3     OH2      OT      -0.834000       15.9994           0
     18611 W2       6204     TIP3     H1       HT       0.417000       1.00800           0
     18612 W2       6204     TIP3     H2       HT       0.417000       1.00800           0
     18613 W2       6205     TIP3     OH2      OT      -0.834000       15.9994           0
     18614 W2       6205     TIP3     H1       HT       0.417000       1.00800           0
     18615 W2       6205     TIP3     H2       HT       0.417000       1.00800           0
     18616 W2       6206     TIP3     OH2      OT      -0.834000       15.9994           0
     18617 W2       6206     TIP3     H1       HT       0.417000       1.00800           0
     18618 W2       6206     TIP3     H2       HT       0.417000       1.00800           0
     18619 W2       6207     TIP3     OH2      OT      -0.834000       15.9994           0
     18620 W2       6207     TIP3     H1       HT       0.417000       1.00800           0
     18621 W2       6207     TIP3     H2       HT       0.417000       1.00800           0
     18622 W2       6208     TIP3     OH2      OT      -0.834000       15.9994           0
     18623 W2       6208     TIP3     H1       HT       0.417000       1.00800           0
     18624 W2       6208     TIP3     H2       HT       0.417000       1.00800           0
     18625 W2       6209     TIP3     OH2      OT      -0.834000       15.9994           0
     18626 W2       6209     TIP3     H1       HT       0.417000       1.00800           0
     18627 W2       6209     TIP3     H2       HT       0.417000       1.00800           0
     18628 W2       6210     TIP3     OH2      OT      -0.834000       15.9994           0
     18629 W2       6210     TIP3     H1       HT       0.417000       1.00800           0
     18630 W2       6210     TIP3     H2       HT       0.417000       1.00800           0
     18631 W2       6211     TIP3     OH2      OT      -0.834000       15.9994           0
     18632 W2       6211     TIP3     H1       HT       0.417000       1.00800           0
     18633 W2       6211     TIP3     H2       HT       0.417000       1.00800           0
     18634 W2       6212     TIP3     OH2      OT      -0.834000       15.9994           0
     18635 W2       6212     TIP3     H1       HT       0.417000       1.00800           0
     18636 W2       6212     TIP3     H2       HT       0.417000       1.00800           0
     18637 W2       6213     TIP3     OH2      OT      -0.834000       15.9994           0
     18638 W2       6213     TIP3     H1       HT       0.417000       1.00800           0
     18639 W2       6213     TIP3     H2       HT       0.417000       1.00800           0
     18640 W2       6214     TIP3     OH2      OT      -0.834000       15.9994           0
     18641 W2       6214     TIP3     H1       HT       0.417000       1.00800           0
     18642 W2       6214     TIP3     H2       HT       0.417000       1.00800           0
     18643 W2       6215     TIP3     OH2      OT      -0.834000       15.9994           0
     18644 W2       6215     TIP3     H1       HT       0.417000       1.00800           0
     18645 W2       6215     TIP3     H2       HT       0.417000       1.00800           0
     18646 W2       6216     TIP3     OH2      OT      -0.834000       15.9994           0
     18647 W2       6216     TIP3     H1       HT       0.417000       1.00800           0
     18648 W2       6216     TIP3     H2       HT       0.417000       1.00800           0
     18649 W2       6217     TIP3     OH2      OT      -0.834000       15.9994           0
     18650 W2       6217     TIP3     H1       HT       0.417000       1.00800           0
     18651 W2       6217     TIP3     H2       HT       0.417000       1.00800           0
     18652 W2       6218     TIP3     OH2      OT      -0.834000       15.9994           0
     18653 W2       6218     TIP3     H1       HT       0.417000       1.00800           0
     18654 W2       6218     TIP3     H2       HT       0.417000       1.00800           0
     18655 W2       6219     TIP3     OH2      OT      -0.834000       15.9994           0
     18656 W2       6219     TIP3     H1       HT       0.417000       1.00800           0
     18657 W2       6219     TIP3     H2       HT       0.417000       1.00800           0
     18658 W2       6220     TIP3     OH2      OT      -0.834000       15.9994           0
     18659 W2       6220     TIP3     H1       HT       0.417000       1.00800           0
     18660 W2       6220     TIP3     H2       HT       0.417000       1.00800           0
     18661 W2       6221     TIP3     OH2      OT      -0.834000       15.9994           0
     18662 W2       6221     TIP3     H1       HT       0.417000       1.00800           0
     18663 W2       6221     TIP3     H2       HT       0.417000       1.00800           0
     18664 W2       6222     TIP3     OH2      OT      -0.834000       15.9994           0
     18665 W2       6222     TIP3     H1       HT       0.417000       1.00800           0
     18666 W2       6222     TIP3     H2       HT       0.417000       1.00800           0
     18667 W2       6223     TIP3     OH2      OT      -0.834000       15.9994           0
     18668 W2       6223     TIP3     H1       HT       0.417000       1.00800           0
     18669 W2       6223     TIP3     H2       HT       0.417000       1.00800           0
     18670 W2       6224     TIP3     OH2      OT      -0.834000       15.9994           0
     18671 W2       6224     TIP3     H1       HT       0.417000       1.00800           0
     18672 W2       6224     TIP3     H2       HT       0.417000       1.00800           0
     18673 W2       6225     TIP3     OH2      OT      -0.834000       15.9994           0
     18674 W2       6225     TIP3     H1       HT       0.417000       1.00800           0
     18675 W2       6225     TIP3     H2       HT       0.417000       1.00800           0
     18676 W2       6226     TIP3     OH2      OT      -0.834000       15.9994           0
     18677 W2       6226     TIP3     H1       HT       0.417000       1.00800           0
     18678 W2       6226     TIP3     H2       HT       0.417000       1.00800           0
     18679 W2       6227     TIP3     OH2      OT      -0.834000       15.9994           0
     18680 W2       6227     TIP3     H1       HT       0.417000       1.00800           0
     18681 W2       6227     TIP3     H2       HT       0.417000       1.00800           0
     18682 W2       6228     TIP3     OH2      OT      -0.834000       15.9994           0
     18683 W2       6228     TIP3     H1       HT       0.417000       1.00800           0
     18684 W2       6228     TIP3     H2       HT       0.417000       1.00800           0
     18685 W2       6229     TIP3     OH2      OT      -0.834000       15.9994           0
     18686 W2       6229     TIP3     H1       HT       0.417000       1.00800           0
     18687 W2       6229     TIP3     H2       HT       0.417000       1.00800           0
     18688 W2       6230     TIP3     OH2      OT      -0.834000       15.9994           0
     18689 W2       6230     TIP3     H1       HT       0.417000       1.00800           0
     18690 W2       6230     TIP3     H2       HT       0.417000       1.00800           0
     18691 W2       6231     TIP3     OH2      OT      -0.834000       15.9994           0
     18692 W2       6231     TIP3     H1       HT       0.417000       1.00800           0
     18693 W2       6231     TIP3     H2       HT       0.417000       1.00800           0
     18694 W2       6232     TIP3     OH2      OT      -0.834000       15.9994           0
     18695 W2       6232     TIP3     H1       HT       0.417000       1.00800           0
     18696 W2       6232     TIP3     H2       HT       0.417000       1.00800           0
     18697 W2       6233     TIP3     OH2      OT      -0.834000       15.9994           0
     18698 W2       6233     TIP3     H1       HT       0.417000       1.00800           0
     18699 W2       6233     TIP3     H2       HT       0.417000       1.00800           0
     18700 W2       6234     TIP3     OH2      OT      -0.834000       15.9994           0
     18701 W2       6234     TIP3     H1       HT       0.417000       1.00800           0
     18702 W2       6234     TIP3     H2       HT       0.417000       1.00800           0
     18703 W2       6235     TIP3     OH2      OT      -0.834000       15.9994           0
     18704 W2       6235     TIP3     H1       HT       0.417000       1.00800           0
     18705 W2       6235     TIP3     H2       HT       0.417000       1.00800           0
     18706 W2       6236     TIP3     OH2      OT      -0.834000       15.9994           0
     18707 W2       6236     TIP3     H1       HT       0.417000       1.00800           0
     18708 W2       6236     TIP3     H2       HT       0.417000       1.00800           0
     18709 W2       6237     TIP3     OH2      OT      -0.834000       15.9994           0
     18710 W2       6237     TIP3     H1       HT       0.417000       1.00800           0
     18711 W2       6237     TIP3     H2       HT       0.417000       1.00800           0
     18712 W2       6238     TIP3     OH2      OT      -0.834000       15.9994           0
     18713 W2       6238     TIP3     H1       HT       0.417000       1.00800           0
     18714 W2       6238     TIP3     H2       HT       0.417000       1.00800           0
     18715 W2       6239     TIP3     OH2      OT      -0.834000       15.9994           0
     18716 W2       6239     TIP3     H1       HT       0.417000       1.00800           0
     18717 W2       6239     TIP3     H2       HT       0.417000       1.00800           0
     18718 W2       6240     TIP3     OH2      OT      -0.834000       15.9994           0
     18719 W2       6240     TIP3     H1       HT       0.417000       1.00800           0
     18720 W2       6240     TIP3     H2       HT       0.417000       1.00800           0
     18721 W2       6241     TIP3     OH2      OT      -0.834000       15.9994           0
     18722 W2       6241     TIP3     H1       HT       0.417000       1.00800           0
     18723 W2       6241     TIP3     H2       HT       0.417000       1.00800           0
     18724 W2       6242     TIP3     OH2      OT      -0.834000       15.9994           0
     18725 W2       6242     TIP3     H1       HT       0.417000       1.00800           0
     18726 W2       6242     TIP3     H2       HT       0.417000       1.00800           0
     18727 W2       6243     TIP3     OH2      OT      -0.834000       15.9994           0
     18728 W2       6243     TIP3     H1       HT       0.417000       1.00800           0
     18729 W2       6243     TIP3     H2       HT       0.417000       1.00800           0
     18730 W2       6244     TIP3     OH2      OT      -0.834000       15.9994           0
     18731 W2       6244     TIP3     H1       HT       0.417000       1.00800           0
     18732 W2       6244     TIP3     H2       HT       0.417000       1.00800           0
     18733 W2       6245     TIP3     OH2      OT      -0.834000       15.9994           0
     18734 W2       6245     TIP3     H1       HT       0.417000       1.00800           0
     18735 W2       6245     TIP3     H2       HT       0.417000       1.00800           0
     18736 W2       6246     TIP3     OH2      OT      -0.834000       15.9994           0
     18737 W2       6246     TIP3     H1       HT       0.417000       1.00800           0
     18738 W2       6246     TIP3     H2       HT       0.417000       1.00800           0
     18739 W2       6247     TIP3     OH2      OT      -0.834000       15.9994           0
     18740 W2       6247     TIP3     H1       HT       0.417000       1.00800           0
     18741 W2       6247     TIP3     H2       HT       0.417000       1.00800           0
     18742 W2       6248     TIP3     OH2      OT      -0.834000       15.9994           0
     18743 W2       6248     TIP3     H1       HT       0.417000       1.00800           0
     18744 W2       6248     TIP3     H2       HT       0.417000       1.00800           0
     18745 W2       6249     TIP3     OH2      OT      -0.834000       15.9994           0
     18746 W2       6249     TIP3     H1       HT       0.417000       1.00800           0
     18747 W2       6249     TIP3     H2       HT       0.417000       1.00800           0
     18748 W2       6250     TIP3     OH2      OT      -0.834000       15.9994           0
     18749 W2       6250     TIP3     H1       HT       0.417000       1.00800           0
     18750 W2       6250     TIP3     H2       HT       0.417000       1.00800           0
     18751 W2       6251     TIP3     OH2      OT      -0.834000       15.9994           0
     18752 W2       6251     TIP3     H1       HT       0.417000       1.00800           0
     18753 W2       6251     TIP3     H2       HT       0.417000       1.00800           0
     18754 W2       6252     TIP3     OH2      OT      -0.834000       15.9994           0
     18755 W2       6252     TIP3     H1       HT       0.417000       1.00800           0
     18756 W2       6252     TIP3     H2       HT       0.417000       1.00800           0
     18757 W2       6253     TIP3     OH2      OT      -0.834000       15.9994           0
     18758 W2       6253     TIP3     H1       HT       0.417000       1.00800           0
     18759 W2       6253     TIP3     H2       HT       0.417000       1.00800           0
     18760 W2       6254     TIP3     OH2      OT      -0.834000       15.9994           0
     18761 W2       6254     TIP3     H1       HT       0.417000       1.00800           0
     18762 W2       6254     TIP3     H2       HT       0.417000       1.00800           0
     18763 W2       6255     TIP3     OH2      OT      -0.834000       15.9994           0
     18764 W2       6255     TIP3     H1       HT       0.417000       1.00800           0
     18765 W2       6255     TIP3     H2       HT       0.417000       1.00800           0
     18766 W2       6256     TIP3     OH2      OT      -0.834000       15.9994           0
     18767 W2       6256     TIP3     H1       HT       0.417000       1.00800           0
     18768 W2       6256     TIP3     H2       HT       0.417000       1.00800           0
     18769 W2       6257     TIP3     OH2      OT      -0.834000       15.9994           0
     18770 W2       6257     TIP3     H1       HT       0.417000       1.00800           0
     18771 W2       6257     TIP3     H2       HT       0.417000       1.00800           0
     18772 W2       6258     TIP3     OH2      OT      -0.834000       15.9994           0
     18773 W2       6258     TIP3     H1       HT       0.417000       1.00800           0
     18774 W2       6258     TIP3     H2       HT       0.417000       1.00800           0
     18775 W2       6259     TIP3     OH2      OT      -0.834000       15.9994           0
     18776 W2       6259     TIP3     H1       HT       0.417000       1.00800           0
     18777 W2       6259     TIP3     H2       HT       0.417000       1.00800           0
     18778 W2       6260     TIP3     OH2      OT      -0.834000       15.9994           0
     18779 W2       6260     TIP3     H1       HT       0.417000       1.00800           0
     18780 W2       6260     TIP3     H2       HT       0.417000       1.00800           0
     18781 W2       6261     TIP3     OH2      OT      -0.834000       15.9994           0
     18782 W2       6261     TIP3     H1       HT       0.417000       1.00800           0
     18783 W2       6261     TIP3     H2       HT       0.417000       1.00800           0
     18784 W2       6262     TIP3     OH2      OT      -0.834000       15.9994           0
     18785 W2       6262     TIP3     H1       HT       0.417000       1.00800           0
     18786 W2       6262     TIP3     H2       HT       0.417000       1.00800           0
     18787 W2       6263     TIP3     OH2      OT      -0.834000       15.9994           0
     18788 W2       6263     TIP3     H1       HT       0.417000       1.00800           0
     18789 W2       6263     TIP3     H2       HT       0.417000       1.00800           0
     18790 W2       6264     TIP3     OH2      OT      -0.834000       15.9994           0
     18791 W2       6264     TIP3     H1       HT       0.417000       1.00800           0
     18792 W2       6264     TIP3     H2       HT       0.417000       1.00800           0
     18793 W2       6265     TIP3     OH2      OT      -0.834000       15.9994           0
     18794 W2       6265     TIP3     H1       HT       0.417000       1.00800           0
     18795 W2       6265     TIP3     H2       HT       0.417000       1.00800           0
     18796 W2       6266     TIP3     OH2      OT      -0.834000       15.9994           0
     18797 W2       6266     TIP3     H1       HT       0.417000       1.00800           0
     18798 W2       6266     TIP3     H2       HT       0.417000       1.00800           0
     18799 W2       6267     TIP3     OH2      OT      -0.834000       15.9994           0
     18800 W2       6267     TIP3     H1       HT       0.417000       1.00800           0
     18801 W2       6267     TIP3     H2       HT       0.417000       1.00800           0
     18802 W2       6268     TIP3     OH2      OT      -0.834000       15.9994           0
     18803 W2       6268     TIP3     H1       HT       0.417000       1.00800           0
     18804 W2       6268     TIP3     H2       HT       0.417000       1.00800           0
     18805 W2       6269     TIP3     OH2      OT      -0.834000       15.9994           0
     18806 W2       6269     TIP3     H1       HT       0.417000       1.00800           0
     18807 W2       6269     TIP3     H2       HT       0.417000       1.00800           0
     18808 W2       6270     TIP3     OH2      OT      -0.834000       15.9994           0
     18809 W2       6270     TIP3     H1       HT       0.417000       1.00800           0
     18810 W2       6270     TIP3     H2       HT       0.417000       1.00800           0
     18811 W2       6271     TIP3     OH2      OT      -0.834000       15.9994           0
     18812 W2       6271     TIP3     H1       HT       0.417000       1.00800           0
     18813 W2       6271     TIP3     H2       HT       0.417000       1.00800           0
     18814 W2       6272     TIP3     OH2      OT      -0.834000       15.9994           0
     18815 W2       6272     TIP3     H1       HT       0.417000       1.00800           0
     18816 W2       6272     TIP3     H2       HT       0.417000       1.00800           0
     18817 W2       6273     TIP3     OH2      OT      -0.834000       15.9994           0
     18818 W2       6273     TIP3     H1       HT       0.417000       1.00800           0
     18819 W2       6273     TIP3     H2       HT       0.417000       1.00800           0
     18820 W2       6274     TIP3     OH2      OT      -0.834000       15.9994           0
     18821 W2       6274     TIP3     H1       HT       0.417000       1.00800           0
     18822 W2       6274     TIP3     H2       HT       0.417000       1.00800           0
     18823 W2       6275     TIP3     OH2      OT      -0.834000       15.9994           0
     18824 W2       6275     TIP3     H1       HT       0.417000       1.00800           0
     18825 W2       6275     TIP3     H2       HT       0.417000       1.00800           0
     18826 W2       6276     TIP3     OH2      OT      -0.834000       15.9994           0
     18827 W2       6276     TIP3     H1       HT       0.417000       1.00800           0
     18828 W2       6276     TIP3     H2       HT       0.417000       1.00800           0
     18829 W2       6277     TIP3     OH2      OT      -0.834000       15.9994           0
     18830 W2       6277     TIP3     H1       HT       0.417000       1.00800           0
     18831 W2       6277     TIP3     H2       HT       0.417000       1.00800           0
     18832 W2       6278     TIP3     OH2      OT      -0.834000       15.9994           0
     18833 W2       6278     TIP3     H1       HT       0.417000       1.00800           0
     18834 W2       6278     TIP3     H2       HT       0.417000       1.00800           0
     18835 W2       6279     TIP3     OH2      OT      -0.834000       15.9994           0
     18836 W2       6279     TIP3     H1       HT       0.417000       1.00800           0
     18837 W2       6279     TIP3     H2       HT       0.417000       1.00800           0
     18838 W2       6280     TIP3     OH2      OT      -0.834000       15.9994           0
     18839 W2       6280     TIP3     H1       HT       0.417000       1.00800           0
     18840 W2       6280     TIP3     H2       HT       0.417000       1.00800           0
     18841 W2       6281     TIP3     OH2      OT      -0.834000       15.9994           0
     18842 W2       6281     TIP3     H1       HT       0.417000       1.00800           0
     18843 W2       6281     TIP3     H2       HT       0.417000       1.00800           0
     18844 W2       6282     TIP3     OH2      OT      -0.834000       15.9994           0
     18845 W2       6282     TIP3     H1       HT       0.417000       1.00800           0
     18846 W2       6282     TIP3     H2       HT       0.417000       1.00800           0
     18847 W2       6283     TIP3     OH2      OT      -0.834000       15.9994           0
     18848 W2       6283     TIP3     H1       HT       0.417000       1.00800           0
     18849 W2       6283     TIP3     H2       HT       0.417000       1.00800           0
     18850 W2       6284     TIP3     OH2      OT      -0.834000       15.9994           0
     18851 W2       6284     TIP3     H1       HT       0.417000       1.00800           0
     18852 W2       6284     TIP3     H2       HT       0.417000       1.00800           0
     18853 W2       6285     TIP3     OH2      OT      -0.834000       15.9994           0
     18854 W2       6285     TIP3     H1       HT       0.417000       1.00800           0
     18855 W2       6285     TIP3     H2       HT       0.417000       1.00800           0
     18856 W2       6286     TIP3     OH2      OT      -0.834000       15.9994           0
     18857 W2       6286     TIP3     H1       HT       0.417000       1.00800           0
     18858 W2       6286     TIP3     H2       HT       0.417000       1.00800           0
     18859 W2       6287     TIP3     OH2      OT      -0.834000       15.9994           0
     18860 W2       6287     TIP3     H1       HT       0.417000       1.00800           0
     18861 W2       6287     TIP3     H2       HT       0.417000       1.00800           0
     18862 W2       6288     TIP3     OH2      OT      -0.834000       15.9994           0
     18863 W2       6288     TIP3     H1       HT       0.417000       1.00800           0
     18864 W2       6288     TIP3     H2       HT       0.417000       1.00800           0
     18865 W2       6289     TIP3     OH2      OT      -0.834000       15.9994           0
     18866 W2       6289     TIP3     H1       HT       0.417000       1.00800           0
     18867 W2       6289     TIP3     H2       HT       0.417000       1.00800           0
     18868 W2       6290     TIP3     OH2      OT      -0.834000       15.9994           0
     18869 W2       6290     TIP3     H1       HT       0.417000       1.00800           0
     18870 W2       6290     TIP3     H2       HT       0.417000       1.00800           0
     18871 W2       6291     TIP3     OH2      OT      -0.834000       15.9994           0
     18872 W2       6291     TIP3     H1       HT       0.417000       1.00800           0
     18873 W2       6291     TIP3     H2       HT       0.417000       1.00800           0
     18874 W2       6292     TIP3     OH2      OT      -0.834000       15.9994           0
     18875 W2       6292     TIP3     H1       HT       0.417000       1.00800           0
     18876 W2       6292     TIP3     H2       HT       0.417000       1.00800           0
     18877 W2       6293     TIP3     OH2      OT      -0.834000       15.9994           0
     18878 W2       6293     TIP3     H1       HT       0.417000       1.00800           0
     18879 W2       6293     TIP3     H2       HT       0.417000       1.00800           0
     18880 W2       6294     TIP3     OH2      OT      -0.834000       15.9994           0
     18881 W2       6294     TIP3     H1       HT       0.417000       1.00800           0
     18882 W2       6294     TIP3     H2       HT       0.417000       1.00800           0
     18883 W2       6295     TIP3     OH2      OT      -0.834000       15.9994           0
     18884 W2       6295     TIP3     H1       HT       0.417000       1.00800           0
     18885 W2       6295     TIP3     H2       HT       0.417000       1.00800           0
     18886 W2       6296     TIP3     OH2      OT      -0.834000       15.9994           0
     18887 W2       6296     TIP3     H1       HT       0.417000       1.00800           0
     18888 W2       6296     TIP3     H2       HT       0.417000       1.00800           0
     18889 W2       6297     TIP3     OH2      OT      -0.834000       15.9994           0
     18890 W2       6297     TIP3     H1       HT       0.417000       1.00800           0
     18891 W2       6297     TIP3     H2       HT       0.417000       1.00800           0
     18892 W2       6298     TIP3     OH2      OT      -0.834000       15.9994           0
     18893 W2       6298     TIP3     H1       HT       0.417000       1.00800           0
     18894 W2       6298     TIP3     H2       HT       0.417000       1.00800           0
     18895 W2       6299     TIP3     OH2      OT      -0.834000       15.9994           0
     18896 W2       6299     TIP3     H1       HT       0.417000       1.00800           0
     18897 W2       6299     TIP3     H2       HT       0.417000       1.00800           0
     18898 W2       6300     TIP3     OH2      OT      -0.834000       15.9994           0
     18899 W2       6300     TIP3     H1       HT       0.417000       1.00800           0
     18900 W2       6300     TIP3     H2       HT       0.417000       1.00800           0
     18901 W2       6301     TIP3     OH2      OT      -0.834000       15.9994           0
     18902 W2       6301     TIP3     H1       HT       0.417000       1.00800           0
     18903 W2       6301     TIP3     H2       HT       0.417000       1.00800           0
     18904 W2       6302     TIP3     OH2      OT      -0.834000       15.9994           0
     18905 W2       6302     TIP3     H1       HT       0.417000       1.00800           0
     18906 W2       6302     TIP3     H2       HT       0.417000       1.00800           0
     18907 W2       6303     TIP3     OH2      OT      -0.834000       15.9994           0
     18908 W2       6303     TIP3     H1       HT       0.417000       1.00800           0
     18909 W2       6303     TIP3     H2       HT       0.417000       1.00800           0
     18910 W2       6304     TIP3     OH2      OT      -0.834000       15.9994           0
     18911 W2       6304     TIP3     H1       HT       0.417000       1.00800           0
     18912 W2       6304     TIP3     H2       HT       0.417000       1.00800           0
     18913 W2       6305     TIP3     OH2      OT      -0.834000       15.9994           0
     18914 W2       6305     TIP3     H1       HT       0.417000       1.00800           0
     18915 W2       6305     TIP3     H2       HT       0.417000       1.00800           0
     18916 W2       6306     TIP3     OH2      OT      -0.834000       15.9994           0
     18917 W2       6306     TIP3     H1       HT       0.417000       1.00800           0
     18918 W2       6306     TIP3     H2       HT       0.417000       1.00800           0
     18919 W2       6307     TIP3     OH2      OT      -0.834000       15.9994           0
     18920 W2       6307     TIP3     H1       HT       0.417000       1.00800           0
     18921 W2       6307     TIP3     H2       HT       0.417000       1.00800           0
     18922 W2       6308     TIP3     OH2      OT      -0.834000       15.9994           0
     18923 W2       6308     TIP3     H1       HT       0.417000       1.00800           0
     18924 W2       6308     TIP3     H2       HT       0.417000       1.00800           0
     18925 W2       6309     TIP3     OH2      OT      -0.834000       15.9994           0
     18926 W2       6309     TIP3     H1       HT       0.417000       1.00800           0
     18927 W2       6309     TIP3     H2       HT       0.417000       1.00800           0
     18928 W2       6310     TIP3     OH2      OT      -0.834000       15.9994           0
     18929 W2       6310     TIP3     H1       HT       0.417000       1.00800           0
     18930 W2       6310     TIP3     H2       HT       0.417000       1.00800           0
     18931 W2       6311     TIP3     OH2      OT      -0.834000       15.9994           0
     18932 W2       6311     TIP3     H1       HT       0.417000       1.00800           0
     18933 W2       6311     TIP3     H2       HT       0.417000       1.00800           0
     18934 W2       6312     TIP3     OH2      OT      -0.834000       15.9994           0
     18935 W2       6312     TIP3     H1       HT       0.417000       1.00800           0
     18936 W2       6312     TIP3     H2       HT       0.417000       1.00800           0
     18937 W2       6313     TIP3     OH2      OT      -0.834000       15.9994           0
     18938 W2       6313     TIP3     H1       HT       0.417000       1.00800           0
     18939 W2       6313     TIP3     H2       HT       0.417000       1.00800           0
     18940 W2       6314     TIP3     OH2      OT      -0.834000       15.9994           0
     18941 W2       6314     TIP3     H1       HT       0.417000       1.00800           0
     18942 W2       6314     TIP3     H2       HT       0.417000       1.00800           0
     18943 W2       6315     TIP3     OH2      OT      -0.834000       15.9994           0
     18944 W2       6315     TIP3     H1       HT       0.417000       1.00800           0
     18945 W2       6315     TIP3     H2       HT       0.417000       1.00800           0
     18946 W2       6316     TIP3     OH2      OT      -0.834000       15.9994           0
     18947 W2       6316     TIP3     H1       HT       0.417000       1.00800           0
     18948 W2       6316     TIP3     H2       HT       0.417000       1.00800           0
     18949 W2       6317     TIP3     OH2      OT      -0.834000       15.9994           0
     18950 W2       6317     TIP3     H1       HT       0.417000       1.00800           0
     18951 W2       6317     TIP3     H2       HT       0.417000       1.00800           0
     18952 W2       6318     TIP3     OH2      OT      -0.834000       15.9994           0
     18953 W2       6318     TIP3     H1       HT       0.417000       1.00800           0
     18954 W2       6318     TIP3     H2       HT       0.417000       1.00800           0
     18955 W2       6319     TIP3     OH2      OT      -0.834000       15.9994           0
     18956 W2       6319     TIP3     H1       HT       0.417000       1.00800           0
     18957 W2       6319     TIP3     H2       HT       0.417000       1.00800           0
     18958 W2       6320     TIP3     OH2      OT      -0.834000       15.9994           0
     18959 W2       6320     TIP3     H1       HT       0.417000       1.00800           0
     18960 W2       6320     TIP3     H2       HT       0.417000       1.00800           0
     18961 W2       6321     TIP3     OH2      OT      -0.834000       15.9994           0
     18962 W2       6321     TIP3     H1       HT       0.417000       1.00800           0
     18963 W2       6321     TIP3     H2       HT       0.417000       1.00800           0
     18964 W2       6322     TIP3     OH2      OT      -0.834000       15.9994           0
     18965 W2       6322     TIP3     H1       HT       0.417000       1.00800           0
     18966 W2       6322     TIP3     H2       HT       0.417000       1.00800           0
     18967 W2       6323     TIP3     OH2      OT      -0.834000       15.9994           0
     18968 W2       6323     TIP3     H1       HT       0.417000       1.00800           0
     18969 W2       6323     TIP3     H2       HT       0.417000       1.00800           0
     18970 W2       6324     TIP3     OH2      OT      -0.834000       15.9994           0
     18971 W2       6324     TIP3     H1       HT       0.417000       1.00800           0
     18972 W2       6324     TIP3     H2       HT       0.417000       1.00800           0
     18973 W2       6325     TIP3     OH2      OT      -0.834000       15.9994           0
     18974 W2       6325     TIP3     H1       HT       0.417000       1.00800           0
     18975 W2       6325     TIP3     H2       HT       0.417000       1.00800           0
     18976 W2       6326     TIP3     OH2      OT      -0.834000       15.9994           0
     18977 W2       6326     TIP3     H1       HT       0.417000       1.00800           0
     18978 W2       6326     TIP3     H2       HT       0.417000       1.00800           0
     18979 W2       6327     TIP3     OH2      OT      -0.834000       15.9994           0
     18980 W2       6327     TIP3     H1       HT       0.417000       1.00800           0
     18981 W2       6327     TIP3     H2       HT       0.417000       1.00800           0
     18982 W2       6328     TIP3     OH2      OT      -0.834000       15.9994           0
     18983 W2       6328     TIP3     H1       HT       0.417000       1.00800           0
     18984 W2       6328     TIP3     H2       HT       0.417000       1.00800           0
     18985 W2       6329     TIP3     OH2      OT      -0.834000       15.9994           0
     18986 W2       6329     TIP3     H1       HT       0.417000       1.00800           0
     18987 W2       6329     TIP3     H2       HT       0.417000       1.00800           0
     18988 W2       6330     TIP3     OH2      OT      -0.834000       15.9994           0
     18989 W2       6330     TIP3     H1       HT       0.417000       1.00800           0
     18990 W2       6330     TIP3     H2       HT       0.417000       1.00800           0
     18991 W2       6331     TIP3     OH2      OT      -0.834000       15.9994           0
     18992 W2       6331     TIP3     H1       HT       0.417000       1.00800           0
     18993 W2       6331     TIP3     H2       HT       0.417000       1.00800           0
     18994 W2       6332     TIP3     OH2      OT      -0.834000       15.9994           0
     18995 W2       6332     TIP3     H1       HT       0.417000       1.00800           0
     18996 W2       6332     TIP3     H2       HT       0.417000       1.00800           0
     18997 W2       6333     TIP3     OH2      OT      -0.834000       15.9994           0
     18998 W2       6333     TIP3     H1       HT       0.417000       1.00800           0
     18999 W2       6333     TIP3     H2       HT       0.417000       1.00800           0
     19000 W2       6334     TIP3     OH2      OT      -0.834000       15.9994           0
     19001 W2       6334     TIP3     H1       HT       0.417000       1.00800           0
     19002 W2       6334     TIP3     H2       HT       0.417000       1.00800           0
     19003 W2       6335     TIP3     OH2      OT      -0.834000       15.9994           0
     19004 W2       6335     TIP3     H1       HT       0.417000       1.00800           0
     19005 W2       6335     TIP3     H2       HT       0.417000       1.00800           0
     19006 W2       6336     TIP3     OH2      OT      -0.834000       15.9994           0
     19007 W2       6336     TIP3     H1       HT       0.417000       1.00800           0
     19008 W2       6336     TIP3     H2       HT       0.417000       1.00800           0
     19009 W2       6337     TIP3     OH2      OT      -0.834000       15.9994           0
     19010 W2       6337     TIP3     H1       HT       0.417000       1.00800           0
     19011 W2       6337     TIP3     H2       HT       0.417000       1.00800           0
     19012 W2       6338     TIP3     OH2      OT      -0.834000       15.9994           0
     19013 W2       6338     TIP3     H1       HT       0.417000       1.00800           0
     19014 W2       6338     TIP3     H2       HT       0.417000       1.00800           0
     19015 W2       6339     TIP3     OH2      OT      -0.834000       15.9994           0
     19016 W2       6339     TIP3     H1       HT       0.417000       1.00800           0
     19017 W2       6339     TIP3     H2       HT       0.417000       1.00800           0
     19018 W2       6340     TIP3     OH2      OT      -0.834000       15.9994           0
     19019 W2       6340     TIP3     H1       HT       0.417000       1.00800           0
     19020 W2       6340     TIP3     H2       HT       0.417000       1.00800           0
     19021 W2       6341     TIP3     OH2      OT      -0.834000       15.9994           0
     19022 W2       6341     TIP3     H1       HT       0.417000       1.00800           0
     19023 W2       6341     TIP3     H2       HT       0.417000       1.00800           0
     19024 W2       6342     TIP3     OH2      OT      -0.834000       15.9994           0
     19025 W2       6342     TIP3     H1       HT       0.417000       1.00800           0
     19026 W2       6342     TIP3     H2       HT       0.417000       1.00800           0
     19027 W2       6343     TIP3     OH2      OT      -0.834000       15.9994           0
     19028 W2       6343     TIP3     H1       HT       0.417000       1.00800           0
     19029 W2       6343     TIP3     H2       HT       0.417000       1.00800           0
     19030 W2       6344     TIP3     OH2      OT      -0.834000       15.9994           0
     19031 W2       6344     TIP3     H1       HT       0.417000       1.00800           0
     19032 W2       6344     TIP3     H2       HT       0.417000       1.00800           0
     19033 W2       6345     TIP3     OH2      OT      -0.834000       15.9994           0
     19034 W2       6345     TIP3     H1       HT       0.417000       1.00800           0
     19035 W2       6345     TIP3     H2       HT       0.417000       1.00800           0
     19036 W2       6346     TIP3     OH2      OT      -0.834000       15.9994           0
     19037 W2       6346     TIP3     H1       HT       0.417000       1.00800           0
     19038 W2       6346     TIP3     H2       HT       0.417000       1.00800           0
     19039 W2       6347     TIP3     OH2      OT      -0.834000       15.9994           0
     19040 W2       6347     TIP3     H1       HT       0.417000       1.00800           0
     19041 W2       6347     TIP3     H2       HT       0.417000       1.00800           0
     19042 W2       6348     TIP3     OH2      OT      -0.834000       15.9994           0
     19043 W2       6348     TIP3     H1       HT       0.417000       1.00800           0
     19044 W2       6348     TIP3     H2       HT       0.417000       1.00800           0
     19045 W2       6349     TIP3     OH2      OT      -0.834000       15.9994           0
     19046 W2       6349     TIP3     H1       HT       0.417000       1.00800           0
     19047 W2       6349     TIP3     H2       HT       0.417000       1.00800           0
     19048 W2       6350     TIP3     OH2      OT      -0.834000       15.9994           0
     19049 W2       6350     TIP3     H1       HT       0.417000       1.00800           0
     19050 W2       6350     TIP3     H2       HT       0.417000       1.00800           0
     19051 W2       6351     TIP3     OH2      OT      -0.834000       15.9994           0
     19052 W2       6351     TIP3     H1       HT       0.417000       1.00800           0
     19053 W2       6351     TIP3     H2       HT       0.417000       1.00800           0
     19054 W2       6352     TIP3     OH2      OT      -0.834000       15.9994           0
     19055 W2       6352     TIP3     H1       HT       0.417000       1.00800           0
     19056 W2       6352     TIP3     H2       HT       0.417000       1.00800           0
     19057 W2       6353     TIP3     OH2      OT      -0.834000       15.9994           0
     19058 W2       6353     TIP3     H1       HT       0.417000       1.00800           0
     19059 W2       6353     TIP3     H2       HT       0.417000       1.00800           0
     19060 W2       6354     TIP3     OH2      OT      -0.834000       15.9994           0
     19061 W2       6354     TIP3     H1       HT       0.417000       1.00800           0
     19062 W2       6354     TIP3     H2       HT       0.417000       1.00800           0
     19063 W2       6355     TIP3     OH2      OT      -0.834000       15.9994           0
     19064 W2       6355     TIP3     H1       HT       0.417000       1.00800           0
     19065 W2       6355     TIP3     H2       HT       0.417000       1.00800           0
     19066 W2       6356     TIP3     OH2      OT      -0.834000       15.9994           0
     19067 W2       6356     TIP3     H1       HT       0.417000       1.00800           0
     19068 W2       6356     TIP3     H2       HT       0.417000       1.00800           0
     19069 W2       6357     TIP3     OH2      OT      -0.834000       15.9994           0
     19070 W2       6357     TIP3     H1       HT       0.417000       1.00800           0
     19071 W2       6357     TIP3     H2       HT       0.417000       1.00800           0
     19072 W2       6358     TIP3     OH2      OT      -0.834000       15.9994           0
     19073 W2       6358     TIP3     H1       HT       0.417000       1.00800           0
     19074 W2       6358     TIP3     H2       HT       0.417000       1.00800           0
     19075 W2       6359     TIP3     OH2      OT      -0.834000       15.9994           0
     19076 W2       6359     TIP3     H1       HT       0.417000       1.00800           0
     19077 W2       6359     TIP3     H2       HT       0.417000       1.00800           0
     19078 W2       6360     TIP3     OH2      OT      -0.834000       15.9994           0
     19079 W2       6360     TIP3     H1       HT       0.417000       1.00800           0
     19080 W2       6360     TIP3     H2       HT       0.417000       1.00800           0
     19081 W2       6361     TIP3     OH2      OT      -0.834000       15.9994           0
     19082 W2       6361     TIP3     H1       HT       0.417000       1.00800           0
     19083 W2       6361     TIP3     H2       HT       0.417000       1.00800           0
     19084 W2       6362     TIP3     OH2      OT      -0.834000       15.9994           0
     19085 W2       6362     TIP3     H1       HT       0.417000       1.00800           0
     19086 W2       6362     TIP3     H2       HT       0.417000       1.00800           0
     19087 W2       6363     TIP3     OH2      OT      -0.834000       15.9994           0
     19088 W2       6363     TIP3     H1       HT       0.417000       1.00800           0
     19089 W2       6363     TIP3     H2       HT       0.417000       1.00800           0
     19090 W2       6364     TIP3     OH2      OT      -0.834000       15.9994           0
     19091 W2       6364     TIP3     H1       HT       0.417000       1.00800           0
     19092 W2       6364     TIP3     H2       HT       0.417000       1.00800           0
     19093 W2       6365     TIP3     OH2      OT      -0.834000       15.9994           0
     19094 W2       6365     TIP3     H1       HT       0.417000       1.00800           0
     19095 W2       6365     TIP3     H2       HT       0.417000       1.00800           0
     19096 W2       6366     TIP3     OH2      OT      -0.834000       15.9994           0
     19097 W2       6366     TIP3     H1       HT       0.417000       1.00800           0
     19098 W2       6366     TIP3     H2       HT       0.417000       1.00800           0
     19099 W2       6367     TIP3     OH2      OT      -0.834000       15.9994           0
     19100 W2       6367     TIP3     H1       HT       0.417000       1.00800           0
     19101 W2       6367     TIP3     H2       HT       0.417000       1.00800           0
     19102 W2       6368     TIP3     OH2      OT      -0.834000       15.9994           0
     19103 W2       6368     TIP3     H1       HT       0.417000       1.00800           0
     19104 W2       6368     TIP3     H2       HT       0.417000       1.00800           0
     19105 W2       6369     TIP3     OH2      OT      -0.834000       15.9994           0
     19106 W2       6369     TIP3     H1       HT       0.417000       1.00800           0
     19107 W2       6369     TIP3     H2       HT       0.417000       1.00800           0
     19108 W2       6370     TIP3     OH2      OT      -0.834000       15.9994           0
     19109 W2       6370     TIP3     H1       HT       0.417000       1.00800           0
     19110 W2       6370     TIP3     H2       HT       0.417000       1.00800           0
     19111 W2       6371     TIP3     OH2      OT      -0.834000       15.9994           0
     19112 W2       6371     TIP3     H1       HT       0.417000       1.00800           0
     19113 W2       6371     TIP3     H2       HT       0.417000       1.00800           0
     19114 W2       6372     TIP3     OH2      OT      -0.834000       15.9994           0
     19115 W2       6372     TIP3     H1       HT       0.417000       1.00800           0
     19116 W2       6372     TIP3     H2       HT       0.417000       1.00800           0
     19117 W2       6373     TIP3     OH2      OT      -0.834000       15.9994           0
     19118 W2       6373     TIP3     H1       HT       0.417000       1.00800           0
     19119 W2       6373     TIP3     H2       HT       0.417000       1.00800           0
     19120 W2       6374     TIP3     OH2      OT      -0.834000       15.9994           0
     19121 W2       6374     TIP3     H1       HT       0.417000       1.00800           0
     19122 W2       6374     TIP3     H2       HT       0.417000       1.00800           0
     19123 W2       6375     TIP3     OH2      OT      -0.834000       15.9994           0
     19124 W2       6375     TIP3     H1       HT       0.417000       1.00800           0
     19125 W2       6375     TIP3     H2       HT       0.417000       1.00800           0
     19126 W2       6376     TIP3     OH2      OT      -0.834000       15.9994           0
     19127 W2       6376     TIP3     H1       HT       0.417000       1.00800           0
     19128 W2       6376     TIP3     H2       HT       0.417000       1.00800           0
     19129 W2       6377     TIP3     OH2      OT      -0.834000       15.9994           0
     19130 W2       6377     TIP3     H1       HT       0.417000       1.00800           0
     19131 W2       6377     TIP3     H2       HT       0.417000       1.00800           0
     19132 W2       6378     TIP3     OH2      OT      -0.834000       15.9994           0
     19133 W2       6378     TIP3     H1       HT       0.417000       1.00800           0
     19134 W2       6378     TIP3     H2       HT       0.417000       1.00800           0
     19135 W2       6379     TIP3     OH2      OT      -0.834000       15.9994           0
     19136 W2       6379     TIP3     H1       HT       0.417000       1.00800           0
     19137 W2       6379     TIP3     H2       HT       0.417000       1.00800           0
     19138 W2       6380     TIP3     OH2      OT      -0.834000       15.9994           0
     19139 W2       6380     TIP3     H1       HT       0.417000       1.00800           0
     19140 W2       6380     TIP3     H2       HT       0.417000       1.00800           0
     19141 W2       6381     TIP3     OH2      OT      -0.834000       15.9994           0
     19142 W2       6381     TIP3     H1       HT       0.417000       1.00800           0
     19143 W2       6381     TIP3     H2       HT       0.417000       1.00800           0
     19144 W2       6382     TIP3     OH2      OT      -0.834000       15.9994           0
     19145 W2       6382     TIP3     H1       HT       0.417000       1.00800           0
     19146 W2       6382     TIP3     H2       HT       0.417000       1.00800           0
     19147 W2       6383     TIP3     OH2      OT      -0.834000       15.9994           0
     19148 W2       6383     TIP3     H1       HT       0.417000       1.00800           0
     19149 W2       6383     TIP3     H2       HT       0.417000       1.00800           0
     19150 W2       6384     TIP3     OH2      OT      -0.834000       15.9994           0
     19151 W2       6384     TIP3     H1       HT       0.417000       1.00800           0
     19152 W2       6384     TIP3     H2       HT       0.417000       1.00800           0
     19153 W2       6385     TIP3     OH2      OT      -0.834000       15.9994           0
     19154 W2       6385     TIP3     H1       HT       0.417000       1.00800           0
     19155 W2       6385     TIP3     H2       HT       0.417000       1.00800           0
     19156 W2       6386     TIP3     OH2      OT      -0.834000       15.9994           0
     19157 W2       6386     TIP3     H1       HT       0.417000       1.00800           0
     19158 W2       6386     TIP3     H2       HT       0.417000       1.00800           0
     19159 W2       6387     TIP3     OH2      OT      -0.834000       15.9994           0
     19160 W2       6387     TIP3     H1       HT       0.417000       1.00800           0
     19161 W2       6387     TIP3     H2       HT       0.417000       1.00800           0
     19162 W2       6388     TIP3     OH2      OT      -0.834000       15.9994           0
     19163 W2       6388     TIP3     H1       HT       0.417000       1.00800           0
     19164 W2       6388     TIP3     H2       HT       0.417000       1.00800           0
     19165 W2       6389     TIP3     OH2      OT      -0.834000       15.9994           0
     19166 W2       6389     TIP3     H1       HT       0.417000       1.00800           0
     19167 W2       6389     TIP3     H2       HT       0.417000       1.00800           0
     19168 W2       6390     TIP3     OH2      OT      -0.834000       15.9994           0
     19169 W2       6390     TIP3     H1       HT       0.417000       1.00800           0
     19170 W2       6390     TIP3     H2       HT       0.417000       1.00800           0
     19171 W2       6391     TIP3     OH2      OT      -0.834000       15.9994           0
     19172 W2       6391     TIP3     H1       HT       0.417000       1.00800           0
     19173 W2       6391     TIP3     H2       HT       0.417000       1.00800           0
     19174 W2       6392     TIP3     OH2      OT      -0.834000       15.9994           0
     19175 W2       6392     TIP3     H1       HT       0.417000       1.00800           0
     19176 W2       6392     TIP3     H2       HT       0.417000       1.00800           0
     19177 W2       6393     TIP3     OH2      OT      -0.834000       15.9994           0
     19178 W2       6393     TIP3     H1       HT       0.417000       1.00800           0
     19179 W2       6393     TIP3     H2       HT       0.417000       1.00800           0
     19180 W2       6394     TIP3     OH2      OT      -0.834000       15.9994           0
     19181 W2       6394     TIP3     H1       HT       0.417000       1.00800           0
     19182 W2       6394     TIP3     H2       HT       0.417000       1.00800           0
     19183 W2       6395     TIP3     OH2      OT      -0.834000       15.9994           0
     19184 W2       6395     TIP3     H1       HT       0.417000       1.00800           0
     19185 W2       6395     TIP3     H2       HT       0.417000       1.00800           0
     19186 W2       6396     TIP3     OH2      OT      -0.834000       15.9994           0
     19187 W2       6396     TIP3     H1       HT       0.417000       1.00800           0
     19188 W2       6396     TIP3     H2       HT       0.417000       1.00800           0
     19189 W2       6397     TIP3     OH2      OT      -0.834000       15.9994           0
     19190 W2       6397     TIP3     H1       HT       0.417000       1.00800           0
     19191 W2       6397     TIP3     H2       HT       0.417000       1.00800           0
     19192 W2       6398     TIP3     OH2      OT      -0.834000       15.9994           0
     19193 W2       6398     TIP3     H1       HT       0.417000       1.00800           0
     19194 W2       6398     TIP3     H2       HT       0.417000       1.00800           0
     19195 W2       6399     TIP3     OH2      OT      -0.834000       15.9994           0
     19196 W2       6399     TIP3     H1       HT       0.417000       1.00800           0
     19197 W2       6399     TIP3     H2       HT       0.417000       1.00800           0
     19198 W2       6400     TIP3     OH2      OT      -0.834000       15.9994           0
     19199 W2       6400     TIP3     H1       HT       0.417000       1.00800           0
     19200 W2       6400     TIP3     H2       HT       0.417000       1.00800           0
     19201 W2       6401     TIP3     OH2      OT      -0.834000       15.9994           0
     19202 W2       6401     TIP3     H1       HT       0.417000       1.00800           0
     19203 W2       6401     TIP3     H2       HT       0.417000       1.00800           0
     19204 W2       6402     TIP3     OH2      OT      -0.834000       15.9994           0
     19205 W2       6402     TIP3     H1       HT       0.417000       1.00800           0
     19206 W2       6402     TIP3     H2       HT       0.417000       1.00800           0
     19207 W2       6403     TIP3     OH2      OT      -0.834000       15.9994           0
     19208 W2       6403     TIP3     H1       HT       0.417000       1.00800           0
     19209 W2       6403     TIP3     H2       HT       0.417000       1.00800           0
     19210 W2       6404     TIP3     OH2      OT      -0.834000       15.9994           0
     19211 W2       6404     TIP3     H1       HT       0.417000       1.00800           0
     19212 W2       6404     TIP3     H2       HT       0.417000       1.00800           0
     19213 W2       6405     TIP3     OH2      OT      -0.834000       15.9994           0
     19214 W2       6405     TIP3     H1       HT       0.417000       1.00800           0
     19215 W2       6405     TIP3     H2       HT       0.417000       1.00800           0
     19216 W2       6406     TIP3     OH2      OT      -0.834000       15.9994           0
     19217 W2       6406     TIP3     H1       HT       0.417000       1.00800           0
     19218 W2       6406     TIP3     H2       HT       0.417000       1.00800           0
     19219 W2       6407     TIP3     OH2      OT      -0.834000       15.9994           0
     19220 W2       6407     TIP3     H1       HT       0.417000       1.00800           0
     19221 W2       6407     TIP3     H2       HT       0.417000       1.00800           0
     19222 W2       6408     TIP3     OH2      OT      -0.834000       15.9994           0
     19223 W2       6408     TIP3     H1       HT       0.417000       1.00800           0
     19224 W2       6408     TIP3     H2       HT       0.417000       1.00800           0
     19225 W2       6409     TIP3     OH2      OT      -0.834000       15.9994           0
     19226 W2       6409     TIP3     H1       HT       0.417000       1.00800           0
     19227 W2       6409     TIP3     H2       HT       0.417000       1.00800           0
     19228 W2       6410     TIP3     OH2      OT      -0.834000       15.9994           0
     19229 W2       6410     TIP3     H1       HT       0.417000       1.00800           0
     19230 W2       6410     TIP3     H2       HT       0.417000       1.00800           0
     19231 W2       6411     TIP3     OH2      OT      -0.834000       15.9994           0
     19232 W2       6411     TIP3     H1       HT       0.417000       1.00800           0
     19233 W2       6411     TIP3     H2       HT       0.417000       1.00800           0
     19234 W2       6412     TIP3     OH2      OT      -0.834000       15.9994           0
     19235 W2       6412     TIP3     H1       HT       0.417000       1.00800           0
     19236 W2       6412     TIP3     H2       HT       0.417000       1.00800           0
     19237 W2       6413     TIP3     OH2      OT      -0.834000       15.9994           0
     19238 W2       6413     TIP3     H1       HT       0.417000       1.00800           0
     19239 W2       6413     TIP3     H2       HT       0.417000       1.00800           0
     19240 W2       6414     TIP3     OH2      OT      -0.834000       15.9994           0
     19241 W2       6414     TIP3     H1       HT       0.417000       1.00800           0
     19242 W2       6414     TIP3     H2       HT       0.417000       1.00800           0
     19243 W2       6415     TIP3     OH2      OT      -0.834000       15.9994           0
     19244 W2       6415     TIP3     H1       HT       0.417000       1.00800           0
     19245 W2       6415     TIP3     H2       HT       0.417000       1.00800           0
     19246 W2       6416     TIP3     OH2      OT      -0.834000       15.9994           0
     19247 W2       6416     TIP3     H1       HT       0.417000       1.00800           0
     19248 W2       6416     TIP3     H2       HT       0.417000       1.00800           0
     19249 W2       6417     TIP3     OH2      OT      -0.834000       15.9994           0
     19250 W2       6417     TIP3     H1       HT       0.417000       1.00800           0
     19251 W2       6417     TIP3     H2       HT       0.417000       1.00800           0
     19252 W2       6418     TIP3     OH2      OT      -0.834000       15.9994           0
     19253 W2       6418     TIP3     H1       HT       0.417000       1.00800           0
     19254 W2       6418     TIP3     H2       HT       0.417000       1.00800           0
     19255 W2       6419     TIP3     OH2      OT      -0.834000       15.9994           0
     19256 W2       6419     TIP3     H1       HT       0.417000       1.00800           0
     19257 W2       6419     TIP3     H2       HT       0.417000       1.00800           0
     19258 W2       6420     TIP3     OH2      OT      -0.834000       15.9994           0
     19259 W2       6420     TIP3     H1       HT       0.417000       1.00800           0
     19260 W2       6420     TIP3     H2       HT       0.417000       1.00800           0
     19261 W2       6421     TIP3     OH2      OT      -0.834000       15.9994           0
     19262 W2       6421     TIP3     H1       HT       0.417000       1.00800           0
     19263 W2       6421     TIP3     H2       HT       0.417000       1.00800           0
     19264 W2       6422     TIP3     OH2      OT      -0.834000       15.9994           0
     19265 W2       6422     TIP3     H1       HT       0.417000       1.00800           0
     19266 W2       6422     TIP3     H2       HT       0.417000       1.00800           0
     19267 W2       6423     TIP3     OH2      OT      -0.834000       15.9994           0
     19268 W2       6423     TIP3     H1       HT       0.417000       1.00800           0
     19269 W2       6423     TIP3     H2       HT       0.417000       1.00800           0
     19270 W2       6424     TIP3     OH2      OT      -0.834000       15.9994           0
     19271 W2       6424     TIP3     H1       HT       0.417000       1.00800           0
     19272 W2       6424     TIP3     H2       HT       0.417000       1.00800           0
     19273 W2       6425     TIP3     OH2      OT      -0.834000       15.9994           0
     19274 W2       6425     TIP3     H1       HT       0.417000       1.00800           0
     19275 W2       6425     TIP3     H2       HT       0.417000       1.00800           0
     19276 W2       6426     TIP3     OH2      OT      -0.834000       15.9994           0
     19277 W2       6426     TIP3     H1       HT       0.417000       1.00800           0
     19278 W2       6426     TIP3     H2       HT       0.417000       1.00800           0
     19279 W2       6427     TIP3     OH2      OT      -0.834000       15.9994           0
     19280 W2       6427     TIP3     H1       HT       0.417000       1.00800           0
     19281 W2       6427     TIP3     H2       HT       0.417000       1.00800           0
     19282 W2       6428     TIP3     OH2      OT      -0.834000       15.9994           0
     19283 W2       6428     TIP3     H1       HT       0.417000       1.00800           0
     19284 W2       6428     TIP3     H2       HT       0.417000       1.00800           0
     19285 W2       6429     TIP3     OH2      OT      -0.834000       15.9994           0
     19286 W2       6429     TIP3     H1       HT       0.417000       1.00800           0
     19287 W2       6429     TIP3     H2       HT       0.417000       1.00800           0
     19288 W2       6430     TIP3     OH2      OT      -0.834000       15.9994           0
     19289 W2       6430     TIP3     H1       HT       0.417000       1.00800           0
     19290 W2       6430     TIP3     H2       HT       0.417000       1.00800           0
     19291 W2       6431     TIP3     OH2      OT      -0.834000       15.9994           0
     19292 W2       6431     TIP3     H1       HT       0.417000       1.00800           0
     19293 W2       6431     TIP3     H2       HT       0.417000       1.00800           0
     19294 W2       6432     TIP3     OH2      OT      -0.834000       15.9994           0
     19295 W2       6432     TIP3     H1       HT       0.417000       1.00800           0
     19296 W2       6432     TIP3     H2       HT       0.417000       1.00800           0
     19297 W2       6433     TIP3     OH2      OT      -0.834000       15.9994           0
     19298 W2       6433     TIP3     H1       HT       0.417000       1.00800           0
     19299 W2       6433     TIP3     H2       HT       0.417000       1.00800           0
     19300 W2       6434     TIP3     OH2      OT      -0.834000       15.9994           0
     19301 W2       6434     TIP3     H1       HT       0.417000       1.00800           0
     19302 W2       6434     TIP3     H2       HT       0.417000       1.00800           0
     19303 W2       6435     TIP3     OH2      OT      -0.834000       15.9994           0
     19304 W2       6435     TIP3     H1       HT       0.417000       1.00800           0
     19305 W2       6435     TIP3     H2       HT       0.417000       1.00800           0
     19306 W2       6436     TIP3     OH2      OT      -0.834000       15.9994           0
     19307 W2       6436     TIP3     H1       HT       0.417000       1.00800           0
     19308 W2       6436     TIP3     H2       HT       0.417000       1.00800           0
     19309 W2       6437     TIP3     OH2      OT      -0.834000       15.9994           0
     19310 W2       6437     TIP3     H1       HT       0.417000       1.00800           0
     19311 W2       6437     TIP3     H2       HT       0.417000       1.00800           0
     19312 W2       6438     TIP3     OH2      OT      -0.834000       15.9994           0
     19313 W2       6438     TIP3     H1       HT       0.417000       1.00800           0
     19314 W2       6438     TIP3     H2       HT       0.417000       1.00800           0
     19315 W2       6439     TIP3     OH2      OT      -0.834000       15.9994           0
     19316 W2       6439     TIP3     H1       HT       0.417000       1.00800           0
     19317 W2       6439     TIP3     H2       HT       0.417000       1.00800           0
     19318 W2       6440     TIP3     OH2      OT      -0.834000       15.9994           0
     19319 W2       6440     TIP3     H1       HT       0.417000       1.00800           0
     19320 W2       6440     TIP3     H2       HT       0.417000       1.00800           0
     19321 W2       6441     TIP3     OH2      OT      -0.834000       15.9994           0
     19322 W2       6441     TIP3     H1       HT       0.417000       1.00800           0
     19323 W2       6441     TIP3     H2       HT       0.417000       1.00800           0
     19324 W2       6442     TIP3     OH2      OT      -0.834000       15.9994           0
     19325 W2       6442     TIP3     H1       HT       0.417000       1.00800           0
     19326 W2       6442     TIP3     H2       HT       0.417000       1.00800           0
     19327 W2       6443     TIP3     OH2      OT      -0.834000       15.9994           0
     19328 W2       6443     TIP3     H1       HT       0.417000       1.00800           0
     19329 W2       6443     TIP3     H2       HT       0.417000       1.00800           0
     19330 W2       6444     TIP3     OH2      OT      -0.834000       15.9994           0
     19331 W2       6444     TIP3     H1       HT       0.417000       1.00800           0
     19332 W2       6444     TIP3     H2       HT       0.417000       1.00800           0
     19333 W2       6445     TIP3     OH2      OT      -0.834000       15.9994           0
     19334 W2       6445     TIP3     H1       HT       0.417000       1.00800           0
     19335 W2       6445     TIP3     H2       HT       0.417000       1.00800           0
     19336 W2       6446     TIP3     OH2      OT      -0.834000       15.9994           0
     19337 W2       6446     TIP3     H1       HT       0.417000       1.00800           0
     19338 W2       6446     TIP3     H2       HT       0.417000       1.00800           0
     19339 W2       6447     TIP3     OH2      OT      -0.834000       15.9994           0
     19340 W2       6447     TIP3     H1       HT       0.417000       1.00800           0
     19341 W2       6447     TIP3     H2       HT       0.417000       1.00800           0
     19342 W2       6448     TIP3     OH2      OT      -0.834000       15.9994           0
     19343 W2       6448     TIP3     H1       HT       0.417000       1.00800           0
     19344 W2       6448     TIP3     H2       HT       0.417000       1.00800           0
     19345 W2       6449     TIP3     OH2      OT      -0.834000       15.9994           0
     19346 W2       6449     TIP3     H1       HT       0.417000       1.00800           0
     19347 W2       6449     TIP3     H2       HT       0.417000       1.00800           0
     19348 W2       6450     TIP3     OH2      OT      -0.834000       15.9994           0
     19349 W2       6450     TIP3     H1       HT       0.417000       1.00800           0
     19350 W2       6450     TIP3     H2       HT       0.417000       1.00800           0
     19351 W2       6451     TIP3     OH2      OT      -0.834000       15.9994           0
     19352 W2       6451     TIP3     H1       HT       0.417000       1.00800           0
     19353 W2       6451     TIP3     H2       HT       0.417000       1.00800           0
     19354 W2       6452     TIP3     OH2      OT      -0.834000       15.9994           0
     19355 W2       6452     TIP3     H1       HT       0.417000       1.00800           0
     19356 W2       6452     TIP3     H2       HT       0.417000       1.00800           0
     19357 W2       6453     TIP3     OH2      OT      -0.834000       15.9994           0
     19358 W2       6453     TIP3     H1       HT       0.417000       1.00800           0
     19359 W2       6453     TIP3     H2       HT       0.417000       1.00800           0
     19360 W2       6454     TIP3     OH2      OT      -0.834000       15.9994           0
     19361 W2       6454     TIP3     H1       HT       0.417000       1.00800           0
     19362 W2       6454     TIP3     H2       HT       0.417000       1.00800           0
     19363 W2       6455     TIP3     OH2      OT      -0.834000       15.9994           0
     19364 W2       6455     TIP3     H1       HT       0.417000       1.00800           0
     19365 W2       6455     TIP3     H2       HT       0.417000       1.00800           0
     19366 W2       6456     TIP3     OH2      OT      -0.834000       15.9994           0
     19367 W2       6456     TIP3     H1       HT       0.417000       1.00800           0
     19368 W2       6456     TIP3     H2       HT       0.417000       1.00800           0
     19369 W2       6457     TIP3     OH2      OT      -0.834000       15.9994           0
     19370 W2       6457     TIP3     H1       HT       0.417000       1.00800           0
     19371 W2       6457     TIP3     H2       HT       0.417000       1.00800           0
     19372 W2       6458     TIP3     OH2      OT      -0.834000       15.9994           0
     19373 W2       6458     TIP3     H1       HT       0.417000       1.00800           0
     19374 W2       6458     TIP3     H2       HT       0.417000       1.00800           0
     19375 W2       6459     TIP3     OH2      OT      -0.834000       15.9994           0
     19376 W2       6459     TIP3     H1       HT       0.417000       1.00800           0
     19377 W2       6459     TIP3     H2       HT       0.417000       1.00800           0
     19378 W2       6460     TIP3     OH2      OT      -0.834000       15.9994           0
     19379 W2       6460     TIP3     H1       HT       0.417000       1.00800           0
     19380 W2       6460     TIP3     H2       HT       0.417000       1.00800           0
     19381 W2       6461     TIP3     OH2      OT      -0.834000       15.9994           0
     19382 W2       6461     TIP3     H1       HT       0.417000       1.00800           0
     19383 W2       6461     TIP3     H2       HT       0.417000       1.00800           0
     19384 W2       6462     TIP3     OH2      OT      -0.834000       15.9994           0
     19385 W2       6462     TIP3     H1       HT       0.417000       1.00800           0
     19386 W2       6462     TIP3     H2       HT       0.417000       1.00800           0
     19387 W2       6463     TIP3     OH2      OT      -0.834000       15.9994           0
     19388 W2       6463     TIP3     H1       HT       0.417000       1.00800           0
     19389 W2       6463     TIP3     H2       HT       0.417000       1.00800           0
     19390 W2       6464     TIP3     OH2      OT      -0.834000       15.9994           0
     19391 W2       6464     TIP3     H1       HT       0.417000       1.00800           0
     19392 W2       6464     TIP3     H2       HT       0.417000       1.00800           0
     19393 W2       6465     TIP3     OH2      OT      -0.834000       15.9994           0
     19394 W2       6465     TIP3     H1       HT       0.417000       1.00800           0
     19395 W2       6465     TIP3     H2       HT       0.417000       1.00800           0
     19396 W2       6466     TIP3     OH2      OT      -0.834000       15.9994           0
     19397 W2       6466     TIP3     H1       HT       0.417000       1.00800           0
     19398 W2       6466     TIP3     H2       HT       0.417000       1.00800           0
     19399 W2       6467     TIP3     OH2      OT      -0.834000       15.9994           0
     19400 W2       6467     TIP3     H1       HT       0.417000       1.00800           0
     19401 W2       6467     TIP3     H2       HT       0.417000       1.00800           0
     19402 W2       6468     TIP3     OH2      OT      -0.834000       15.9994           0
     19403 W2       6468     TIP3     H1       HT       0.417000       1.00800           0
     19404 W2       6468     TIP3     H2       HT       0.417000       1.00800           0
     19405 W2       6469     TIP3     OH2      OT      -0.834000       15.9994           0
     19406 W2       6469     TIP3     H1       HT       0.417000       1.00800           0
     19407 W2       6469     TIP3     H2       HT       0.417000       1.00800           0
     19408 W2       6470     TIP3     OH2      OT      -0.834000       15.9994           0
     19409 W2       6470     TIP3     H1       HT       0.417000       1.00800           0
     19410 W2       6470     TIP3     H2       HT       0.417000       1.00800           0
     19411 W2       6471     TIP3     OH2      OT      -0.834000       15.9994           0
     19412 W2       6471     TIP3     H1       HT       0.417000       1.00800           0
     19413 W2       6471     TIP3     H2       HT       0.417000       1.00800           0
     19414 W2       6472     TIP3     OH2      OT      -0.834000       15.9994           0
     19415 W2       6472     TIP3     H1       HT       0.417000       1.00800           0
     19416 W2       6472     TIP3     H2       HT       0.417000       1.00800           0
     19417 W2       6473     TIP3     OH2      OT      -0.834000       15.9994           0
     19418 W2       6473     TIP3     H1       HT       0.417000       1.00800           0
     19419 W2       6473     TIP3     H2       HT       0.417000       1.00800           0
     19420 W2       6474     TIP3     OH2      OT      -0.834000       15.9994           0
     19421 W2       6474     TIP3     H1       HT       0.417000       1.00800           0
     19422 W2       6474     TIP3     H2       HT       0.417000       1.00800           0
     19423 W2       6475     TIP3     OH2      OT      -0.834000       15.9994           0
     19424 W2       6475     TIP3     H1       HT       0.417000       1.00800           0
     19425 W2       6475     TIP3     H2       HT       0.417000       1.00800           0
     19426 W2       6476     TIP3     OH2      OT      -0.834000       15.9994           0
     19427 W2       6476     TIP3     H1       HT       0.417000       1.00800           0
     19428 W2       6476     TIP3     H2       HT       0.417000       1.00800           0
     19429 W2       6477     TIP3     OH2      OT      -0.834000       15.9994           0
     19430 W2       6477     TIP3     H1       HT       0.417000       1.00800           0
     19431 W2       6477     TIP3     H2       HT       0.417000       1.00800           0
     19432 W2       6478     TIP3     OH2      OT      -0.834000       15.9994           0
     19433 W2       6478     TIP3     H1       HT       0.417000       1.00800           0
     19434 W2       6478     TIP3     H2       HT       0.417000       1.00800           0
     19435 W2       6479     TIP3     OH2      OT      -0.834000       15.9994           0
     19436 W2       6479     TIP3     H1       HT       0.417000       1.00800           0
     19437 W2       6479     TIP3     H2       HT       0.417000       1.00800           0
     19438 W2       6480     TIP3     OH2      OT      -0.834000       15.9994           0
     19439 W2       6480     TIP3     H1       HT       0.417000       1.00800           0
     19440 W2       6480     TIP3     H2       HT       0.417000       1.00800           0
     19441 W2       6481     TIP3     OH2      OT      -0.834000       15.9994           0
     19442 W2       6481     TIP3     H1       HT       0.417000       1.00800           0
     19443 W2       6481     TIP3     H2       HT       0.417000       1.00800           0
     19444 W2       6482     TIP3     OH2      OT      -0.834000       15.9994           0
     19445 W2       6482     TIP3     H1       HT       0.417000       1.00800           0
     19446 W2       6482     TIP3     H2       HT       0.417000       1.00800           0
     19447 W2       6483     TIP3     OH2      OT      -0.834000       15.9994           0
     19448 W2       6483     TIP3     H1       HT       0.417000       1.00800           0
     19449 W2       6483     TIP3     H2       HT       0.417000       1.00800           0
     19450 W2       6484     TIP3     OH2      OT      -0.834000       15.9994           0
     19451 W2       6484     TIP3     H1       HT       0.417000       1.00800           0
     19452 W2       6484     TIP3     H2       HT       0.417000       1.00800           0
     19453 W2       6485     TIP3     OH2      OT      -0.834000       15.9994           0
     19454 W2       6485     TIP3     H1       HT       0.417000       1.00800           0
     19455 W2       6485     TIP3     H2       HT       0.417000       1.00800           0
     19456 W2       6486     TIP3     OH2      OT      -0.834000       15.9994           0
     19457 W2       6486     TIP3     H1       HT       0.417000       1.00800           0
     19458 W2       6486     TIP3     H2       HT       0.417000       1.00800           0
     19459 W2       6487     TIP3     OH2      OT      -0.834000       15.9994           0
     19460 W2       6487     TIP3     H1       HT       0.417000       1.00800           0
     19461 W2       6487     TIP3     H2       HT       0.417000       1.00800           0
     19462 W2       6488     TIP3     OH2      OT      -0.834000       15.9994           0
     19463 W2       6488     TIP3     H1       HT       0.417000       1.00800           0
     19464 W2       6488     TIP3     H2       HT       0.417000       1.00800           0
     19465 W2       6489     TIP3     OH2      OT      -0.834000       15.9994           0
     19466 W2       6489     TIP3     H1       HT       0.417000       1.00800           0
     19467 W2       6489     TIP3     H2       HT       0.417000       1.00800           0
     19468 W2       6490     TIP3     OH2      OT      -0.834000       15.9994           0
     19469 W2       6490     TIP3     H1       HT       0.417000       1.00800           0
     19470 W2       6490     TIP3     H2       HT       0.417000       1.00800           0
     19471 W2       6491     TIP3     OH2      OT      -0.834000       15.9994           0
     19472 W2       6491     TIP3     H1       HT       0.417000       1.00800           0
     19473 W2       6491     TIP3     H2       HT       0.417000       1.00800           0
     19474 W2       6492     TIP3     OH2      OT      -0.834000       15.9994           0
     19475 W2       6492     TIP3     H1       HT       0.417000       1.00800           0
     19476 W2       6492     TIP3     H2       HT       0.417000       1.00800           0
     19477 W2       6493     TIP3     OH2      OT      -0.834000       15.9994           0
     19478 W2       6493     TIP3     H1       HT       0.417000       1.00800           0
     19479 W2       6493     TIP3     H2       HT       0.417000       1.00800           0
     19480 W2       6494     TIP3     OH2      OT      -0.834000       15.9994           0
     19481 W2       6494     TIP3     H1       HT       0.417000       1.00800           0
     19482 W2       6494     TIP3     H2       HT       0.417000       1.00800           0
     19483 W2       6495     TIP3     OH2      OT      -0.834000       15.9994           0
     19484 W2       6495     TIP3     H1       HT       0.417000       1.00800           0
     19485 W2       6495     TIP3     H2       HT       0.417000       1.00800           0
     19486 W2       6496     TIP3     OH2      OT      -0.834000       15.9994           0
     19487 W2       6496     TIP3     H1       HT       0.417000       1.00800           0
     19488 W2       6496     TIP3     H2       HT       0.417000       1.00800           0
     19489 W2       6497     TIP3     OH2      OT      -0.834000       15.9994           0
     19490 W2       6497     TIP3     H1       HT       0.417000       1.00800           0
     19491 W2       6497     TIP3     H2       HT       0.417000       1.00800           0
     19492 W2       6498     TIP3     OH2      OT      -0.834000       15.9994           0
     19493 W2       6498     TIP3     H1       HT       0.417000       1.00800           0
     19494 W2       6498     TIP3     H2       HT       0.417000       1.00800           0
     19495 W2       6499     TIP3     OH2      OT      -0.834000       15.9994           0
     19496 W2       6499     TIP3     H1       HT       0.417000       1.00800           0
     19497 W2       6499     TIP3     H2       HT       0.417000       1.00800           0
     19498 W2       6500     TIP3     OH2      OT      -0.834000       15.9994           0
     19499 W2       6500     TIP3     H1       HT       0.417000       1.00800           0
     19500 W2       6500     TIP3     H2       HT       0.417000       1.00800           0
     19501 W2       6501     TIP3     OH2      OT      -0.834000       15.9994           0
     19502 W2       6501     TIP3     H1       HT       0.417000       1.00800           0
     19503 W2       6501     TIP3     H2       HT       0.417000       1.00800           0
     19504 W2       6502     TIP3     OH2      OT      -0.834000       15.9994           0
     19505 W2       6502     TIP3     H1       HT       0.417000       1.00800           0
     19506 W2       6502     TIP3     H2       HT       0.417000       1.00800           0
     19507 W2       6503     TIP3     OH2      OT      -0.834000       15.9994           0
     19508 W2       6503     TIP3     H1       HT       0.417000       1.00800           0
     19509 W2       6503     TIP3     H2       HT       0.417000       1.00800           0
     19510 W2       6504     TIP3     OH2      OT      -0.834000       15.9994           0
     19511 W2       6504     TIP3     H1       HT       0.417000       1.00800           0
     19512 W2       6504     TIP3     H2       HT       0.417000       1.00800           0
     19513 W2       6505     TIP3     OH2      OT      -0.834000       15.9994           0
     19514 W2       6505     TIP3     H1       HT       0.417000       1.00800           0
     19515 W2       6505     TIP3     H2       HT       0.417000       1.00800           0
     19516 W2       6506     TIP3     OH2      OT      -0.834000       15.9994           0
     19517 W2       6506     TIP3     H1       HT       0.417000       1.00800           0
     19518 W2       6506     TIP3     H2       HT       0.417000       1.00800           0
     19519 W2       6507     TIP3     OH2      OT      -0.834000       15.9994           0
     19520 W2       6507     TIP3     H1       HT       0.417000       1.00800           0
     19521 W2       6507     TIP3     H2       HT       0.417000       1.00800           0
     19522 W2       6508     TIP3     OH2      OT      -0.834000       15.9994           0
     19523 W2       6508     TIP3     H1       HT       0.417000       1.00800           0
     19524 W2       6508     TIP3     H2       HT       0.417000       1.00800           0
     19525 W2       6509     TIP3     OH2      OT      -0.834000       15.9994           0
     19526 W2       6509     TIP3     H1       HT       0.417000       1.00800           0
     19527 W2       6509     TIP3     H2       HT       0.417000       1.00800           0
     19528 W2       6510     TIP3     OH2      OT      -0.834000       15.9994           0
     19529 W2       6510     TIP3     H1       HT       0.417000       1.00800           0
     19530 W2       6510     TIP3     H2       HT       0.417000       1.00800           0
     19531 W2       6511     TIP3     OH2      OT      -0.834000       15.9994           0
     19532 W2       6511     TIP3     H1       HT       0.417000       1.00800           0
     19533 W2       6511     TIP3     H2       HT       0.417000       1.00800           0
     19534 W2       6512     TIP3     OH2      OT      -0.834000       15.9994           0
     19535 W2       6512     TIP3     H1       HT       0.417000       1.00800           0
     19536 W2       6512     TIP3     H2       HT       0.417000       1.00800           0
     19537 W2       6513     TIP3     OH2      OT      -0.834000       15.9994           0
     19538 W2       6513     TIP3     H1       HT       0.417000       1.00800           0
     19539 W2       6513     TIP3     H2       HT       0.417000       1.00800           0
     19540 W2       6514     TIP3     OH2      OT      -0.834000       15.9994           0
     19541 W2       6514     TIP3     H1       HT       0.417000       1.00800           0
     19542 W2       6514     TIP3     H2       HT       0.417000       1.00800           0
     19543 W2       6515     TIP3     OH2      OT      -0.834000       15.9994           0
     19544 W2       6515     TIP3     H1       HT       0.417000       1.00800           0
     19545 W2       6515     TIP3     H2       HT       0.417000       1.00800           0
     19546 W2       6516     TIP3     OH2      OT      -0.834000       15.9994           0
     19547 W2       6516     TIP3     H1       HT       0.417000       1.00800           0
     19548 W2       6516     TIP3     H2       HT       0.417000       1.00800           0
     19549 W2       6517     TIP3     OH2      OT      -0.834000       15.9994           0
     19550 W2       6517     TIP3     H1       HT       0.417000       1.00800           0
     19551 W2       6517     TIP3     H2       HT       0.417000       1.00800           0
     19552 W2       6518     TIP3     OH2      OT      -0.834000       15.9994           0
     19553 W2       6518     TIP3     H1       HT       0.417000       1.00800           0
     19554 W2       6518     TIP3     H2       HT       0.417000       1.00800           0
     19555 W2       6519     TIP3     OH2      OT      -0.834000       15.9994           0
     19556 W2       6519     TIP3     H1       HT       0.417000       1.00800           0
     19557 W2       6519     TIP3     H2       HT       0.417000       1.00800           0
     19558 W2       6520     TIP3     OH2      OT      -0.834000       15.9994           0
     19559 W2       6520     TIP3     H1       HT       0.417000       1.00800           0
     19560 W2       6520     TIP3     H2       HT       0.417000       1.00800           0
     19561 W2       6521     TIP3     OH2      OT      -0.834000       15.9994           0
     19562 W2       6521     TIP3     H1       HT       0.417000       1.00800           0
     19563 W2       6521     TIP3     H2       HT       0.417000       1.00800           0
     19564 W2       6522     TIP3     OH2      OT      -0.834000       15.9994           0
     19565 W2       6522     TIP3     H1       HT       0.417000       1.00800           0
     19566 W2       6522     TIP3     H2       HT       0.417000       1.00800           0
     19567 W2       6523     TIP3     OH2      OT      -0.834000       15.9994           0
     19568 W2       6523     TIP3     H1       HT       0.417000       1.00800           0
     19569 W2       6523     TIP3     H2       HT       0.417000       1.00800           0
     19570 W2       6524     TIP3     OH2      OT      -0.834000       15.9994           0
     19571 W2       6524     TIP3     H1       HT       0.417000       1.00800           0
     19572 W2       6524     TIP3     H2       HT       0.417000       1.00800           0
     19573 W2       6525     TIP3     OH2      OT      -0.834000       15.9994           0
     19574 W2       6525     TIP3     H1       HT       0.417000       1.00800           0
     19575 W2       6525     TIP3     H2       HT       0.417000       1.00800           0
     19576 W2       6526     TIP3     OH2      OT      -0.834000       15.9994           0
     19577 W2       6526     TIP3     H1       HT       0.417000       1.00800           0
     19578 W2       6526     TIP3     H2       HT       0.417000       1.00800           0
     19579 W2       6527     TIP3     OH2      OT      -0.834000       15.9994           0
     19580 W2       6527     TIP3     H1       HT       0.417000       1.00800           0
     19581 W2       6527     TIP3     H2       HT       0.417000       1.00800           0
     19582 W2       6528     TIP3     OH2      OT      -0.834000       15.9994           0
     19583 W2       6528     TIP3     H1       HT       0.417000       1.00800           0
     19584 W2       6528     TIP3     H2       HT       0.417000       1.00800           0
     19585 W2       6529     TIP3     OH2      OT      -0.834000       15.9994           0
     19586 W2       6529     TIP3     H1       HT       0.417000       1.00800           0
     19587 W2       6529     TIP3     H2       HT       0.417000       1.00800           0
     19588 W2       6530     TIP3     OH2      OT      -0.834000       15.9994           0
     19589 W2       6530     TIP3     H1       HT       0.417000       1.00800           0
     19590 W2       6530     TIP3     H2       HT       0.417000       1.00800           0
     19591 W2       6531     TIP3     OH2      OT      -0.834000       15.9994           0
     19592 W2       6531     TIP3     H1       HT       0.417000       1.00800           0
     19593 W2       6531     TIP3     H2       HT       0.417000       1.00800           0
     19594 W2       6532     TIP3     OH2      OT      -0.834000       15.9994           0
     19595 W2       6532     TIP3     H1       HT       0.417000       1.00800           0
     19596 W2       6532     TIP3     H2       HT       0.417000       1.00800           0
     19597 W2       6533     TIP3     OH2      OT      -0.834000       15.9994           0
     19598 W2       6533     TIP3     H1       HT       0.417000       1.00800           0
     19599 W2       6533     TIP3     H2       HT       0.417000       1.00800           0
     19600 W2       6534     TIP3     OH2      OT      -0.834000       15.9994           0
     19601 W2       6534     TIP3     H1       HT       0.417000       1.00800           0
     19602 W2       6534     TIP3     H2       HT       0.417000       1.00800           0
     19603 W2       6535     TIP3     OH2      OT      -0.834000       15.9994           0
     19604 W2       6535     TIP3     H1       HT       0.417000       1.00800           0
     19605 W2       6535     TIP3     H2       HT       0.417000       1.00800           0
     19606 W2       6536     TIP3     OH2      OT      -0.834000       15.9994           0
     19607 W2       6536     TIP3     H1       HT       0.417000       1.00800           0
     19608 W2       6536     TIP3     H2       HT       0.417000       1.00800           0
     19609 W2       6537     TIP3     OH2      OT      -0.834000       15.9994           0
     19610 W2       6537     TIP3     H1       HT       0.417000       1.00800           0
     19611 W2       6537     TIP3     H2       HT       0.417000       1.00800           0
     19612 W2       6538     TIP3     OH2      OT      -0.834000       15.9994           0
     19613 W2       6538     TIP3     H1       HT       0.417000       1.00800           0
     19614 W2       6538     TIP3     H2       HT       0.417000       1.00800           0
     19615 W2       6539     TIP3     OH2      OT      -0.834000       15.9994           0
     19616 W2       6539     TIP3     H1       HT       0.417000       1.00800           0
     19617 W2       6539     TIP3     H2       HT       0.417000       1.00800           0
     19618 W2       6540     TIP3     OH2      OT      -0.834000       15.9994           0
     19619 W2       6540     TIP3     H1       HT       0.417000       1.00800           0
     19620 W2       6540     TIP3     H2       HT       0.417000       1.00800           0
     19621 W2       6541     TIP3     OH2      OT      -0.834000       15.9994           0
     19622 W2       6541     TIP3     H1       HT       0.417000       1.00800           0
     19623 W2       6541     TIP3     H2       HT       0.417000       1.00800           0
     19624 W2       6542     TIP3     OH2      OT      -0.834000       15.9994           0
     19625 W2       6542     TIP3     H1       HT       0.417000       1.00800           0
     19626 W2       6542     TIP3     H2       HT       0.417000       1.00800           0
     19627 W2       6543     TIP3     OH2      OT      -0.834000       15.9994           0
     19628 W2       6543     TIP3     H1       HT       0.417000       1.00800           0
     19629 W2       6543     TIP3     H2       HT       0.417000       1.00800           0
     19630 W2       6544     TIP3     OH2      OT      -0.834000       15.9994           0
     19631 W2       6544     TIP3     H1       HT       0.417000       1.00800           0
     19632 W2       6544     TIP3     H2       HT       0.417000       1.00800           0
     19633 W2       6545     TIP3     OH2      OT      -0.834000       15.9994           0
     19634 W2       6545     TIP3     H1       HT       0.417000       1.00800           0
     19635 W2       6545     TIP3     H2       HT       0.417000       1.00800           0
     19636 W2       6546     TIP3     OH2      OT      -0.834000       15.9994           0
     19637 W2       6546     TIP3     H1       HT       0.417000       1.00800           0
     19638 W2       6546     TIP3     H2       HT       0.417000       1.00800           0
     19639 W2       6547     TIP3     OH2      OT      -0.834000       15.9994           0
     19640 W2       6547     TIP3     H1       HT       0.417000       1.00800           0
     19641 W2       6547     TIP3     H2       HT       0.417000       1.00800           0
     19642 W2       6548     TIP3     OH2      OT      -0.834000       15.9994           0
     19643 W2       6548     TIP3     H1       HT       0.417000       1.00800           0
     19644 W2       6548     TIP3     H2       HT       0.417000       1.00800           0
     19645 W2       6549     TIP3     OH2      OT      -0.834000       15.9994           0
     19646 W2       6549     TIP3     H1       HT       0.417000       1.00800           0
     19647 W2       6549     TIP3     H2       HT       0.417000       1.00800           0
     19648 W2       6550     TIP3     OH2      OT      -0.834000       15.9994           0
     19649 W2       6550     TIP3     H1       HT       0.417000       1.00800           0
     19650 W2       6550     TIP3     H2       HT       0.417000       1.00800           0
     19651 W2       6551     TIP3     OH2      OT      -0.834000       15.9994           0
     19652 W2       6551     TIP3     H1       HT       0.417000       1.00800           0
     19653 W2       6551     TIP3     H2       HT       0.417000       1.00800           0
     19654 W2       6552     TIP3     OH2      OT      -0.834000       15.9994           0
     19655 W2       6552     TIP3     H1       HT       0.417000       1.00800           0
     19656 W2       6552     TIP3     H2       HT       0.417000       1.00800           0
     19657 W2       6553     TIP3     OH2      OT      -0.834000       15.9994           0
     19658 W2       6553     TIP3     H1       HT       0.417000       1.00800           0
     19659 W2       6553     TIP3     H2       HT       0.417000       1.00800           0
     19660 W2       6554     TIP3     OH2      OT      -0.834000       15.9994           0
     19661 W2       6554     TIP3     H1       HT       0.417000       1.00800           0
     19662 W2       6554     TIP3     H2       HT       0.417000       1.00800           0
     19663 W2       6555     TIP3     OH2      OT      -0.834000       15.9994           0
     19664 W2       6555     TIP3     H1       HT       0.417000       1.00800           0
     19665 W2       6555     TIP3     H2       HT       0.417000       1.00800           0
     19666 W2       6556     TIP3     OH2      OT      -0.834000       15.9994           0
     19667 W2       6556     TIP3     H1       HT       0.417000       1.00800           0
     19668 W2       6556     TIP3     H2       HT       0.417000       1.00800           0
     19669 W2       6557     TIP3     OH2      OT      -0.834000       15.9994           0
     19670 W2       6557     TIP3     H1       HT       0.417000       1.00800           0
     19671 W2       6557     TIP3     H2       HT       0.417000       1.00800           0
     19672 W2       6558     TIP3     OH2      OT      -0.834000       15.9994           0
     19673 W2       6558     TIP3     H1       HT       0.417000       1.00800           0
     19674 W2       6558     TIP3     H2       HT       0.417000       1.00800           0
     19675 W2       6559     TIP3     OH2      OT      -0.834000       15.9994           0
     19676 W2       6559     TIP3     H1       HT       0.417000       1.00800           0
     19677 W2       6559     TIP3     H2       HT       0.417000       1.00800           0
     19678 W2       6560     TIP3     OH2      OT      -0.834000       15.9994           0
     19679 W2       6560     TIP3     H1       HT       0.417000       1.00800           0
     19680 W2       6560     TIP3     H2       HT       0.417000       1.00800           0
     19681 W2       6561     TIP3     OH2      OT      -0.834000       15.9994           0
     19682 W2       6561     TIP3     H1       HT       0.417000       1.00800           0
     19683 W2       6561     TIP3     H2       HT       0.417000       1.00800           0
     19684 W2       6562     TIP3     OH2      OT      -0.834000       15.9994           0
     19685 W2       6562     TIP3     H1       HT       0.417000       1.00800           0
     19686 W2       6562     TIP3     H2       HT       0.417000       1.00800           0
     19687 W2       6563     TIP3     OH2      OT      -0.834000       15.9994           0
     19688 W2       6563     TIP3     H1       HT       0.417000       1.00800           0
     19689 W2       6563     TIP3     H2       HT       0.417000       1.00800           0
     19690 W2       6564     TIP3     OH2      OT      -0.834000       15.9994           0
     19691 W2       6564     TIP3     H1       HT       0.417000       1.00800           0
     19692 W2       6564     TIP3     H2       HT       0.417000       1.00800           0
     19693 W2       6565     TIP3     OH2      OT      -0.834000       15.9994           0
     19694 W2       6565     TIP3     H1       HT       0.417000       1.00800           0
     19695 W2       6565     TIP3     H2       HT       0.417000       1.00800           0
     19696 W2       6566     TIP3     OH2      OT      -0.834000       15.9994           0
     19697 W2       6566     TIP3     H1       HT       0.417000       1.00800           0
     19698 W2       6566     TIP3     H2       HT       0.417000       1.00800           0
     19699 W2       6567     TIP3     OH2      OT      -0.834000       15.9994           0
     19700 W2       6567     TIP3     H1       HT       0.417000       1.00800           0
     19701 W2       6567     TIP3     H2       HT       0.417000       1.00800           0
     19702 W2       6568     TIP3     OH2      OT      -0.834000       15.9994           0
     19703 W2       6568     TIP3     H1       HT       0.417000       1.00800           0
     19704 W2       6568     TIP3     H2       HT       0.417000       1.00800           0
     19705 W2       6569     TIP3     OH2      OT      -0.834000       15.9994           0
     19706 W2       6569     TIP3     H1       HT       0.417000       1.00800           0
     19707 W2       6569     TIP3     H2       HT       0.417000       1.00800           0
     19708 W2       6570     TIP3     OH2      OT      -0.834000       15.9994           0
     19709 W2       6570     TIP3     H1       HT       0.417000       1.00800           0
     19710 W2       6570     TIP3     H2       HT       0.417000       1.00800           0
     19711 W2       6571     TIP3     OH2      OT      -0.834000       15.9994           0
     19712 W2       6571     TIP3     H1       HT       0.417000       1.00800           0
     19713 W2       6571     TIP3     H2       HT       0.417000       1.00800           0
     19714 W2       6572     TIP3     OH2      OT      -0.834000       15.9994           0
     19715 W2       6572     TIP3     H1       HT       0.417000       1.00800           0
     19716 W2       6572     TIP3     H2       HT       0.417000       1.00800           0
     19717 W2       6573     TIP3     OH2      OT      -0.834000       15.9994           0
     19718 W2       6573     TIP3     H1       HT       0.417000       1.00800           0
     19719 W2       6573     TIP3     H2       HT       0.417000       1.00800           0
     19720 W2       6574     TIP3     OH2      OT      -0.834000       15.9994           0
     19721 W2       6574     TIP3     H1       HT       0.417000       1.00800           0
     19722 W2       6574     TIP3     H2       HT       0.417000       1.00800           0
     19723 W2       6575     TIP3     OH2      OT      -0.834000       15.9994           0
     19724 W2       6575     TIP3     H1       HT       0.417000       1.00800           0
     19725 W2       6575     TIP3     H2       HT       0.417000       1.00800           0
     19726 W2       6576     TIP3     OH2      OT      -0.834000       15.9994           0
     19727 W2       6576     TIP3     H1       HT       0.417000       1.00800           0
     19728 W2       6576     TIP3     H2       HT       0.417000       1.00800           0
     19729 W2       6577     TIP3     OH2      OT      -0.834000       15.9994           0
     19730 W2       6577     TIP3     H1       HT       0.417000       1.00800           0
     19731 W2       6577     TIP3     H2       HT       0.417000       1.00800           0
     19732 W2       6578     TIP3     OH2      OT      -0.834000       15.9994           0
     19733 W2       6578     TIP3     H1       HT       0.417000       1.00800           0
     19734 W2       6578     TIP3     H2       HT       0.417000       1.00800           0
     19735 W2       6579     TIP3     OH2      OT      -0.834000       15.9994           0
     19736 W2       6579     TIP3     H1       HT       0.417000       1.00800           0
     19737 W2       6579     TIP3     H2       HT       0.417000       1.00800           0
     19738 W2       6580     TIP3     OH2      OT      -0.834000       15.9994           0
     19739 W2       6580     TIP3     H1       HT       0.417000       1.00800           0
     19740 W2       6580     TIP3     H2       HT       0.417000       1.00800           0
     19741 W2       6581     TIP3     OH2      OT      -0.834000       15.9994           0
     19742 W2       6581     TIP3     H1       HT       0.417000       1.00800           0
     19743 W2       6581     TIP3     H2       HT       0.417000       1.00800           0
     19744 W2       6582     TIP3     OH2      OT      -0.834000       15.9994           0
     19745 W2       6582     TIP3     H1       HT       0.417000       1.00800           0
     19746 W2       6582     TIP3     H2       HT       0.417000       1.00800           0
     19747 W2       6583     TIP3     OH2      OT      -0.834000       15.9994           0
     19748 W2       6583     TIP3     H1       HT       0.417000       1.00800           0
     19749 W2       6583     TIP3     H2       HT       0.417000       1.00800           0
     19750 W2       6584     TIP3     OH2      OT      -0.834000       15.9994           0
     19751 W2       6584     TIP3     H1       HT       0.417000       1.00800           0
     19752 W2       6584     TIP3     H2       HT       0.417000       1.00800           0
     19753 W2       6585     TIP3     OH2      OT      -0.834000       15.9994           0
     19754 W2       6585     TIP3     H1       HT       0.417000       1.00800           0
     19755 W2       6585     TIP3     H2       HT       0.417000       1.00800           0
     19756 W2       6586     TIP3     OH2      OT      -0.834000       15.9994           0
     19757 W2       6586     TIP3     H1       HT       0.417000       1.00800           0
     19758 W2       6586     TIP3     H2       HT       0.417000       1.00800           0
     19759 W2       6587     TIP3     OH2      OT      -0.834000       15.9994           0
     19760 W2       6587     TIP3     H1       HT       0.417000       1.00800           0
     19761 W2       6587     TIP3     H2       HT       0.417000       1.00800           0
     19762 W2       6588     TIP3     OH2      OT      -0.834000       15.9994           0
     19763 W2       6588     TIP3     H1       HT       0.417000       1.00800           0
     19764 W2       6588     TIP3     H2       HT       0.417000       1.00800           0
     19765 W2       6589     TIP3     OH2      OT      -0.834000       15.9994           0
     19766 W2       6589     TIP3     H1       HT       0.417000       1.00800           0
     19767 W2       6589     TIP3     H2       HT       0.417000       1.00800           0
     19768 W2       6590     TIP3     OH2      OT      -0.834000       15.9994           0
     19769 W2       6590     TIP3     H1       HT       0.417000       1.00800           0
     19770 W2       6590     TIP3     H2       HT       0.417000       1.00800           0
     19771 W2       6591     TIP3     OH2      OT      -0.834000       15.9994           0
     19772 W2       6591     TIP3     H1       HT       0.417000       1.00800           0
     19773 W2       6591     TIP3     H2       HT       0.417000       1.00800           0
     19774 W2       6592     TIP3     OH2      OT      -0.834000       15.9994           0
     19775 W2       6592     TIP3     H1       HT       0.417000       1.00800           0
     19776 W2       6592     TIP3     H2       HT       0.417000       1.00800           0
     19777 W2       6593     TIP3     OH2      OT      -0.834000       15.9994           0
     19778 W2       6593     TIP3     H1       HT       0.417000       1.00800           0
     19779 W2       6593     TIP3     H2       HT       0.417000       1.00800           0
     19780 W2       6594     TIP3     OH2      OT      -0.834000       15.9994           0
     19781 W2       6594     TIP3     H1       HT       0.417000       1.00800           0
     19782 W2       6594     TIP3     H2       HT       0.417000       1.00800           0
     19783 W2       6595     TIP3     OH2      OT      -0.834000       15.9994           0
     19784 W2       6595     TIP3     H1       HT       0.417000       1.00800           0
     19785 W2       6595     TIP3     H2       HT       0.417000       1.00800           0
     19786 W2       6596     TIP3     OH2      OT      -0.834000       15.9994           0
     19787 W2       6596     TIP3     H1       HT       0.417000       1.00800           0
     19788 W2       6596     TIP3     H2       HT       0.417000       1.00800           0
     19789 W2       6597     TIP3     OH2      OT      -0.834000       15.9994           0
     19790 W2       6597     TIP3     H1       HT       0.417000       1.00800           0
     19791 W2       6597     TIP3     H2       HT       0.417000       1.00800           0
     19792 W2       6598     TIP3     OH2      OT      -0.834000       15.9994           0
     19793 W2       6598     TIP3     H1       HT       0.417000       1.00800           0
     19794 W2       6598     TIP3     H2       HT       0.417000       1.00800           0
     19795 W2       6599     TIP3     OH2      OT      -0.834000       15.9994           0
     19796 W2       6599     TIP3     H1       HT       0.417000       1.00800           0
     19797 W2       6599     TIP3     H2       HT       0.417000       1.00800           0
     19798 W2       6600     TIP3     OH2      OT      -0.834000       15.9994           0
     19799 W2       6600     TIP3     H1       HT       0.417000       1.00800           0
     19800 W2       6600     TIP3     H2       HT       0.417000       1.00800           0
     19801 W2       6601     TIP3     OH2      OT      -0.834000       15.9994           0
     19802 W2       6601     TIP3     H1       HT       0.417000       1.00800           0
     19803 W2       6601     TIP3     H2       HT       0.417000       1.00800           0
     19804 W2       6602     TIP3     OH2      OT      -0.834000       15.9994           0
     19805 W2       6602     TIP3     H1       HT       0.417000       1.00800           0
     19806 W2       6602     TIP3     H2       HT       0.417000       1.00800           0
     19807 W2       6603     TIP3     OH2      OT      -0.834000       15.9994           0
     19808 W2       6603     TIP3     H1       HT       0.417000       1.00800           0
     19809 W2       6603     TIP3     H2       HT       0.417000       1.00800           0
     19810 W2       6604     TIP3     OH2      OT      -0.834000       15.9994           0
     19811 W2       6604     TIP3     H1       HT       0.417000       1.00800           0
     19812 W2       6604     TIP3     H2       HT       0.417000       1.00800           0
     19813 W2       6605     TIP3     OH2      OT      -0.834000       15.9994           0
     19814 W2       6605     TIP3     H1       HT       0.417000       1.00800           0
     19815 W2       6605     TIP3     H2       HT       0.417000       1.00800           0
     19816 W2       6606     TIP3     OH2      OT      -0.834000       15.9994           0
     19817 W2       6606     TIP3     H1       HT       0.417000       1.00800           0
     19818 W2       6606     TIP3     H2       HT       0.417000       1.00800           0
     19819 W2       6607     TIP3     OH2      OT      -0.834000       15.9994           0
     19820 W2       6607     TIP3     H1       HT       0.417000       1.00800           0
     19821 W2       6607     TIP3     H2       HT       0.417000       1.00800           0
     19822 W2       6608     TIP3     OH2      OT      -0.834000       15.9994           0
     19823 W2       6608     TIP3     H1       HT       0.417000       1.00800           0
     19824 W2       6608     TIP3     H2       HT       0.417000       1.00800           0
     19825 W2       6609     TIP3     OH2      OT      -0.834000       15.9994           0
     19826 W2       6609     TIP3     H1       HT       0.417000       1.00800           0
     19827 W2       6609     TIP3     H2       HT       0.417000       1.00800           0
     19828 W2       6610     TIP3     OH2      OT      -0.834000       15.9994           0
     19829 W2       6610     TIP3     H1       HT       0.417000       1.00800           0
     19830 W2       6610     TIP3     H2       HT       0.417000       1.00800           0
     19831 W2       6611     TIP3     OH2      OT      -0.834000       15.9994           0
     19832 W2       6611     TIP3     H1       HT       0.417000       1.00800           0
     19833 W2       6611     TIP3     H2       HT       0.417000       1.00800           0
     19834 W2       6612     TIP3     OH2      OT      -0.834000       15.9994           0
     19835 W2       6612     TIP3     H1       HT       0.417000       1.00800           0
     19836 W2       6612     TIP3     H2       HT       0.417000       1.00800           0
     19837 W2       6613     TIP3     OH2      OT      -0.834000       15.9994           0
     19838 W2       6613     TIP3     H1       HT       0.417000       1.00800           0
     19839 W2       6613     TIP3     H2       HT       0.417000       1.00800           0
     19840 W2       6614     TIP3     OH2      OT      -0.834000       15.9994           0
     19841 W2       6614     TIP3     H1       HT       0.417000       1.00800           0
     19842 W2       6614     TIP3     H2       HT       0.417000       1.00800           0
     19843 W2       6615     TIP3     OH2      OT      -0.834000       15.9994           0
     19844 W2       6615     TIP3     H1       HT       0.417000       1.00800           0
     19845 W2       6615     TIP3     H2       HT       0.417000       1.00800           0
     19846 W2       6616     TIP3     OH2      OT      -0.834000       15.9994           0
     19847 W2       6616     TIP3     H1       HT       0.417000       1.00800           0
     19848 W2       6616     TIP3     H2       HT       0.417000       1.00800           0
     19849 W2       6617     TIP3     OH2      OT      -0.834000       15.9994           0
     19850 W2       6617     TIP3     H1       HT       0.417000       1.00800           0
     19851 W2       6617     TIP3     H2       HT       0.417000       1.00800           0
     19852 W2       6618     TIP3     OH2      OT      -0.834000       15.9994           0
     19853 W2       6618     TIP3     H1       HT       0.417000       1.00800           0
     19854 W2       6618     TIP3     H2       HT       0.417000       1.00800           0
     19855 W2       6619     TIP3     OH2      OT      -0.834000       15.9994           0
     19856 W2       6619     TIP3     H1       HT       0.417000       1.00800           0
     19857 W2       6619     TIP3     H2       HT       0.417000       1.00800           0
     19858 W2       6620     TIP3     OH2      OT      -0.834000       15.9994           0
     19859 W2       6620     TIP3     H1       HT       0.417000       1.00800           0
     19860 W2       6620     TIP3     H2       HT       0.417000       1.00800           0
     19861 W2       6621     TIP3     OH2      OT      -0.834000       15.9994           0
     19862 W2       6621     TIP3     H1       HT       0.417000       1.00800           0
     19863 W2       6621     TIP3     H2       HT       0.417000       1.00800           0
     19864 W2       6622     TIP3     OH2      OT      -0.834000       15.9994           0
     19865 W2       6622     TIP3     H1       HT       0.417000       1.00800           0
     19866 W2       6622     TIP3     H2       HT       0.417000       1.00800           0
     19867 W2       6623     TIP3     OH2      OT      -0.834000       15.9994           0
     19868 W2       6623     TIP3     H1       HT       0.417000       1.00800           0
     19869 W2       6623     TIP3     H2       HT       0.417000       1.00800           0
     19870 W2       6624     TIP3     OH2      OT      -0.834000       15.9994           0
     19871 W2       6624     TIP3     H1       HT       0.417000       1.00800           0
     19872 W2       6624     TIP3     H2       HT       0.417000       1.00800           0
     19873 W2       6625     TIP3     OH2      OT      -0.834000       15.9994           0
     19874 W2       6625     TIP3     H1       HT       0.417000       1.00800           0
     19875 W2       6625     TIP3     H2       HT       0.417000       1.00800           0
     19876 W2       6626     TIP3     OH2      OT      -0.834000       15.9994           0
     19877 W2       6626     TIP3     H1       HT       0.417000       1.00800           0
     19878 W2       6626     TIP3     H2       HT       0.417000       1.00800           0
     19879 W2       6627     TIP3     OH2      OT      -0.834000       15.9994           0
     19880 W2       6627     TIP3     H1       HT       0.417000       1.00800           0
     19881 W2       6627     TIP3     H2       HT       0.417000       1.00800           0
     19882 W2       6628     TIP3     OH2      OT      -0.834000       15.9994           0
     19883 W2       6628     TIP3     H1       HT       0.417000       1.00800           0
     19884 W2       6628     TIP3     H2       HT       0.417000       1.00800           0
     19885 W2       6629     TIP3     OH2      OT      -0.834000       15.9994           0
     19886 W2       6629     TIP3     H1       HT       0.417000       1.00800           0
     19887 W2       6629     TIP3     H2       HT       0.417000       1.00800           0
     19888 W2       6630     TIP3     OH2      OT      -0.834000       15.9994           0
     19889 W2       6630     TIP3     H1       HT       0.417000       1.00800           0
     19890 W2       6630     TIP3     H2       HT       0.417000       1.00800           0
     19891 W2       6631     TIP3     OH2      OT      -0.834000       15.9994           0
     19892 W2       6631     TIP3     H1       HT       0.417000       1.00800           0
     19893 W2       6631     TIP3     H2       HT       0.417000       1.00800           0
     19894 W2       6632     TIP3     OH2      OT      -0.834000       15.9994           0
     19895 W2       6632     TIP3     H1       HT       0.417000       1.00800           0
     19896 W2       6632     TIP3     H2       HT       0.417000       1.00800           0
     19897 W2       6633     TIP3     OH2      OT      -0.834000       15.9994           0
     19898 W2       6633     TIP3     H1       HT       0.417000       1.00800           0
     19899 W2       6633     TIP3     H2       HT       0.417000       1.00800           0
     19900 W2       6634     TIP3     OH2      OT      -0.834000       15.9994           0
     19901 W2       6634     TIP3     H1       HT       0.417000       1.00800           0
     19902 W2       6634     TIP3     H2       HT       0.417000       1.00800           0
     19903 W2       6635     TIP3     OH2      OT      -0.834000       15.9994           0
     19904 W2       6635     TIP3     H1       HT       0.417000       1.00800           0
     19905 W2       6635     TIP3     H2       HT       0.417000       1.00800           0
     19906 W2       6636     TIP3     OH2      OT      -0.834000       15.9994           0
     19907 W2       6636     TIP3     H1       HT       0.417000       1.00800           0
     19908 W2       6636     TIP3     H2       HT       0.417000       1.00800           0
     19909 W2       6637     TIP3     OH2      OT      -0.834000       15.9994           0
     19910 W2       6637     TIP3     H1       HT       0.417000       1.00800           0
     19911 W2       6637     TIP3     H2       HT       0.417000       1.00800           0
     19912 W2       6638     TIP3     OH2      OT      -0.834000       15.9994           0
     19913 W2       6638     TIP3     H1       HT       0.417000       1.00800           0
     19914 W2       6638     TIP3     H2       HT       0.417000       1.00800           0
     19915 W2       6639     TIP3     OH2      OT      -0.834000       15.9994           0
     19916 W2       6639     TIP3     H1       HT       0.417000       1.00800           0
     19917 W2       6639     TIP3     H2       HT       0.417000       1.00800           0
     19918 W2       6640     TIP3     OH2      OT      -0.834000       15.9994           0
     19919 W2       6640     TIP3     H1       HT       0.417000       1.00800           0
     19920 W2       6640     TIP3     H2       HT       0.417000       1.00800           0
     19921 W2       6641     TIP3     OH2      OT      -0.834000       15.9994           0
     19922 W2       6641     TIP3     H1       HT       0.417000       1.00800           0
     19923 W2       6641     TIP3     H2       HT       0.417000       1.00800           0
     19924 W2       6642     TIP3     OH2      OT      -0.834000       15.9994           0
     19925 W2       6642     TIP3     H1       HT       0.417000       1.00800           0
     19926 W2       6642     TIP3     H2       HT       0.417000       1.00800           0
     19927 W2       6643     TIP3     OH2      OT      -0.834000       15.9994           0
     19928 W2       6643     TIP3     H1       HT       0.417000       1.00800           0
     19929 W2       6643     TIP3     H2       HT       0.417000       1.00800           0
     19930 W2       6644     TIP3     OH2      OT      -0.834000       15.9994           0
     19931 W2       6644     TIP3     H1       HT       0.417000       1.00800           0
     19932 W2       6644     TIP3     H2       HT       0.417000       1.00800           0
     19933 W2       6645     TIP3     OH2      OT      -0.834000       15.9994           0
     19934 W2       6645     TIP3     H1       HT       0.417000       1.00800           0
     19935 W2       6645     TIP3     H2       HT       0.417000       1.00800           0
     19936 W2       6646     TIP3     OH2      OT      -0.834000       15.9994           0
     19937 W2       6646     TIP3     H1       HT       0.417000       1.00800           0
     19938 W2       6646     TIP3     H2       HT       0.417000       1.00800           0
     19939 W2       6647     TIP3     OH2      OT      -0.834000       15.9994           0
     19940 W2       6647     TIP3     H1       HT       0.417000       1.00800           0
     19941 W2       6647     TIP3     H2       HT       0.417000       1.00800           0
     19942 W2       6648     TIP3     OH2      OT      -0.834000       15.9994           0
     19943 W2       6648     TIP3     H1       HT       0.417000       1.00800           0
     19944 W2       6648     TIP3     H2       HT       0.417000       1.00800           0
     19945 W2       6649     TIP3     OH2      OT      -0.834000       15.9994           0
     19946 W2       6649     TIP3     H1       HT       0.417000       1.00800           0
     19947 W2       6649     TIP3     H2       HT       0.417000       1.00800           0
     19948 W2       6650     TIP3     OH2      OT      -0.834000       15.9994           0
     19949 W2       6650     TIP3     H1       HT       0.417000       1.00800           0
     19950 W2       6650     TIP3     H2       HT       0.417000       1.00800           0
     19951 W2       6651     TIP3     OH2      OT      -0.834000       15.9994           0
     19952 W2       6651     TIP3     H1       HT       0.417000       1.00800           0
     19953 W2       6651     TIP3     H2       HT       0.417000       1.00800           0
     19954 W2       6652     TIP3     OH2      OT      -0.834000       15.9994           0
     19955 W2       6652     TIP3     H1       HT       0.417000       1.00800           0
     19956 W2       6652     TIP3     H2       HT       0.417000       1.00800           0
     19957 W2       6653     TIP3     OH2      OT      -0.834000       15.9994           0
     19958 W2       6653     TIP3     H1       HT       0.417000       1.00800           0
     19959 W2       6653     TIP3     H2       HT       0.417000       1.00800           0
     19960 W2       6654     TIP3     OH2      OT      -0.834000       15.9994           0
     19961 W2       6654     TIP3     H1       HT       0.417000       1.00800           0
     19962 W2       6654     TIP3     H2       HT       0.417000       1.00800           0
     19963 W2       6655     TIP3     OH2      OT      -0.834000       15.9994           0
     19964 W2       6655     TIP3     H1       HT       0.417000       1.00800           0
     19965 W2       6655     TIP3     H2       HT       0.417000       1.00800           0
     19966 W2       6656     TIP3     OH2      OT      -0.834000       15.9994           0
     19967 W2       6656     TIP3     H1       HT       0.417000       1.00800           0
     19968 W2       6656     TIP3     H2       HT       0.417000       1.00800           0
     19969 W2       6657     TIP3     OH2      OT      -0.834000       15.9994           0
     19970 W2       6657     TIP3     H1       HT       0.417000       1.00800           0
     19971 W2       6657     TIP3     H2       HT       0.417000       1.00800           0
     19972 W2       6658     TIP3     OH2      OT      -0.834000       15.9994           0
     19973 W2       6658     TIP3     H1       HT       0.417000       1.00800           0
     19974 W2       6658     TIP3     H2       HT       0.417000       1.00800           0
     19975 W2       6659     TIP3     OH2      OT      -0.834000       15.9994           0
     19976 W2       6659     TIP3     H1       HT       0.417000       1.00800           0
     19977 W2       6659     TIP3     H2       HT       0.417000       1.00800           0
     19978 W2       6660     TIP3     OH2      OT      -0.834000       15.9994           0
     19979 W2       6660     TIP3     H1       HT       0.417000       1.00800           0
     19980 W2       6660     TIP3     H2       HT       0.417000       1.00800           0
     19981 W2       6661     TIP3     OH2      OT      -0.834000       15.9994           0
     19982 W2       6661     TIP3     H1       HT       0.417000       1.00800           0
     19983 W2       6661     TIP3     H2       HT       0.417000       1.00800           0
     19984 W2       6662     TIP3     OH2      OT      -0.834000       15.9994           0
     19985 W2       6662     TIP3     H1       HT       0.417000       1.00800           0
     19986 W2       6662     TIP3     H2       HT       0.417000       1.00800           0
     19987 W2       6663     TIP3     OH2      OT      -0.834000       15.9994           0
     19988 W2       6663     TIP3     H1       HT       0.417000       1.00800           0
     19989 W2       6663     TIP3     H2       HT       0.417000       1.00800           0
     19990 W2       6664     TIP3     OH2      OT      -0.834000       15.9994           0
     19991 W2       6664     TIP3     H1       HT       0.417000       1.00800           0
     19992 W2       6664     TIP3     H2       HT       0.417000       1.00800           0
     19993 W2       6665     TIP3     OH2      OT      -0.834000       15.9994           0
     19994 W2       6665     TIP3     H1       HT       0.417000       1.00800           0
     19995 W2       6665     TIP3     H2       HT       0.417000       1.00800           0
     19996 W2       6666     TIP3     OH2      OT      -0.834000       15.9994           0
     19997 W2       6666     TIP3     H1       HT       0.417000       1.00800           0
     19998 W2       6666     TIP3     H2       HT       0.417000       1.00800           0
     19999 W2       6667     TIP3     OH2      OT      -0.834000       15.9994           0
     20000 W2       6667     TIP3     H1       HT       0.417000       1.00800           0
     20001 W2       6667     TIP3     H2       HT       0.417000       1.00800           0
     20002 W2       6668     TIP3     OH2      OT      -0.834000       15.9994           0
     20003 W2       6668     TIP3     H1       HT       0.417000       1.00800           0
     20004 W2       6668     TIP3     H2       HT       0.417000       1.00800           0
     20005 W2       6669     TIP3     OH2      OT      -0.834000       15.9994           0
     20006 W2       6669     TIP3     H1       HT       0.417000       1.00800           0
     20007 W2       6669     TIP3     H2       HT       0.417000       1.00800           0
     20008 W2       6670     TIP3     OH2      OT      -0.834000       15.9994           0
     20009 W2       6670     TIP3     H1       HT       0.417000       1.00800           0
     20010 W2       6670     TIP3     H2       HT       0.417000       1.00800           0
     20011 W2       6671     TIP3     OH2      OT      -0.834000       15.9994           0
     20012 W2       6671     TIP3     H1       HT       0.417000       1.00800           0
     20013 W2       6671     TIP3     H2       HT       0.417000       1.00800           0
     20014 W2       6672     TIP3     OH2      OT      -0.834000       15.9994           0
     20015 W2       6672     TIP3     H1       HT       0.417000       1.00800           0
     20016 W2       6672     TIP3     H2       HT       0.417000       1.00800           0
     20017 W2       6673     TIP3     OH2      OT      -0.834000       15.9994           0
     20018 W2       6673     TIP3     H1       HT       0.417000       1.00800           0
     20019 W2       6673     TIP3     H2       HT       0.417000       1.00800           0
     20020 W2       6674     TIP3     OH2      OT      -0.834000       15.9994           0
     20021 W2       6674     TIP3     H1       HT       0.417000       1.00800           0
     20022 W2       6674     TIP3     H2       HT       0.417000       1.00800           0
     20023 W2       6675     TIP3     OH2      OT      -0.834000       15.9994           0
     20024 W2       6675     TIP3     H1       HT       0.417000       1.00800           0
     20025 W2       6675     TIP3     H2       HT       0.417000       1.00800           0
     20026 W2       6676     TIP3     OH2      OT      -0.834000       15.9994           0
     20027 W2       6676     TIP3     H1       HT       0.417000       1.00800           0
     20028 W2       6676     TIP3     H2       HT       0.417000       1.00800           0
     20029 W2       6677     TIP3     OH2      OT      -0.834000       15.9994           0
     20030 W2       6677     TIP3     H1       HT       0.417000       1.00800           0
     20031 W2       6677     TIP3     H2       HT       0.417000       1.00800           0
     20032 W2       6678     TIP3     OH2      OT      -0.834000       15.9994           0
     20033 W2       6678     TIP3     H1       HT       0.417000       1.00800           0
     20034 W2       6678     TIP3     H2       HT       0.417000       1.00800           0
     20035 W2       6679     TIP3     OH2      OT      -0.834000       15.9994           0
     20036 W2       6679     TIP3     H1       HT       0.417000       1.00800           0
     20037 W2       6679     TIP3     H2       HT       0.417000       1.00800           0
     20038 W2       6680     TIP3     OH2      OT      -0.834000       15.9994           0
     20039 W2       6680     TIP3     H1       HT       0.417000       1.00800           0
     20040 W2       6680     TIP3     H2       HT       0.417000       1.00800           0
     20041 W2       6681     TIP3     OH2      OT      -0.834000       15.9994           0
     20042 W2       6681     TIP3     H1       HT       0.417000       1.00800           0
     20043 W2       6681     TIP3     H2       HT       0.417000       1.00800           0
     20044 W2       6682     TIP3     OH2      OT      -0.834000       15.9994           0
     20045 W2       6682     TIP3     H1       HT       0.417000       1.00800           0
     20046 W2       6682     TIP3     H2       HT       0.417000       1.00800           0
     20047 W2       6683     TIP3     OH2      OT      -0.834000       15.9994           0
     20048 W2       6683     TIP3     H1       HT       0.417000       1.00800           0
     20049 W2       6683     TIP3     H2       HT       0.417000       1.00800           0
     20050 W2       6684     TIP3     OH2      OT      -0.834000       15.9994           0
     20051 W2       6684     TIP3     H1       HT       0.417000       1.00800           0
     20052 W2       6684     TIP3     H2       HT       0.417000       1.00800           0
     20053 W2       6685     TIP3     OH2      OT      -0.834000       15.9994           0
     20054 W2       6685     TIP3     H1       HT       0.417000       1.00800           0
     20055 W2       6685     TIP3     H2       HT       0.417000       1.00800           0
     20056 W2       6686     TIP3     OH2      OT      -0.834000       15.9994           0
     20057 W2       6686     TIP3     H1       HT       0.417000       1.00800           0
     20058 W2       6686     TIP3     H2       HT       0.417000       1.00800           0
     20059 W2       6687     TIP3     OH2      OT      -0.834000       15.9994           0
     20060 W2       6687     TIP3     H1       HT       0.417000       1.00800           0
     20061 W2       6687     TIP3     H2       HT       0.417000       1.00800           0
     20062 W2       6688     TIP3     OH2      OT      -0.834000       15.9994           0
     20063 W2       6688     TIP3     H1       HT       0.417000       1.00800           0
     20064 W2       6688     TIP3     H2       HT       0.417000       1.00800           0
     20065 W2       6689     TIP3     OH2      OT      -0.834000       15.9994           0
     20066 W2       6689     TIP3     H1       HT       0.417000       1.00800           0
     20067 W2       6689     TIP3     H2       HT       0.417000       1.00800           0
     20068 W2       6690     TIP3     OH2      OT      -0.834000       15.9994           0
     20069 W2       6690     TIP3     H1       HT       0.417000       1.00800           0
     20070 W2       6690     TIP3     H2       HT       0.417000       1.00800           0
     20071 W2       6691     TIP3     OH2      OT      -0.834000       15.9994           0
     20072 W2       6691     TIP3     H1       HT       0.417000       1.00800           0
     20073 W2       6691     TIP3     H2       HT       0.417000       1.00800           0
     20074 W2       6692     TIP3     OH2      OT      -0.834000       15.9994           0
     20075 W2       6692     TIP3     H1       HT       0.417000       1.00800           0
     20076 W2       6692     TIP3     H2       HT       0.417000       1.00800           0
     20077 W2       6693     TIP3     OH2      OT      -0.834000       15.9994           0
     20078 W2       6693     TIP3     H1       HT       0.417000       1.00800           0
     20079 W2       6693     TIP3     H2       HT       0.417000       1.00800           0
     20080 W2       6694     TIP3     OH2      OT      -0.834000       15.9994           0
     20081 W2       6694     TIP3     H1       HT       0.417000       1.00800           0
     20082 W2       6694     TIP3     H2       HT       0.417000       1.00800           0
     20083 W2       6695     TIP3     OH2      OT      -0.834000       15.9994           0
     20084 W2       6695     TIP3     H1       HT       0.417000       1.00800           0
     20085 W2       6695     TIP3     H2       HT       0.417000       1.00800           0
     20086 W2       6696     TIP3     OH2      OT      -0.834000       15.9994           0
     20087 W2       6696     TIP3     H1       HT       0.417000       1.00800           0
     20088 W2       6696     TIP3     H2       HT       0.417000       1.00800           0
     20089 W2       6697     TIP3     OH2      OT      -0.834000       15.9994           0
     20090 W2       6697     TIP3     H1       HT       0.417000       1.00800           0
     20091 W2       6697     TIP3     H2       HT       0.417000       1.00800           0
     20092 W2       6698     TIP3     OH2      OT      -0.834000       15.9994           0
     20093 W2       6698     TIP3     H1       HT       0.417000       1.00800           0
     20094 W2       6698     TIP3     H2       HT       0.417000       1.00800           0
     20095 W2       6699     TIP3     OH2      OT      -0.834000       15.9994           0
     20096 W2       6699     TIP3     H1       HT       0.417000       1.00800           0
     20097 W2       6699     TIP3     H2       HT       0.417000       1.00800           0
     20098 W2       6700     TIP3     OH2      OT      -0.834000       15.9994           0
     20099 W2       6700     TIP3     H1       HT       0.417000       1.00800           0
     20100 W2       6700     TIP3     H2       HT       0.417000       1.00800           0
     20101 W2       6701     TIP3     OH2      OT      -0.834000       15.9994           0
     20102 W2       6701     TIP3     H1       HT       0.417000       1.00800           0
     20103 W2       6701     TIP3     H2       HT       0.417000       1.00800           0
     20104 W2       6702     TIP3     OH2      OT      -0.834000       15.9994           0
     20105 W2       6702     TIP3     H1       HT       0.417000       1.00800           0
     20106 W2       6702     TIP3     H2       HT       0.417000       1.00800           0
     20107 W2       6703     TIP3     OH2      OT      -0.834000       15.9994           0
     20108 W2       6703     TIP3     H1       HT       0.417000       1.00800           0
     20109 W2       6703     TIP3     H2       HT       0.417000       1.00800           0
     20110 W2       6704     TIP3     OH2      OT      -0.834000       15.9994           0
     20111 W2       6704     TIP3     H1       HT       0.417000       1.00800           0
     20112 W2       6704     TIP3     H2       HT       0.417000       1.00800           0
     20113 W2       6705     TIP3     OH2      OT      -0.834000       15.9994           0
     20114 W2       6705     TIP3     H1       HT       0.417000       1.00800           0
     20115 W2       6705     TIP3     H2       HT       0.417000       1.00800           0
     20116 W2       6706     TIP3     OH2      OT      -0.834000       15.9994           0
     20117 W2       6706     TIP3     H1       HT       0.417000       1.00800           0
     20118 W2       6706     TIP3     H2       HT       0.417000       1.00800           0
     20119 W2       6707     TIP3     OH2      OT      -0.834000       15.9994           0
     20120 W2       6707     TIP3     H1       HT       0.417000       1.00800           0
     20121 W2       6707     TIP3     H2       HT       0.417000       1.00800           0
     20122 W2       6708     TIP3     OH2      OT      -0.834000       15.9994           0
     20123 W2       6708     TIP3     H1       HT       0.417000       1.00800           0
     20124 W2       6708     TIP3     H2       HT       0.417000       1.00800           0
     20125 W2       6709     TIP3     OH2      OT      -0.834000       15.9994           0
     20126 W2       6709     TIP3     H1       HT       0.417000       1.00800           0
     20127 W2       6709     TIP3     H2       HT       0.417000       1.00800           0
     20128 W2       6710     TIP3     OH2      OT      -0.834000       15.9994           0
     20129 W2       6710     TIP3     H1       HT       0.417000       1.00800           0
     20130 W2       6710     TIP3     H2       HT       0.417000       1.00800           0
     20131 W2       6711     TIP3     OH2      OT      -0.834000       15.9994           0
     20132 W2       6711     TIP3     H1       HT       0.417000       1.00800           0
     20133 W2       6711     TIP3     H2       HT       0.417000       1.00800           0
     20134 W2       6712     TIP3     OH2      OT      -0.834000       15.9994           0
     20135 W2       6712     TIP3     H1       HT       0.417000       1.00800           0
     20136 W2       6712     TIP3     H2       HT       0.417000       1.00800           0
     20137 W2       6713     TIP3     OH2      OT      -0.834000       15.9994           0
     20138 W2       6713     TIP3     H1       HT       0.417000       1.00800           0
     20139 W2       6713     TIP3     H2       HT       0.417000       1.00800           0
     20140 W2       6714     TIP3     OH2      OT      -0.834000       15.9994           0
     20141 W2       6714     TIP3     H1       HT       0.417000       1.00800           0
     20142 W2       6714     TIP3     H2       HT       0.417000       1.00800           0
     20143 W2       6715     TIP3     OH2      OT      -0.834000       15.9994           0
     20144 W2       6715     TIP3     H1       HT       0.417000       1.00800           0
     20145 W2       6715     TIP3     H2       HT       0.417000       1.00800           0
     20146 W2       6716     TIP3     OH2      OT      -0.834000       15.9994           0
     20147 W2       6716     TIP3     H1       HT       0.417000       1.00800           0
     20148 W2       6716     TIP3     H2       HT       0.417000       1.00800           0
     20149 W2       6717     TIP3     OH2      OT      -0.834000       15.9994           0
     20150 W2       6717     TIP3     H1       HT       0.417000       1.00800           0
     20151 W2       6717     TIP3     H2       HT       0.417000       1.00800           0
     20152 W2       6718     TIP3     OH2      OT      -0.834000       15.9994           0
     20153 W2       6718     TIP3     H1       HT       0.417000       1.00800           0
     20154 W2       6718     TIP3     H2       HT       0.417000       1.00800           0
     20155 W2       6719     TIP3     OH2      OT      -0.834000       15.9994           0
     20156 W2       6719     TIP3     H1       HT       0.417000       1.00800           0
     20157 W2       6719     TIP3     H2       HT       0.417000       1.00800           0
     20158 W2       6720     TIP3     OH2      OT      -0.834000       15.9994           0
     20159 W2       6720     TIP3     H1       HT       0.417000       1.00800           0
     20160 W2       6720     TIP3     H2       HT       0.417000       1.00800           0
     20161 W2       6721     TIP3     OH2      OT      -0.834000       15.9994           0
     20162 W2       6721     TIP3     H1       HT       0.417000       1.00800           0
     20163 W2       6721     TIP3     H2       HT       0.417000       1.00800           0
     20164 W2       6722     TIP3     OH2      OT      -0.834000       15.9994           0
     20165 W2       6722     TIP3     H1       HT       0.417000       1.00800           0
     20166 W2       6722     TIP3     H2       HT       0.417000       1.00800           0
     20167 W2       6723     TIP3     OH2      OT      -0.834000       15.9994           0
     20168 W2       6723     TIP3     H1       HT       0.417000       1.00800           0
     20169 W2       6723     TIP3     H2       HT       0.417000       1.00800           0
     20170 W2       6724     TIP3     OH2      OT      -0.834000       15.9994           0
     20171 W2       6724     TIP3     H1       HT       0.417000       1.00800           0
     20172 W2       6724     TIP3     H2       HT       0.417000       1.00800           0
     20173 W2       6725     TIP3     OH2      OT      -0.834000       15.9994           0
     20174 W2       6725     TIP3     H1       HT       0.417000       1.00800           0
     20175 W2       6725     TIP3     H2       HT       0.417000       1.00800           0
     20176 W2       6726     TIP3     OH2      OT      -0.834000       15.9994           0
     20177 W2       6726     TIP3     H1       HT       0.417000       1.00800           0
     20178 W2       6726     TIP3     H2       HT       0.417000       1.00800           0
     20179 W2       6727     TIP3     OH2      OT      -0.834000       15.9994           0
     20180 W2       6727     TIP3     H1       HT       0.417000       1.00800           0
     20181 W2       6727     TIP3     H2       HT       0.417000       1.00800           0
     20182 W2       6728     TIP3     OH2      OT      -0.834000       15.9994           0
     20183 W2       6728     TIP3     H1       HT       0.417000       1.00800           0
     20184 W2       6728     TIP3     H2       HT       0.417000       1.00800           0
     20185 W2       6729     TIP3     OH2      OT      -0.834000       15.9994           0
     20186 W2       6729     TIP3     H1       HT       0.417000       1.00800           0
     20187 W2       6729     TIP3     H2       HT       0.417000       1.00800           0
     20188 W2       6730     TIP3     OH2      OT      -0.834000       15.9994           0
     20189 W2       6730     TIP3     H1       HT       0.417000       1.00800           0
     20190 W2       6730     TIP3     H2       HT       0.417000       1.00800           0
     20191 W2       6731     TIP3     OH2      OT      -0.834000       15.9994           0
     20192 W2       6731     TIP3     H1       HT       0.417000       1.00800           0
     20193 W2       6731     TIP3     H2       HT       0.417000       1.00800           0
     20194 W2       6732     TIP3     OH2      OT      -0.834000       15.9994           0
     20195 W2       6732     TIP3     H1       HT       0.417000       1.00800           0
     20196 W2       6732     TIP3     H2       HT       0.417000       1.00800           0
     20197 W2       6733     TIP3     OH2      OT      -0.834000       15.9994           0
     20198 W2       6733     TIP3     H1       HT       0.417000       1.00800           0
     20199 W2       6733     TIP3     H2       HT       0.417000       1.00800           0
     20200 W2       6734     TIP3     OH2      OT      -0.834000       15.9994           0
     20201 W2       6734     TIP3     H1       HT       0.417000       1.00800           0
     20202 W2       6734     TIP3     H2       HT       0.417000       1.00800           0
     20203 W2       6735     TIP3     OH2      OT      -0.834000       15.9994           0
     20204 W2       6735     TIP3     H1       HT       0.417000       1.00800           0
     20205 W2       6735     TIP3     H2       HT       0.417000       1.00800           0
     20206 W2       6736     TIP3     OH2      OT      -0.834000       15.9994           0
     20207 W2       6736     TIP3     H1       HT       0.417000       1.00800           0
     20208 W2       6736     TIP3     H2       HT       0.417000       1.00800           0
     20209 W2       6737     TIP3     OH2      OT      -0.834000       15.9994           0
     20210 W2       6737     TIP3     H1       HT       0.417000       1.00800           0
     20211 W2       6737     TIP3     H2       HT       0.417000       1.00800           0
     20212 W2       6738     TIP3     OH2      OT      -0.834000       15.9994           0
     20213 W2       6738     TIP3     H1       HT       0.417000       1.00800           0
     20214 W2       6738     TIP3     H2       HT       0.417000       1.00800           0
     20215 W2       6739     TIP3     OH2      OT      -0.834000       15.9994           0
     20216 W2       6739     TIP3     H1       HT       0.417000       1.00800           0
     20217 W2       6739     TIP3     H2       HT       0.417000       1.00800           0
     20218 W2       6740     TIP3     OH2      OT      -0.834000       15.9994           0
     20219 W2       6740     TIP3     H1       HT       0.417000       1.00800           0
     20220 W2       6740     TIP3     H2       HT       0.417000       1.00800           0
     20221 W2       6741     TIP3     OH2      OT      -0.834000       15.9994           0
     20222 W2       6741     TIP3     H1       HT       0.417000       1.00800           0
     20223 W2       6741     TIP3     H2       HT       0.417000       1.00800           0
     20224 W2       6742     TIP3     OH2      OT      -0.834000       15.9994           0
     20225 W2       6742     TIP3     H1       HT       0.417000       1.00800           0
     20226 W2       6742     TIP3     H2       HT       0.417000       1.00800           0
     20227 W2       6743     TIP3     OH2      OT      -0.834000       15.9994           0
     20228 W2       6743     TIP3     H1       HT       0.417000       1.00800           0
     20229 W2       6743     TIP3     H2       HT       0.417000       1.00800           0
     20230 W2       6744     TIP3     OH2      OT      -0.834000       15.9994           0
     20231 W2       6744     TIP3     H1       HT       0.417000       1.00800           0
     20232 W2       6744     TIP3     H2       HT       0.417000       1.00800           0
     20233 W2       6745     TIP3     OH2      OT      -0.834000       15.9994           0
     20234 W2       6745     TIP3     H1       HT       0.417000       1.00800           0
     20235 W2       6745     TIP3     H2       HT       0.417000       1.00800           0
     20236 W2       6746     TIP3     OH2      OT      -0.834000       15.9994           0
     20237 W2       6746     TIP3     H1       HT       0.417000       1.00800           0
     20238 W2       6746     TIP3     H2       HT       0.417000       1.00800           0
     20239 W2       6747     TIP3     OH2      OT      -0.834000       15.9994           0
     20240 W2       6747     TIP3     H1       HT       0.417000       1.00800           0
     20241 W2       6747     TIP3     H2       HT       0.417000       1.00800           0
     20242 W2       6748     TIP3     OH2      OT      -0.834000       15.9994           0
     20243 W2       6748     TIP3     H1       HT       0.417000       1.00800           0
     20244 W2       6748     TIP3     H2       HT       0.417000       1.00800           0
     20245 W2       6749     TIP3     OH2      OT      -0.834000       15.9994           0
     20246 W2       6749     TIP3     H1       HT       0.417000       1.00800           0
     20247 W2       6749     TIP3     H2       HT       0.417000       1.00800           0
     20248 W2       6750     TIP3     OH2      OT      -0.834000       15.9994           0
     20249 W2       6750     TIP3     H1       HT       0.417000       1.00800           0
     20250 W2       6750     TIP3     H2       HT       0.417000       1.00800           0
     20251 W2       6751     TIP3     OH2      OT      -0.834000       15.9994           0
     20252 W2       6751     TIP3     H1       HT       0.417000       1.00800           0
     20253 W2       6751     TIP3     H2       HT       0.417000       1.00800           0
     20254 W2       6752     TIP3     OH2      OT      -0.834000       15.9994           0
     20255 W2       6752     TIP3     H1       HT       0.417000       1.00800           0
     20256 W2       6752     TIP3     H2       HT       0.417000       1.00800           0
     20257 W2       6753     TIP3     OH2      OT      -0.834000       15.9994           0
     20258 W2       6753     TIP3     H1       HT       0.417000       1.00800           0
     20259 W2       6753     TIP3     H2       HT       0.417000       1.00800           0
     20260 W2       6754     TIP3     OH2      OT      -0.834000       15.9994           0
     20261 W2       6754     TIP3     H1       HT       0.417000       1.00800           0
     20262 W2       6754     TIP3     H2       HT       0.417000       1.00800           0
     20263 W2       6755     TIP3     OH2      OT      -0.834000       15.9994           0
     20264 W2       6755     TIP3     H1       HT       0.417000       1.00800           0
     20265 W2       6755     TIP3     H2       HT       0.417000       1.00800           0
     20266 W2       6756     TIP3     OH2      OT      -0.834000       15.9994           0
     20267 W2       6756     TIP3     H1       HT       0.417000       1.00800           0
     20268 W2       6756     TIP3     H2       HT       0.417000       1.00800           0
     20269 W2       6757     TIP3     OH2      OT      -0.834000       15.9994           0
     20270 W2       6757     TIP3     H1       HT       0.417000       1.00800           0
     20271 W2       6757     TIP3     H2       HT       0.417000       1.00800           0
     20272 W2       6758     TIP3     OH2      OT      -0.834000       15.9994           0
     20273 W2       6758     TIP3     H1       HT       0.417000       1.00800           0
     20274 W2       6758     TIP3     H2       HT       0.417000       1.00800           0
     20275 W2       6759     TIP3     OH2      OT      -0.834000       15.9994           0
     20276 W2       6759     TIP3     H1       HT       0.417000       1.00800           0
     20277 W2       6759     TIP3     H2       HT       0.417000       1.00800           0
     20278 W2       6760     TIP3     OH2      OT      -0.834000       15.9994           0
     20279 W2       6760     TIP3     H1       HT       0.417000       1.00800           0
     20280 W2       6760     TIP3     H2       HT       0.417000       1.00800           0
     20281 W2       6761     TIP3     OH2      OT      -0.834000       15.9994           0
     20282 W2       6761     TIP3     H1       HT       0.417000       1.00800           0
     20283 W2       6761     TIP3     H2       HT       0.417000       1.00800           0
     20284 W2       6762     TIP3     OH2      OT      -0.834000       15.9994           0
     20285 W2       6762     TIP3     H1       HT       0.417000       1.00800           0
     20286 W2       6762     TIP3     H2       HT       0.417000       1.00800           0
     20287 W2       6763     TIP3     OH2      OT      -0.834000       15.9994           0
     20288 W2       6763     TIP3     H1       HT       0.417000       1.00800           0
     20289 W2       6763     TIP3     H2       HT       0.417000       1.00800           0
     20290 W2       6764     TIP3     OH2      OT      -0.834000       15.9994           0
     20291 W2       6764     TIP3     H1       HT       0.417000       1.00800           0
     20292 W2       6764     TIP3     H2       HT       0.417000       1.00800           0
     20293 W2       6765     TIP3     OH2      OT      -0.834000       15.9994           0
     20294 W2       6765     TIP3     H1       HT       0.417000       1.00800           0
     20295 W2       6765     TIP3     H2       HT       0.417000       1.00800           0
     20296 W2       6766     TIP3     OH2      OT      -0.834000       15.9994           0
     20297 W2       6766     TIP3     H1       HT       0.417000       1.00800           0
     20298 W2       6766     TIP3     H2       HT       0.417000       1.00800           0
     20299 W2       6767     TIP3     OH2      OT      -0.834000       15.9994           0
     20300 W2       6767     TIP3     H1       HT       0.417000       1.00800           0
     20301 W2       6767     TIP3     H2       HT       0.417000       1.00800           0
     20302 W2       6768     TIP3     OH2      OT      -0.834000       15.9994           0
     20303 W2       6768     TIP3     H1       HT       0.417000       1.00800           0
     20304 W2       6768     TIP3     H2       HT       0.417000       1.00800           0
     20305 W2       6769     TIP3     OH2      OT      -0.834000       15.9994           0
     20306 W2       6769     TIP3     H1       HT       0.417000       1.00800           0
     20307 W2       6769     TIP3     H2       HT       0.417000       1.00800           0
     20308 W2       6770     TIP3     OH2      OT      -0.834000       15.9994           0
     20309 W2       6770     TIP3     H1       HT       0.417000       1.00800           0
     20310 W2       6770     TIP3     H2       HT       0.417000       1.00800           0
     20311 W2       6771     TIP3     OH2      OT      -0.834000       15.9994           0
     20312 W2       6771     TIP3     H1       HT       0.417000       1.00800           0
     20313 W2       6771     TIP3     H2       HT       0.417000       1.00800           0
     20314 W2       6772     TIP3     OH2      OT      -0.834000       15.9994           0
     20315 W2       6772     TIP3     H1       HT       0.417000       1.00800           0
     20316 W2       6772     TIP3     H2       HT       0.417000       1.00800           0
     20317 W2       6773     TIP3     OH2      OT      -0.834000       15.9994           0
     20318 W2       6773     TIP3     H1       HT       0.417000       1.00800           0
     20319 W2       6773     TIP3     H2       HT       0.417000       1.00800           0
     20320 W2       6774     TIP3     OH2      OT      -0.834000       15.9994           0
     20321 W2       6774     TIP3     H1       HT       0.417000       1.00800           0
     20322 W2       6774     TIP3     H2       HT       0.417000       1.00800           0
     20323 W2       6775     TIP3     OH2      OT      -0.834000       15.9994           0
     20324 W2       6775     TIP3     H1       HT       0.417000       1.00800           0
     20325 W2       6775     TIP3     H2       HT       0.417000       1.00800           0
     20326 W2       6776     TIP3     OH2      OT      -0.834000       15.9994           0
     20327 W2       6776     TIP3     H1       HT       0.417000       1.00800           0
     20328 W2       6776     TIP3     H2       HT       0.417000       1.00800           0
     20329 W2       6777     TIP3     OH2      OT      -0.834000       15.9994           0
     20330 W2       6777     TIP3     H1       HT       0.417000       1.00800           0
     20331 W2       6777     TIP3     H2       HT       0.417000       1.00800           0
     20332 W2       6778     TIP3     OH2      OT      -0.834000       15.9994           0
     20333 W2       6778     TIP3     H1       HT       0.417000       1.00800           0
     20334 W2       6778     TIP3     H2       HT       0.417000       1.00800           0
     20335 W2       6779     TIP3     OH2      OT      -0.834000       15.9994           0
     20336 W2       6779     TIP3     H1       HT       0.417000       1.00800           0
     20337 W2       6779     TIP3     H2       HT       0.417000       1.00800           0
     20338 W2       6780     TIP3     OH2      OT      -0.834000       15.9994           0
     20339 W2       6780     TIP3     H1       HT       0.417000       1.00800           0
     20340 W2       6780     TIP3     H2       HT       0.417000       1.00800           0
     20341 W2       6781     TIP3     OH2      OT      -0.834000       15.9994           0
     20342 W2       6781     TIP3     H1       HT       0.417000       1.00800           0
     20343 W2       6781     TIP3     H2       HT       0.417000       1.00800           0
     20344 W2       6782     TIP3     OH2      OT      -0.834000       15.9994           0
     20345 W2       6782     TIP3     H1       HT       0.417000       1.00800           0
     20346 W2       6782     TIP3     H2       HT       0.417000       1.00800           0
     20347 W2       6783     TIP3     OH2      OT      -0.834000       15.9994           0
     20348 W2       6783     TIP3     H1       HT       0.417000       1.00800           0
     20349 W2       6783     TIP3     H2       HT       0.417000       1.00800           0
     20350 W2       6784     TIP3     OH2      OT      -0.834000       15.9994           0
     20351 W2       6784     TIP3     H1       HT       0.417000       1.00800           0
     20352 W2       6784     TIP3     H2       HT       0.417000       1.00800           0
     20353 W2       6785     TIP3     OH2      OT      -0.834000       15.9994           0
     20354 W2       6785     TIP3     H1       HT       0.417000       1.00800           0
     20355 W2       6785     TIP3     H2       HT       0.417000       1.00800           0
     20356 W2       6786     TIP3     OH2      OT      -0.834000       15.9994           0
     20357 W2       6786     TIP3     H1       HT       0.417000       1.00800           0
     20358 W2       6786     TIP3     H2       HT       0.417000       1.00800           0
     20359 W2       6787     TIP3     OH2      OT      -0.834000       15.9994           0
     20360 W2       6787     TIP3     H1       HT       0.417000       1.00800           0
     20361 W2       6787     TIP3     H2       HT       0.417000       1.00800           0
     20362 W2       6788     TIP3     OH2      OT      -0.834000       15.9994           0
     20363 W2       6788     TIP3     H1       HT       0.417000       1.00800           0
     20364 W2       6788     TIP3     H2       HT       0.417000       1.00800           0
     20365 W2       6789     TIP3     OH2      OT      -0.834000       15.9994           0
     20366 W2       6789     TIP3     H1       HT       0.417000       1.00800           0
     20367 W2       6789     TIP3     H2       HT       0.417000       1.00800           0
     20368 W2       6790     TIP3     OH2      OT      -0.834000       15.9994           0
     20369 W2       6790     TIP3     H1       HT       0.417000       1.00800           0
     20370 W2       6790     TIP3     H2       HT       0.417000       1.00800           0
     20371 W2       6791     TIP3     OH2      OT      -0.834000       15.9994           0
     20372 W2       6791     TIP3     H1       HT       0.417000       1.00800           0
     20373 W2       6791     TIP3     H2       HT       0.417000       1.00800           0
     20374 W2       6792     TIP3     OH2      OT      -0.834000       15.9994           0
     20375 W2       6792     TIP3     H1       HT       0.417000       1.00800           0
     20376 W2       6792     TIP3     H2       HT       0.417000       1.00800           0
     20377 W2       6793     TIP3     OH2      OT      -0.834000       15.9994           0
     20378 W2       6793     TIP3     H1       HT       0.417000       1.00800           0
     20379 W2       6793     TIP3     H2       HT       0.417000       1.00800           0
     20380 W2       6794     TIP3     OH2      OT      -0.834000       15.9994           0
     20381 W2       6794     TIP3     H1       HT       0.417000       1.00800           0
     20382 W2       6794     TIP3     H2       HT       0.417000       1.00800           0
     20383 W2       6795     TIP3     OH2      OT      -0.834000       15.9994           0
     20384 W2       6795     TIP3     H1       HT       0.417000       1.00800           0
     20385 W2       6795     TIP3     H2       HT       0.417000       1.00800           0
     20386 W2       6796     TIP3     OH2      OT      -0.834000       15.9994           0
     20387 W2       6796     TIP3     H1       HT       0.417000       1.00800           0
     20388 W2       6796     TIP3     H2       HT       0.417000       1.00800           0
     20389 W2       6797     TIP3     OH2      OT      -0.834000       15.9994           0
     20390 W2       6797     TIP3     H1       HT       0.417000       1.00800           0
     20391 W2       6797     TIP3     H2       HT       0.417000       1.00800           0
     20392 W2       6798     TIP3     OH2      OT      -0.834000       15.9994           0
     20393 W2       6798     TIP3     H1       HT       0.417000       1.00800           0
     20394 W2       6798     TIP3     H2       HT       0.417000       1.00800           0
     20395 W2       6799     TIP3     OH2      OT      -0.834000       15.9994           0
     20396 W2       6799     TIP3     H1       HT       0.417000       1.00800           0
     20397 W2       6799     TIP3     H2       HT       0.417000       1.00800           0
     20398 W2       6800     TIP3     OH2      OT      -0.834000       15.9994           0
     20399 W2       6800     TIP3     H1       HT       0.417000       1.00800           0
     20400 W2       6800     TIP3     H2       HT       0.417000       1.00800           0
     20401 W2       6801     TIP3     OH2      OT      -0.834000       15.9994           0
     20402 W2       6801     TIP3     H1       HT       0.417000       1.00800           0
     20403 W2       6801     TIP3     H2       HT       0.417000       1.00800           0
     20404 W2       6802     TIP3     OH2      OT      -0.834000       15.9994           0
     20405 W2       6802     TIP3     H1       HT       0.417000       1.00800           0
     20406 W2       6802     TIP3     H2       HT       0.417000       1.00800           0
     20407 W2       6803     TIP3     OH2      OT      -0.834000       15.9994           0
     20408 W2       6803     TIP3     H1       HT       0.417000       1.00800           0
     20409 W2       6803     TIP3     H2       HT       0.417000       1.00800           0
     20410 W2       6804     TIP3     OH2      OT      -0.834000       15.9994           0
     20411 W2       6804     TIP3     H1       HT       0.417000       1.00800           0
     20412 W2       6804     TIP3     H2       HT       0.417000       1.00800           0
     20413 W2       6805     TIP3     OH2      OT      -0.834000       15.9994           0
     20414 W2       6805     TIP3     H1       HT       0.417000       1.00800           0
     20415 W2       6805     TIP3     H2       HT       0.417000       1.00800           0
     20416 W2       6806     TIP3     OH2      OT      -0.834000       15.9994           0
     20417 W2       6806     TIP3     H1       HT       0.417000       1.00800           0
     20418 W2       6806     TIP3     H2       HT       0.417000       1.00800           0
     20419 W2       6807     TIP3     OH2      OT      -0.834000       15.9994           0
     20420 W2       6807     TIP3     H1       HT       0.417000       1.00800           0
     20421 W2       6807     TIP3     H2       HT       0.417000       1.00800           0
     20422 W2       6808     TIP3     OH2      OT      -0.834000       15.9994           0
     20423 W2       6808     TIP3     H1       HT       0.417000       1.00800           0
     20424 W2       6808     TIP3     H2       HT       0.417000       1.00800           0
     20425 W2       6809     TIP3     OH2      OT      -0.834000       15.9994           0
     20426 W2       6809     TIP3     H1       HT       0.417000       1.00800           0
     20427 W2       6809     TIP3     H2       HT       0.417000       1.00800           0
     20428 W2       6810     TIP3     OH2      OT      -0.834000       15.9994           0
     20429 W2       6810     TIP3     H1       HT       0.417000       1.00800           0
     20430 W2       6810     TIP3     H2       HT       0.417000       1.00800           0
     20431 W2       6811     TIP3     OH2      OT      -0.834000       15.9994           0
     20432 W2       6811     TIP3     H1       HT       0.417000       1.00800           0
     20433 W2       6811     TIP3     H2       HT       0.417000       1.00800           0
     20434 W2       6812     TIP3     OH2      OT      -0.834000       15.9994           0
     20435 W2       6812     TIP3     H1       HT       0.417000       1.00800           0
     20436 W2       6812     TIP3     H2       HT       0.417000       1.00800           0
     20437 W2       6813     TIP3     OH2      OT      -0.834000       15.9994           0
     20438 W2       6813     TIP3     H1       HT       0.417000       1.00800           0
     20439 W2       6813     TIP3     H2       HT       0.417000       1.00800           0
     20440 W2       6814     TIP3     OH2      OT      -0.834000       15.9994           0
     20441 W2       6814     TIP3     H1       HT       0.417000       1.00800           0
     20442 W2       6814     TIP3     H2       HT       0.417000       1.00800           0
     20443 W2       6815     TIP3     OH2      OT      -0.834000       15.9994           0
     20444 W2       6815     TIP3     H1       HT       0.417000       1.00800           0
     20445 W2       6815     TIP3     H2       HT       0.417000       1.00800           0
     20446 W2       6816     TIP3     OH2      OT      -0.834000       15.9994           0
     20447 W2       6816     TIP3     H1       HT       0.417000       1.00800           0
     20448 W2       6816     TIP3     H2       HT       0.417000       1.00800           0
     20449 W2       6817     TIP3     OH2      OT      -0.834000       15.9994           0
     20450 W2       6817     TIP3     H1       HT       0.417000       1.00800           0
     20451 W2       6817     TIP3     H2       HT       0.417000       1.00800           0
     20452 W2       6818     TIP3     OH2      OT      -0.834000       15.9994           0
     20453 W2       6818     TIP3     H1       HT       0.417000       1.00800           0
     20454 W2       6818     TIP3     H2       HT       0.417000       1.00800           0
     20455 W2       6819     TIP3     OH2      OT      -0.834000       15.9994           0
     20456 W2       6819     TIP3     H1       HT       0.417000       1.00800           0
     20457 W2       6819     TIP3     H2       HT       0.417000       1.00800           0
     20458 W2       6820     TIP3     OH2      OT      -0.834000       15.9994           0
     20459 W2       6820     TIP3     H1       HT       0.417000       1.00800           0
     20460 W2       6820     TIP3     H2       HT       0.417000       1.00800           0
     20461 W2       6821     TIP3     OH2      OT      -0.834000       15.9994           0
     20462 W2       6821     TIP3     H1       HT       0.417000       1.00800           0
     20463 W2       6821     TIP3     H2       HT       0.417000       1.00800           0
     20464 W2       6822     TIP3     OH2      OT      -0.834000       15.9994           0
     20465 W2       6822     TIP3     H1       HT       0.417000       1.00800           0
     20466 W2       6822     TIP3     H2       HT       0.417000       1.00800           0
     20467 W2       6823     TIP3     OH2      OT      -0.834000       15.9994           0
     20468 W2       6823     TIP3     H1       HT       0.417000       1.00800           0
     20469 W2       6823     TIP3     H2       HT       0.417000       1.00800           0
     20470 W2       6824     TIP3     OH2      OT      -0.834000       15.9994           0
     20471 W2       6824     TIP3     H1       HT       0.417000       1.00800           0
     20472 W2       6824     TIP3     H2       HT       0.417000       1.00800           0
     20473 W2       6825     TIP3     OH2      OT      -0.834000       15.9994           0
     20474 W2       6825     TIP3     H1       HT       0.417000       1.00800           0
     20475 W2       6825     TIP3     H2       HT       0.417000       1.00800           0
     20476 W2       6826     TIP3     OH2      OT      -0.834000       15.9994           0
     20477 W2       6826     TIP3     H1       HT       0.417000       1.00800           0
     20478 W2       6826     TIP3     H2       HT       0.417000       1.00800           0
     20479 W2       6827     TIP3     OH2      OT      -0.834000       15.9994           0
     20480 W2       6827     TIP3     H1       HT       0.417000       1.00800           0
     20481 W2       6827     TIP3     H2       HT       0.417000       1.00800           0
     20482 W2       6828     TIP3     OH2      OT      -0.834000       15.9994           0
     20483 W2       6828     TIP3     H1       HT       0.417000       1.00800           0
     20484 W2       6828     TIP3     H2       HT       0.417000       1.00800           0
     20485 W2       6829     TIP3     OH2      OT      -0.834000       15.9994           0
     20486 W2       6829     TIP3     H1       HT       0.417000       1.00800           0
     20487 W2       6829     TIP3     H2       HT       0.417000       1.00800           0
     20488 W2       6830     TIP3     OH2      OT      -0.834000       15.9994           0
     20489 W2       6830     TIP3     H1       HT       0.417000       1.00800           0
     20490 W2       6830     TIP3     H2       HT       0.417000       1.00800           0
     20491 W2       6831     TIP3     OH2      OT      -0.834000       15.9994           0
     20492 W2       6831     TIP3     H1       HT       0.417000       1.00800           0
     20493 W2       6831     TIP3     H2       HT       0.417000       1.00800           0
     20494 W2       6832     TIP3     OH2      OT      -0.834000       15.9994           0
     20495 W2       6832     TIP3     H1       HT       0.417000       1.00800           0
     20496 W2       6832     TIP3     H2       HT       0.417000       1.00800           0
     20497 W2       6833     TIP3     OH2      OT      -0.834000       15.9994           0
     20498 W2       6833     TIP3     H1       HT       0.417000       1.00800           0
     20499 W2       6833     TIP3     H2       HT       0.417000       1.00800           0
     20500 W2       6834     TIP3     OH2      OT      -0.834000       15.9994           0
     20501 W2       6834     TIP3     H1       HT       0.417000       1.00800           0
     20502 W2       6834     TIP3     H2       HT       0.417000       1.00800           0
     20503 W2       6835     TIP3     OH2      OT      -0.834000       15.9994           0
     20504 W2       6835     TIP3     H1       HT       0.417000       1.00800           0
     20505 W2       6835     TIP3     H2       HT       0.417000       1.00800           0
     20506 W2       6836     TIP3     OH2      OT      -0.834000       15.9994           0
     20507 W2       6836     TIP3     H1       HT       0.417000       1.00800           0
     20508 W2       6836     TIP3     H2       HT       0.417000       1.00800           0
     20509 W2       6837     TIP3     OH2      OT      -0.834000       15.9994           0
     20510 W2       6837     TIP3     H1       HT       0.417000       1.00800           0
     20511 W2       6837     TIP3     H2       HT       0.417000       1.00800           0
     20512 W2       6838     TIP3     OH2      OT      -0.834000       15.9994           0
     20513 W2       6838     TIP3     H1       HT       0.417000       1.00800           0
     20514 W2       6838     TIP3     H2       HT       0.417000       1.00800           0
     20515 W2       6839     TIP3     OH2      OT      -0.834000       15.9994           0
     20516 W2       6839     TIP3     H1       HT       0.417000       1.00800           0
     20517 W2       6839     TIP3     H2       HT       0.417000       1.00800           0
     20518 W2       6840     TIP3     OH2      OT      -0.834000       15.9994           0
     20519 W2       6840     TIP3     H1       HT       0.417000       1.00800           0
     20520 W2       6840     TIP3     H2       HT       0.417000       1.00800           0
     20521 W2       6841     TIP3     OH2      OT      -0.834000       15.9994           0
     20522 W2       6841     TIP3     H1       HT       0.417000       1.00800           0
     20523 W2       6841     TIP3     H2       HT       0.417000       1.00800           0
     20524 W2       6842     TIP3     OH2      OT      -0.834000       15.9994           0
     20525 W2       6842     TIP3     H1       HT       0.417000       1.00800           0
     20526 W2       6842     TIP3     H2       HT       0.417000       1.00800           0
     20527 W2       6843     TIP3     OH2      OT      -0.834000       15.9994           0
     20528 W2       6843     TIP3     H1       HT       0.417000       1.00800           0
     20529 W2       6843     TIP3     H2       HT       0.417000       1.00800           0
     20530 W2       6844     TIP3     OH2      OT      -0.834000       15.9994           0
     20531 W2       6844     TIP3     H1       HT       0.417000       1.00800           0
     20532 W2       6844     TIP3     H2       HT       0.417000       1.00800           0
     20533 W2       6845     TIP3     OH2      OT      -0.834000       15.9994           0
     20534 W2       6845     TIP3     H1       HT       0.417000       1.00800           0
     20535 W2       6845     TIP3     H2       HT       0.417000       1.00800           0
     20536 W2       6846     TIP3     OH2      OT      -0.834000       15.9994           0
     20537 W2       6846     TIP3     H1       HT       0.417000       1.00800           0
     20538 W2       6846     TIP3     H2       HT       0.417000       1.00800           0
     20539 W2       6847     TIP3     OH2      OT      -0.834000       15.9994           0
     20540 W2       6847     TIP3     H1       HT       0.417000       1.00800           0
     20541 W2       6847     TIP3     H2       HT       0.417000       1.00800           0
     20542 W2       6848     TIP3     OH2      OT      -0.834000       15.9994           0
     20543 W2       6848     TIP3     H1       HT       0.417000       1.00800           0
     20544 W2       6848     TIP3     H2       HT       0.417000       1.00800           0
     20545 W2       6849     TIP3     OH2      OT      -0.834000       15.9994           0
     20546 W2       6849     TIP3     H1       HT       0.417000       1.00800           0
     20547 W2       6849     TIP3     H2       HT       0.417000       1.00800           0
     20548 W2       6850     TIP3     OH2      OT      -0.834000       15.9994           0
     20549 W2       6850     TIP3     H1       HT       0.417000       1.00800           0
     20550 W2       6850     TIP3     H2       HT       0.417000       1.00800           0
     20551 W2       6851     TIP3     OH2      OT      -0.834000       15.9994           0
     20552 W2       6851     TIP3     H1       HT       0.417000       1.00800           0
     20553 W2       6851     TIP3     H2       HT       0.417000       1.00800           0
     20554 W2       6852     TIP3     OH2      OT      -0.834000       15.9994           0
     20555 W2       6852     TIP3     H1       HT       0.417000       1.00800           0
     20556 W2       6852     TIP3     H2       HT       0.417000       1.00800           0
     20557 W2       6853     TIP3     OH2      OT      -0.834000       15.9994           0
     20558 W2       6853     TIP3     H1       HT       0.417000       1.00800           0
     20559 W2       6853     TIP3     H2       HT       0.417000       1.00800           0
     20560 W2       6854     TIP3     OH2      OT      -0.834000       15.9994           0
     20561 W2       6854     TIP3     H1       HT       0.417000       1.00800           0
     20562 W2       6854     TIP3     H2       HT       0.417000       1.00800           0
     20563 W2       6855     TIP3     OH2      OT      -0.834000       15.9994           0
     20564 W2       6855     TIP3     H1       HT       0.417000       1.00800           0
     20565 W2       6855     TIP3     H2       HT       0.417000       1.00800           0
     20566 W2       6856     TIP3     OH2      OT      -0.834000       15.9994           0
     20567 W2       6856     TIP3     H1       HT       0.417000       1.00800           0
     20568 W2       6856     TIP3     H2       HT       0.417000       1.00800           0
     20569 W2       6857     TIP3     OH2      OT      -0.834000       15.9994           0
     20570 W2       6857     TIP3     H1       HT       0.417000       1.00800           0
     20571 W2       6857     TIP3     H2       HT       0.417000       1.00800           0
     20572 W2       6858     TIP3     OH2      OT      -0.834000       15.9994           0
     20573 W2       6858     TIP3     H1       HT       0.417000       1.00800           0
     20574 W2       6858     TIP3     H2       HT       0.417000       1.00800           0
     20575 W2       6859     TIP3     OH2      OT      -0.834000       15.9994           0
     20576 W2       6859     TIP3     H1       HT       0.417000       1.00800           0
     20577 W2       6859     TIP3     H2       HT       0.417000       1.00800           0
     20578 W2       6860     TIP3     OH2      OT      -0.834000       15.9994           0
     20579 W2       6860     TIP3     H1       HT       0.417000       1.00800           0
     20580 W2       6860     TIP3     H2       HT       0.417000       1.00800           0
     20581 W2       6861     TIP3     OH2      OT      -0.834000       15.9994           0
     20582 W2       6861     TIP3     H1       HT       0.417000       1.00800           0
     20583 W2       6861     TIP3     H2       HT       0.417000       1.00800           0
     20584 W2       6862     TIP3     OH2      OT      -0.834000       15.9994           0
     20585 W2       6862     TIP3     H1       HT       0.417000       1.00800           0
     20586 W2       6862     TIP3     H2       HT       0.417000       1.00800           0
     20587 W2       6863     TIP3     OH2      OT      -0.834000       15.9994           0
     20588 W2       6863     TIP3     H1       HT       0.417000       1.00800           0
     20589 W2       6863     TIP3     H2       HT       0.417000       1.00800           0
     20590 W2       6864     TIP3     OH2      OT      -0.834000       15.9994           0
     20591 W2       6864     TIP3     H1       HT       0.417000       1.00800           0
     20592 W2       6864     TIP3     H2       HT       0.417000       1.00800           0
     20593 W2       6865     TIP3     OH2      OT      -0.834000       15.9994           0
     20594 W2       6865     TIP3     H1       HT       0.417000       1.00800           0
     20595 W2       6865     TIP3     H2       HT       0.417000       1.00800           0
     20596 W2       6866     TIP3     OH2      OT      -0.834000       15.9994           0
     20597 W2       6866     TIP3     H1       HT       0.417000       1.00800           0
     20598 W2       6866     TIP3     H2       HT       0.417000       1.00800           0
     20599 W2       6867     TIP3     OH2      OT      -0.834000       15.9994           0
     20600 W2       6867     TIP3     H1       HT       0.417000       1.00800           0
     20601 W2       6867     TIP3     H2       HT       0.417000       1.00800           0
     20602 W2       6868     TIP3     OH2      OT      -0.834000       15.9994           0
     20603 W2       6868     TIP3     H1       HT       0.417000       1.00800           0
     20604 W2       6868     TIP3     H2       HT       0.417000       1.00800           0
     20605 W2       6869     TIP3     OH2      OT      -0.834000       15.9994           0
     20606 W2       6869     TIP3     H1       HT       0.417000       1.00800           0
     20607 W2       6869     TIP3     H2       HT       0.417000       1.00800           0
     20608 W2       6870     TIP3     OH2      OT      -0.834000       15.9994           0
     20609 W2       6870     TIP3     H1       HT       0.417000       1.00800           0
     20610 W2       6870     TIP3     H2       HT       0.417000       1.00800           0
     20611 W2       6871     TIP3     OH2      OT      -0.834000       15.9994           0
     20612 W2       6871     TIP3     H1       HT       0.417000       1.00800           0
     20613 W2       6871     TIP3     H2       HT       0.417000       1.00800           0
     20614 W2       6872     TIP3     OH2      OT      -0.834000       15.9994           0
     20615 W2       6872     TIP3     H1       HT       0.417000       1.00800           0
     20616 W2       6872     TIP3     H2       HT       0.417000       1.00800           0
     20617 W2       6873     TIP3     OH2      OT      -0.834000       15.9994           0
     20618 W2       6873     TIP3     H1       HT       0.417000       1.00800           0
     20619 W2       6873     TIP3     H2       HT       0.417000       1.00800           0
     20620 W2       6874     TIP3     OH2      OT      -0.834000       15.9994           0
     20621 W2       6874     TIP3     H1       HT       0.417000       1.00800           0
     20622 W2       6874     TIP3     H2       HT       0.417000       1.00800           0
     20623 W2       6875     TIP3     OH2      OT      -0.834000       15.9994           0
     20624 W2       6875     TIP3     H1       HT       0.417000       1.00800           0
     20625 W2       6875     TIP3     H2       HT       0.417000       1.00800           0
     20626 W2       6876     TIP3     OH2      OT      -0.834000       15.9994           0
     20627 W2       6876     TIP3     H1       HT       0.417000       1.00800           0
     20628 W2       6876     TIP3     H2       HT       0.417000       1.00800           0
     20629 W2       6877     TIP3     OH2      OT      -0.834000       15.9994           0
     20630 W2       6877     TIP3     H1       HT       0.417000       1.00800           0
     20631 W2       6877     TIP3     H2       HT       0.417000       1.00800           0
     20632 W2       6878     TIP3     OH2      OT      -0.834000       15.9994           0
     20633 W2       6878     TIP3     H1       HT       0.417000       1.00800           0
     20634 W2       6878     TIP3     H2       HT       0.417000       1.00800           0
     20635 W2       6879     TIP3     OH2      OT      -0.834000       15.9994           0
     20636 W2       6879     TIP3     H1       HT       0.417000       1.00800           0
     20637 W2       6879     TIP3     H2       HT       0.417000       1.00800           0
     20638 W2       6880     TIP3     OH2      OT      -0.834000       15.9994           0
     20639 W2       6880     TIP3     H1       HT       0.417000       1.00800           0
     20640 W2       6880     TIP3     H2       HT       0.417000       1.00800           0
     20641 W2       6881     TIP3     OH2      OT      -0.834000       15.9994           0
     20642 W2       6881     TIP3     H1       HT       0.417000       1.00800           0
     20643 W2       6881     TIP3     H2       HT       0.417000       1.00800           0
     20644 W2       6882     TIP3     OH2      OT      -0.834000       15.9994           0
     20645 W2       6882     TIP3     H1       HT       0.417000       1.00800           0
     20646 W2       6882     TIP3     H2       HT       0.417000       1.00800           0
     20647 W2       6883     TIP3     OH2      OT      -0.834000       15.9994           0
     20648 W2       6883     TIP3     H1       HT       0.417000       1.00800           0
     20649 W2       6883     TIP3     H2       HT       0.417000       1.00800           0
     20650 W2       6884     TIP3     OH2      OT      -0.834000       15.9994           0
     20651 W2       6884     TIP3     H1       HT       0.417000       1.00800           0
     20652 W2       6884     TIP3     H2       HT       0.417000       1.00800           0
     20653 W2       6885     TIP3     OH2      OT      -0.834000       15.9994           0
     20654 W2       6885     TIP3     H1       HT       0.417000       1.00800           0
     20655 W2       6885     TIP3     H2       HT       0.417000       1.00800           0
     20656 W2       6886     TIP3     OH2      OT      -0.834000       15.9994           0
     20657 W2       6886     TIP3     H1       HT       0.417000       1.00800           0
     20658 W2       6886     TIP3     H2       HT       0.417000       1.00800           0
     20659 W2       6887     TIP3     OH2      OT      -0.834000       15.9994           0
     20660 W2       6887     TIP3     H1       HT       0.417000       1.00800           0
     20661 W2       6887     TIP3     H2       HT       0.417000       1.00800           0
     20662 W2       6888     TIP3     OH2      OT      -0.834000       15.9994           0
     20663 W2       6888     TIP3     H1       HT       0.417000       1.00800           0
     20664 W2       6888     TIP3     H2       HT       0.417000       1.00800           0
     20665 W2       6889     TIP3     OH2      OT      -0.834000       15.9994           0
     20666 W2       6889     TIP3     H1       HT       0.417000       1.00800           0
     20667 W2       6889     TIP3     H2       HT       0.417000       1.00800           0
     20668 W2       6890     TIP3     OH2      OT      -0.834000       15.9994           0
     20669 W2       6890     TIP3     H1       HT       0.417000       1.00800           0
     20670 W2       6890     TIP3     H2       HT       0.417000       1.00800           0
     20671 W2       6891     TIP3     OH2      OT      -0.834000       15.9994           0
     20672 W2       6891     TIP3     H1       HT       0.417000       1.00800           0
     20673 W2       6891     TIP3     H2       HT       0.417000       1.00800           0
     20674 W2       6892     TIP3     OH2      OT      -0.834000       15.9994           0
     20675 W2       6892     TIP3     H1       HT       0.417000       1.00800           0
     20676 W2       6892     TIP3     H2       HT       0.417000       1.00800           0
     20677 W2       6893     TIP3     OH2      OT      -0.834000       15.9994           0
     20678 W2       6893     TIP3     H1       HT       0.417000       1.00800           0
     20679 W2       6893     TIP3     H2       HT       0.417000       1.00800           0
     20680 W2       6894     TIP3     OH2      OT      -0.834000       15.9994           0
     20681 W2       6894     TIP3     H1       HT       0.417000       1.00800           0
     20682 W2       6894     TIP3     H2       HT       0.417000       1.00800           0
     20683 W2       6895     TIP3     OH2      OT      -0.834000       15.9994           0
     20684 W2       6895     TIP3     H1       HT       0.417000       1.00800           0
     20685 W2       6895     TIP3     H2       HT       0.417000       1.00800           0
     20686 W2       6896     TIP3     OH2      OT      -0.834000       15.9994           0
     20687 W2       6896     TIP3     H1       HT       0.417000       1.00800           0
     20688 W2       6896     TIP3     H2       HT       0.417000       1.00800           0
     20689 W2       6897     TIP3     OH2      OT      -0.834000       15.9994           0
     20690 W2       6897     TIP3     H1       HT       0.417000       1.00800           0
     20691 W2       6897     TIP3     H2       HT       0.417000       1.00800           0
     20692 W2       6898     TIP3     OH2      OT      -0.834000       15.9994           0
     20693 W2       6898     TIP3     H1       HT       0.417000       1.00800           0
     20694 W2       6898     TIP3     H2       HT       0.417000       1.00800           0
     20695 W2       6899     TIP3     OH2      OT      -0.834000       15.9994           0
     20696 W2       6899     TIP3     H1       HT       0.417000       1.00800           0
     20697 W2       6899     TIP3     H2       HT       0.417000       1.00800           0
     20698 W2       6900     TIP3     OH2      OT      -0.834000       15.9994           0
     20699 W2       6900     TIP3     H1       HT       0.417000       1.00800           0
     20700 W2       6900     TIP3     H2       HT       0.417000       1.00800           0
     20701 W2       6901     TIP3     OH2      OT      -0.834000       15.9994           0
     20702 W2       6901     TIP3     H1       HT       0.417000       1.00800           0
     20703 W2       6901     TIP3     H2       HT       0.417000       1.00800           0
     20704 W2       6902     TIP3     OH2      OT      -0.834000       15.9994           0
     20705 W2       6902     TIP3     H1       HT       0.417000       1.00800           0
     20706 W2       6902     TIP3     H2       HT       0.417000       1.00800           0
     20707 W2       6903     TIP3     OH2      OT      -0.834000       15.9994           0
     20708 W2       6903     TIP3     H1       HT       0.417000       1.00800           0
     20709 W2       6903     TIP3     H2       HT       0.417000       1.00800           0
     20710 W2       6904     TIP3     OH2      OT      -0.834000       15.9994           0
     20711 W2       6904     TIP3     H1       HT       0.417000       1.00800           0
     20712 W2       6904     TIP3     H2       HT       0.417000       1.00800           0
     20713 W2       6905     TIP3     OH2      OT      -0.834000       15.9994           0
     20714 W2       6905     TIP3     H1       HT       0.417000       1.00800           0
     20715 W2       6905     TIP3     H2       HT       0.417000       1.00800           0
     20716 W2       6906     TIP3     OH2      OT      -0.834000       15.9994           0
     20717 W2       6906     TIP3     H1       HT       0.417000       1.00800           0
     20718 W2       6906     TIP3     H2       HT       0.417000       1.00800           0
     20719 W2       6907     TIP3     OH2      OT      -0.834000       15.9994           0
     20720 W2       6907     TIP3     H1       HT       0.417000       1.00800           0
     20721 W2       6907     TIP3     H2       HT       0.417000       1.00800           0
     20722 W2       6908     TIP3     OH2      OT      -0.834000       15.9994           0
     20723 W2       6908     TIP3     H1       HT       0.417000       1.00800           0
     20724 W2       6908     TIP3     H2       HT       0.417000       1.00800           0
     20725 W2       6909     TIP3     OH2      OT      -0.834000       15.9994           0
     20726 W2       6909     TIP3     H1       HT       0.417000       1.00800           0
     20727 W2       6909     TIP3     H2       HT       0.417000       1.00800           0
     20728 W2       6910     TIP3     OH2      OT      -0.834000       15.9994           0
     20729 W2       6910     TIP3     H1       HT       0.417000       1.00800           0
     20730 W2       6910     TIP3     H2       HT       0.417000       1.00800           0
     20731 W2       6911     TIP3     OH2      OT      -0.834000       15.9994           0
     20732 W2       6911     TIP3     H1       HT       0.417000       1.00800           0
     20733 W2       6911     TIP3     H2       HT       0.417000       1.00800           0
     20734 W2       6912     TIP3     OH2      OT      -0.834000       15.9994           0
     20735 W2       6912     TIP3     H1       HT       0.417000       1.00800           0
     20736 W2       6912     TIP3     H2       HT       0.417000       1.00800           0
     20737 W2       6913     TIP3     OH2      OT      -0.834000       15.9994           0
     20738 W2       6913     TIP3     H1       HT       0.417000       1.00800           0
     20739 W2       6913     TIP3     H2       HT       0.417000       1.00800           0
     20740 W2       6914     TIP3     OH2      OT      -0.834000       15.9994           0
     20741 W2       6914     TIP3     H1       HT       0.417000       1.00800           0
     20742 W2       6914     TIP3     H2       HT       0.417000       1.00800           0
     20743 W2       6915     TIP3     OH2      OT      -0.834000       15.9994           0
     20744 W2       6915     TIP3     H1       HT       0.417000       1.00800           0
     20745 W2       6915     TIP3     H2       HT       0.417000       1.00800           0
     20746 W2       6916     TIP3     OH2      OT      -0.834000       15.9994           0
     20747 W2       6916     TIP3     H1       HT       0.417000       1.00800           0
     20748 W2       6916     TIP3     H2       HT       0.417000       1.00800           0
     20749 W2       6917     TIP3     OH2      OT      -0.834000       15.9994           0
     20750 W2       6917     TIP3     H1       HT       0.417000       1.00800           0
     20751 W2       6917     TIP3     H2       HT       0.417000       1.00800           0
     20752 W2       6918     TIP3     OH2      OT      -0.834000       15.9994           0
     20753 W2       6918     TIP3     H1       HT       0.417000       1.00800           0
     20754 W2       6918     TIP3     H2       HT       0.417000       1.00800           0
     20755 W2       6919     TIP3     OH2      OT      -0.834000       15.9994           0
     20756 W2       6919     TIP3     H1       HT       0.417000       1.00800           0
     20757 W2       6919     TIP3     H2       HT       0.417000       1.00800           0
     20758 W2       6920     TIP3     OH2      OT      -0.834000       15.9994           0
     20759 W2       6920     TIP3     H1       HT       0.417000       1.00800           0
     20760 W2       6920     TIP3     H2       HT       0.417000       1.00800           0
     20761 W2       6921     TIP3     OH2      OT      -0.834000       15.9994           0
     20762 W2       6921     TIP3     H1       HT       0.417000       1.00800           0
     20763 W2       6921     TIP3     H2       HT       0.417000       1.00800           0
     20764 W2       6922     TIP3     OH2      OT      -0.834000       15.9994           0
     20765 W2       6922     TIP3     H1       HT       0.417000       1.00800           0
     20766 W2       6922     TIP3     H2       HT       0.417000       1.00800           0
     20767 W2       6923     TIP3     OH2      OT      -0.834000       15.9994           0
     20768 W2       6923     TIP3     H1       HT       0.417000       1.00800           0
     20769 W2       6923     TIP3     H2       HT       0.417000       1.00800           0
     20770 W2       6924     TIP3     OH2      OT      -0.834000       15.9994           0
     20771 W2       6924     TIP3     H1       HT       0.417000       1.00800           0
     20772 W2       6924     TIP3     H2       HT       0.417000       1.00800           0
     20773 W2       6925     TIP3     OH2      OT      -0.834000       15.9994           0
     20774 W2       6925     TIP3     H1       HT       0.417000       1.00800           0
     20775 W2       6925     TIP3     H2       HT       0.417000       1.00800           0
     20776 W2       6926     TIP3     OH2      OT      -0.834000       15.9994           0
     20777 W2       6926     TIP3     H1       HT       0.417000       1.00800           0
     20778 W2       6926     TIP3     H2       HT       0.417000       1.00800           0
     20779 W2       6927     TIP3     OH2      OT      -0.834000       15.9994           0
     20780 W2       6927     TIP3     H1       HT       0.417000       1.00800           0
     20781 W2       6927     TIP3     H2       HT       0.417000       1.00800           0
     20782 W2       6928     TIP3     OH2      OT      -0.834000       15.9994           0
     20783 W2       6928     TIP3     H1       HT       0.417000       1.00800           0
     20784 W2       6928     TIP3     H2       HT       0.417000       1.00800           0
     20785 W2       6929     TIP3     OH2      OT      -0.834000       15.9994           0
     20786 W2       6929     TIP3     H1       HT       0.417000       1.00800           0
     20787 W2       6929     TIP3     H2       HT       0.417000       1.00800           0
     20788 W2       6930     TIP3     OH2      OT      -0.834000       15.9994           0
     20789 W2       6930     TIP3     H1       HT       0.417000       1.00800           0
     20790 W2       6930     TIP3     H2       HT       0.417000       1.00800           0
     20791 W2       6931     TIP3     OH2      OT      -0.834000       15.9994           0
     20792 W2       6931     TIP3     H1       HT       0.417000       1.00800           0
     20793 W2       6931     TIP3     H2       HT       0.417000       1.00800           0
     20794 W2       6932     TIP3     OH2      OT      -0.834000       15.9994           0
     20795 W2       6932     TIP3     H1       HT       0.417000       1.00800           0
     20796 W2       6932     TIP3     H2       HT       0.417000       1.00800           0
     20797 W2       6933     TIP3     OH2      OT      -0.834000       15.9994           0
     20798 W2       6933     TIP3     H1       HT       0.417000       1.00800           0
     20799 W2       6933     TIP3     H2       HT       0.417000       1.00800           0
     20800 W2       6934     TIP3     OH2      OT      -0.834000       15.9994           0
     20801 W2       6934     TIP3     H1       HT       0.417000       1.00800           0
     20802 W2       6934     TIP3     H2       HT       0.417000       1.00800           0
     20803 W2       6935     TIP3     OH2      OT      -0.834000       15.9994           0
     20804 W2       6935     TIP3     H1       HT       0.417000       1.00800           0
     20805 W2       6935     TIP3     H2       HT       0.417000       1.00800           0
     20806 W2       6936     TIP3     OH2      OT      -0.834000       15.9994           0
     20807 W2       6936     TIP3     H1       HT       0.417000       1.00800           0
     20808 W2       6936     TIP3     H2       HT       0.417000       1.00800           0
     20809 W2       6937     TIP3     OH2      OT      -0.834000       15.9994           0
     20810 W2       6937     TIP3     H1       HT       0.417000       1.00800           0
     20811 W2       6937     TIP3     H2       HT       0.417000       1.00800           0
     20812 W2       6938     TIP3     OH2      OT      -0.834000       15.9994           0
     20813 W2       6938     TIP3     H1       HT       0.417000       1.00800           0
     20814 W2       6938     TIP3     H2       HT       0.417000       1.00800           0
     20815 W2       6939     TIP3     OH2      OT      -0.834000       15.9994           0
     20816 W2       6939     TIP3     H1       HT       0.417000       1.00800           0
     20817 W2       6939     TIP3     H2       HT       0.417000       1.00800           0
     20818 W2       6940     TIP3     OH2      OT      -0.834000       15.9994           0
     20819 W2       6940     TIP3     H1       HT       0.417000       1.00800           0
     20820 W2       6940     TIP3     H2       HT       0.417000       1.00800           0
     20821 W2       6941     TIP3     OH2      OT      -0.834000       15.9994           0
     20822 W2       6941     TIP3     H1       HT       0.417000       1.00800           0
     20823 W2       6941     TIP3     H2       HT       0.417000       1.00800           0
     20824 W2       6942     TIP3     OH2      OT      -0.834000       15.9994           0
     20825 W2       6942     TIP3     H1       HT       0.417000       1.00800           0
     20826 W2       6942     TIP3     H2       HT       0.417000       1.00800           0
     20827 W2       6943     TIP3     OH2      OT      -0.834000       15.9994           0
     20828 W2       6943     TIP3     H1       HT       0.417000       1.00800           0
     20829 W2       6943     TIP3     H2       HT       0.417000       1.00800           0
     20830 W2       6944     TIP3     OH2      OT      -0.834000       15.9994           0
     20831 W2       6944     TIP3     H1       HT       0.417000       1.00800           0
     20832 W2       6944     TIP3     H2       HT       0.417000       1.00800           0
     20833 W2       6945     TIP3     OH2      OT      -0.834000       15.9994           0
     20834 W2       6945     TIP3     H1       HT       0.417000       1.00800           0
     20835 W2       6945     TIP3     H2       HT       0.417000       1.00800           0
     20836 W2       6946     TIP3     OH2      OT      -0.834000       15.9994           0
     20837 W2       6946     TIP3     H1       HT       0.417000       1.00800           0
     20838 W2       6946     TIP3     H2       HT       0.417000       1.00800           0
     20839 W2       6947     TIP3     OH2      OT      -0.834000       15.9994           0
     20840 W2       6947     TIP3     H1       HT       0.417000       1.00800           0
     20841 W2       6947     TIP3     H2       HT       0.417000       1.00800           0
     20842 W2       6948     TIP3     OH2      OT      -0.834000       15.9994           0
     20843 W2       6948     TIP3     H1       HT       0.417000       1.00800           0
     20844 W2       6948     TIP3     H2       HT       0.417000       1.00800           0
     20845 W2       6949     TIP3     OH2      OT      -0.834000       15.9994           0
     20846 W2       6949     TIP3     H1       HT       0.417000       1.00800           0
     20847 W2       6949     TIP3     H2       HT       0.417000       1.00800           0
     20848 W2       6950     TIP3     OH2      OT      -0.834000       15.9994           0
     20849 W2       6950     TIP3     H1       HT       0.417000       1.00800           0
     20850 W2       6950     TIP3     H2       HT       0.417000       1.00800           0
     20851 W2       6951     TIP3     OH2      OT      -0.834000       15.9994           0
     20852 W2       6951     TIP3     H1       HT       0.417000       1.00800           0
     20853 W2       6951     TIP3     H2       HT       0.417000       1.00800           0
     20854 W2       6952     TIP3     OH2      OT      -0.834000       15.9994           0
     20855 W2       6952     TIP3     H1       HT       0.417000       1.00800           0
     20856 W2       6952     TIP3     H2       HT       0.417000       1.00800           0
     20857 W2       6953     TIP3     OH2      OT      -0.834000       15.9994           0
     20858 W2       6953     TIP3     H1       HT       0.417000       1.00800           0
     20859 W2       6953     TIP3     H2       HT       0.417000       1.00800           0
     20860 W2       6954     TIP3     OH2      OT      -0.834000       15.9994           0
     20861 W2       6954     TIP3     H1       HT       0.417000       1.00800           0
     20862 W2       6954     TIP3     H2       HT       0.417000       1.00800           0
     20863 W2       6955     TIP3     OH2      OT      -0.834000       15.9994           0
     20864 W2       6955     TIP3     H1       HT       0.417000       1.00800           0
     20865 W2       6955     TIP3     H2       HT       0.417000       1.00800           0
     20866 W2       6956     TIP3     OH2      OT      -0.834000       15.9994           0
     20867 W2       6956     TIP3     H1       HT       0.417000       1.00800           0
     20868 W2       6956     TIP3     H2       HT       0.417000       1.00800           0
     20869 W2       6957     TIP3     OH2      OT      -0.834000       15.9994           0
     20870 W2       6957     TIP3     H1       HT       0.417000       1.00800           0
     20871 W2       6957     TIP3     H2       HT       0.417000       1.00800           0
     20872 W2       6958     TIP3     OH2      OT      -0.834000       15.9994           0
     20873 W2       6958     TIP3     H1       HT       0.417000       1.00800           0
     20874 W2       6958     TIP3     H2       HT       0.417000       1.00800           0
     20875 W2       6959     TIP3     OH2      OT      -0.834000       15.9994           0
     20876 W2       6959     TIP3     H1       HT       0.417000       1.00800           0
     20877 W2       6959     TIP3     H2       HT       0.417000       1.00800           0
     20878 W2       6960     TIP3     OH2      OT      -0.834000       15.9994           0
     20879 W2       6960     TIP3     H1       HT       0.417000       1.00800           0
     20880 W2       6960     TIP3     H2       HT       0.417000       1.00800           0
     20881 W2       6961     TIP3     OH2      OT      -0.834000       15.9994           0
     20882 W2       6961     TIP3     H1       HT       0.417000       1.00800           0
     20883 W2       6961     TIP3     H2       HT       0.417000       1.00800           0
     20884 W2       6962     TIP3     OH2      OT      -0.834000       15.9994           0
     20885 W2       6962     TIP3     H1       HT       0.417000       1.00800           0
     20886 W2       6962     TIP3     H2       HT       0.417000       1.00800           0
     20887 W2       6963     TIP3     OH2      OT      -0.834000       15.9994           0
     20888 W2       6963     TIP3     H1       HT       0.417000       1.00800           0
     20889 W2       6963     TIP3     H2       HT       0.417000       1.00800           0
     20890 W2       6964     TIP3     OH2      OT      -0.834000       15.9994           0
     20891 W2       6964     TIP3     H1       HT       0.417000       1.00800           0
     20892 W2       6964     TIP3     H2       HT       0.417000       1.00800           0
     20893 W2       6965     TIP3     OH2      OT      -0.834000       15.9994           0
     20894 W2       6965     TIP3     H1       HT       0.417000       1.00800           0
     20895 W2       6965     TIP3     H2       HT       0.417000       1.00800           0
     20896 W2       6966     TIP3     OH2      OT      -0.834000       15.9994           0
     20897 W2       6966     TIP3     H1       HT       0.417000       1.00800           0
     20898 W2       6966     TIP3     H2       HT       0.417000       1.00800           0
     20899 W2       6967     TIP3     OH2      OT      -0.834000       15.9994           0
     20900 W2       6967     TIP3     H1       HT       0.417000       1.00800           0
     20901 W2       6967     TIP3     H2       HT       0.417000       1.00800           0
     20902 W2       6968     TIP3     OH2      OT      -0.834000       15.9994           0
     20903 W2       6968     TIP3     H1       HT       0.417000       1.00800           0
     20904 W2       6968     TIP3     H2       HT       0.417000       1.00800           0
     20905 W2       6969     TIP3     OH2      OT      -0.834000       15.9994           0
     20906 W2       6969     TIP3     H1       HT       0.417000       1.00800           0
     20907 W2       6969     TIP3     H2       HT       0.417000       1.00800           0
     20908 W2       6970     TIP3     OH2      OT      -0.834000       15.9994           0
     20909 W2       6970     TIP3     H1       HT       0.417000       1.00800           0
     20910 W2       6970     TIP3     H2       HT       0.417000       1.00800           0
     20911 W2       6971     TIP3     OH2      OT      -0.834000       15.9994           0
     20912 W2       6971     TIP3     H1       HT       0.417000       1.00800           0
     20913 W2       6971     TIP3     H2       HT       0.417000       1.00800           0
     20914 W2       6972     TIP3     OH2      OT      -0.834000       15.9994           0
     20915 W2       6972     TIP3     H1       HT       0.417000       1.00800           0
     20916 W2       6972     TIP3     H2       HT       0.417000       1.00800           0
     20917 W2       6973     TIP3     OH2      OT      -0.834000       15.9994           0
     20918 W2       6973     TIP3     H1       HT       0.417000       1.00800           0
     20919 W2       6973     TIP3     H2       HT       0.417000       1.00800           0
     20920 W2       6974     TIP3     OH2      OT      -0.834000       15.9994           0
     20921 W2       6974     TIP3     H1       HT       0.417000       1.00800           0
     20922 W2       6974     TIP3     H2       HT       0.417000       1.00800           0
     20923 W2       6975     TIP3     OH2      OT      -0.834000       15.9994           0
     20924 W2       6975     TIP3     H1       HT       0.417000       1.00800           0
     20925 W2       6975     TIP3     H2       HT       0.417000       1.00800           0
     20926 W2       6976     TIP3     OH2      OT      -0.834000       15.9994           0
     20927 W2       6976     TIP3     H1       HT       0.417000       1.00800           0
     20928 W2       6976     TIP3     H2       HT       0.417000       1.00800           0
     20929 W2       6977     TIP3     OH2      OT      -0.834000       15.9994           0
     20930 W2       6977     TIP3     H1       HT       0.417000       1.00800           0
     20931 W2       6977     TIP3     H2       HT       0.417000       1.00800           0
     20932 W2       6978     TIP3     OH2      OT      -0.834000       15.9994           0
     20933 W2       6978     TIP3     H1       HT       0.417000       1.00800           0
     20934 W2       6978     TIP3     H2       HT       0.417000       1.00800           0
     20935 W2       6979     TIP3     OH2      OT      -0.834000       15.9994           0
     20936 W2       6979     TIP3     H1       HT       0.417000       1.00800           0
     20937 W2       6979     TIP3     H2       HT       0.417000       1.00800           0
     20938 W2       6980     TIP3     OH2      OT      -0.834000       15.9994           0
     20939 W2       6980     TIP3     H1       HT       0.417000       1.00800           0
     20940 W2       6980     TIP3     H2       HT       0.417000       1.00800           0
     20941 W2       6981     TIP3     OH2      OT      -0.834000       15.9994           0
     20942 W2       6981     TIP3     H1       HT       0.417000       1.00800           0
     20943 W2       6981     TIP3     H2       HT       0.417000       1.00800           0
     20944 W2       6982     TIP3     OH2      OT      -0.834000       15.9994           0
     20945 W2       6982     TIP3     H1       HT       0.417000       1.00800           0
     20946 W2       6982     TIP3     H2       HT       0.417000       1.00800           0
     20947 W2       6983     TIP3     OH2      OT      -0.834000       15.9994           0
     20948 W2       6983     TIP3     H1       HT       0.417000       1.00800           0
     20949 W2       6983     TIP3     H2       HT       0.417000       1.00800           0
     20950 W2       6984     TIP3     OH2      OT      -0.834000       15.9994           0
     20951 W2       6984     TIP3     H1       HT       0.417000       1.00800           0
     20952 W2       6984     TIP3     H2       HT       0.417000       1.00800           0
     20953 W2       6985     TIP3     OH2      OT      -0.834000       15.9994           0
     20954 W2       6985     TIP3     H1       HT       0.417000       1.00800           0
     20955 W2       6985     TIP3     H2       HT       0.417000       1.00800           0
     20956 W2       6986     TIP3     OH2      OT      -0.834000       15.9994           0
     20957 W2       6986     TIP3     H1       HT       0.417000       1.00800           0
     20958 W2       6986     TIP3     H2       HT       0.417000       1.00800           0
     20959 W2       6987     TIP3     OH2      OT      -0.834000       15.9994           0
     20960 W2       6987     TIP3     H1       HT       0.417000       1.00800           0
     20961 W2       6987     TIP3     H2       HT       0.417000       1.00800           0
     20962 W2       6988     TIP3     OH2      OT      -0.834000       15.9994           0
     20963 W2       6988     TIP3     H1       HT       0.417000       1.00800           0
     20964 W2       6988     TIP3     H2       HT       0.417000       1.00800           0
     20965 W2       6989     TIP3     OH2      OT      -0.834000       15.9994           0
     20966 W2       6989     TIP3     H1       HT       0.417000       1.00800           0
     20967 W2       6989     TIP3     H2       HT       0.417000       1.00800           0
     20968 W2       6990     TIP3     OH2      OT      -0.834000       15.9994           0
     20969 W2       6990     TIP3     H1       HT       0.417000       1.00800           0
     20970 W2       6990     TIP3     H2       HT       0.417000       1.00800           0
     20971 W2       6991     TIP3     OH2      OT      -0.834000       15.9994           0
     20972 W2       6991     TIP3     H1       HT       0.417000       1.00800           0
     20973 W2       6991     TIP3     H2       HT       0.417000       1.00800           0
     20974 W2       6992     TIP3     OH2      OT      -0.834000       15.9994           0
     20975 W2       6992     TIP3     H1       HT       0.417000       1.00800           0
     20976 W2       6992     TIP3     H2       HT       0.417000       1.00800           0
     20977 W2       6993     TIP3     OH2      OT      -0.834000       15.9994           0
     20978 W2       6993     TIP3     H1       HT       0.417000       1.00800           0
     20979 W2       6993     TIP3     H2       HT       0.417000       1.00800           0
     20980 W2       6994     TIP3     OH2      OT      -0.834000       15.9994           0
     20981 W2       6994     TIP3     H1       HT       0.417000       1.00800           0
     20982 W2       6994     TIP3     H2       HT       0.417000       1.00800           0
     20983 W2       6995     TIP3     OH2      OT      -0.834000       15.9994           0
     20984 W2       6995     TIP3     H1       HT       0.417000       1.00800           0
     20985 W2       6995     TIP3     H2       HT       0.417000       1.00800           0
     20986 W2       6996     TIP3     OH2      OT      -0.834000       15.9994           0
     20987 W2       6996     TIP3     H1       HT       0.417000       1.00800           0
     20988 W2       6996     TIP3     H2       HT       0.417000       1.00800           0
     20989 W2       6997     TIP3     OH2      OT      -0.834000       15.9994           0
     20990 W2       6997     TIP3     H1       HT       0.417000       1.00800           0
     20991 W2       6997     TIP3     H2       HT       0.417000       1.00800           0
     20992 W2       6998     TIP3     OH2      OT      -0.834000       15.9994           0
     20993 W2       6998     TIP3     H1       HT       0.417000       1.00800           0
     20994 W2       6998     TIP3     H2       HT       0.417000       1.00800           0
     20995 W2       6999     TIP3     OH2      OT      -0.834000       15.9994           0
     20996 W2       6999     TIP3     H1       HT       0.417000       1.00800           0
     20997 W2       6999     TIP3     H2       HT       0.417000       1.00800           0
     20998 W2       7000     TIP3     OH2      OT      -0.834000       15.9994           0
     20999 W2       7000     TIP3     H1       HT       0.417000       1.00800           0
     21000 W2       7000     TIP3     H2       HT       0.417000       1.00800           0
     21001 W2       7001     TIP3     OH2      OT      -0.834000       15.9994           0
     21002 W2       7001     TIP3     H1       HT       0.417000       1.00800           0
     21003 W2       7001     TIP3     H2       HT       0.417000       1.00800           0
     21004 W2       7002     TIP3     OH2      OT      -0.834000       15.9994           0
     21005 W2       7002     TIP3     H1       HT       0.417000       1.00800           0
     21006 W2       7002     TIP3     H2       HT       0.417000       1.00800           0
     21007 W2       7003     TIP3     OH2      OT      -0.834000       15.9994           0
     21008 W2       7003     TIP3     H1       HT       0.417000       1.00800           0
     21009 W2       7003     TIP3     H2       HT       0.417000       1.00800           0
     21010 W2       7004     TIP3     OH2      OT      -0.834000       15.9994           0
     21011 W2       7004     TIP3     H1       HT       0.417000       1.00800           0
     21012 W2       7004     TIP3     H2       HT       0.417000       1.00800           0
     21013 W2       7005     TIP3     OH2      OT      -0.834000       15.9994           0
     21014 W2       7005     TIP3     H1       HT       0.417000       1.00800           0
     21015 W2       7005     TIP3     H2       HT       0.417000       1.00800           0
     21016 W2       7006     TIP3     OH2      OT      -0.834000       15.9994           0
     21017 W2       7006     TIP3     H1       HT       0.417000       1.00800           0
     21018 W2       7006     TIP3     H2       HT       0.417000       1.00800           0
     21019 W2       7007     TIP3     OH2      OT      -0.834000       15.9994           0
     21020 W2       7007     TIP3     H1       HT       0.417000       1.00800           0
     21021 W2       7007     TIP3     H2       HT       0.417000       1.00800           0
     21022 W2       7008     TIP3     OH2      OT      -0.834000       15.9994           0
     21023 W2       7008     TIP3     H1       HT       0.417000       1.00800           0
     21024 W2       7008     TIP3     H2       HT       0.417000       1.00800           0
     21025 W2       7009     TIP3     OH2      OT      -0.834000       15.9994           0
     21026 W2       7009     TIP3     H1       HT       0.417000       1.00800           0
     21027 W2       7009     TIP3     H2       HT       0.417000       1.00800           0
     21028 W2       7010     TIP3     OH2      OT      -0.834000       15.9994           0
     21029 W2       7010     TIP3     H1       HT       0.417000       1.00800           0
     21030 W2       7010     TIP3     H2       HT       0.417000       1.00800           0
     21031 W2       7011     TIP3     OH2      OT      -0.834000       15.9994           0
     21032 W2       7011     TIP3     H1       HT       0.417000       1.00800           0
     21033 W2       7011     TIP3     H2       HT       0.417000       1.00800           0
     21034 W2       7012     TIP3     OH2      OT      -0.834000       15.9994           0
     21035 W2       7012     TIP3     H1       HT       0.417000       1.00800           0
     21036 W2       7012     TIP3     H2       HT       0.417000       1.00800           0
     21037 W2       7013     TIP3     OH2      OT      -0.834000       15.9994           0
     21038 W2       7013     TIP3     H1       HT       0.417000       1.00800           0
     21039 W2       7013     TIP3     H2       HT       0.417000       1.00800           0
     21040 W2       7014     TIP3     OH2      OT      -0.834000       15.9994           0
     21041 W2       7014     TIP3     H1       HT       0.417000       1.00800           0
     21042 W2       7014     TIP3     H2       HT       0.417000       1.00800           0
     21043 W2       7015     TIP3     OH2      OT      -0.834000       15.9994           0
     21044 W2       7015     TIP3     H1       HT       0.417000       1.00800           0
     21045 W2       7015     TIP3     H2       HT       0.417000       1.00800           0
     21046 W2       7016     TIP3     OH2      OT      -0.834000       15.9994           0
     21047 W2       7016     TIP3     H1       HT       0.417000       1.00800           0
     21048 W2       7016     TIP3     H2       HT       0.417000       1.00800           0
     21049 W2       7017     TIP3     OH2      OT      -0.834000       15.9994           0
     21050 W2       7017     TIP3     H1       HT       0.417000       1.00800           0
     21051 W2       7017     TIP3     H2       HT       0.417000       1.00800           0
     21052 W2       7018     TIP3     OH2      OT      -0.834000       15.9994           0
     21053 W2       7018     TIP3     H1       HT       0.417000       1.00800           0
     21054 W2       7018     TIP3     H2       HT       0.417000       1.00800           0
     21055 W2       7019     TIP3     OH2      OT      -0.834000       15.9994           0
     21056 W2       7019     TIP3     H1       HT       0.417000       1.00800           0
     21057 W2       7019     TIP3     H2       HT       0.417000       1.00800           0
     21058 W2       7020     TIP3     OH2      OT      -0.834000       15.9994           0
     21059 W2       7020     TIP3     H1       HT       0.417000       1.00800           0
     21060 W2       7020     TIP3     H2       HT       0.417000       1.00800           0
     21061 W2       7021     TIP3     OH2      OT      -0.834000       15.9994           0
     21062 W2       7021     TIP3     H1       HT       0.417000       1.00800           0
     21063 W2       7021     TIP3     H2       HT       0.417000       1.00800           0
     21064 W2       7022     TIP3     OH2      OT      -0.834000       15.9994           0
     21065 W2       7022     TIP3     H1       HT       0.417000       1.00800           0
     21066 W2       7022     TIP3     H2       HT       0.417000       1.00800           0
     21067 W2       7023     TIP3     OH2      OT      -0.834000       15.9994           0
     21068 W2       7023     TIP3     H1       HT       0.417000       1.00800           0
     21069 W2       7023     TIP3     H2       HT       0.417000       1.00800           0
     21070 W2       7024     TIP3     OH2      OT      -0.834000       15.9994           0
     21071 W2       7024     TIP3     H1       HT       0.417000       1.00800           0
     21072 W2       7024     TIP3     H2       HT       0.417000       1.00800           0
     21073 W2       7025     TIP3     OH2      OT      -0.834000       15.9994           0
     21074 W2       7025     TIP3     H1       HT       0.417000       1.00800           0
     21075 W2       7025     TIP3     H2       HT       0.417000       1.00800           0
     21076 W2       7026     TIP3     OH2      OT      -0.834000       15.9994           0
     21077 W2       7026     TIP3     H1       HT       0.417000       1.00800           0
     21078 W2       7026     TIP3     H2       HT       0.417000       1.00800           0
     21079 W2       7027     TIP3     OH2      OT      -0.834000       15.9994           0
     21080 W2       7027     TIP3     H1       HT       0.417000       1.00800           0
     21081 W2       7027     TIP3     H2       HT       0.417000       1.00800           0
     21082 W2       7028     TIP3     OH2      OT      -0.834000       15.9994           0
     21083 W2       7028     TIP3     H1       HT       0.417000       1.00800           0
     21084 W2       7028     TIP3     H2       HT       0.417000       1.00800           0
     21085 W2       7029     TIP3     OH2      OT      -0.834000       15.9994           0
     21086 W2       7029     TIP3     H1       HT       0.417000       1.00800           0
     21087 W2       7029     TIP3     H2       HT       0.417000       1.00800           0
     21088 W2       7030     TIP3     OH2      OT      -0.834000       15.9994           0
     21089 W2       7030     TIP3     H1       HT       0.417000       1.00800           0
     21090 W2       7030     TIP3     H2       HT       0.417000       1.00800           0
     21091 W2       7031     TIP3     OH2      OT      -0.834000       15.9994           0
     21092 W2       7031     TIP3     H1       HT       0.417000       1.00800           0
     21093 W2       7031     TIP3     H2       HT       0.417000       1.00800           0
     21094 W2       7032     TIP3     OH2      OT      -0.834000       15.9994           0
     21095 W2       7032     TIP3     H1       HT       0.417000       1.00800           0
     21096 W2       7032     TIP3     H2       HT       0.417000       1.00800           0
     21097 W2       7033     TIP3     OH2      OT      -0.834000       15.9994           0
     21098 W2       7033     TIP3     H1       HT       0.417000       1.00800           0
     21099 W2       7033     TIP3     H2       HT       0.417000       1.00800           0
     21100 W2       7034     TIP3     OH2      OT      -0.834000       15.9994           0
     21101 W2       7034     TIP3     H1       HT       0.417000       1.00800           0
     21102 W2       7034     TIP3     H2       HT       0.417000       1.00800           0
     21103 W2       7035     TIP3     OH2      OT      -0.834000       15.9994           0
     21104 W2       7035     TIP3     H1       HT       0.417000       1.00800           0
     21105 W2       7035     TIP3     H2       HT       0.417000       1.00800           0
     21106 W2       7036     TIP3     OH2      OT      -0.834000       15.9994           0
     21107 W2       7036     TIP3     H1       HT       0.417000       1.00800           0
     21108 W2       7036     TIP3     H2       HT       0.417000       1.00800           0
     21109 W2       7037     TIP3     OH2      OT      -0.834000       15.9994           0
     21110 W2       7037     TIP3     H1       HT       0.417000       1.00800           0
     21111 W2       7037     TIP3     H2       HT       0.417000       1.00800           0
     21112 W2       7038     TIP3     OH2      OT      -0.834000       15.9994           0
     21113 W2       7038     TIP3     H1       HT       0.417000       1.00800           0
     21114 W2       7038     TIP3     H2       HT       0.417000       1.00800           0
     21115 W2       7039     TIP3     OH2      OT      -0.834000       15.9994           0
     21116 W2       7039     TIP3     H1       HT       0.417000       1.00800           0
     21117 W2       7039     TIP3     H2       HT       0.417000       1.00800           0
     21118 W2       7040     TIP3     OH2      OT      -0.834000       15.9994           0
     21119 W2       7040     TIP3     H1       HT       0.417000       1.00800           0
     21120 W2       7040     TIP3     H2       HT       0.417000       1.00800           0
     21121 W2       7041     TIP3     OH2      OT      -0.834000       15.9994           0
     21122 W2       7041     TIP3     H1       HT       0.417000       1.00800           0
     21123 W2       7041     TIP3     H2       HT       0.417000       1.00800           0
     21124 W2       7042     TIP3     OH2      OT      -0.834000       15.9994           0
     21125 W2       7042     TIP3     H1       HT       0.417000       1.00800           0
     21126 W2       7042     TIP3     H2       HT       0.417000       1.00800           0
     21127 W2       7043     TIP3     OH2      OT      -0.834000       15.9994           0
     21128 W2       7043     TIP3     H1       HT       0.417000       1.00800           0
     21129 W2       7043     TIP3     H2       HT       0.417000       1.00800           0
     21130 W2       7044     TIP3     OH2      OT      -0.834000       15.9994           0
     21131 W2       7044     TIP3     H1       HT       0.417000       1.00800           0
     21132 W2       7044     TIP3     H2       HT       0.417000       1.00800           0
     21133 W2       7045     TIP3     OH2      OT      -0.834000       15.9994           0
     21134 W2       7045     TIP3     H1       HT       0.417000       1.00800           0
     21135 W2       7045     TIP3     H2       HT       0.417000       1.00800           0
     21136 W2       7046     TIP3     OH2      OT      -0.834000       15.9994           0
     21137 W2       7046     TIP3     H1       HT       0.417000       1.00800           0
     21138 W2       7046     TIP3     H2       HT       0.417000       1.00800           0
     21139 W2       7047     TIP3     OH2      OT      -0.834000       15.9994           0
     21140 W2       7047     TIP3     H1       HT       0.417000       1.00800           0
     21141 W2       7047     TIP3     H2       HT       0.417000       1.00800           0
     21142 W2       7048     TIP3     OH2      OT      -0.834000       15.9994           0
     21143 W2       7048     TIP3     H1       HT       0.417000       1.00800           0
     21144 W2       7048     TIP3     H2       HT       0.417000       1.00800           0
     21145 W2       7049     TIP3     OH2      OT      -0.834000       15.9994           0
     21146 W2       7049     TIP3     H1       HT       0.417000       1.00800           0
     21147 W2       7049     TIP3     H2       HT       0.417000       1.00800           0
     21148 W2       7050     TIP3     OH2      OT      -0.834000       15.9994           0
     21149 W2       7050     TIP3     H1       HT       0.417000       1.00800           0
     21150 W2       7050     TIP3     H2       HT       0.417000       1.00800           0
     21151 W2       7051     TIP3     OH2      OT      -0.834000       15.9994           0
     21152 W2       7051     TIP3     H1       HT       0.417000       1.00800           0
     21153 W2       7051     TIP3     H2       HT       0.417000       1.00800           0
     21154 W2       7052     TIP3     OH2      OT      -0.834000       15.9994           0
     21155 W2       7052     TIP3     H1       HT       0.417000       1.00800           0
     21156 W2       7052     TIP3     H2       HT       0.417000       1.00800           0
     21157 W2       7053     TIP3     OH2      OT      -0.834000       15.9994           0
     21158 W2       7053     TIP3     H1       HT       0.417000       1.00800           0
     21159 W2       7053     TIP3     H2       HT       0.417000       1.00800           0
     21160 W2       7054     TIP3     OH2      OT      -0.834000       15.9994           0
     21161 W2       7054     TIP3     H1       HT       0.417000       1.00800           0
     21162 W2       7054     TIP3     H2       HT       0.417000       1.00800           0
     21163 W2       7055     TIP3     OH2      OT      -0.834000       15.9994           0
     21164 W2       7055     TIP3     H1       HT       0.417000       1.00800           0
     21165 W2       7055     TIP3     H2       HT       0.417000       1.00800           0
     21166 W2       7056     TIP3     OH2      OT      -0.834000       15.9994           0
     21167 W2       7056     TIP3     H1       HT       0.417000       1.00800           0
     21168 W2       7056     TIP3     H2       HT       0.417000       1.00800           0
     21169 W2       7057     TIP3     OH2      OT      -0.834000       15.9994           0
     21170 W2       7057     TIP3     H1       HT       0.417000       1.00800           0
     21171 W2       7057     TIP3     H2       HT       0.417000       1.00800           0
     21172 W2       7058     TIP3     OH2      OT      -0.834000       15.9994           0
     21173 W2       7058     TIP3     H1       HT       0.417000       1.00800           0
     21174 W2       7058     TIP3     H2       HT       0.417000       1.00800           0
     21175 W2       7059     TIP3     OH2      OT      -0.834000       15.9994           0
     21176 W2       7059     TIP3     H1       HT       0.417000       1.00800           0
     21177 W2       7059     TIP3     H2       HT       0.417000       1.00800           0
     21178 W2       7060     TIP3     OH2      OT      -0.834000       15.9994           0
     21179 W2       7060     TIP3     H1       HT       0.417000       1.00800           0
     21180 W2       7060     TIP3     H2       HT       0.417000       1.00800           0
     21181 W2       7061     TIP3     OH2      OT      -0.834000       15.9994           0
     21182 W2       7061     TIP3     H1       HT       0.417000       1.00800           0
     21183 W2       7061     TIP3     H2       HT       0.417000       1.00800           0
     21184 W2       7062     TIP3     OH2      OT      -0.834000       15.9994           0
     21185 W2       7062     TIP3     H1       HT       0.417000       1.00800           0
     21186 W2       7062     TIP3     H2       HT       0.417000       1.00800           0
     21187 W2       7063     TIP3     OH2      OT      -0.834000       15.9994           0
     21188 W2       7063     TIP3     H1       HT       0.417000       1.00800           0
     21189 W2       7063     TIP3     H2       HT       0.417000       1.00800           0
     21190 W2       7064     TIP3     OH2      OT      -0.834000       15.9994           0
     21191 W2       7064     TIP3     H1       HT       0.417000       1.00800           0
     21192 W2       7064     TIP3     H2       HT       0.417000       1.00800           0
     21193 W2       7065     TIP3     OH2      OT      -0.834000       15.9994           0
     21194 W2       7065     TIP3     H1       HT       0.417000       1.00800           0
     21195 W2       7065     TIP3     H2       HT       0.417000       1.00800           0
     21196 W2       7066     TIP3     OH2      OT      -0.834000       15.9994           0
     21197 W2       7066     TIP3     H1       HT       0.417000       1.00800           0
     21198 W2       7066     TIP3     H2       HT       0.417000       1.00800           0
     21199 W2       7067     TIP3     OH2      OT      -0.834000       15.9994           0
     21200 W2       7067     TIP3     H1       HT       0.417000       1.00800           0
     21201 W2       7067     TIP3     H2       HT       0.417000       1.00800           0
     21202 W2       7068     TIP3     OH2      OT      -0.834000       15.9994           0
     21203 W2       7068     TIP3     H1       HT       0.417000       1.00800           0
     21204 W2       7068     TIP3     H2       HT       0.417000       1.00800           0
     21205 W2       7069     TIP3     OH2      OT      -0.834000       15.9994           0
     21206 W2       7069     TIP3     H1       HT       0.417000       1.00800           0
     21207 W2       7069     TIP3     H2       HT       0.417000       1.00800           0
     21208 W2       7070     TIP3     OH2      OT      -0.834000       15.9994           0
     21209 W2       7070     TIP3     H1       HT       0.417000       1.00800           0
     21210 W2       7070     TIP3     H2       HT       0.417000       1.00800           0
     21211 W2       7071     TIP3     OH2      OT      -0.834000       15.9994           0
     21212 W2       7071     TIP3     H1       HT       0.417000       1.00800           0
     21213 W2       7071     TIP3     H2       HT       0.417000       1.00800           0
     21214 W2       7072     TIP3     OH2      OT      -0.834000       15.9994           0
     21215 W2       7072     TIP3     H1       HT       0.417000       1.00800           0
     21216 W2       7072     TIP3     H2       HT       0.417000       1.00800           0
     21217 W2       7073     TIP3     OH2      OT      -0.834000       15.9994           0
     21218 W2       7073     TIP3     H1       HT       0.417000       1.00800           0
     21219 W2       7073     TIP3     H2       HT       0.417000       1.00800           0
     21220 W2       7074     TIP3     OH2      OT      -0.834000       15.9994           0
     21221 W2       7074     TIP3     H1       HT       0.417000       1.00800           0
     21222 W2       7074     TIP3     H2       HT       0.417000       1.00800           0
     21223 W2       7075     TIP3     OH2      OT      -0.834000       15.9994           0
     21224 W2       7075     TIP3     H1       HT       0.417000       1.00800           0
     21225 W2       7075     TIP3     H2       HT       0.417000       1.00800           0
     21226 W2       7076     TIP3     OH2      OT      -0.834000       15.9994           0
     21227 W2       7076     TIP3     H1       HT       0.417000       1.00800           0
     21228 W2       7076     TIP3     H2       HT       0.417000       1.00800           0
     21229 W2       7077     TIP3     OH2      OT      -0.834000       15.9994           0
     21230 W2       7077     TIP3     H1       HT       0.417000       1.00800           0
     21231 W2       7077     TIP3     H2       HT       0.417000       1.00800           0
     21232 W2       7078     TIP3     OH2      OT      -0.834000       15.9994           0
     21233 W2       7078     TIP3     H1       HT       0.417000       1.00800           0
     21234 W2       7078     TIP3     H2       HT       0.417000       1.00800           0
     21235 W2       7079     TIP3     OH2      OT      -0.834000       15.9994           0
     21236 W2       7079     TIP3     H1       HT       0.417000       1.00800           0
     21237 W2       7079     TIP3     H2       HT       0.417000       1.00800           0
     21238 W2       7080     TIP3     OH2      OT      -0.834000       15.9994           0
     21239 W2       7080     TIP3     H1       HT       0.417000       1.00800           0
     21240 W2       7080     TIP3     H2       HT       0.417000       1.00800           0
     21241 W2       7081     TIP3     OH2      OT      -0.834000       15.9994           0
     21242 W2       7081     TIP3     H1       HT       0.417000       1.00800           0
     21243 W2       7081     TIP3     H2       HT       0.417000       1.00800           0
     21244 W2       7082     TIP3     OH2      OT      -0.834000       15.9994           0
     21245 W2       7082     TIP3     H1       HT       0.417000       1.00800           0
     21246 W2       7082     TIP3     H2       HT       0.417000       1.00800           0
     21247 W2       7083     TIP3     OH2      OT      -0.834000       15.9994           0
     21248 W2       7083     TIP3     H1       HT       0.417000       1.00800           0
     21249 W2       7083     TIP3     H2       HT       0.417000       1.00800           0
     21250 W2       7084     TIP3     OH2      OT      -0.834000       15.9994           0
     21251 W2       7084     TIP3     H1       HT       0.417000       1.00800           0
     21252 W2       7084     TIP3     H2       HT       0.417000       1.00800           0
     21253 W2       7085     TIP3     OH2      OT      -0.834000       15.9994           0
     21254 W2       7085     TIP3     H1       HT       0.417000       1.00800           0
     21255 W2       7085     TIP3     H2       HT       0.417000       1.00800           0
     21256 W2       7086     TIP3     OH2      OT      -0.834000       15.9994           0
     21257 W2       7086     TIP3     H1       HT       0.417000       1.00800           0
     21258 W2       7086     TIP3     H2       HT       0.417000       1.00800           0
     21259 W2       7087     TIP3     OH2      OT      -0.834000       15.9994           0
     21260 W2       7087     TIP3     H1       HT       0.417000       1.00800           0
     21261 W2       7087     TIP3     H2       HT       0.417000       1.00800           0
     21262 W2       7088     TIP3     OH2      OT      -0.834000       15.9994           0
     21263 W2       7088     TIP3     H1       HT       0.417000       1.00800           0
     21264 W2       7088     TIP3     H2       HT       0.417000       1.00800           0
     21265 W2       7089     TIP3     OH2      OT      -0.834000       15.9994           0
     21266 W2       7089     TIP3     H1       HT       0.417000       1.00800           0
     21267 W2       7089     TIP3     H2       HT       0.417000       1.00800           0
     21268 W2       7090     TIP3     OH2      OT      -0.834000       15.9994           0
     21269 W2       7090     TIP3     H1       HT       0.417000       1.00800           0
     21270 W2       7090     TIP3     H2       HT       0.417000       1.00800           0
     21271 W2       7091     TIP3     OH2      OT      -0.834000       15.9994           0
     21272 W2       7091     TIP3     H1       HT       0.417000       1.00800           0
     21273 W2       7091     TIP3     H2       HT       0.417000       1.00800           0
     21274 W2       7092     TIP3     OH2      OT      -0.834000       15.9994           0
     21275 W2       7092     TIP3     H1       HT       0.417000       1.00800           0
     21276 W2       7092     TIP3     H2       HT       0.417000       1.00800           0
     21277 W2       7093     TIP3     OH2      OT      -0.834000       15.9994           0
     21278 W2       7093     TIP3     H1       HT       0.417000       1.00800           0
     21279 W2       7093     TIP3     H2       HT       0.417000       1.00800           0
     21280 W2       7094     TIP3     OH2      OT      -0.834000       15.9994           0
     21281 W2       7094     TIP3     H1       HT       0.417000       1.00800           0
     21282 W2       7094     TIP3     H2       HT       0.417000       1.00800           0
     21283 W2       7095     TIP3     OH2      OT      -0.834000       15.9994           0
     21284 W2       7095     TIP3     H1       HT       0.417000       1.00800           0
     21285 W2       7095     TIP3     H2       HT       0.417000       1.00800           0
     21286 W2       7096     TIP3     OH2      OT      -0.834000       15.9994           0
     21287 W2       7096     TIP3     H1       HT       0.417000       1.00800           0
     21288 W2       7096     TIP3     H2       HT       0.417000       1.00800           0
     21289 W2       7097     TIP3     OH2      OT      -0.834000       15.9994           0
     21290 W2       7097     TIP3     H1       HT       0.417000       1.00800           0
     21291 W2       7097     TIP3     H2       HT       0.417000       1.00800           0
     21292 W2       7098     TIP3     OH2      OT      -0.834000       15.9994           0
     21293 W2       7098     TIP3     H1       HT       0.417000       1.00800           0
     21294 W2       7098     TIP3     H2       HT       0.417000       1.00800           0
     21295 W2       7099     TIP3     OH2      OT      -0.834000       15.9994           0
     21296 W2       7099     TIP3     H1       HT       0.417000       1.00800           0
     21297 W2       7099     TIP3     H2       HT       0.417000       1.00800           0
     21298 W2       7100     TIP3     OH2      OT      -0.834000       15.9994           0
     21299 W2       7100     TIP3     H1       HT       0.417000       1.00800           0
     21300 W2       7100     TIP3     H2       HT       0.417000       1.00800           0
     21301 W2       7101     TIP3     OH2      OT      -0.834000       15.9994           0
     21302 W2       7101     TIP3     H1       HT       0.417000       1.00800           0
     21303 W2       7101     TIP3     H2       HT       0.417000       1.00800           0
     21304 W2       7102     TIP3     OH2      OT      -0.834000       15.9994           0
     21305 W2       7102     TIP3     H1       HT       0.417000       1.00800           0
     21306 W2       7102     TIP3     H2       HT       0.417000       1.00800           0
     21307 W2       7103     TIP3     OH2      OT      -0.834000       15.9994           0
     21308 W2       7103     TIP3     H1       HT       0.417000       1.00800           0
     21309 W2       7103     TIP3     H2       HT       0.417000       1.00800           0
     21310 W2       7104     TIP3     OH2      OT      -0.834000       15.9994           0
     21311 W2       7104     TIP3     H1       HT       0.417000       1.00800           0
     21312 W2       7104     TIP3     H2       HT       0.417000       1.00800           0
     21313 W2       7105     TIP3     OH2      OT      -0.834000       15.9994           0
     21314 W2       7105     TIP3     H1       HT       0.417000       1.00800           0
     21315 W2       7105     TIP3     H2       HT       0.417000       1.00800           0
     21316 W2       7106     TIP3     OH2      OT      -0.834000       15.9994           0
     21317 W2       7106     TIP3     H1       HT       0.417000       1.00800           0
     21318 W2       7106     TIP3     H2       HT       0.417000       1.00800           0
     21319 W2       7107     TIP3     OH2      OT      -0.834000       15.9994           0
     21320 W2       7107     TIP3     H1       HT       0.417000       1.00800           0
     21321 W2       7107     TIP3     H2       HT       0.417000       1.00800           0
     21322 W2       7108     TIP3     OH2      OT      -0.834000       15.9994           0
     21323 W2       7108     TIP3     H1       HT       0.417000       1.00800           0
     21324 W2       7108     TIP3     H2       HT       0.417000       1.00800           0
     21325 W2       7109     TIP3     OH2      OT      -0.834000       15.9994           0
     21326 W2       7109     TIP3     H1       HT       0.417000       1.00800           0
     21327 W2       7109     TIP3     H2       HT       0.417000       1.00800           0
     21328 W2       7110     TIP3     OH2      OT      -0.834000       15.9994           0
     21329 W2       7110     TIP3     H1       HT       0.417000       1.00800           0
     21330 W2       7110     TIP3     H2       HT       0.417000       1.00800           0
     21331 W2       7111     TIP3     OH2      OT      -0.834000       15.9994           0
     21332 W2       7111     TIP3     H1       HT       0.417000       1.00800           0
     21333 W2       7111     TIP3     H2       HT       0.417000       1.00800           0
     21334 W2       7112     TIP3     OH2      OT      -0.834000       15.9994           0
     21335 W2       7112     TIP3     H1       HT       0.417000       1.00800           0
     21336 W2       7112     TIP3     H2       HT       0.417000       1.00800           0
     21337 W2       7113     TIP3     OH2      OT      -0.834000       15.9994           0
     21338 W2       7113     TIP3     H1       HT       0.417000       1.00800           0
     21339 W2       7113     TIP3     H2       HT       0.417000       1.00800           0
     21340 W2       7114     TIP3     OH2      OT      -0.834000       15.9994           0
     21341 W2       7114     TIP3     H1       HT       0.417000       1.00800           0
     21342 W2       7114     TIP3     H2       HT       0.417000       1.00800           0
     21343 W2       7115     TIP3     OH2      OT      -0.834000       15.9994           0
     21344 W2       7115     TIP3     H1       HT       0.417000       1.00800           0
     21345 W2       7115     TIP3     H2       HT       0.417000       1.00800           0
     21346 W2       7116     TIP3     OH2      OT      -0.834000       15.9994           0
     21347 W2       7116     TIP3     H1       HT       0.417000       1.00800           0
     21348 W2       7116     TIP3     H2       HT       0.417000       1.00800           0
     21349 W2       7117     TIP3     OH2      OT      -0.834000       15.9994           0
     21350 W2       7117     TIP3     H1       HT       0.417000       1.00800           0
     21351 W2       7117     TIP3     H2       HT       0.417000       1.00800           0
     21352 W2       7118     TIP3     OH2      OT      -0.834000       15.9994           0
     21353 W2       7118     TIP3     H1       HT       0.417000       1.00800           0
     21354 W2       7118     TIP3     H2       HT       0.417000       1.00800           0
     21355 W2       7119     TIP3     OH2      OT      -0.834000       15.9994           0
     21356 W2       7119     TIP3     H1       HT       0.417000       1.00800           0
     21357 W2       7119     TIP3     H2       HT       0.417000       1.00800           0
     21358 W2       7120     TIP3     OH2      OT      -0.834000       15.9994           0
     21359 W2       7120     TIP3     H1       HT       0.417000       1.00800           0
     21360 W2       7120     TIP3     H2       HT       0.417000       1.00800           0
     21361 W2       7121     TIP3     OH2      OT      -0.834000       15.9994           0
     21362 W2       7121     TIP3     H1       HT       0.417000       1.00800           0
     21363 W2       7121     TIP3     H2       HT       0.417000       1.00800           0
     21364 W2       7122     TIP3     OH2      OT      -0.834000       15.9994           0
     21365 W2       7122     TIP3     H1       HT       0.417000       1.00800           0
     21366 W2       7122     TIP3     H2       HT       0.417000       1.00800           0
     21367 W2       7123     TIP3     OH2      OT      -0.834000       15.9994           0
     21368 W2       7123     TIP3     H1       HT       0.417000       1.00800           0
     21369 W2       7123     TIP3     H2       HT       0.417000       1.00800           0
     21370 W2       7124     TIP3     OH2      OT      -0.834000       15.9994           0
     21371 W2       7124     TIP3     H1       HT       0.417000       1.00800           0
     21372 W2       7124     TIP3     H2       HT       0.417000       1.00800           0
     21373 W2       7125     TIP3     OH2      OT      -0.834000       15.9994           0
     21374 W2       7125     TIP3     H1       HT       0.417000       1.00800           0
     21375 W2       7125     TIP3     H2       HT       0.417000       1.00800           0
     21376 W2       7126     TIP3     OH2      OT      -0.834000       15.9994           0
     21377 W2       7126     TIP3     H1       HT       0.417000       1.00800           0
     21378 W2       7126     TIP3     H2       HT       0.417000       1.00800           0
     21379 W2       7127     TIP3     OH2      OT      -0.834000       15.9994           0
     21380 W2       7127     TIP3     H1       HT       0.417000       1.00800           0
     21381 W2       7127     TIP3     H2       HT       0.417000       1.00800           0
     21382 W2       7128     TIP3     OH2      OT      -0.834000       15.9994           0
     21383 W2       7128     TIP3     H1       HT       0.417000       1.00800           0
     21384 W2       7128     TIP3     H2       HT       0.417000       1.00800           0
     21385 W2       7129     TIP3     OH2      OT      -0.834000       15.9994           0
     21386 W2       7129     TIP3     H1       HT       0.417000       1.00800           0
     21387 W2       7129     TIP3     H2       HT       0.417000       1.00800           0
     21388 W2       7130     TIP3     OH2      OT      -0.834000       15.9994           0
     21389 W2       7130     TIP3     H1       HT       0.417000       1.00800           0
     21390 W2       7130     TIP3     H2       HT       0.417000       1.00800           0
     21391 W2       7131     TIP3     OH2      OT      -0.834000       15.9994           0
     21392 W2       7131     TIP3     H1       HT       0.417000       1.00800           0
     21393 W2       7131     TIP3     H2       HT       0.417000       1.00800           0
     21394 W2       7132     TIP3     OH2      OT      -0.834000       15.9994           0
     21395 W2       7132     TIP3     H1       HT       0.417000       1.00800           0
     21396 W2       7132     TIP3     H2       HT       0.417000       1.00800           0
     21397 W2       7133     TIP3     OH2      OT      -0.834000       15.9994           0
     21398 W2       7133     TIP3     H1       HT       0.417000       1.00800           0
     21399 W2       7133     TIP3     H2       HT       0.417000       1.00800           0
     21400 W2       7134     TIP3     OH2      OT      -0.834000       15.9994           0
     21401 W2       7134     TIP3     H1       HT       0.417000       1.00800           0
     21402 W2       7134     TIP3     H2       HT       0.417000       1.00800           0
     21403 W2       7135     TIP3     OH2      OT      -0.834000       15.9994           0
     21404 W2       7135     TIP3     H1       HT       0.417000       1.00800           0
     21405 W2       7135     TIP3     H2       HT       0.417000       1.00800           0
     21406 W2       7136     TIP3     OH2      OT      -0.834000       15.9994           0
     21407 W2       7136     TIP3     H1       HT       0.417000       1.00800           0
     21408 W2       7136     TIP3     H2       HT       0.417000       1.00800           0
     21409 W2       7137     TIP3     OH2      OT      -0.834000       15.9994           0
     21410 W2       7137     TIP3     H1       HT       0.417000       1.00800           0
     21411 W2       7137     TIP3     H2       HT       0.417000       1.00800           0
     21412 W2       7138     TIP3     OH2      OT      -0.834000       15.9994           0
     21413 W2       7138     TIP3     H1       HT       0.417000       1.00800           0
     21414 W2       7138     TIP3     H2       HT       0.417000       1.00800           0
     21415 W2       7139     TIP3     OH2      OT      -0.834000       15.9994           0
     21416 W2       7139     TIP3     H1       HT       0.417000       1.00800           0
     21417 W2       7139     TIP3     H2       HT       0.417000       1.00800           0
     21418 W2       7140     TIP3     OH2      OT      -0.834000       15.9994           0
     21419 W2       7140     TIP3     H1       HT       0.417000       1.00800           0
     21420 W2       7140     TIP3     H2       HT       0.417000       1.00800           0
     21421 W2       7141     TIP3     OH2      OT      -0.834000       15.9994           0
     21422 W2       7141     TIP3     H1       HT       0.417000       1.00800           0
     21423 W2       7141     TIP3     H2       HT       0.417000       1.00800           0
     21424 W2       7142     TIP3     OH2      OT      -0.834000       15.9994           0
     21425 W2       7142     TIP3     H1       HT       0.417000       1.00800           0
     21426 W2       7142     TIP3     H2       HT       0.417000       1.00800           0
     21427 W2       7143     TIP3     OH2      OT      -0.834000       15.9994           0
     21428 W2       7143     TIP3     H1       HT       0.417000       1.00800           0
     21429 W2       7143     TIP3     H2       HT       0.417000       1.00800           0
     21430 W2       7144     TIP3     OH2      OT      -0.834000       15.9994           0
     21431 W2       7144     TIP3     H1       HT       0.417000       1.00800           0
     21432 W2       7144     TIP3     H2       HT       0.417000       1.00800           0
     21433 W2       7145     TIP3     OH2      OT      -0.834000       15.9994           0
     21434 W2       7145     TIP3     H1       HT       0.417000       1.00800           0
     21435 W2       7145     TIP3     H2       HT       0.417000       1.00800           0
     21436 W2       7146     TIP3     OH2      OT      -0.834000       15.9994           0
     21437 W2       7146     TIP3     H1       HT       0.417000       1.00800           0
     21438 W2       7146     TIP3     H2       HT       0.417000       1.00800           0
     21439 W2       7147     TIP3     OH2      OT      -0.834000       15.9994           0
     21440 W2       7147     TIP3     H1       HT       0.417000       1.00800           0
     21441 W2       7147     TIP3     H2       HT       0.417000       1.00800           0
     21442 W2       7148     TIP3     OH2      OT      -0.834000       15.9994           0
     21443 W2       7148     TIP3     H1       HT       0.417000       1.00800           0
     21444 W2       7148     TIP3     H2       HT       0.417000       1.00800           0
     21445 W2       7149     TIP3     OH2      OT      -0.834000       15.9994           0
     21446 W2       7149     TIP3     H1       HT       0.417000       1.00800           0
     21447 W2       7149     TIP3     H2       HT       0.417000       1.00800           0
     21448 W2       7150     TIP3     OH2      OT      -0.834000       15.9994           0
     21449 W2       7150     TIP3     H1       HT       0.417000       1.00800           0
     21450 W2       7150     TIP3     H2       HT       0.417000       1.00800           0
     21451 W2       7151     TIP3     OH2      OT      -0.834000       15.9994           0
     21452 W2       7151     TIP3     H1       HT       0.417000       1.00800           0
     21453 W2       7151     TIP3     H2       HT       0.417000       1.00800           0
     21454 W2       7152     TIP3     OH2      OT      -0.834000       15.9994           0
     21455 W2       7152     TIP3     H1       HT       0.417000       1.00800           0
     21456 W2       7152     TIP3     H2       HT       0.417000       1.00800           0
     21457 W2       7153     TIP3     OH2      OT      -0.834000       15.9994           0
     21458 W2       7153     TIP3     H1       HT       0.417000       1.00800           0
     21459 W2       7153     TIP3     H2       HT       0.417000       1.00800           0
     21460 W2       7154     TIP3     OH2      OT      -0.834000       15.9994           0
     21461 W2       7154     TIP3     H1       HT       0.417000       1.00800           0
     21462 W2       7154     TIP3     H2       HT       0.417000       1.00800           0
     21463 W2       7155     TIP3     OH2      OT      -0.834000       15.9994           0
     21464 W2       7155     TIP3     H1       HT       0.417000       1.00800           0
     21465 W2       7155     TIP3     H2       HT       0.417000       1.00800           0
     21466 W2       7156     TIP3     OH2      OT      -0.834000       15.9994           0
     21467 W2       7156     TIP3     H1       HT       0.417000       1.00800           0
     21468 W2       7156     TIP3     H2       HT       0.417000       1.00800           0
     21469 W2       7157     TIP3     OH2      OT      -0.834000       15.9994           0
     21470 W2       7157     TIP3     H1       HT       0.417000       1.00800           0
     21471 W2       7157     TIP3     H2       HT       0.417000       1.00800           0
     21472 W2       7158     TIP3     OH2      OT      -0.834000       15.9994           0
     21473 W2       7158     TIP3     H1       HT       0.417000       1.00800           0
     21474 W2       7158     TIP3     H2       HT       0.417000       1.00800           0
     21475 W2       7159     TIP3     OH2      OT      -0.834000       15.9994           0
     21476 W2       7159     TIP3     H1       HT       0.417000       1.00800           0
     21477 W2       7159     TIP3     H2       HT       0.417000       1.00800           0
     21478 W2       7160     TIP3     OH2      OT      -0.834000       15.9994           0
     21479 W2       7160     TIP3     H1       HT       0.417000       1.00800           0
     21480 W2       7160     TIP3     H2       HT       0.417000       1.00800           0
     21481 W2       7161     TIP3     OH2      OT      -0.834000       15.9994           0
     21482 W2       7161     TIP3     H1       HT       0.417000       1.00800           0
     21483 W2       7161     TIP3     H2       HT       0.417000       1.00800           0
     21484 W2       7162     TIP3     OH2      OT      -0.834000       15.9994           0
     21485 W2       7162     TIP3     H1       HT       0.417000       1.00800           0
     21486 W2       7162     TIP3     H2       HT       0.417000       1.00800           0
     21487 W2       7163     TIP3     OH2      OT      -0.834000       15.9994           0
     21488 W2       7163     TIP3     H1       HT       0.417000       1.00800           0
     21489 W2       7163     TIP3     H2       HT       0.417000       1.00800           0
     21490 W2       7164     TIP3     OH2      OT      -0.834000       15.9994           0
     21491 W2       7164     TIP3     H1       HT       0.417000       1.00800           0
     21492 W2       7164     TIP3     H2       HT       0.417000       1.00800           0
     21493 W2       7165     TIP3     OH2      OT      -0.834000       15.9994           0
     21494 W2       7165     TIP3     H1       HT       0.417000       1.00800           0
     21495 W2       7165     TIP3     H2       HT       0.417000       1.00800           0
     21496 W2       7166     TIP3     OH2      OT      -0.834000       15.9994           0
     21497 W2       7166     TIP3     H1       HT       0.417000       1.00800           0
     21498 W2       7166     TIP3     H2       HT       0.417000       1.00800           0
     21499 W2       7167     TIP3     OH2      OT      -0.834000       15.9994           0
     21500 W2       7167     TIP3     H1       HT       0.417000       1.00800           0
     21501 W2       7167     TIP3     H2       HT       0.417000       1.00800           0
     21502 W2       7168     TIP3     OH2      OT      -0.834000       15.9994           0
     21503 W2       7168     TIP3     H1       HT       0.417000       1.00800           0
     21504 W2       7168     TIP3     H2       HT       0.417000       1.00800           0
     21505 W2       7169     TIP3     OH2      OT      -0.834000       15.9994           0
     21506 W2       7169     TIP3     H1       HT       0.417000       1.00800           0
     21507 W2       7169     TIP3     H2       HT       0.417000       1.00800           0
     21508 W2       7170     TIP3     OH2      OT      -0.834000       15.9994           0
     21509 W2       7170     TIP3     H1       HT       0.417000       1.00800           0
     21510 W2       7170     TIP3     H2       HT       0.417000       1.00800           0
     21511 W2       7171     TIP3     OH2      OT      -0.834000       15.9994           0
     21512 W2       7171     TIP3     H1       HT       0.417000       1.00800           0
     21513 W2       7171     TIP3     H2       HT       0.417000       1.00800           0
     21514 W2       7172     TIP3     OH2      OT      -0.834000       15.9994           0
     21515 W2       7172     TIP3     H1       HT       0.417000       1.00800           0
     21516 W2       7172     TIP3     H2       HT       0.417000       1.00800           0
     21517 W2       7173     TIP3     OH2      OT      -0.834000       15.9994           0
     21518 W2       7173     TIP3     H1       HT       0.417000       1.00800           0
     21519 W2       7173     TIP3     H2       HT       0.417000       1.00800           0
     21520 W2       7174     TIP3     OH2      OT      -0.834000       15.9994           0
     21521 W2       7174     TIP3     H1       HT       0.417000       1.00800           0
     21522 W2       7174     TIP3     H2       HT       0.417000       1.00800           0
     21523 W2       7175     TIP3     OH2      OT      -0.834000       15.9994           0
     21524 W2       7175     TIP3     H1       HT       0.417000       1.00800           0
     21525 W2       7175     TIP3     H2       HT       0.417000       1.00800           0
     21526 W2       7176     TIP3     OH2      OT      -0.834000       15.9994           0
     21527 W2       7176     TIP3     H1       HT       0.417000       1.00800           0
     21528 W2       7176     TIP3     H2       HT       0.417000       1.00800           0
     21529 W2       7177     TIP3     OH2      OT      -0.834000       15.9994           0
     21530 W2       7177     TIP3     H1       HT       0.417000       1.00800           0
     21531 W2       7177     TIP3     H2       HT       0.417000       1.00800           0
     21532 W2       7178     TIP3     OH2      OT      -0.834000       15.9994           0
     21533 W2       7178     TIP3     H1       HT       0.417000       1.00800           0
     21534 W2       7178     TIP3     H2       HT       0.417000       1.00800           0
     21535 W2       7179     TIP3     OH2      OT      -0.834000       15.9994           0
     21536 W2       7179     TIP3     H1       HT       0.417000       1.00800           0
     21537 W2       7179     TIP3     H2       HT       0.417000       1.00800           0
     21538 W2       7180     TIP3     OH2      OT      -0.834000       15.9994           0
     21539 W2       7180     TIP3     H1       HT       0.417000       1.00800           0
     21540 W2       7180     TIP3     H2       HT       0.417000       1.00800           0
     21541 W2       7181     TIP3     OH2      OT      -0.834000       15.9994           0
     21542 W2       7181     TIP3     H1       HT       0.417000       1.00800           0
     21543 W2       7181     TIP3     H2       HT       0.417000       1.00800           0
     21544 W2       7182     TIP3     OH2      OT      -0.834000       15.9994           0
     21545 W2       7182     TIP3     H1       HT       0.417000       1.00800           0
     21546 W2       7182     TIP3     H2       HT       0.417000       1.00800           0
     21547 W2       7183     TIP3     OH2      OT      -0.834000       15.9994           0
     21548 W2       7183     TIP3     H1       HT       0.417000       1.00800           0
     21549 W2       7183     TIP3     H2       HT       0.417000       1.00800           0
     21550 W2       7184     TIP3     OH2      OT      -0.834000       15.9994           0
     21551 W2       7184     TIP3     H1       HT       0.417000       1.00800           0
     21552 W2       7184     TIP3     H2       HT       0.417000       1.00800           0
     21553 W2       7185     TIP3     OH2      OT      -0.834000       15.9994           0
     21554 W2       7185     TIP3     H1       HT       0.417000       1.00800           0
     21555 W2       7185     TIP3     H2       HT       0.417000       1.00800           0
     21556 W2       7186     TIP3     OH2      OT      -0.834000       15.9994           0
     21557 W2       7186     TIP3     H1       HT       0.417000       1.00800           0
     21558 W2       7186     TIP3     H2       HT       0.417000       1.00800           0
     21559 W2       7187     TIP3     OH2      OT      -0.834000       15.9994           0
     21560 W2       7187     TIP3     H1       HT       0.417000       1.00800           0
     21561 W2       7187     TIP3     H2       HT       0.417000       1.00800           0
     21562 W2       7188     TIP3     OH2      OT      -0.834000       15.9994           0
     21563 W2       7188     TIP3     H1       HT       0.417000       1.00800           0
     21564 W2       7188     TIP3     H2       HT       0.417000       1.00800           0
     21565 W2       7189     TIP3     OH2      OT      -0.834000       15.9994           0
     21566 W2       7189     TIP3     H1       HT       0.417000       1.00800           0
     21567 W2       7189     TIP3     H2       HT       0.417000       1.00800           0
     21568 W2       7190     TIP3     OH2      OT      -0.834000       15.9994           0
     21569 W2       7190     TIP3     H1       HT       0.417000       1.00800           0
     21570 W2       7190     TIP3     H2       HT       0.417000       1.00800           0
     21571 W2       7191     TIP3     OH2      OT      -0.834000       15.9994           0
     21572 W2       7191     TIP3     H1       HT       0.417000       1.00800           0
     21573 W2       7191     TIP3     H2       HT       0.417000       1.00800           0
     21574 W2       7192     TIP3     OH2      OT      -0.834000       15.9994           0
     21575 W2       7192     TIP3     H1       HT       0.417000       1.00800           0
     21576 W2       7192     TIP3     H2       HT       0.417000       1.00800           0
     21577 W2       7193     TIP3     OH2      OT      -0.834000       15.9994           0
     21578 W2       7193     TIP3     H1       HT       0.417000       1.00800           0
     21579 W2       7193     TIP3     H2       HT       0.417000       1.00800           0
     21580 W2       7194     TIP3     OH2      OT      -0.834000       15.9994           0
     21581 W2       7194     TIP3     H1       HT       0.417000       1.00800           0
     21582 W2       7194     TIP3     H2       HT       0.417000       1.00800           0
     21583 W2       7195     TIP3     OH2      OT      -0.834000       15.9994           0
     21584 W2       7195     TIP3     H1       HT       0.417000       1.00800           0
     21585 W2       7195     TIP3     H2       HT       0.417000       1.00800           0
     21586 W2       7196     TIP3     OH2      OT      -0.834000       15.9994           0
     21587 W2       7196     TIP3     H1       HT       0.417000       1.00800           0
     21588 W2       7196     TIP3     H2       HT       0.417000       1.00800           0
     21589 W2       7197     TIP3     OH2      OT      -0.834000       15.9994           0
     21590 W2       7197     TIP3     H1       HT       0.417000       1.00800           0
     21591 W2       7197     TIP3     H2       HT       0.417000       1.00800           0
     21592 W2       7198     TIP3     OH2      OT      -0.834000       15.9994           0
     21593 W2       7198     TIP3     H1       HT       0.417000       1.00800           0
     21594 W2       7198     TIP3     H2       HT       0.417000       1.00800           0
     21595 W2       7199     TIP3     OH2      OT      -0.834000       15.9994           0
     21596 W2       7199     TIP3     H1       HT       0.417000       1.00800           0
     21597 W2       7199     TIP3     H2       HT       0.417000       1.00800           0
     21598 W2       7200     TIP3     OH2      OT      -0.834000       15.9994           0
     21599 W2       7200     TIP3     H1       HT       0.417000       1.00800           0
     21600 W2       7200     TIP3     H2       HT       0.417000       1.00800           0
     21601 W2       7201     TIP3     OH2      OT      -0.834000       15.9994           0
     21602 W2       7201     TIP3     H1       HT       0.417000       1.00800           0
     21603 W2       7201     TIP3     H2       HT       0.417000       1.00800           0
     21604 W2       7202     TIP3     OH2      OT      -0.834000       15.9994           0
     21605 W2       7202     TIP3     H1       HT       0.417000       1.00800           0
     21606 W2       7202     TIP3     H2       HT       0.417000       1.00800           0
     21607 W2       7203     TIP3     OH2      OT      -0.834000       15.9994           0
     21608 W2       7203     TIP3     H1       HT       0.417000       1.00800           0
     21609 W2       7203     TIP3     H2       HT       0.417000       1.00800           0
     21610 W2       7204     TIP3     OH2      OT      -0.834000       15.9994           0
     21611 W2       7204     TIP3     H1       HT       0.417000       1.00800           0
     21612 W2       7204     TIP3     H2       HT       0.417000       1.00800           0
     21613 W2       7205     TIP3     OH2      OT      -0.834000       15.9994           0
     21614 W2       7205     TIP3     H1       HT       0.417000       1.00800           0
     21615 W2       7205     TIP3     H2       HT       0.417000       1.00800           0
     21616 W2       7206     TIP3     OH2      OT      -0.834000       15.9994           0
     21617 W2       7206     TIP3     H1       HT       0.417000       1.00800           0
     21618 W2       7206     TIP3     H2       HT       0.417000       1.00800           0
     21619 W2       7207     TIP3     OH2      OT      -0.834000       15.9994           0
     21620 W2       7207     TIP3     H1       HT       0.417000       1.00800           0
     21621 W2       7207     TIP3     H2       HT       0.417000       1.00800           0
     21622 W2       7208     TIP3     OH2      OT      -0.834000       15.9994           0
     21623 W2       7208     TIP3     H1       HT       0.417000       1.00800           0
     21624 W2       7208     TIP3     H2       HT       0.417000       1.00800           0
     21625 W2       7209     TIP3     OH2      OT      -0.834000       15.9994           0
     21626 W2       7209     TIP3     H1       HT       0.417000       1.00800           0
     21627 W2       7209     TIP3     H2       HT       0.417000       1.00800           0
     21628 W2       7210     TIP3     OH2      OT      -0.834000       15.9994           0
     21629 W2       7210     TIP3     H1       HT       0.417000       1.00800           0
     21630 W2       7210     TIP3     H2       HT       0.417000       1.00800           0
     21631 W2       7211     TIP3     OH2      OT      -0.834000       15.9994           0
     21632 W2       7211     TIP3     H1       HT       0.417000       1.00800           0
     21633 W2       7211     TIP3     H2       HT       0.417000       1.00800           0
     21634 W2       7212     TIP3     OH2      OT      -0.834000       15.9994           0
     21635 W2       7212     TIP3     H1       HT       0.417000       1.00800           0
     21636 W2       7212     TIP3     H2       HT       0.417000       1.00800           0
     21637 W2       7213     TIP3     OH2      OT      -0.834000       15.9994           0
     21638 W2       7213     TIP3     H1       HT       0.417000       1.00800           0
     21639 W2       7213     TIP3     H2       HT       0.417000       1.00800           0
     21640 W2       7214     TIP3     OH2      OT      -0.834000       15.9994           0
     21641 W2       7214     TIP3     H1       HT       0.417000       1.00800           0
     21642 W2       7214     TIP3     H2       HT       0.417000       1.00800           0
     21643 W2       7215     TIP3     OH2      OT      -0.834000       15.9994           0
     21644 W2       7215     TIP3     H1       HT       0.417000       1.00800           0
     21645 W2       7215     TIP3     H2       HT       0.417000       1.00800           0
     21646 W2       7216     TIP3     OH2      OT      -0.834000       15.9994           0
     21647 W2       7216     TIP3     H1       HT       0.417000       1.00800           0
     21648 W2       7216     TIP3     H2       HT       0.417000       1.00800           0
     21649 W2       7217     TIP3     OH2      OT      -0.834000       15.9994           0
     21650 W2       7217     TIP3     H1       HT       0.417000       1.00800           0
     21651 W2       7217     TIP3     H2       HT       0.417000       1.00800           0
     21652 W2       7218     TIP3     OH2      OT      -0.834000       15.9994           0
     21653 W2       7218     TIP3     H1       HT       0.417000       1.00800           0
     21654 W2       7218     TIP3     H2       HT       0.417000       1.00800           0
     21655 W2       7219     TIP3     OH2      OT      -0.834000       15.9994           0
     21656 W2       7219     TIP3     H1       HT       0.417000       1.00800           0
     21657 W2       7219     TIP3     H2       HT       0.417000       1.00800           0
     21658 W2       7220     TIP3     OH2      OT      -0.834000       15.9994           0
     21659 W2       7220     TIP3     H1       HT       0.417000       1.00800           0
     21660 W2       7220     TIP3     H2       HT       0.417000       1.00800           0
     21661 W2       7221     TIP3     OH2      OT      -0.834000       15.9994           0
     21662 W2       7221     TIP3     H1       HT       0.417000       1.00800           0
     21663 W2       7221     TIP3     H2       HT       0.417000       1.00800           0
     21664 W2       7222     TIP3     OH2      OT      -0.834000       15.9994           0
     21665 W2       7222     TIP3     H1       HT       0.417000       1.00800           0
     21666 W2       7222     TIP3     H2       HT       0.417000       1.00800           0
     21667 W2       7223     TIP3     OH2      OT      -0.834000       15.9994           0
     21668 W2       7223     TIP3     H1       HT       0.417000       1.00800           0
     21669 W2       7223     TIP3     H2       HT       0.417000       1.00800           0
     21670 W2       7224     TIP3     OH2      OT      -0.834000       15.9994           0
     21671 W2       7224     TIP3     H1       HT       0.417000       1.00800           0
     21672 W2       7224     TIP3     H2       HT       0.417000       1.00800           0
     21673 W2       7225     TIP3     OH2      OT      -0.834000       15.9994           0
     21674 W2       7225     TIP3     H1       HT       0.417000       1.00800           0
     21675 W2       7225     TIP3     H2       HT       0.417000       1.00800           0
     21676 W2       7226     TIP3     OH2      OT      -0.834000       15.9994           0
     21677 W2       7226     TIP3     H1       HT       0.417000       1.00800           0
     21678 W2       7226     TIP3     H2       HT       0.417000       1.00800           0
     21679 W2       7227     TIP3     OH2      OT      -0.834000       15.9994           0
     21680 W2       7227     TIP3     H1       HT       0.417000       1.00800           0
     21681 W2       7227     TIP3     H2       HT       0.417000       1.00800           0
     21682 W2       7228     TIP3     OH2      OT      -0.834000       15.9994           0
     21683 W2       7228     TIP3     H1       HT       0.417000       1.00800           0
     21684 W2       7228     TIP3     H2       HT       0.417000       1.00800           0
     21685 W2       7229     TIP3     OH2      OT      -0.834000       15.9994           0
     21686 W2       7229     TIP3     H1       HT       0.417000       1.00800           0
     21687 W2       7229     TIP3     H2       HT       0.417000       1.00800           0
     21688 W2       7230     TIP3     OH2      OT      -0.834000       15.9994           0
     21689 W2       7230     TIP3     H1       HT       0.417000       1.00800           0
     21690 W2       7230     TIP3     H2       HT       0.417000       1.00800           0
     21691 W2       7231     TIP3     OH2      OT      -0.834000       15.9994           0
     21692 W2       7231     TIP3     H1       HT       0.417000       1.00800           0
     21693 W2       7231     TIP3     H2       HT       0.417000       1.00800           0
     21694 W2       7232     TIP3     OH2      OT      -0.834000       15.9994           0
     21695 W2       7232     TIP3     H1       HT       0.417000       1.00800           0
     21696 W2       7232     TIP3     H2       HT       0.417000       1.00800           0
     21697 W2       7233     TIP3     OH2      OT      -0.834000       15.9994           0
     21698 W2       7233     TIP3     H1       HT       0.417000       1.00800           0
     21699 W2       7233     TIP3     H2       HT       0.417000       1.00800           0
     21700 W2       7234     TIP3     OH2      OT      -0.834000       15.9994           0
     21701 W2       7234     TIP3     H1       HT       0.417000       1.00800           0
     21702 W2       7234     TIP3     H2       HT       0.417000       1.00800           0
     21703 W2       7235     TIP3     OH2      OT      -0.834000       15.9994           0
     21704 W2       7235     TIP3     H1       HT       0.417000       1.00800           0
     21705 W2       7235     TIP3     H2       HT       0.417000       1.00800           0
     21706 W2       7236     TIP3     OH2      OT      -0.834000       15.9994           0
     21707 W2       7236     TIP3     H1       HT       0.417000       1.00800           0
     21708 W2       7236     TIP3     H2       HT       0.417000       1.00800           0
     21709 W2       7237     TIP3     OH2      OT      -0.834000       15.9994           0
     21710 W2       7237     TIP3     H1       HT       0.417000       1.00800           0
     21711 W2       7237     TIP3     H2       HT       0.417000       1.00800           0
     21712 W2       7238     TIP3     OH2      OT      -0.834000       15.9994           0
     21713 W2       7238     TIP3     H1       HT       0.417000       1.00800           0
     21714 W2       7238     TIP3     H2       HT       0.417000       1.00800           0
     21715 W2       7239     TIP3     OH2      OT      -0.834000       15.9994           0
     21716 W2       7239     TIP3     H1       HT       0.417000       1.00800           0
     21717 W2       7239     TIP3     H2       HT       0.417000       1.00800           0
     21718 W2       7240     TIP3     OH2      OT      -0.834000       15.9994           0
     21719 W2       7240     TIP3     H1       HT       0.417000       1.00800           0
     21720 W2       7240     TIP3     H2       HT       0.417000       1.00800           0
     21721 W2       7241     TIP3     OH2      OT      -0.834000       15.9994           0
     21722 W2       7241     TIP3     H1       HT       0.417000       1.00800           0
     21723 W2       7241     TIP3     H2       HT       0.417000       1.00800           0
     21724 W2       7242     TIP3     OH2      OT      -0.834000       15.9994           0
     21725 W2       7242     TIP3     H1       HT       0.417000       1.00800           0
     21726 W2       7242     TIP3     H2       HT       0.417000       1.00800           0
     21727 W2       7243     TIP3     OH2      OT      -0.834000       15.9994           0
     21728 W2       7243     TIP3     H1       HT       0.417000       1.00800           0
     21729 W2       7243     TIP3     H2       HT       0.417000       1.00800           0
     21730 W2       7244     TIP3     OH2      OT      -0.834000       15.9994           0
     21731 W2       7244     TIP3     H1       HT       0.417000       1.00800           0
     21732 W2       7244     TIP3     H2       HT       0.417000       1.00800           0
     21733 W2       7245     TIP3     OH2      OT      -0.834000       15.9994           0
     21734 W2       7245     TIP3     H1       HT       0.417000       1.00800           0
     21735 W2       7245     TIP3     H2       HT       0.417000       1.00800           0
     21736 W2       7246     TIP3     OH2      OT      -0.834000       15.9994           0
     21737 W2       7246     TIP3     H1       HT       0.417000       1.00800           0
     21738 W2       7246     TIP3     H2       HT       0.417000       1.00800           0
     21739 W2       7247     TIP3     OH2      OT      -0.834000       15.9994           0
     21740 W2       7247     TIP3     H1       HT       0.417000       1.00800           0
     21741 W2       7247     TIP3     H2       HT       0.417000       1.00800           0
     21742 W2       7248     TIP3     OH2      OT      -0.834000       15.9994           0
     21743 W2       7248     TIP3     H1       HT       0.417000       1.00800           0
     21744 W2       7248     TIP3     H2       HT       0.417000       1.00800           0
     21745 W2       7249     TIP3     OH2      OT      -0.834000       15.9994           0
     21746 W2       7249     TIP3     H1       HT       0.417000       1.00800           0
     21747 W2       7249     TIP3     H2       HT       0.417000       1.00800           0
     21748 W2       7250     TIP3     OH2      OT      -0.834000       15.9994           0
     21749 W2       7250     TIP3     H1       HT       0.417000       1.00800           0
     21750 W2       7250     TIP3     H2       HT       0.417000       1.00800           0
     21751 W2       7251     TIP3     OH2      OT      -0.834000       15.9994           0
     21752 W2       7251     TIP3     H1       HT       0.417000       1.00800           0
     21753 W2       7251     TIP3     H2       HT       0.417000       1.00800           0
     21754 W2       7252     TIP3     OH2      OT      -0.834000       15.9994           0
     21755 W2       7252     TIP3     H1       HT       0.417000       1.00800           0
     21756 W2       7252     TIP3     H2       HT       0.417000       1.00800           0
     21757 W2       7253     TIP3     OH2      OT      -0.834000       15.9994           0
     21758 W2       7253     TIP3     H1       HT       0.417000       1.00800           0
     21759 W2       7253     TIP3     H2       HT       0.417000       1.00800           0
     21760 W2       7254     TIP3     OH2      OT      -0.834000       15.9994           0
     21761 W2       7254     TIP3     H1       HT       0.417000       1.00800           0
     21762 W2       7254     TIP3     H2       HT       0.417000       1.00800           0
     21763 W2       7255     TIP3     OH2      OT      -0.834000       15.9994           0
     21764 W2       7255     TIP3     H1       HT       0.417000       1.00800           0
     21765 W2       7255     TIP3     H2       HT       0.417000       1.00800           0
     21766 W2       7256     TIP3     OH2      OT      -0.834000       15.9994           0
     21767 W2       7256     TIP3     H1       HT       0.417000       1.00800           0
     21768 W2       7256     TIP3     H2       HT       0.417000       1.00800           0
     21769 W2       7257     TIP3     OH2      OT      -0.834000       15.9994           0
     21770 W2       7257     TIP3     H1       HT       0.417000       1.00800           0
     21771 W2       7257     TIP3     H2       HT       0.417000       1.00800           0
     21772 W2       7258     TIP3     OH2      OT      -0.834000       15.9994           0
     21773 W2       7258     TIP3     H1       HT       0.417000       1.00800           0
     21774 W2       7258     TIP3     H2       HT       0.417000       1.00800           0
     21775 W2       7259     TIP3     OH2      OT      -0.834000       15.9994           0
     21776 W2       7259     TIP3     H1       HT       0.417000       1.00800           0
     21777 W2       7259     TIP3     H2       HT       0.417000       1.00800           0
     21778 W2       7260     TIP3     OH2      OT      -0.834000       15.9994           0
     21779 W2       7260     TIP3     H1       HT       0.417000       1.00800           0
     21780 W2       7260     TIP3     H2       HT       0.417000       1.00800           0
     21781 W2       7261     TIP3     OH2      OT      -0.834000       15.9994           0
     21782 W2       7261     TIP3     H1       HT       0.417000       1.00800           0
     21783 W2       7261     TIP3     H2       HT       0.417000       1.00800           0
     21784 W2       7262     TIP3     OH2      OT      -0.834000       15.9994           0
     21785 W2       7262     TIP3     H1       HT       0.417000       1.00800           0
     21786 W2       7262     TIP3     H2       HT       0.417000       1.00800           0
     21787 W2       7263     TIP3     OH2      OT      -0.834000       15.9994           0
     21788 W2       7263     TIP3     H1       HT       0.417000       1.00800           0
     21789 W2       7263     TIP3     H2       HT       0.417000       1.00800           0
     21790 W2       7264     TIP3     OH2      OT      -0.834000       15.9994           0
     21791 W2       7264     TIP3     H1       HT       0.417000       1.00800           0
     21792 W2       7264     TIP3     H2       HT       0.417000       1.00800           0
     21793 W2       7265     TIP3     OH2      OT      -0.834000       15.9994           0
     21794 W2       7265     TIP3     H1       HT       0.417000       1.00800           0
     21795 W2       7265     TIP3     H2       HT       0.417000       1.00800           0
     21796 W2       7266     TIP3     OH2      OT      -0.834000       15.9994           0
     21797 W2       7266     TIP3     H1       HT       0.417000       1.00800           0
     21798 W2       7266     TIP3     H2       HT       0.417000       1.00800           0
     21799 W2       7267     TIP3     OH2      OT      -0.834000       15.9994           0
     21800 W2       7267     TIP3     H1       HT       0.417000       1.00800           0
     21801 W2       7267     TIP3     H2       HT       0.417000       1.00800           0
     21802 W2       7268     TIP3     OH2      OT      -0.834000       15.9994           0
     21803 W2       7268     TIP3     H1       HT       0.417000       1.00800           0
     21804 W2       7268     TIP3     H2       HT       0.417000       1.00800           0
     21805 W2       7269     TIP3     OH2      OT      -0.834000       15.9994           0
     21806 W2       7269     TIP3     H1       HT       0.417000       1.00800           0
     21807 W2       7269     TIP3     H2       HT       0.417000       1.00800           0
     21808 W2       7270     TIP3     OH2      OT      -0.834000       15.9994           0
     21809 W2       7270     TIP3     H1       HT       0.417000       1.00800           0
     21810 W2       7270     TIP3     H2       HT       0.417000       1.00800           0
     21811 W2       7271     TIP3     OH2      OT      -0.834000       15.9994           0
     21812 W2       7271     TIP3     H1       HT       0.417000       1.00800           0
     21813 W2       7271     TIP3     H2       HT       0.417000       1.00800           0
     21814 W2       7272     TIP3     OH2      OT      -0.834000       15.9994           0
     21815 W2       7272     TIP3     H1       HT       0.417000       1.00800           0
     21816 W2       7272     TIP3     H2       HT       0.417000       1.00800           0
     21817 W2       7273     TIP3     OH2      OT      -0.834000       15.9994           0
     21818 W2       7273     TIP3     H1       HT       0.417000       1.00800           0
     21819 W2       7273     TIP3     H2       HT       0.417000       1.00800           0
     21820 W2       7274     TIP3     OH2      OT      -0.834000       15.9994           0
     21821 W2       7274     TIP3     H1       HT       0.417000       1.00800           0
     21822 W2       7274     TIP3     H2       HT       0.417000       1.00800           0
     21823 W2       7275     TIP3     OH2      OT      -0.834000       15.9994           0
     21824 W2       7275     TIP3     H1       HT       0.417000       1.00800           0
     21825 W2       7275     TIP3     H2       HT       0.417000       1.00800           0
     21826 W2       7276     TIP3     OH2      OT      -0.834000       15.9994           0
     21827 W2       7276     TIP3     H1       HT       0.417000       1.00800           0
     21828 W2       7276     TIP3     H2       HT       0.417000       1.00800           0
     21829 W2       7277     TIP3     OH2      OT      -0.834000       15.9994           0
     21830 W2       7277     TIP3     H1       HT       0.417000       1.00800           0
     21831 W2       7277     TIP3     H2       HT       0.417000       1.00800           0
     21832 W2       7278     TIP3     OH2      OT      -0.834000       15.9994           0
     21833 W2       7278     TIP3     H1       HT       0.417000       1.00800           0
     21834 W2       7278     TIP3     H2       HT       0.417000       1.00800           0
     21835 W2       7279     TIP3     OH2      OT      -0.834000       15.9994           0
     21836 W2       7279     TIP3     H1       HT       0.417000       1.00800           0
     21837 W2       7279     TIP3     H2       HT       0.417000       1.00800           0
     21838 W2       7280     TIP3     OH2      OT      -0.834000       15.9994           0
     21839 W2       7280     TIP3     H1       HT       0.417000       1.00800           0
     21840 W2       7280     TIP3     H2       HT       0.417000       1.00800           0
     21841 W2       7281     TIP3     OH2      OT      -0.834000       15.9994           0
     21842 W2       7281     TIP3     H1       HT       0.417000       1.00800           0
     21843 W2       7281     TIP3     H2       HT       0.417000       1.00800           0
     21844 W2       7282     TIP3     OH2      OT      -0.834000       15.9994           0
     21845 W2       7282     TIP3     H1       HT       0.417000       1.00800           0
     21846 W2       7282     TIP3     H2       HT       0.417000       1.00800           0
     21847 W2       7283     TIP3     OH2      OT      -0.834000       15.9994           0
     21848 W2       7283     TIP3     H1       HT       0.417000       1.00800           0
     21849 W2       7283     TIP3     H2       HT       0.417000       1.00800           0
     21850 W2       7284     TIP3     OH2      OT      -0.834000       15.9994           0
     21851 W2       7284     TIP3     H1       HT       0.417000       1.00800           0
     21852 W2       7284     TIP3     H2       HT       0.417000       1.00800           0
     21853 W2       7285     TIP3     OH2      OT      -0.834000       15.9994           0
     21854 W2       7285     TIP3     H1       HT       0.417000       1.00800           0
     21855 W2       7285     TIP3     H2       HT       0.417000       1.00800           0
     21856 W2       7286     TIP3     OH2      OT      -0.834000       15.9994           0
     21857 W2       7286     TIP3     H1       HT       0.417000       1.00800           0
     21858 W2       7286     TIP3     H2       HT       0.417000       1.00800           0
     21859 W2       7287     TIP3     OH2      OT      -0.834000       15.9994           0
     21860 W2       7287     TIP3     H1       HT       0.417000       1.00800           0
     21861 W2       7287     TIP3     H2       HT       0.417000       1.00800           0
     21862 W2       7288     TIP3     OH2      OT      -0.834000       15.9994           0
     21863 W2       7288     TIP3     H1       HT       0.417000       1.00800           0
     21864 W2       7288     TIP3     H2       HT       0.417000       1.00800           0
     21865 W2       7289     TIP3     OH2      OT      -0.834000       15.9994           0
     21866 W2       7289     TIP3     H1       HT       0.417000       1.00800           0
     21867 W2       7289     TIP3     H2       HT       0.417000       1.00800           0
     21868 W2       7290     TIP3     OH2      OT      -0.834000       15.9994           0
     21869 W2       7290     TIP3     H1       HT       0.417000       1.00800           0
     21870 W2       7290     TIP3     H2       HT       0.417000       1.00800           0
     21871 W2       7291     TIP3     OH2      OT      -0.834000       15.9994           0
     21872 W2       7291     TIP3     H1       HT       0.417000       1.00800           0
     21873 W2       7291     TIP3     H2       HT       0.417000       1.00800           0
     21874 W2       7292     TIP3     OH2      OT      -0.834000       15.9994           0
     21875 W2       7292     TIP3     H1       HT       0.417000       1.00800           0
     21876 W2       7292     TIP3     H2       HT       0.417000       1.00800           0
     21877 W2       7293     TIP3     OH2      OT      -0.834000       15.9994           0
     21878 W2       7293     TIP3     H1       HT       0.417000       1.00800           0
     21879 W2       7293     TIP3     H2       HT       0.417000       1.00800           0
     21880 W2       7294     TIP3     OH2      OT      -0.834000       15.9994           0
     21881 W2       7294     TIP3     H1       HT       0.417000       1.00800           0
     21882 W2       7294     TIP3     H2       HT       0.417000       1.00800           0
     21883 W2       7295     TIP3     OH2      OT      -0.834000       15.9994           0
     21884 W2       7295     TIP3     H1       HT       0.417000       1.00800           0
     21885 W2       7295     TIP3     H2       HT       0.417000       1.00800           0
     21886 W2       7296     TIP3     OH2      OT      -0.834000       15.9994           0
     21887 W2       7296     TIP3     H1       HT       0.417000       1.00800           0
     21888 W2       7296     TIP3     H2       HT       0.417000       1.00800           0
     21889 W2       7297     TIP3     OH2      OT      -0.834000       15.9994           0
     21890 W2       7297     TIP3     H1       HT       0.417000       1.00800           0
     21891 W2       7297     TIP3     H2       HT       0.417000       1.00800           0
     21892 W2       7298     TIP3     OH2      OT      -0.834000       15.9994           0
     21893 W2       7298     TIP3     H1       HT       0.417000       1.00800           0
     21894 W2       7298     TIP3     H2       HT       0.417000       1.00800           0
     21895 W2       7299     TIP3     OH2      OT      -0.834000       15.9994           0
     21896 W2       7299     TIP3     H1       HT       0.417000       1.00800           0
     21897 W2       7299     TIP3     H2       HT       0.417000       1.00800           0
     21898 W2       7300     TIP3     OH2      OT      -0.834000       15.9994           0
     21899 W2       7300     TIP3     H1       HT       0.417000       1.00800           0
     21900 W2       7300     TIP3     H2       HT       0.417000       1.00800           0
     21901 W2       7301     TIP3     OH2      OT      -0.834000       15.9994           0
     21902 W2       7301     TIP3     H1       HT       0.417000       1.00800           0
     21903 W2       7301     TIP3     H2       HT       0.417000       1.00800           0
     21904 W2       7302     TIP3     OH2      OT      -0.834000       15.9994           0
     21905 W2       7302     TIP3     H1       HT       0.417000       1.00800           0
     21906 W2       7302     TIP3     H2       HT       0.417000       1.00800           0
     21907 W2       7303     TIP3     OH2      OT      -0.834000       15.9994           0
     21908 W2       7303     TIP3     H1       HT       0.417000       1.00800           0
     21909 W2       7303     TIP3     H2       HT       0.417000       1.00800           0
     21910 W2       7304     TIP3     OH2      OT      -0.834000       15.9994           0
     21911 W2       7304     TIP3     H1       HT       0.417000       1.00800           0
     21912 W2       7304     TIP3     H2       HT       0.417000       1.00800           0
     21913 W2       7305     TIP3     OH2      OT      -0.834000       15.9994           0
     21914 W2       7305     TIP3     H1       HT       0.417000       1.00800           0
     21915 W2       7305     TIP3     H2       HT       0.417000       1.00800           0
     21916 W2       7306     TIP3     OH2      OT      -0.834000       15.9994           0
     21917 W2       7306     TIP3     H1       HT       0.417000       1.00800           0
     21918 W2       7306     TIP3     H2       HT       0.417000       1.00800           0
     21919 W2       7307     TIP3     OH2      OT      -0.834000       15.9994           0
     21920 W2       7307     TIP3     H1       HT       0.417000       1.00800           0
     21921 W2       7307     TIP3     H2       HT       0.417000       1.00800           0
     21922 W2       7308     TIP3     OH2      OT      -0.834000       15.9994           0
     21923 W2       7308     TIP3     H1       HT       0.417000       1.00800           0
     21924 W2       7308     TIP3     H2       HT       0.417000       1.00800           0
     21925 W2       7309     TIP3     OH2      OT      -0.834000       15.9994           0
     21926 W2       7309     TIP3     H1       HT       0.417000       1.00800           0
     21927 W2       7309     TIP3     H2       HT       0.417000       1.00800           0
     21928 W2       7310     TIP3     OH2      OT      -0.834000       15.9994           0
     21929 W2       7310     TIP3     H1       HT       0.417000       1.00800           0
     21930 W2       7310     TIP3     H2       HT       0.417000       1.00800           0
     21931 W2       7311     TIP3     OH2      OT      -0.834000       15.9994           0
     21932 W2       7311     TIP3     H1       HT       0.417000       1.00800           0
     21933 W2       7311     TIP3     H2       HT       0.417000       1.00800           0
     21934 W2       7312     TIP3     OH2      OT      -0.834000       15.9994           0
     21935 W2       7312     TIP3     H1       HT       0.417000       1.00800           0
     21936 W2       7312     TIP3     H2       HT       0.417000       1.00800           0
     21937 W2       7313     TIP3     OH2      OT      -0.834000       15.9994           0
     21938 W2       7313     TIP3     H1       HT       0.417000       1.00800           0
     21939 W2       7313     TIP3     H2       HT       0.417000       1.00800           0
     21940 W2       7314     TIP3     OH2      OT      -0.834000       15.9994           0
     21941 W2       7314     TIP3     H1       HT       0.417000       1.00800           0
     21942 W2       7314     TIP3     H2       HT       0.417000       1.00800           0
     21943 W2       7315     TIP3     OH2      OT      -0.834000       15.9994           0
     21944 W2       7315     TIP3     H1       HT       0.417000       1.00800           0
     21945 W2       7315     TIP3     H2       HT       0.417000       1.00800           0
     21946 W2       7316     TIP3     OH2      OT      -0.834000       15.9994           0
     21947 W2       7316     TIP3     H1       HT       0.417000       1.00800           0
     21948 W2       7316     TIP3     H2       HT       0.417000       1.00800           0
     21949 W2       7317     TIP3     OH2      OT      -0.834000       15.9994           0
     21950 W2       7317     TIP3     H1       HT       0.417000       1.00800           0
     21951 W2       7317     TIP3     H2       HT       0.417000       1.00800           0
     21952 W2       7318     TIP3     OH2      OT      -0.834000       15.9994           0
     21953 W2       7318     TIP3     H1       HT       0.417000       1.00800           0
     21954 W2       7318     TIP3     H2       HT       0.417000       1.00800           0
     21955 W2       7319     TIP3     OH2      OT      -0.834000       15.9994           0
     21956 W2       7319     TIP3     H1       HT       0.417000       1.00800           0
     21957 W2       7319     TIP3     H2       HT       0.417000       1.00800           0
     21958 W2       7320     TIP3     OH2      OT      -0.834000       15.9994           0
     21959 W2       7320     TIP3     H1       HT       0.417000       1.00800           0
     21960 W2       7320     TIP3     H2       HT       0.417000       1.00800           0
     21961 W2       7321     TIP3     OH2      OT      -0.834000       15.9994           0
     21962 W2       7321     TIP3     H1       HT       0.417000       1.00800           0
     21963 W2       7321     TIP3     H2       HT       0.417000       1.00800           0
     21964 W2       7322     TIP3     OH2      OT      -0.834000       15.9994           0
     21965 W2       7322     TIP3     H1       HT       0.417000       1.00800           0
     21966 W2       7322     TIP3     H2       HT       0.417000       1.00800           0
     21967 W2       7323     TIP3     OH2      OT      -0.834000       15.9994           0
     21968 W2       7323     TIP3     H1       HT       0.417000       1.00800           0
     21969 W2       7323     TIP3     H2       HT       0.417000       1.00800           0
     21970 W2       7324     TIP3     OH2      OT      -0.834000       15.9994           0
     21971 W2       7324     TIP3     H1       HT       0.417000       1.00800           0
     21972 W2       7324     TIP3     H2       HT       0.417000       1.00800           0
     21973 W2       7325     TIP3     OH2      OT      -0.834000       15.9994           0
     21974 W2       7325     TIP3     H1       HT       0.417000       1.00800           0
     21975 W2       7325     TIP3     H2       HT       0.417000       1.00800           0
     21976 W2       7326     TIP3     OH2      OT      -0.834000       15.9994           0
     21977 W2       7326     TIP3     H1       HT       0.417000       1.00800           0
     21978 W2       7326     TIP3     H2       HT       0.417000       1.00800           0
     21979 W2       7327     TIP3     OH2      OT      -0.834000       15.9994           0
     21980 W2       7327     TIP3     H1       HT       0.417000       1.00800           0
     21981 W2       7327     TIP3     H2       HT       0.417000       1.00800           0
     21982 W2       7328     TIP3     OH2      OT      -0.834000       15.9994           0
     21983 W2       7328     TIP3     H1       HT       0.417000       1.00800           0
     21984 W2       7328     TIP3     H2       HT       0.417000       1.00800           0
     21985 W2       7329     TIP3     OH2      OT      -0.834000       15.9994           0
     21986 W2       7329     TIP3     H1       HT       0.417000       1.00800           0
     21987 W2       7329     TIP3     H2       HT       0.417000       1.00800           0
     21988 W2       7330     TIP3     OH2      OT      -0.834000       15.9994           0
     21989 W2       7330     TIP3     H1       HT       0.417000       1.00800           0
     21990 W2       7330     TIP3     H2       HT       0.417000       1.00800           0
     21991 W2       7331     TIP3     OH2      OT      -0.834000       15.9994           0
     21992 W2       7331     TIP3     H1       HT       0.417000       1.00800           0
     21993 W2       7331     TIP3     H2       HT       0.417000       1.00800           0
     21994 W2       7332     TIP3     OH2      OT      -0.834000       15.9994           0
     21995 W2       7332     TIP3     H1       HT       0.417000       1.00800           0
     21996 W2       7332     TIP3     H2       HT       0.417000       1.00800           0
     21997 W2       7333     TIP3     OH2      OT      -0.834000       15.9994           0
     21998 W2       7333     TIP3     H1       HT       0.417000       1.00800           0
     21999 W2       7333     TIP3     H2       HT       0.417000       1.00800           0
     22000 W2       7334     TIP3     OH2      OT      -0.834000       15.9994           0
     22001 W2       7334     TIP3     H1       HT       0.417000       1.00800           0
     22002 W2       7334     TIP3     H2       HT       0.417000       1.00800           0
     22003 W2       7335     TIP3     OH2      OT      -0.834000       15.9994           0
     22004 W2       7335     TIP3     H1       HT       0.417000       1.00800           0
     22005 W2       7335     TIP3     H2       HT       0.417000       1.00800           0
     22006 W2       7336     TIP3     OH2      OT      -0.834000       15.9994           0
     22007 W2       7336     TIP3     H1       HT       0.417000       1.00800           0
     22008 W2       7336     TIP3     H2       HT       0.417000       1.00800           0
     22009 W2       7337     TIP3     OH2      OT      -0.834000       15.9994           0
     22010 W2       7337     TIP3     H1       HT       0.417000       1.00800           0
     22011 W2       7337     TIP3     H2       HT       0.417000       1.00800           0
     22012 W2       7338     TIP3     OH2      OT      -0.834000       15.9994           0
     22013 W2       7338     TIP3     H1       HT       0.417000       1.00800           0
     22014 W2       7338     TIP3     H2       HT       0.417000       1.00800           0
     22015 W2       7339     TIP3     OH2      OT      -0.834000       15.9994           0
     22016 W2       7339     TIP3     H1       HT       0.417000       1.00800           0
     22017 W2       7339     TIP3     H2       HT       0.417000       1.00800           0
     22018 W2       7340     TIP3     OH2      OT      -0.834000       15.9994           0
     22019 W2       7340     TIP3     H1       HT       0.417000       1.00800           0
     22020 W2       7340     TIP3     H2       HT       0.417000       1.00800           0
     22021 W2       7341     TIP3     OH2      OT      -0.834000       15.9994           0
     22022 W2       7341     TIP3     H1       HT       0.417000       1.00800           0
     22023 W2       7341     TIP3     H2       HT       0.417000       1.00800           0
     22024 W2       7342     TIP3     OH2      OT      -0.834000       15.9994           0
     22025 W2       7342     TIP3     H1       HT       0.417000       1.00800           0
     22026 W2       7342     TIP3     H2       HT       0.417000       1.00800           0
     22027 W2       7343     TIP3     OH2      OT      -0.834000       15.9994           0
     22028 W2       7343     TIP3     H1       HT       0.417000       1.00800           0
     22029 W2       7343     TIP3     H2       HT       0.417000       1.00800           0
     22030 W2       7344     TIP3     OH2      OT      -0.834000       15.9994           0
     22031 W2       7344     TIP3     H1       HT       0.417000       1.00800           0
     22032 W2       7344     TIP3     H2       HT       0.417000       1.00800           0
     22033 W2       7345     TIP3     OH2      OT      -0.834000       15.9994           0
     22034 W2       7345     TIP3     H1       HT       0.417000       1.00800           0
     22035 W2       7345     TIP3     H2       HT       0.417000       1.00800           0
     22036 W2       7346     TIP3     OH2      OT      -0.834000       15.9994           0
     22037 W2       7346     TIP3     H1       HT       0.417000       1.00800           0
     22038 W2       7346     TIP3     H2       HT       0.417000       1.00800           0
     22039 W2       7347     TIP3     OH2      OT      -0.834000       15.9994           0
     22040 W2       7347     TIP3     H1       HT       0.417000       1.00800           0
     22041 W2       7347     TIP3     H2       HT       0.417000       1.00800           0
     22042 W2       7348     TIP3     OH2      OT      -0.834000       15.9994           0
     22043 W2       7348     TIP3     H1       HT       0.417000       1.00800           0
     22044 W2       7348     TIP3     H2       HT       0.417000       1.00800           0
     22045 W2       7349     TIP3     OH2      OT      -0.834000       15.9994           0
     22046 W2       7349     TIP3     H1       HT       0.417000       1.00800           0
     22047 W2       7349     TIP3     H2       HT       0.417000       1.00800           0
     22048 W2       7350     TIP3     OH2      OT      -0.834000       15.9994           0
     22049 W2       7350     TIP3     H1       HT       0.417000       1.00800           0
     22050 W2       7350     TIP3     H2       HT       0.417000       1.00800           0
     22051 W2       7351     TIP3     OH2      OT      -0.834000       15.9994           0
     22052 W2       7351     TIP3     H1       HT       0.417000       1.00800           0
     22053 W2       7351     TIP3     H2       HT       0.417000       1.00800           0
     22054 W2       7352     TIP3     OH2      OT      -0.834000       15.9994           0
     22055 W2       7352     TIP3     H1       HT       0.417000       1.00800           0
     22056 W2       7352     TIP3     H2       HT       0.417000       1.00800           0
     22057 W2       7353     TIP3     OH2      OT      -0.834000       15.9994           0
     22058 W2       7353     TIP3     H1       HT       0.417000       1.00800           0
     22059 W2       7353     TIP3     H2       HT       0.417000       1.00800           0
     22060 W2       7354     TIP3     OH2      OT      -0.834000       15.9994           0
     22061 W2       7354     TIP3     H1       HT       0.417000       1.00800           0
     22062 W2       7354     TIP3     H2       HT       0.417000       1.00800           0
     22063 W2       7355     TIP3     OH2      OT      -0.834000       15.9994           0
     22064 W2       7355     TIP3     H1       HT       0.417000       1.00800           0
     22065 W2       7355     TIP3     H2       HT       0.417000       1.00800           0
     22066 W2       7356     TIP3     OH2      OT      -0.834000       15.9994           0
     22067 W2       7356     TIP3     H1       HT       0.417000       1.00800           0
     22068 W2       7356     TIP3     H2       HT       0.417000       1.00800           0
     22069 W2       7357     TIP3     OH2      OT      -0.834000       15.9994           0
     22070 W2       7357     TIP3     H1       HT       0.417000       1.00800           0
     22071 W2       7357     TIP3     H2       HT       0.417000       1.00800           0
     22072 W2       7358     TIP3     OH2      OT      -0.834000       15.9994           0
     22073 W2       7358     TIP3     H1       HT       0.417000       1.00800           0
     22074 W2       7358     TIP3     H2       HT       0.417000       1.00800           0
     22075 W2       7359     TIP3     OH2      OT      -0.834000       15.9994           0
     22076 W2       7359     TIP3     H1       HT       0.417000       1.00800           0
     22077 W2       7359     TIP3     H2       HT       0.417000       1.00800           0
     22078 W2       7360     TIP3     OH2      OT      -0.834000       15.9994           0
     22079 W2       7360     TIP3     H1       HT       0.417000       1.00800           0
     22080 W2       7360     TIP3     H2       HT       0.417000       1.00800           0
     22081 W2       7361     TIP3     OH2      OT      -0.834000       15.9994           0
     22082 W2       7361     TIP3     H1       HT       0.417000       1.00800           0
     22083 W2       7361     TIP3     H2       HT       0.417000       1.00800           0
     22084 W2       7362     TIP3     OH2      OT      -0.834000       15.9994           0
     22085 W2       7362     TIP3     H1       HT       0.417000       1.00800           0
     22086 W2       7362     TIP3     H2       HT       0.417000       1.00800           0
     22087 W2       7363     TIP3     OH2      OT      -0.834000       15.9994           0
     22088 W2       7363     TIP3     H1       HT       0.417000       1.00800           0
     22089 W2       7363     TIP3     H2       HT       0.417000       1.00800           0
     22090 W2       7364     TIP3     OH2      OT      -0.834000       15.9994           0
     22091 W2       7364     TIP3     H1       HT       0.417000       1.00800           0
     22092 W2       7364     TIP3     H2       HT       0.417000       1.00800           0
     22093 W2       7365     TIP3     OH2      OT      -0.834000       15.9994           0
     22094 W2       7365     TIP3     H1       HT       0.417000       1.00800           0
     22095 W2       7365     TIP3     H2       HT       0.417000       1.00800           0
     22096 W2       7366     TIP3     OH2      OT      -0.834000       15.9994           0
     22097 W2       7366     TIP3     H1       HT       0.417000       1.00800           0
     22098 W2       7366     TIP3     H2       HT       0.417000       1.00800           0
     22099 W2       7367     TIP3     OH2      OT      -0.834000       15.9994           0
     22100 W2       7367     TIP3     H1       HT       0.417000       1.00800           0
     22101 W2       7367     TIP3     H2       HT       0.417000       1.00800           0
     22102 W2       7368     TIP3     OH2      OT      -0.834000       15.9994           0
     22103 W2       7368     TIP3     H1       HT       0.417000       1.00800           0
     22104 W2       7368     TIP3     H2       HT       0.417000       1.00800           0
     22105 W2       7369     TIP3     OH2      OT      -0.834000       15.9994           0
     22106 W2       7369     TIP3     H1       HT       0.417000       1.00800           0
     22107 W2       7369     TIP3     H2       HT       0.417000       1.00800           0
     22108 W2       7370     TIP3     OH2      OT      -0.834000       15.9994           0
     22109 W2       7370     TIP3     H1       HT       0.417000       1.00800           0
     22110 W2       7370     TIP3     H2       HT       0.417000       1.00800           0
     22111 W2       7371     TIP3     OH2      OT      -0.834000       15.9994           0
     22112 W2       7371     TIP3     H1       HT       0.417000       1.00800           0
     22113 W2       7371     TIP3     H2       HT       0.417000       1.00800           0
     22114 W2       7372     TIP3     OH2      OT      -0.834000       15.9994           0
     22115 W2       7372     TIP3     H1       HT       0.417000       1.00800           0
     22116 W2       7372     TIP3     H2       HT       0.417000       1.00800           0
     22117 W2       7373     TIP3     OH2      OT      -0.834000       15.9994           0
     22118 W2       7373     TIP3     H1       HT       0.417000       1.00800           0
     22119 W2       7373     TIP3     H2       HT       0.417000       1.00800           0
     22120 W2       7374     TIP3     OH2      OT      -0.834000       15.9994           0
     22121 W2       7374     TIP3     H1       HT       0.417000       1.00800           0
     22122 W2       7374     TIP3     H2       HT       0.417000       1.00800           0
     22123 W2       7375     TIP3     OH2      OT      -0.834000       15.9994           0
     22124 W2       7375     TIP3     H1       HT       0.417000       1.00800           0
     22125 W2       7375     TIP3     H2       HT       0.417000       1.00800           0
     22126 W2       7376     TIP3     OH2      OT      -0.834000       15.9994           0
     22127 W2       7376     TIP3     H1       HT       0.417000       1.00800           0
     22128 W2       7376     TIP3     H2       HT       0.417000       1.00800           0
     22129 W2       7377     TIP3     OH2      OT      -0.834000       15.9994           0
     22130 W2       7377     TIP3     H1       HT       0.417000       1.00800           0
     22131 W2       7377     TIP3     H2       HT       0.417000       1.00800           0
     22132 W2       7378     TIP3     OH2      OT      -0.834000       15.9994           0
     22133 W2       7378     TIP3     H1       HT       0.417000       1.00800           0
     22134 W2       7378     TIP3     H2       HT       0.417000       1.00800           0
     22135 W2       7379     TIP3     OH2      OT      -0.834000       15.9994           0
     22136 W2       7379     TIP3     H1       HT       0.417000       1.00800           0
     22137 W2       7379     TIP3     H2       HT       0.417000       1.00800           0
     22138 W2       7380     TIP3     OH2      OT      -0.834000       15.9994           0
     22139 W2       7380     TIP3     H1       HT       0.417000       1.00800           0
     22140 W2       7380     TIP3     H2       HT       0.417000       1.00800           0
     22141 W2       7381     TIP3     OH2      OT      -0.834000       15.9994           0
     22142 W2       7381     TIP3     H1       HT       0.417000       1.00800           0
     22143 W2       7381     TIP3     H2       HT       0.417000       1.00800           0
     22144 W2       7382     TIP3     OH2      OT      -0.834000       15.9994           0
     22145 W2       7382     TIP3     H1       HT       0.417000       1.00800           0
     22146 W2       7382     TIP3     H2       HT       0.417000       1.00800           0
     22147 W2       7383     TIP3     OH2      OT      -0.834000       15.9994           0
     22148 W2       7383     TIP3     H1       HT       0.417000       1.00800           0
     22149 W2       7383     TIP3     H2       HT       0.417000       1.00800           0
     22150 W2       7384     TIP3     OH2      OT      -0.834000       15.9994           0
     22151 W2       7384     TIP3     H1       HT       0.417000       1.00800           0
     22152 W2       7384     TIP3     H2       HT       0.417000       1.00800           0
     22153 W2       7385     TIP3     OH2      OT      -0.834000       15.9994           0
     22154 W2       7385     TIP3     H1       HT       0.417000       1.00800           0
     22155 W2       7385     TIP3     H2       HT       0.417000       1.00800           0
     22156 W2       7386     TIP3     OH2      OT      -0.834000       15.9994           0
     22157 W2       7386     TIP3     H1       HT       0.417000       1.00800           0
     22158 W2       7386     TIP3     H2       HT       0.417000       1.00800           0
     22159 W2       7387     TIP3     OH2      OT      -0.834000       15.9994           0
     22160 W2       7387     TIP3     H1       HT       0.417000       1.00800           0
     22161 W2       7387     TIP3     H2       HT       0.417000       1.00800           0
     22162 W2       7388     TIP3     OH2      OT      -0.834000       15.9994           0
     22163 W2       7388     TIP3     H1       HT       0.417000       1.00800           0
     22164 W2       7388     TIP3     H2       HT       0.417000       1.00800           0
     22165 W2       7389     TIP3     OH2      OT      -0.834000       15.9994           0
     22166 W2       7389     TIP3     H1       HT       0.417000       1.00800           0
     22167 W2       7389     TIP3     H2       HT       0.417000       1.00800           0
     22168 W2       7390     TIP3     OH2      OT      -0.834000       15.9994           0
     22169 W2       7390     TIP3     H1       HT       0.417000       1.00800           0
     22170 W2       7390     TIP3     H2       HT       0.417000       1.00800           0
     22171 W2       7391     TIP3     OH2      OT      -0.834000       15.9994           0
     22172 W2       7391     TIP3     H1       HT       0.417000       1.00800           0
     22173 W2       7391     TIP3     H2       HT       0.417000       1.00800           0
     22174 W2       7392     TIP3     OH2      OT      -0.834000       15.9994           0
     22175 W2       7392     TIP3     H1       HT       0.417000       1.00800           0
     22176 W2       7392     TIP3     H2       HT       0.417000       1.00800           0
     22177 W2       7393     TIP3     OH2      OT      -0.834000       15.9994           0
     22178 W2       7393     TIP3     H1       HT       0.417000       1.00800           0
     22179 W2       7393     TIP3     H2       HT       0.417000       1.00800           0
     22180 W2       7394     TIP3     OH2      OT      -0.834000       15.9994           0
     22181 W2       7394     TIP3     H1       HT       0.417000       1.00800           0
     22182 W2       7394     TIP3     H2       HT       0.417000       1.00800           0
     22183 W2       7395     TIP3     OH2      OT      -0.834000       15.9994           0
     22184 W2       7395     TIP3     H1       HT       0.417000       1.00800           0
     22185 W2       7395     TIP3     H2       HT       0.417000       1.00800           0
     22186 W2       7396     TIP3     OH2      OT      -0.834000       15.9994           0
     22187 W2       7396     TIP3     H1       HT       0.417000       1.00800           0
     22188 W2       7396     TIP3     H2       HT       0.417000       1.00800           0
     22189 W2       7397     TIP3     OH2      OT      -0.834000       15.9994           0
     22190 W2       7397     TIP3     H1       HT       0.417000       1.00800           0
     22191 W2       7397     TIP3     H2       HT       0.417000       1.00800           0
     22192 W2       7398     TIP3     OH2      OT      -0.834000       15.9994           0
     22193 W2       7398     TIP3     H1       HT       0.417000       1.00800           0
     22194 W2       7398     TIP3     H2       HT       0.417000       1.00800           0
     22195 W2       7399     TIP3     OH2      OT      -0.834000       15.9994           0
     22196 W2       7399     TIP3     H1       HT       0.417000       1.00800           0
     22197 W2       7399     TIP3     H2       HT       0.417000       1.00800           0
     22198 W2       7400     TIP3     OH2      OT      -0.834000       15.9994           0
     22199 W2       7400     TIP3     H1       HT       0.417000       1.00800           0
     22200 W2       7400     TIP3     H2       HT       0.417000       1.00800           0
     22201 W2       7401     TIP3     OH2      OT      -0.834000       15.9994           0
     22202 W2       7401     TIP3     H1       HT       0.417000       1.00800           0
     22203 W2       7401     TIP3     H2       HT       0.417000       1.00800           0
     22204 W2       7402     TIP3     OH2      OT      -0.834000       15.9994           0
     22205 W2       7402     TIP3     H1       HT       0.417000       1.00800           0
     22206 W2       7402     TIP3     H2       HT       0.417000       1.00800           0
     22207 W2       7403     TIP3     OH2      OT      -0.834000       15.9994           0
     22208 W2       7403     TIP3     H1       HT       0.417000       1.00800           0
     22209 W2       7403     TIP3     H2       HT       0.417000       1.00800           0
     22210 W2       7404     TIP3     OH2      OT      -0.834000       15.9994           0
     22211 W2       7404     TIP3     H1       HT       0.417000       1.00800           0
     22212 W2       7404     TIP3     H2       HT       0.417000       1.00800           0
     22213 W2       7405     TIP3     OH2      OT      -0.834000       15.9994           0
     22214 W2       7405     TIP3     H1       HT       0.417000       1.00800           0
     22215 W2       7405     TIP3     H2       HT       0.417000       1.00800           0
     22216 W2       7406     TIP3     OH2      OT      -0.834000       15.9994           0
     22217 W2       7406     TIP3     H1       HT       0.417000       1.00800           0
     22218 W2       7406     TIP3     H2       HT       0.417000       1.00800           0
     22219 W2       7407     TIP3     OH2      OT      -0.834000       15.9994           0
     22220 W2       7407     TIP3     H1       HT       0.417000       1.00800           0
     22221 W2       7407     TIP3     H2       HT       0.417000       1.00800           0
     22222 W2       7408     TIP3     OH2      OT      -0.834000       15.9994           0
     22223 W2       7408     TIP3     H1       HT       0.417000       1.00800           0
     22224 W2       7408     TIP3     H2       HT       0.417000       1.00800           0
     22225 W2       7409     TIP3     OH2      OT      -0.834000       15.9994           0
     22226 W2       7409     TIP3     H1       HT       0.417000       1.00800           0
     22227 W2       7409     TIP3     H2       HT       0.417000       1.00800           0
     22228 W2       7410     TIP3     OH2      OT      -0.834000       15.9994           0
     22229 W2       7410     TIP3     H1       HT       0.417000       1.00800           0
     22230 W2       7410     TIP3     H2       HT       0.417000       1.00800           0
     22231 W2       7411     TIP3     OH2      OT      -0.834000       15.9994           0
     22232 W2       7411     TIP3     H1       HT       0.417000       1.00800           0
     22233 W2       7411     TIP3     H2       HT       0.417000       1.00800           0
     22234 W2       7412     TIP3     OH2      OT      -0.834000       15.9994           0
     22235 W2       7412     TIP3     H1       HT       0.417000       1.00800           0
     22236 W2       7412     TIP3     H2       HT       0.417000       1.00800           0
     22237 W2       7413     TIP3     OH2      OT      -0.834000       15.9994           0
     22238 W2       7413     TIP3     H1       HT       0.417000       1.00800           0
     22239 W2       7413     TIP3     H2       HT       0.417000       1.00800           0
     22240 W2       7414     TIP3     OH2      OT      -0.834000       15.9994           0
     22241 W2       7414     TIP3     H1       HT       0.417000       1.00800           0
     22242 W2       7414     TIP3     H2       HT       0.417000       1.00800           0
     22243 W2       7415     TIP3     OH2      OT      -0.834000       15.9994           0
     22244 W2       7415     TIP3     H1       HT       0.417000       1.00800           0
     22245 W2       7415     TIP3     H2       HT       0.417000       1.00800           0
     22246 W2       7416     TIP3     OH2      OT      -0.834000       15.9994           0
     22247 W2       7416     TIP3     H1       HT       0.417000       1.00800           0
     22248 W2       7416     TIP3     H2       HT       0.417000       1.00800           0
     22249 W2       7417     TIP3     OH2      OT      -0.834000       15.9994           0
     22250 W2       7417     TIP3     H1       HT       0.417000       1.00800           0
     22251 W2       7417     TIP3     H2       HT       0.417000       1.00800           0
     22252 W2       7418     TIP3     OH2      OT      -0.834000       15.9994           0
     22253 W2       7418     TIP3     H1       HT       0.417000       1.00800           0
     22254 W2       7418     TIP3     H2       HT       0.417000       1.00800           0
     22255 W2       7419     TIP3     OH2      OT      -0.834000       15.9994           0
     22256 W2       7419     TIP3     H1       HT       0.417000       1.00800           0
     22257 W2       7419     TIP3     H2       HT       0.417000       1.00800           0
     22258 W2       7420     TIP3     OH2      OT      -0.834000       15.9994           0
     22259 W2       7420     TIP3     H1       HT       0.417000       1.00800           0
     22260 W2       7420     TIP3     H2       HT       0.417000       1.00800           0
     22261 W2       7421     TIP3     OH2      OT      -0.834000       15.9994           0
     22262 W2       7421     TIP3     H1       HT       0.417000       1.00800           0
     22263 W2       7421     TIP3     H2       HT       0.417000       1.00800           0
     22264 W2       7422     TIP3     OH2      OT      -0.834000       15.9994           0
     22265 W2       7422     TIP3     H1       HT       0.417000       1.00800           0
     22266 W2       7422     TIP3     H2       HT       0.417000       1.00800           0
     22267 W2       7423     TIP3     OH2      OT      -0.834000       15.9994           0
     22268 W2       7423     TIP3     H1       HT       0.417000       1.00800           0
     22269 W2       7423     TIP3     H2       HT       0.417000       1.00800           0
     22270 W2       7424     TIP3     OH2      OT      -0.834000       15.9994           0
     22271 W2       7424     TIP3     H1       HT       0.417000       1.00800           0
     22272 W2       7424     TIP3     H2       HT       0.417000       1.00800           0
     22273 W2       7425     TIP3     OH2      OT      -0.834000       15.9994           0
     22274 W2       7425     TIP3     H1       HT       0.417000       1.00800           0
     22275 W2       7425     TIP3     H2       HT       0.417000       1.00800           0
     22276 W2       7426     TIP3     OH2      OT      -0.834000       15.9994           0
     22277 W2       7426     TIP3     H1       HT       0.417000       1.00800           0
     22278 W2       7426     TIP3     H2       HT       0.417000       1.00800           0
     22279 W2       7427     TIP3     OH2      OT      -0.834000       15.9994           0
     22280 W2       7427     TIP3     H1       HT       0.417000       1.00800           0
     22281 W2       7427     TIP3     H2       HT       0.417000       1.00800           0
     22282 W2       7428     TIP3     OH2      OT      -0.834000       15.9994           0
     22283 W2       7428     TIP3     H1       HT       0.417000       1.00800           0
     22284 W2       7428     TIP3     H2       HT       0.417000       1.00800           0
     22285 W2       7429     TIP3     OH2      OT      -0.834000       15.9994           0
     22286 W2       7429     TIP3     H1       HT       0.417000       1.00800           0
     22287 W2       7429     TIP3     H2       HT       0.417000       1.00800           0
     22288 W2       7430     TIP3     OH2      OT      -0.834000       15.9994           0
     22289 W2       7430     TIP3     H1       HT       0.417000       1.00800           0
     22290 W2       7430     TIP3     H2       HT       0.417000       1.00800           0
     22291 W2       7431     TIP3     OH2      OT      -0.834000       15.9994           0
     22292 W2       7431     TIP3     H1       HT       0.417000       1.00800           0
     22293 W2       7431     TIP3     H2       HT       0.417000       1.00800           0
     22294 W2       7432     TIP3     OH2      OT      -0.834000       15.9994           0
     22295 W2       7432     TIP3     H1       HT       0.417000       1.00800           0
     22296 W2       7432     TIP3     H2       HT       0.417000       1.00800           0
     22297 W2       7433     TIP3     OH2      OT      -0.834000       15.9994           0
     22298 W2       7433     TIP3     H1       HT       0.417000       1.00800           0
     22299 W2       7433     TIP3     H2       HT       0.417000       1.00800           0
     22300 W2       7434     TIP3     OH2      OT      -0.834000       15.9994           0
     22301 W2       7434     TIP3     H1       HT       0.417000       1.00800           0
     22302 W2       7434     TIP3     H2       HT       0.417000       1.00800           0
     22303 W2       7435     TIP3     OH2      OT      -0.834000       15.9994           0
     22304 W2       7435     TIP3     H1       HT       0.417000       1.00800           0
     22305 W2       7435     TIP3     H2       HT       0.417000       1.00800           0
     22306 W2       7436     TIP3     OH2      OT      -0.834000       15.9994           0
     22307 W2       7436     TIP3     H1       HT       0.417000       1.00800           0
     22308 W2       7436     TIP3     H2       HT       0.417000       1.00800           0
     22309 W2       7437     TIP3     OH2      OT      -0.834000       15.9994           0
     22310 W2       7437     TIP3     H1       HT       0.417000       1.00800           0
     22311 W2       7437     TIP3     H2       HT       0.417000       1.00800           0
     22312 W2       7438     TIP3     OH2      OT      -0.834000       15.9994           0
     22313 W2       7438     TIP3     H1       HT       0.417000       1.00800           0
     22314 W2       7438     TIP3     H2       HT       0.417000       1.00800           0
     22315 W2       7439     TIP3     OH2      OT      -0.834000       15.9994           0
     22316 W2       7439     TIP3     H1       HT       0.417000       1.00800           0
     22317 W2       7439     TIP3     H2       HT       0.417000       1.00800           0
     22318 W2       7440     TIP3     OH2      OT      -0.834000       15.9994           0
     22319 W2       7440     TIP3     H1       HT       0.417000       1.00800           0
     22320 W2       7440     TIP3     H2       HT       0.417000       1.00800           0
     22321 W2       7441     TIP3     OH2      OT      -0.834000       15.9994           0
     22322 W2       7441     TIP3     H1       HT       0.417000       1.00800           0
     22323 W2       7441     TIP3     H2       HT       0.417000       1.00800           0
     22324 W2       7442     TIP3     OH2      OT      -0.834000       15.9994           0
     22325 W2       7442     TIP3     H1       HT       0.417000       1.00800           0
     22326 W2       7442     TIP3     H2       HT       0.417000       1.00800           0
     22327 W2       7443     TIP3     OH2      OT      -0.834000       15.9994           0
     22328 W2       7443     TIP3     H1       HT       0.417000       1.00800           0
     22329 W2       7443     TIP3     H2       HT       0.417000       1.00800           0
     22330 W2       7444     TIP3     OH2      OT      -0.834000       15.9994           0
     22331 W2       7444     TIP3     H1       HT       0.417000       1.00800           0
     22332 W2       7444     TIP3     H2       HT       0.417000       1.00800           0
     22333 W2       7445     TIP3     OH2      OT      -0.834000       15.9994           0
     22334 W2       7445     TIP3     H1       HT       0.417000       1.00800           0
     22335 W2       7445     TIP3     H2       HT       0.417000       1.00800           0
     22336 W2       7446     TIP3     OH2      OT      -0.834000       15.9994           0
     22337 W2       7446     TIP3     H1       HT       0.417000       1.00800           0
     22338 W2       7446     TIP3     H2       HT       0.417000       1.00800           0
     22339 W2       7447     TIP3     OH2      OT      -0.834000       15.9994           0
     22340 W2       7447     TIP3     H1       HT       0.417000       1.00800           0
     22341 W2       7447     TIP3     H2       HT       0.417000       1.00800           0
     22342 W2       7448     TIP3     OH2      OT      -0.834000       15.9994           0
     22343 W2       7448     TIP3     H1       HT       0.417000       1.00800           0
     22344 W2       7448     TIP3     H2       HT       0.417000       1.00800           0
     22345 W2       7449     TIP3     OH2      OT      -0.834000       15.9994           0
     22346 W2       7449     TIP3     H1       HT       0.417000       1.00800           0
     22347 W2       7449     TIP3     H2       HT       0.417000       1.00800           0
     22348 W2       7450     TIP3     OH2      OT      -0.834000       15.9994           0
     22349 W2       7450     TIP3     H1       HT       0.417000       1.00800           0
     22350 W2       7450     TIP3     H2       HT       0.417000       1.00800           0
     22351 W2       7451     TIP3     OH2      OT      -0.834000       15.9994           0
     22352 W2       7451     TIP3     H1       HT       0.417000       1.00800           0
     22353 W2       7451     TIP3     H2       HT       0.417000       1.00800           0
     22354 W2       7452     TIP3     OH2      OT      -0.834000       15.9994           0
     22355 W2       7452     TIP3     H1       HT       0.417000       1.00800           0
     22356 W2       7452     TIP3     H2       HT       0.417000       1.00800           0
     22357 W2       7453     TIP3     OH2      OT      -0.834000       15.9994           0
     22358 W2       7453     TIP3     H1       HT       0.417000       1.00800           0
     22359 W2       7453     TIP3     H2       HT       0.417000       1.00800           0
     22360 W2       7454     TIP3     OH2      OT      -0.834000       15.9994           0
     22361 W2       7454     TIP3     H1       HT       0.417000       1.00800           0
     22362 W2       7454     TIP3     H2       HT       0.417000       1.00800           0
     22363 W2       7455     TIP3     OH2      OT      -0.834000       15.9994           0
     22364 W2       7455     TIP3     H1       HT       0.417000       1.00800           0
     22365 W2       7455     TIP3     H2       HT       0.417000       1.00800           0
     22366 W2       7456     TIP3     OH2      OT      -0.834000       15.9994           0
     22367 W2       7456     TIP3     H1       HT       0.417000       1.00800           0
     22368 W2       7456     TIP3     H2       HT       0.417000       1.00800           0
     22369 W2       7457     TIP3     OH2      OT      -0.834000       15.9994           0
     22370 W2       7457     TIP3     H1       HT       0.417000       1.00800           0
     22371 W2       7457     TIP3     H2       HT       0.417000       1.00800           0
     22372 W2       7458     TIP3     OH2      OT      -0.834000       15.9994           0
     22373 W2       7458     TIP3     H1       HT       0.417000       1.00800           0
     22374 W2       7458     TIP3     H2       HT       0.417000       1.00800           0
     22375 W2       7459     TIP3     OH2      OT      -0.834000       15.9994           0
     22376 W2       7459     TIP3     H1       HT       0.417000       1.00800           0
     22377 W2       7459     TIP3     H2       HT       0.417000       1.00800           0
     22378 W2       7460     TIP3     OH2      OT      -0.834000       15.9994           0
     22379 W2       7460     TIP3     H1       HT       0.417000       1.00800           0
     22380 W2       7460     TIP3     H2       HT       0.417000       1.00800           0
     22381 W2       7461     TIP3     OH2      OT      -0.834000       15.9994           0
     22382 W2       7461     TIP3     H1       HT       0.417000       1.00800           0
     22383 W2       7461     TIP3     H2       HT       0.417000       1.00800           0
     22384 W2       7462     TIP3     OH2      OT      -0.834000       15.9994           0
     22385 W2       7462     TIP3     H1       HT       0.417000       1.00800           0
     22386 W2       7462     TIP3     H2       HT       0.417000       1.00800           0
     22387 W2       7463     TIP3     OH2      OT      -0.834000       15.9994           0
     22388 W2       7463     TIP3     H1       HT       0.417000       1.00800           0
     22389 W2       7463     TIP3     H2       HT       0.417000       1.00800           0
     22390 W2       7464     TIP3     OH2      OT      -0.834000       15.9994           0
     22391 W2       7464     TIP3     H1       HT       0.417000       1.00800           0
     22392 W2       7464     TIP3     H2       HT       0.417000       1.00800           0
     22393 W2       7465     TIP3     OH2      OT      -0.834000       15.9994           0
     22394 W2       7465     TIP3     H1       HT       0.417000       1.00800           0
     22395 W2       7465     TIP3     H2       HT       0.417000       1.00800           0
     22396 W2       7466     TIP3     OH2      OT      -0.834000       15.9994           0
     22397 W2       7466     TIP3     H1       HT       0.417000       1.00800           0
     22398 W2       7466     TIP3     H2       HT       0.417000       1.00800           0
     22399 W2       7467     TIP3     OH2      OT      -0.834000       15.9994           0
     22400 W2       7467     TIP3     H1       HT       0.417000       1.00800           0
     22401 W2       7467     TIP3     H2       HT       0.417000       1.00800           0
     22402 W2       7468     TIP3     OH2      OT      -0.834000       15.9994           0
     22403 W2       7468     TIP3     H1       HT       0.417000       1.00800           0
     22404 W2       7468     TIP3     H2       HT       0.417000       1.00800           0
     22405 W2       7469     TIP3     OH2      OT      -0.834000       15.9994           0
     22406 W2       7469     TIP3     H1       HT       0.417000       1.00800           0
     22407 W2       7469     TIP3     H2       HT       0.417000       1.00800           0
     22408 W2       7470     TIP3     OH2      OT      -0.834000       15.9994           0
     22409 W2       7470     TIP3     H1       HT       0.417000       1.00800           0
     22410 W2       7470     TIP3     H2       HT       0.417000       1.00800           0
     22411 W2       7471     TIP3     OH2      OT      -0.834000       15.9994           0
     22412 W2       7471     TIP3     H1       HT       0.417000       1.00800           0
     22413 W2       7471     TIP3     H2       HT       0.417000       1.00800           0
     22414 W2       7472     TIP3     OH2      OT      -0.834000       15.9994           0
     22415 W2       7472     TIP3     H1       HT       0.417000       1.00800           0
     22416 W2       7472     TIP3     H2       HT       0.417000       1.00800           0
     22417 W2       7473     TIP3     OH2      OT      -0.834000       15.9994           0
     22418 W2       7473     TIP3     H1       HT       0.417000       1.00800           0
     22419 W2       7473     TIP3     H2       HT       0.417000       1.00800           0
     22420 W2       7474     TIP3     OH2      OT      -0.834000       15.9994           0
     22421 W2       7474     TIP3     H1       HT       0.417000       1.00800           0
     22422 W2       7474     TIP3     H2       HT       0.417000       1.00800           0
     22423 W2       7475     TIP3     OH2      OT      -0.834000       15.9994           0
     22424 W2       7475     TIP3     H1       HT       0.417000       1.00800           0
     22425 W2       7475     TIP3     H2       HT       0.417000       1.00800           0
     22426 W2       7476     TIP3     OH2      OT      -0.834000       15.9994           0
     22427 W2       7476     TIP3     H1       HT       0.417000       1.00800           0
     22428 W2       7476     TIP3     H2       HT       0.417000       1.00800           0
     22429 W2       7477     TIP3     OH2      OT      -0.834000       15.9994           0
     22430 W2       7477     TIP3     H1       HT       0.417000       1.00800           0
     22431 W2       7477     TIP3     H2       HT       0.417000       1.00800           0
     22432 W2       7478     TIP3     OH2      OT      -0.834000       15.9994           0
     22433 W2       7478     TIP3     H1       HT       0.417000       1.00800           0
     22434 W2       7478     TIP3     H2       HT       0.417000       1.00800           0
     22435 W2       7479     TIP3     OH2      OT      -0.834000       15.9994           0
     22436 W2       7479     TIP3     H1       HT       0.417000       1.00800           0
     22437 W2       7479     TIP3     H2       HT       0.417000       1.00800           0
     22438 W2       7480     TIP3     OH2      OT      -0.834000       15.9994           0
     22439 W2       7480     TIP3     H1       HT       0.417000       1.00800           0
     22440 W2       7480     TIP3     H2       HT       0.417000       1.00800           0
     22441 W2       7481     TIP3     OH2      OT      -0.834000       15.9994           0
     22442 W2       7481     TIP3     H1       HT       0.417000       1.00800           0
     22443 W2       7481     TIP3     H2       HT       0.417000       1.00800           0
     22444 W2       7482     TIP3     OH2      OT      -0.834000       15.9994           0
     22445 W2       7482     TIP3     H1       HT       0.417000       1.00800           0
     22446 W2       7482     TIP3     H2       HT       0.417000       1.00800           0
     22447 W2       7483     TIP3     OH2      OT      -0.834000       15.9994           0
     22448 W2       7483     TIP3     H1       HT       0.417000       1.00800           0
     22449 W2       7483     TIP3     H2       HT       0.417000       1.00800           0
     22450 W2       7484     TIP3     OH2      OT      -0.834000       15.9994           0
     22451 W2       7484     TIP3     H1       HT       0.417000       1.00800           0
     22452 W2       7484     TIP3     H2       HT       0.417000       1.00800           0
     22453 W2       7485     TIP3     OH2      OT      -0.834000       15.9994           0
     22454 W2       7485     TIP3     H1       HT       0.417000       1.00800           0
     22455 W2       7485     TIP3     H2       HT       0.417000       1.00800           0
     22456 W2       7486     TIP3     OH2      OT      -0.834000       15.9994           0
     22457 W2       7486     TIP3     H1       HT       0.417000       1.00800           0
     22458 W2       7486     TIP3     H2       HT       0.417000       1.00800           0
     22459 W2       7487     TIP3     OH2      OT      -0.834000       15.9994           0
     22460 W2       7487     TIP3     H1       HT       0.417000       1.00800           0
     22461 W2       7487     TIP3     H2       HT       0.417000       1.00800           0
     22462 W2       7488     TIP3     OH2      OT      -0.834000       15.9994           0
     22463 W2       7488     TIP3     H1       HT       0.417000       1.00800           0
     22464 W2       7488     TIP3     H2       HT       0.417000       1.00800           0
     22465 W2       7489     TIP3     OH2      OT      -0.834000       15.9994           0
     22466 W2       7489     TIP3     H1       HT       0.417000       1.00800           0
     22467 W2       7489     TIP3     H2       HT       0.417000       1.00800           0
     22468 W2       7490     TIP3     OH2      OT      -0.834000       15.9994           0
     22469 W2       7490     TIP3     H1       HT       0.417000       1.00800           0
     22470 W2       7490     TIP3     H2       HT       0.417000       1.00800           0
     22471 W2       7491     TIP3     OH2      OT      -0.834000       15.9994           0
     22472 W2       7491     TIP3     H1       HT       0.417000       1.00800           0
     22473 W2       7491     TIP3     H2       HT       0.417000       1.00800           0
     22474 W2       7492     TIP3     OH2      OT      -0.834000       15.9994           0
     22475 W2       7492     TIP3     H1       HT       0.417000       1.00800           0
     22476 W2       7492     TIP3     H2       HT       0.417000       1.00800           0
     22477 W2       7493     TIP3     OH2      OT      -0.834000       15.9994           0
     22478 W2       7493     TIP3     H1       HT       0.417000       1.00800           0
     22479 W2       7493     TIP3     H2       HT       0.417000       1.00800           0
     22480 W2       7494     TIP3     OH2      OT      -0.834000       15.9994           0
     22481 W2       7494     TIP3     H1       HT       0.417000       1.00800           0
     22482 W2       7494     TIP3     H2       HT       0.417000       1.00800           0
     22483 W2       7495     TIP3     OH2      OT      -0.834000       15.9994           0
     22484 W2       7495     TIP3     H1       HT       0.417000       1.00800           0
     22485 W2       7495     TIP3     H2       HT       0.417000       1.00800           0
     22486 W2       7496     TIP3     OH2      OT      -0.834000       15.9994           0
     22487 W2       7496     TIP3     H1       HT       0.417000       1.00800           0
     22488 W2       7496     TIP3     H2       HT       0.417000       1.00800           0
     22489 W2       7497     TIP3     OH2      OT      -0.834000       15.9994           0
     22490 W2       7497     TIP3     H1       HT       0.417000       1.00800           0
     22491 W2       7497     TIP3     H2       HT       0.417000       1.00800           0
     22492 W2       7498     TIP3     OH2      OT      -0.834000       15.9994           0
     22493 W2       7498     TIP3     H1       HT       0.417000       1.00800           0
     22494 W2       7498     TIP3     H2       HT       0.417000       1.00800           0
     22495 W2       7499     TIP3     OH2      OT      -0.834000       15.9994           0
     22496 W2       7499     TIP3     H1       HT       0.417000       1.00800           0
     22497 W2       7499     TIP3     H2       HT       0.417000       1.00800           0
     22498 W2       7500     TIP3     OH2      OT      -0.834000       15.9994           0
     22499 W2       7500     TIP3     H1       HT       0.417000       1.00800           0
     22500 W2       7500     TIP3     H2       HT       0.417000       1.00800           0
     22501 W2       7501     TIP3     OH2      OT      -0.834000       15.9994           0
     22502 W2       7501     TIP3     H1       HT       0.417000       1.00800           0
     22503 W2       7501     TIP3     H2       HT       0.417000       1.00800           0
     22504 W2       7502     TIP3     OH2      OT      -0.834000       15.9994           0
     22505 W2       7502     TIP3     H1       HT       0.417000       1.00800           0
     22506 W2       7502     TIP3     H2       HT       0.417000       1.00800           0
     22507 W2       7503     TIP3     OH2      OT      -0.834000       15.9994           0
     22508 W2       7503     TIP3     H1       HT       0.417000       1.00800           0
     22509 W2       7503     TIP3     H2       HT       0.417000       1.00800           0
     22510 W2       7504     TIP3     OH2      OT      -0.834000       15.9994           0
     22511 W2       7504     TIP3     H1       HT       0.417000       1.00800           0
     22512 W2       7504     TIP3     H2       HT       0.417000       1.00800           0
     22513 W2       7505     TIP3     OH2      OT      -0.834000       15.9994           0
     22514 W2       7505     TIP3     H1       HT       0.417000       1.00800           0
     22515 W2       7505     TIP3     H2       HT       0.417000       1.00800           0
     22516 W2       7506     TIP3     OH2      OT      -0.834000       15.9994           0
     22517 W2       7506     TIP3     H1       HT       0.417000       1.00800           0
     22518 W2       7506     TIP3     H2       HT       0.417000       1.00800           0
     22519 W2       7507     TIP3     OH2      OT      -0.834000       15.9994           0
     22520 W2       7507     TIP3     H1       HT       0.417000       1.00800           0
     22521 W2       7507     TIP3     H2       HT       0.417000       1.00800           0
     22522 W2       7508     TIP3     OH2      OT      -0.834000       15.9994           0
     22523 W2       7508     TIP3     H1       HT       0.417000       1.00800           0
     22524 W2       7508     TIP3     H2       HT       0.417000       1.00800           0
     22525 W2       7509     TIP3     OH2      OT      -0.834000       15.9994           0
     22526 W2       7509     TIP3     H1       HT       0.417000       1.00800           0
     22527 W2       7509     TIP3     H2       HT       0.417000       1.00800           0
     22528 W2       7510     TIP3     OH2      OT      -0.834000       15.9994           0
     22529 W2       7510     TIP3     H1       HT       0.417000       1.00800           0
     22530 W2       7510     TIP3     H2       HT       0.417000       1.00800           0
     22531 W2       7511     TIP3     OH2      OT      -0.834000       15.9994           0
     22532 W2       7511     TIP3     H1       HT       0.417000       1.00800           0
     22533 W2       7511     TIP3     H2       HT       0.417000       1.00800           0
     22534 W2       7512     TIP3     OH2      OT      -0.834000       15.9994           0
     22535 W2       7512     TIP3     H1       HT       0.417000       1.00800           0
     22536 W2       7512     TIP3     H2       HT       0.417000       1.00800           0
     22537 W2       7513     TIP3     OH2      OT      -0.834000       15.9994           0
     22538 W2       7513     TIP3     H1       HT       0.417000       1.00800           0
     22539 W2       7513     TIP3     H2       HT       0.417000       1.00800           0
     22540 W2       7514     TIP3     OH2      OT      -0.834000       15.9994           0
     22541 W2       7514     TIP3     H1       HT       0.417000       1.00800           0
     22542 W2       7514     TIP3     H2       HT       0.417000       1.00800           0
     22543 W2       7515     TIP3     OH2      OT      -0.834000       15.9994           0
     22544 W2       7515     TIP3     H1       HT       0.417000       1.00800           0
     22545 W2       7515     TIP3     H2       HT       0.417000       1.00800           0
     22546 W2       7516     TIP3     OH2      OT      -0.834000       15.9994           0
     22547 W2       7516     TIP3     H1       HT       0.417000       1.00800           0
     22548 W2       7516     TIP3     H2       HT       0.417000       1.00800           0
     22549 W2       7517     TIP3     OH2      OT      -0.834000       15.9994           0
     22550 W2       7517     TIP3     H1       HT       0.417000       1.00800           0
     22551 W2       7517     TIP3     H2       HT       0.417000       1.00800           0
     22552 W2       7518     TIP3     OH2      OT      -0.834000       15.9994           0
     22553 W2       7518     TIP3     H1       HT       0.417000       1.00800           0
     22554 W2       7518     TIP3     H2       HT       0.417000       1.00800           0
     22555 W2       7519     TIP3     OH2      OT      -0.834000       15.9994           0
     22556 W2       7519     TIP3     H1       HT       0.417000       1.00800           0
     22557 W2       7519     TIP3     H2       HT       0.417000       1.00800           0
     22558 W2       7520     TIP3     OH2      OT      -0.834000       15.9994           0
     22559 W2       7520     TIP3     H1       HT       0.417000       1.00800           0
     22560 W2       7520     TIP3     H2       HT       0.417000       1.00800           0
     22561 W2       7521     TIP3     OH2      OT      -0.834000       15.9994           0
     22562 W2       7521     TIP3     H1       HT       0.417000       1.00800           0
     22563 W2       7521     TIP3     H2       HT       0.417000       1.00800           0
     22564 W2       7522     TIP3     OH2      OT      -0.834000       15.9994           0
     22565 W2       7522     TIP3     H1       HT       0.417000       1.00800           0
     22566 W2       7522     TIP3     H2       HT       0.417000       1.00800           0
     22567 W2       7523     TIP3     OH2      OT      -0.834000       15.9994           0
     22568 W2       7523     TIP3     H1       HT       0.417000       1.00800           0
     22569 W2       7523     TIP3     H2       HT       0.417000       1.00800           0
     22570 W2       7524     TIP3     OH2      OT      -0.834000       15.9994           0
     22571 W2       7524     TIP3     H1       HT       0.417000       1.00800           0
     22572 W2       7524     TIP3     H2       HT       0.417000       1.00800           0
     22573 W2       7525     TIP3     OH2      OT      -0.834000       15.9994           0
     22574 W2       7525     TIP3     H1       HT       0.417000       1.00800           0
     22575 W2       7525     TIP3     H2       HT       0.417000       1.00800           0
     22576 W2       7526     TIP3     OH2      OT      -0.834000       15.9994           0
     22577 W2       7526     TIP3     H1       HT       0.417000       1.00800           0
     22578 W2       7526     TIP3     H2       HT       0.417000       1.00800           0
     22579 W2       7527     TIP3     OH2      OT      -0.834000       15.9994           0
     22580 W2       7527     TIP3     H1       HT       0.417000       1.00800           0
     22581 W2       7527     TIP3     H2       HT       0.417000       1.00800           0
     22582 W2       7528     TIP3     OH2      OT      -0.834000       15.9994           0
     22583 W2       7528     TIP3     H1       HT       0.417000       1.00800           0
     22584 W2       7528     TIP3     H2       HT       0.417000       1.00800           0
     22585 W2       7529     TIP3     OH2      OT      -0.834000       15.9994           0
     22586 W2       7529     TIP3     H1       HT       0.417000       1.00800           0
     22587 W2       7529     TIP3     H2       HT       0.417000       1.00800           0
     22588 W2       7530     TIP3     OH2      OT      -0.834000       15.9994           0
     22589 W2       7530     TIP3     H1       HT       0.417000       1.00800           0
     22590 W2       7530     TIP3     H2       HT       0.417000       1.00800           0
     22591 W2       7531     TIP3     OH2      OT      -0.834000       15.9994           0
     22592 W2       7531     TIP3     H1       HT       0.417000       1.00800           0
     22593 W2       7531     TIP3     H2       HT       0.417000       1.00800           0
     22594 W2       7532     TIP3     OH2      OT      -0.834000       15.9994           0
     22595 W2       7532     TIP3     H1       HT       0.417000       1.00800           0
     22596 W2       7532     TIP3     H2       HT       0.417000       1.00800           0
     22597 W2       7533     TIP3     OH2      OT      -0.834000       15.9994           0
     22598 W2       7533     TIP3     H1       HT       0.417000       1.00800           0
     22599 W2       7533     TIP3     H2       HT       0.417000       1.00800           0
     22600 W2       7534     TIP3     OH2      OT      -0.834000       15.9994           0
     22601 W2       7534     TIP3     H1       HT       0.417000       1.00800           0
     22602 W2       7534     TIP3     H2       HT       0.417000       1.00800           0
     22603 W2       7535     TIP3     OH2      OT      -0.834000       15.9994           0
     22604 W2       7535     TIP3     H1       HT       0.417000       1.00800           0
     22605 W2       7535     TIP3     H2       HT       0.417000       1.00800           0
     22606 W2       7536     TIP3     OH2      OT      -0.834000       15.9994           0
     22607 W2       7536     TIP3     H1       HT       0.417000       1.00800           0
     22608 W2       7536     TIP3     H2       HT       0.417000       1.00800           0
     22609 W2       7537     TIP3     OH2      OT      -0.834000       15.9994           0
     22610 W2       7537     TIP3     H1       HT       0.417000       1.00800           0
     22611 W2       7537     TIP3     H2       HT       0.417000       1.00800           0
     22612 W2       7538     TIP3     OH2      OT      -0.834000       15.9994           0
     22613 W2       7538     TIP3     H1       HT       0.417000       1.00800           0
     22614 W2       7538     TIP3     H2       HT       0.417000       1.00800           0
     22615 W2       7539     TIP3     OH2      OT      -0.834000       15.9994           0
     22616 W2       7539     TIP3     H1       HT       0.417000       1.00800           0
     22617 W2       7539     TIP3     H2       HT       0.417000       1.00800           0
     22618 W2       7540     TIP3     OH2      OT      -0.834000       15.9994           0
     22619 W2       7540     TIP3     H1       HT       0.417000       1.00800           0
     22620 W2       7540     TIP3     H2       HT       0.417000       1.00800           0
     22621 W2       7541     TIP3     OH2      OT      -0.834000       15.9994           0
     22622 W2       7541     TIP3     H1       HT       0.417000       1.00800           0
     22623 W2       7541     TIP3     H2       HT       0.417000       1.00800           0
     22624 W2       7542     TIP3     OH2      OT      -0.834000       15.9994           0
     22625 W2       7542     TIP3     H1       HT       0.417000       1.00800           0
     22626 W2       7542     TIP3     H2       HT       0.417000       1.00800           0
     22627 W2       7543     TIP3     OH2      OT      -0.834000       15.9994           0
     22628 W2       7543     TIP3     H1       HT       0.417000       1.00800           0
     22629 W2       7543     TIP3     H2       HT       0.417000       1.00800           0
     22630 W2       7544     TIP3     OH2      OT      -0.834000       15.9994           0
     22631 W2       7544     TIP3     H1       HT       0.417000       1.00800           0
     22632 W2       7544     TIP3     H2       HT       0.417000       1.00800           0
     22633 W2       7545     TIP3     OH2      OT      -0.834000       15.9994           0
     22634 W2       7545     TIP3     H1       HT       0.417000       1.00800           0
     22635 W2       7545     TIP3     H2       HT       0.417000       1.00800           0
     22636 W2       7546     TIP3     OH2      OT      -0.834000       15.9994           0
     22637 W2       7546     TIP3     H1       HT       0.417000       1.00800           0
     22638 W2       7546     TIP3     H2       HT       0.417000       1.00800           0
     22639 W2       7547     TIP3     OH2      OT      -0.834000       15.9994           0
     22640 W2       7547     TIP3     H1       HT       0.417000       1.00800           0
     22641 W2       7547     TIP3     H2       HT       0.417000       1.00800           0
     22642 W2       7548     TIP3     OH2      OT      -0.834000       15.9994           0
     22643 W2       7548     TIP3     H1       HT       0.417000       1.00800           0
     22644 W2       7548     TIP3     H2       HT       0.417000       1.00800           0
     22645 W2       7549     TIP3     OH2      OT      -0.834000       15.9994           0
     22646 W2       7549     TIP3     H1       HT       0.417000       1.00800           0
     22647 W2       7549     TIP3     H2       HT       0.417000       1.00800           0
     22648 W2       7550     TIP3     OH2      OT      -0.834000       15.9994           0
     22649 W2       7550     TIP3     H1       HT       0.417000       1.00800           0
     22650 W2       7550     TIP3     H2       HT       0.417000       1.00800           0
     22651 W2       7551     TIP3     OH2      OT      -0.834000       15.9994           0
     22652 W2       7551     TIP3     H1       HT       0.417000       1.00800           0
     22653 W2       7551     TIP3     H2       HT       0.417000       1.00800           0
     22654 W2       7552     TIP3     OH2      OT      -0.834000       15.9994           0
     22655 W2       7552     TIP3     H1       HT       0.417000       1.00800           0
     22656 W2       7552     TIP3     H2       HT       0.417000       1.00800           0
     22657 W2       7553     TIP3     OH2      OT      -0.834000       15.9994           0
     22658 W2       7553     TIP3     H1       HT       0.417000       1.00800           0
     22659 W2       7553     TIP3     H2       HT       0.417000       1.00800           0
     22660 W2       7554     TIP3     OH2      OT      -0.834000       15.9994           0
     22661 W2       7554     TIP3     H1       HT       0.417000       1.00800           0
     22662 W2       7554     TIP3     H2       HT       0.417000       1.00800           0
     22663 W2       7555     TIP3     OH2      OT      -0.834000       15.9994           0
     22664 W2       7555     TIP3     H1       HT       0.417000       1.00800           0
     22665 W2       7555     TIP3     H2       HT       0.417000       1.00800           0
     22666 W2       7556     TIP3     OH2      OT      -0.834000       15.9994           0
     22667 W2       7556     TIP3     H1       HT       0.417000       1.00800           0
     22668 W2       7556     TIP3     H2       HT       0.417000       1.00800           0
     22669 W2       7557     TIP3     OH2      OT      -0.834000       15.9994           0
     22670 W2       7557     TIP3     H1       HT       0.417000       1.00800           0
     22671 W2       7557     TIP3     H2       HT       0.417000       1.00800           0
     22672 W2       7558     TIP3     OH2      OT      -0.834000       15.9994           0
     22673 W2       7558     TIP3     H1       HT       0.417000       1.00800           0
     22674 W2       7558     TIP3     H2       HT       0.417000       1.00800           0
     22675 W2       7559     TIP3     OH2      OT      -0.834000       15.9994           0
     22676 W2       7559     TIP3     H1       HT       0.417000       1.00800           0
     22677 W2       7559     TIP3     H2       HT       0.417000       1.00800           0
     22678 W2       7560     TIP3     OH2      OT      -0.834000       15.9994           0
     22679 W2       7560     TIP3     H1       HT       0.417000       1.00800           0
     22680 W2       7560     TIP3     H2       HT       0.417000       1.00800           0
     22681 W2       7561     TIP3     OH2      OT      -0.834000       15.9994           0
     22682 W2       7561     TIP3     H1       HT       0.417000       1.00800           0
     22683 W2       7561     TIP3     H2       HT       0.417000       1.00800           0
     22684 W2       7562     TIP3     OH2      OT      -0.834000       15.9994           0
     22685 W2       7562     TIP3     H1       HT       0.417000       1.00800           0
     22686 W2       7562     TIP3     H2       HT       0.417000       1.00800           0
     22687 W2       7563     TIP3     OH2      OT      -0.834000       15.9994           0
     22688 W2       7563     TIP3     H1       HT       0.417000       1.00800           0
     22689 W2       7563     TIP3     H2       HT       0.417000       1.00800           0
     22690 W2       7564     TIP3     OH2      OT      -0.834000       15.9994           0
     22691 W2       7564     TIP3     H1       HT       0.417000       1.00800           0
     22692 W2       7564     TIP3     H2       HT       0.417000       1.00800           0
     22693 W2       7565     TIP3     OH2      OT      -0.834000       15.9994           0
     22694 W2       7565     TIP3     H1       HT       0.417000       1.00800           0
     22695 W2       7565     TIP3     H2       HT       0.417000       1.00800           0
     22696 W2       7566     TIP3     OH2      OT      -0.834000       15.9994           0
     22697 W2       7566     TIP3     H1       HT       0.417000       1.00800           0
     22698 W2       7566     TIP3     H2       HT       0.417000       1.00800           0
     22699 W2       7567     TIP3     OH2      OT      -0.834000       15.9994           0
     22700 W2       7567     TIP3     H1       HT       0.417000       1.00800           0
     22701 W2       7567     TIP3     H2       HT       0.417000       1.00800           0
     22702 W2       7568     TIP3     OH2      OT      -0.834000       15.9994           0
     22703 W2       7568     TIP3     H1       HT       0.417000       1.00800           0
     22704 W2       7568     TIP3     H2       HT       0.417000       1.00800           0
     22705 W2       7569     TIP3     OH2      OT      -0.834000       15.9994           0
     22706 W2       7569     TIP3     H1       HT       0.417000       1.00800           0
     22707 W2       7569     TIP3     H2       HT       0.417000       1.00800           0
     22708 W2       7570     TIP3     OH2      OT      -0.834000       15.9994           0
     22709 W2       7570     TIP3     H1       HT       0.417000       1.00800           0
     22710 W2       7570     TIP3     H2       HT       0.417000       1.00800           0
     22711 W2       7571     TIP3     OH2      OT      -0.834000       15.9994           0
     22712 W2       7571     TIP3     H1       HT       0.417000       1.00800           0
     22713 W2       7571     TIP3     H2       HT       0.417000       1.00800           0
     22714 W2       7572     TIP3     OH2      OT      -0.834000       15.9994           0
     22715 W2       7572     TIP3     H1       HT       0.417000       1.00800           0
     22716 W2       7572     TIP3     H2       HT       0.417000       1.00800           0
     22717 W2       7573     TIP3     OH2      OT      -0.834000       15.9994           0
     22718 W2       7573     TIP3     H1       HT       0.417000       1.00800           0
     22719 W2       7573     TIP3     H2       HT       0.417000       1.00800           0
     22720 W2       7574     TIP3     OH2      OT      -0.834000       15.9994           0
     22721 W2       7574     TIP3     H1       HT       0.417000       1.00800           0
     22722 W2       7574     TIP3     H2       HT       0.417000       1.00800           0
     22723 W2       7575     TIP3     OH2      OT      -0.834000       15.9994           0
     22724 W2       7575     TIP3     H1       HT       0.417000       1.00800           0
     22725 W2       7575     TIP3     H2       HT       0.417000       1.00800           0
     22726 W2       7576     TIP3     OH2      OT      -0.834000       15.9994           0
     22727 W2       7576     TIP3     H1       HT       0.417000       1.00800           0
     22728 W2       7576     TIP3     H2       HT       0.417000       1.00800           0
     22729 W2       7577     TIP3     OH2      OT      -0.834000       15.9994           0
     22730 W2       7577     TIP3     H1       HT       0.417000       1.00800           0
     22731 W2       7577     TIP3     H2       HT       0.417000       1.00800           0
     22732 W2       7578     TIP3     OH2      OT      -0.834000       15.9994           0
     22733 W2       7578     TIP3     H1       HT       0.417000       1.00800           0
     22734 W2       7578     TIP3     H2       HT       0.417000       1.00800           0
     22735 W2       7579     TIP3     OH2      OT      -0.834000       15.9994           0
     22736 W2       7579     TIP3     H1       HT       0.417000       1.00800           0
     22737 W2       7579     TIP3     H2       HT       0.417000       1.00800           0
     22738 W2       7580     TIP3     OH2      OT      -0.834000       15.9994           0
     22739 W2       7580     TIP3     H1       HT       0.417000       1.00800           0
     22740 W2       7580     TIP3     H2       HT       0.417000       1.00800           0
     22741 W2       7581     TIP3     OH2      OT      -0.834000       15.9994           0
     22742 W2       7581     TIP3     H1       HT       0.417000       1.00800           0
     22743 W2       7581     TIP3     H2       HT       0.417000       1.00800           0
     22744 W2       7582     TIP3     OH2      OT      -0.834000       15.9994           0
     22745 W2       7582     TIP3     H1       HT       0.417000       1.00800           0
     22746 W2       7582     TIP3     H2       HT       0.417000       1.00800           0
     22747 W2       7583     TIP3     OH2      OT      -0.834000       15.9994           0
     22748 W2       7583     TIP3     H1       HT       0.417000       1.00800           0
     22749 W2       7583     TIP3     H2       HT       0.417000       1.00800           0
     22750 W2       7584     TIP3     OH2      OT      -0.834000       15.9994           0
     22751 W2       7584     TIP3     H1       HT       0.417000       1.00800           0
     22752 W2       7584     TIP3     H2       HT       0.417000       1.00800           0
     22753 W2       7585     TIP3     OH2      OT      -0.834000       15.9994           0
     22754 W2       7585     TIP3     H1       HT       0.417000       1.00800           0
     22755 W2       7585     TIP3     H2       HT       0.417000       1.00800           0
     22756 W2       7586     TIP3     OH2      OT      -0.834000       15.9994           0
     22757 W2       7586     TIP3     H1       HT       0.417000       1.00800           0
     22758 W2       7586     TIP3     H2       HT       0.417000       1.00800           0
     22759 W2       7587     TIP3     OH2      OT      -0.834000       15.9994           0
     22760 W2       7587     TIP3     H1       HT       0.417000       1.00800           0
     22761 W2       7587     TIP3     H2       HT       0.417000       1.00800           0
     22762 W2       7588     TIP3     OH2      OT      -0.834000       15.9994           0
     22763 W2       7588     TIP3     H1       HT       0.417000       1.00800           0
     22764 W2       7588     TIP3     H2       HT       0.417000       1.00800           0
     22765 W2       7589     TIP3     OH2      OT      -0.834000       15.9994           0
     22766 W2       7589     TIP3     H1       HT       0.417000       1.00800           0
     22767 W2       7589     TIP3     H2       HT       0.417000       1.00800           0
     22768 W2       7590     TIP3     OH2      OT      -0.834000       15.9994           0
     22769 W2       7590     TIP3     H1       HT       0.417000       1.00800           0
     22770 W2       7590     TIP3     H2       HT       0.417000       1.00800           0
     22771 W2       7591     TIP3     OH2      OT      -0.834000       15.9994           0
     22772 W2       7591     TIP3     H1       HT       0.417000       1.00800           0
     22773 W2       7591     TIP3     H2       HT       0.417000       1.00800           0
     22774 W2       7592     TIP3     OH2      OT      -0.834000       15.9994           0
     22775 W2       7592     TIP3     H1       HT       0.417000       1.00800           0
     22776 W2       7592     TIP3     H2       HT       0.417000       1.00800           0
     22777 W2       7593     TIP3     OH2      OT      -0.834000       15.9994           0
     22778 W2       7593     TIP3     H1       HT       0.417000       1.00800           0
     22779 W2       7593     TIP3     H2       HT       0.417000       1.00800           0
     22780 W2       7594     TIP3     OH2      OT      -0.834000       15.9994           0
     22781 W2       7594     TIP3     H1       HT       0.417000       1.00800           0
     22782 W2       7594     TIP3     H2       HT       0.417000       1.00800           0
     22783 W2       7595     TIP3     OH2      OT      -0.834000       15.9994           0
     22784 W2       7595     TIP3     H1       HT       0.417000       1.00800           0
     22785 W2       7595     TIP3     H2       HT       0.417000       1.00800           0
     22786 W2       7596     TIP3     OH2      OT      -0.834000       15.9994           0
     22787 W2       7596     TIP3     H1       HT       0.417000       1.00800           0
     22788 W2       7596     TIP3     H2       HT       0.417000       1.00800           0
     22789 W2       7597     TIP3     OH2      OT      -0.834000       15.9994           0
     22790 W2       7597     TIP3     H1       HT       0.417000       1.00800           0
     22791 W2       7597     TIP3     H2       HT       0.417000       1.00800           0
     22792 W2       7598     TIP3     OH2      OT      -0.834000       15.9994           0
     22793 W2       7598     TIP3     H1       HT       0.417000       1.00800           0
     22794 W2       7598     TIP3     H2       HT       0.417000       1.00800           0
     22795 W2       7599     TIP3     OH2      OT      -0.834000       15.9994           0
     22796 W2       7599     TIP3     H1       HT       0.417000       1.00800           0
     22797 W2       7599     TIP3     H2       HT       0.417000       1.00800           0
     22798 W2       7600     TIP3     OH2      OT      -0.834000       15.9994           0
     22799 W2       7600     TIP3     H1       HT       0.417000       1.00800           0
     22800 W2       7600     TIP3     H2       HT       0.417000       1.00800           0
     22801 W2       7601     TIP3     OH2      OT      -0.834000       15.9994           0
     22802 W2       7601     TIP3     H1       HT       0.417000       1.00800           0
     22803 W2       7601     TIP3     H2       HT       0.417000       1.00800           0
     22804 W2       7602     TIP3     OH2      OT      -0.834000       15.9994           0
     22805 W2       7602     TIP3     H1       HT       0.417000       1.00800           0
     22806 W2       7602     TIP3     H2       HT       0.417000       1.00800           0
     22807 W2       7603     TIP3     OH2      OT      -0.834000       15.9994           0
     22808 W2       7603     TIP3     H1       HT       0.417000       1.00800           0
     22809 W2       7603     TIP3     H2       HT       0.417000       1.00800           0
     22810 W2       7604     TIP3     OH2      OT      -0.834000       15.9994           0
     22811 W2       7604     TIP3     H1       HT       0.417000       1.00800           0
     22812 W2       7604     TIP3     H2       HT       0.417000       1.00800           0
     22813 W2       7605     TIP3     OH2      OT      -0.834000       15.9994           0
     22814 W2       7605     TIP3     H1       HT       0.417000       1.00800           0
     22815 W2       7605     TIP3     H2       HT       0.417000       1.00800           0
     22816 W2       7606     TIP3     OH2      OT      -0.834000       15.9994           0
     22817 W2       7606     TIP3     H1       HT       0.417000       1.00800           0
     22818 W2       7606     TIP3     H2       HT       0.417000       1.00800           0
     22819 W2       7607     TIP3     OH2      OT      -0.834000       15.9994           0
     22820 W2       7607     TIP3     H1       HT       0.417000       1.00800           0
     22821 W2       7607     TIP3     H2       HT       0.417000       1.00800           0
     22822 W2       7608     TIP3     OH2      OT      -0.834000       15.9994           0
     22823 W2       7608     TIP3     H1       HT       0.417000       1.00800           0
     22824 W2       7608     TIP3     H2       HT       0.417000       1.00800           0
     22825 W2       7609     TIP3     OH2      OT      -0.834000       15.9994           0
     22826 W2       7609     TIP3     H1       HT       0.417000       1.00800           0
     22827 W2       7609     TIP3     H2       HT       0.417000       1.00800           0
     22828 W2       7610     TIP3     OH2      OT      -0.834000       15.9994           0
     22829 W2       7610     TIP3     H1       HT       0.417000       1.00800           0
     22830 W2       7610     TIP3     H2       HT       0.417000       1.00800           0
     22831 W2       7611     TIP3     OH2      OT      -0.834000       15.9994           0
     22832 W2       7611     TIP3     H1       HT       0.417000       1.00800           0
     22833 W2       7611     TIP3     H2       HT       0.417000       1.00800           0
     22834 W2       7612     TIP3     OH2      OT      -0.834000       15.9994           0
     22835 W2       7612     TIP3     H1       HT       0.417000       1.00800           0
     22836 W2       7612     TIP3     H2       HT       0.417000       1.00800           0
     22837 W2       7613     TIP3     OH2      OT      -0.834000       15.9994           0
     22838 W2       7613     TIP3     H1       HT       0.417000       1.00800           0
     22839 W2       7613     TIP3     H2       HT       0.417000       1.00800           0
     22840 W2       7614     TIP3     OH2      OT      -0.834000       15.9994           0
     22841 W2       7614     TIP3     H1       HT       0.417000       1.00800           0
     22842 W2       7614     TIP3     H2       HT       0.417000       1.00800           0
     22843 W2       7615     TIP3     OH2      OT      -0.834000       15.9994           0
     22844 W2       7615     TIP3     H1       HT       0.417000       1.00800           0
     22845 W2       7615     TIP3     H2       HT       0.417000       1.00800           0
     22846 W2       7616     TIP3     OH2      OT      -0.834000       15.9994           0
     22847 W2       7616     TIP3     H1       HT       0.417000       1.00800           0
     22848 W2       7616     TIP3     H2       HT       0.417000       1.00800           0
     22849 W2       7617     TIP3     OH2      OT      -0.834000       15.9994           0
     22850 W2       7617     TIP3     H1       HT       0.417000       1.00800           0
     22851 W2       7617     TIP3     H2       HT       0.417000       1.00800           0
     22852 W2       7618     TIP3     OH2      OT      -0.834000       15.9994           0
     22853 W2       7618     TIP3     H1       HT       0.417000       1.00800           0
     22854 W2       7618     TIP3     H2       HT       0.417000       1.00800           0
     22855 W2       7619     TIP3     OH2      OT      -0.834000       15.9994           0
     22856 W2       7619     TIP3     H1       HT       0.417000       1.00800           0
     22857 W2       7619     TIP3     H2       HT       0.417000       1.00800           0
     22858 W2       7620     TIP3     OH2      OT      -0.834000       15.9994           0
     22859 W2       7620     TIP3     H1       HT       0.417000       1.00800           0
     22860 W2       7620     TIP3     H2       HT       0.417000       1.00800           0
     22861 W2       7621     TIP3     OH2      OT      -0.834000       15.9994           0
     22862 W2       7621     TIP3     H1       HT       0.417000       1.00800           0
     22863 W2       7621     TIP3     H2       HT       0.417000       1.00800           0
     22864 W2       7622     TIP3     OH2      OT      -0.834000       15.9994           0
     22865 W2       7622     TIP3     H1       HT       0.417000       1.00800           0
     22866 W2       7622     TIP3     H2       HT       0.417000       1.00800           0
     22867 W2       7623     TIP3     OH2      OT      -0.834000       15.9994           0
     22868 W2       7623     TIP3     H1       HT       0.417000       1.00800           0
     22869 W2       7623     TIP3     H2       HT       0.417000       1.00800           0
     22870 W2       7624     TIP3     OH2      OT      -0.834000       15.9994           0
     22871 W2       7624     TIP3     H1       HT       0.417000       1.00800           0
     22872 W2       7624     TIP3     H2       HT       0.417000       1.00800           0
     22873 W2       7625     TIP3     OH2      OT      -0.834000       15.9994           0
     22874 W2       7625     TIP3     H1       HT       0.417000       1.00800           0
     22875 W2       7625     TIP3     H2       HT       0.417000       1.00800           0
     22876 W2       7626     TIP3     OH2      OT      -0.834000       15.9994           0
     22877 W2       7626     TIP3     H1       HT       0.417000       1.00800           0
     22878 W2       7626     TIP3     H2       HT       0.417000       1.00800           0
     22879 W2       7627     TIP3     OH2      OT      -0.834000       15.9994           0
     22880 W2       7627     TIP3     H1       HT       0.417000       1.00800           0
     22881 W2       7627     TIP3     H2       HT       0.417000       1.00800           0
     22882 W2       7628     TIP3     OH2      OT      -0.834000       15.9994           0
     22883 W2       7628     TIP3     H1       HT       0.417000       1.00800           0
     22884 W2       7628     TIP3     H2       HT       0.417000       1.00800           0
     22885 W2       7629     TIP3     OH2      OT      -0.834000       15.9994           0
     22886 W2       7629     TIP3     H1       HT       0.417000       1.00800           0
     22887 W2       7629     TIP3     H2       HT       0.417000       1.00800           0
     22888 W2       7630     TIP3     OH2      OT      -0.834000       15.9994           0
     22889 W2       7630     TIP3     H1       HT       0.417000       1.00800           0
     22890 W2       7630     TIP3     H2       HT       0.417000       1.00800           0
     22891 W2       7631     TIP3     OH2      OT      -0.834000       15.9994           0
     22892 W2       7631     TIP3     H1       HT       0.417000       1.00800           0
     22893 W2       7631     TIP3     H2       HT       0.417000       1.00800           0
     22894 W2       7632     TIP3     OH2      OT      -0.834000       15.9994           0
     22895 W2       7632     TIP3     H1       HT       0.417000       1.00800           0
     22896 W2       7632     TIP3     H2       HT       0.417000       1.00800           0
     22897 W2       7633     TIP3     OH2      OT      -0.834000       15.9994           0
     22898 W2       7633     TIP3     H1       HT       0.417000       1.00800           0
     22899 W2       7633     TIP3     H2       HT       0.417000       1.00800           0
     22900 W2       7634     TIP3     OH2      OT      -0.834000       15.9994           0
     22901 W2       7634     TIP3     H1       HT       0.417000       1.00800           0
     22902 W2       7634     TIP3     H2       HT       0.417000       1.00800           0
     22903 W2       7635     TIP3     OH2      OT      -0.834000       15.9994           0
     22904 W2       7635     TIP3     H1       HT       0.417000       1.00800           0
     22905 W2       7635     TIP3     H2       HT       0.417000       1.00800           0
     22906 W2       7636     TIP3     OH2      OT      -0.834000       15.9994           0
     22907 W2       7636     TIP3     H1       HT       0.417000       1.00800           0
     22908 W2       7636     TIP3     H2       HT       0.417000       1.00800           0
     22909 W2       7637     TIP3     OH2      OT      -0.834000       15.9994           0
     22910 W2       7637     TIP3     H1       HT       0.417000       1.00800           0
     22911 W2       7637     TIP3     H2       HT       0.417000       1.00800           0
     22912 W2       7638     TIP3     OH2      OT      -0.834000       15.9994           0
     22913 W2       7638     TIP3     H1       HT       0.417000       1.00800           0
     22914 W2       7638     TIP3     H2       HT       0.417000       1.00800           0
     22915 W2       7639     TIP3     OH2      OT      -0.834000       15.9994           0
     22916 W2       7639     TIP3     H1       HT       0.417000       1.00800           0
     22917 W2       7639     TIP3     H2       HT       0.417000       1.00800           0
     22918 W2       7640     TIP3     OH2      OT      -0.834000       15.9994           0
     22919 W2       7640     TIP3     H1       HT       0.417000       1.00800           0
     22920 W2       7640     TIP3     H2       HT       0.417000       1.00800           0
     22921 W2       7641     TIP3     OH2      OT      -0.834000       15.9994           0
     22922 W2       7641     TIP3     H1       HT       0.417000       1.00800           0
     22923 W2       7641     TIP3     H2       HT       0.417000       1.00800           0
     22924 W2       7642     TIP3     OH2      OT      -0.834000       15.9994           0
     22925 W2       7642     TIP3     H1       HT       0.417000       1.00800           0
     22926 W2       7642     TIP3     H2       HT       0.417000       1.00800           0
     22927 W2       7643     TIP3     OH2      OT      -0.834000       15.9994           0
     22928 W2       7643     TIP3     H1       HT       0.417000       1.00800           0
     22929 W2       7643     TIP3     H2       HT       0.417000       1.00800           0
     22930 W2       7644     TIP3     OH2      OT      -0.834000       15.9994           0
     22931 W2       7644     TIP3     H1       HT       0.417000       1.00800           0
     22932 W2       7644     TIP3     H2       HT       0.417000       1.00800           0
     22933 W2       7645     TIP3     OH2      OT      -0.834000       15.9994           0
     22934 W2       7645     TIP3     H1       HT       0.417000       1.00800           0
     22935 W2       7645     TIP3     H2       HT       0.417000       1.00800           0
     22936 W2       7646     TIP3     OH2      OT      -0.834000       15.9994           0
     22937 W2       7646     TIP3     H1       HT       0.417000       1.00800           0
     22938 W2       7646     TIP3     H2       HT       0.417000       1.00800           0
     22939 W2       7647     TIP3     OH2      OT      -0.834000       15.9994           0
     22940 W2       7647     TIP3     H1       HT       0.417000       1.00800           0
     22941 W2       7647     TIP3     H2       HT       0.417000       1.00800           0
     22942 W2       7648     TIP3     OH2      OT      -0.834000       15.9994           0
     22943 W2       7648     TIP3     H1       HT       0.417000       1.00800           0
     22944 W2       7648     TIP3     H2       HT       0.417000       1.00800           0
     22945 W2       7649     TIP3     OH2      OT      -0.834000       15.9994           0
     22946 W2       7649     TIP3     H1       HT       0.417000       1.00800           0
     22947 W2       7649     TIP3     H2       HT       0.417000       1.00800           0
     22948 W2       7650     TIP3     OH2      OT      -0.834000       15.9994           0
     22949 W2       7650     TIP3     H1       HT       0.417000       1.00800           0
     22950 W2       7650     TIP3     H2       HT       0.417000       1.00800           0
     22951 W2       7651     TIP3     OH2      OT      -0.834000       15.9994           0
     22952 W2       7651     TIP3     H1       HT       0.417000       1.00800           0
     22953 W2       7651     TIP3     H2       HT       0.417000       1.00800           0
     22954 W2       7652     TIP3     OH2      OT      -0.834000       15.9994           0
     22955 W2       7652     TIP3     H1       HT       0.417000       1.00800           0
     22956 W2       7652     TIP3     H2       HT       0.417000       1.00800           0
     22957 W2       7653     TIP3     OH2      OT      -0.834000       15.9994           0
     22958 W2       7653     TIP3     H1       HT       0.417000       1.00800           0
     22959 W2       7653     TIP3     H2       HT       0.417000       1.00800           0
     22960 W2       7654     TIP3     OH2      OT      -0.834000       15.9994           0
     22961 W2       7654     TIP3     H1       HT       0.417000       1.00800           0
     22962 W2       7654     TIP3     H2       HT       0.417000       1.00800           0
     22963 W2       7655     TIP3     OH2      OT      -0.834000       15.9994           0
     22964 W2       7655     TIP3     H1       HT       0.417000       1.00800           0
     22965 W2       7655     TIP3     H2       HT       0.417000       1.00800           0
     22966 W2       7656     TIP3     OH2      OT      -0.834000       15.9994           0
     22967 W2       7656     TIP3     H1       HT       0.417000       1.00800           0
     22968 W2       7656     TIP3     H2       HT       0.417000       1.00800           0
     22969 W2       7657     TIP3     OH2      OT      -0.834000       15.9994           0
     22970 W2       7657     TIP3     H1       HT       0.417000       1.00800           0
     22971 W2       7657     TIP3     H2       HT       0.417000       1.00800           0
     22972 W2       7658     TIP3     OH2      OT      -0.834000       15.9994           0
     22973 W2       7658     TIP3     H1       HT       0.417000       1.00800           0
     22974 W2       7658     TIP3     H2       HT       0.417000       1.00800           0
     22975 W2       7659     TIP3     OH2      OT      -0.834000       15.9994           0
     22976 W2       7659     TIP3     H1       HT       0.417000       1.00800           0
     22977 W2       7659     TIP3     H2       HT       0.417000       1.00800           0
     22978 W2       7660     TIP3     OH2      OT      -0.834000       15.9994           0
     22979 W2       7660     TIP3     H1       HT       0.417000       1.00800           0
     22980 W2       7660     TIP3     H2       HT       0.417000       1.00800           0
     22981 W2       7661     TIP3     OH2      OT      -0.834000       15.9994           0
     22982 W2       7661     TIP3     H1       HT       0.417000       1.00800           0
     22983 W2       7661     TIP3     H2       HT       0.417000       1.00800           0
     22984 W2       7662     TIP3     OH2      OT      -0.834000       15.9994           0
     22985 W2       7662     TIP3     H1       HT       0.417000       1.00800           0
     22986 W2       7662     TIP3     H2       HT       0.417000       1.00800           0
     22987 W2       7663     TIP3     OH2      OT      -0.834000       15.9994           0
     22988 W2       7663     TIP3     H1       HT       0.417000       1.00800           0
     22989 W2       7663     TIP3     H2       HT       0.417000       1.00800           0
     22990 W2       7664     TIP3     OH2      OT      -0.834000       15.9994           0
     22991 W2       7664     TIP3     H1       HT       0.417000       1.00800           0
     22992 W2       7664     TIP3     H2       HT       0.417000       1.00800           0
     22993 W2       7665     TIP3     OH2      OT      -0.834000       15.9994           0
     22994 W2       7665     TIP3     H1       HT       0.417000       1.00800           0
     22995 W2       7665     TIP3     H2       HT       0.417000       1.00800           0
     22996 W2       7666     TIP3     OH2      OT      -0.834000       15.9994           0
     22997 W2       7666     TIP3     H1       HT       0.417000       1.00800           0
     22998 W2       7666     TIP3     H2       HT       0.417000       1.00800           0
     22999 W2       7667     TIP3     OH2      OT      -0.834000       15.9994           0
     23000 W2       7667     TIP3     H1       HT       0.417000       1.00800           0
     23001 W2       7667     TIP3     H2       HT       0.417000       1.00800           0
     23002 W2       7668     TIP3     OH2      OT      -0.834000       15.9994           0
     23003 W2       7668     TIP3     H1       HT       0.417000       1.00800           0
     23004 W2       7668     TIP3     H2       HT       0.417000       1.00800           0
     23005 W2       7669     TIP3     OH2      OT      -0.834000       15.9994           0
     23006 W2       7669     TIP3     H1       HT       0.417000       1.00800           0
     23007 W2       7669     TIP3     H2       HT       0.417000       1.00800           0
     23008 W2       7670     TIP3     OH2      OT      -0.834000       15.9994           0
     23009 W2       7670     TIP3     H1       HT       0.417000       1.00800           0
     23010 W2       7670     TIP3     H2       HT       0.417000       1.00800           0
     23011 W2       7671     TIP3     OH2      OT      -0.834000       15.9994           0
     23012 W2       7671     TIP3     H1       HT       0.417000       1.00800           0
     23013 W2       7671     TIP3     H2       HT       0.417000       1.00800           0
     23014 W2       7672     TIP3     OH2      OT      -0.834000       15.9994           0
     23015 W2       7672     TIP3     H1       HT       0.417000       1.00800           0
     23016 W2       7672     TIP3     H2       HT       0.417000       1.00800           0
     23017 W2       7673     TIP3     OH2      OT      -0.834000       15.9994           0
     23018 W2       7673     TIP3     H1       HT       0.417000       1.00800           0
     23019 W2       7673     TIP3     H2       HT       0.417000       1.00800           0
     23020 W2       7674     TIP3     OH2      OT      -0.834000       15.9994           0
     23021 W2       7674     TIP3     H1       HT       0.417000       1.00800           0
     23022 W2       7674     TIP3     H2       HT       0.417000       1.00800           0
     23023 W2       7675     TIP3     OH2      OT      -0.834000       15.9994           0
     23024 W2       7675     TIP3     H1       HT       0.417000       1.00800           0
     23025 W2       7675     TIP3     H2       HT       0.417000       1.00800           0
     23026 W2       7676     TIP3     OH2      OT      -0.834000       15.9994           0
     23027 W2       7676     TIP3     H1       HT       0.417000       1.00800           0
     23028 W2       7676     TIP3     H2       HT       0.417000       1.00800           0
     23029 W2       7677     TIP3     OH2      OT      -0.834000       15.9994           0
     23030 W2       7677     TIP3     H1       HT       0.417000       1.00800           0
     23031 W2       7677     TIP3     H2       HT       0.417000       1.00800           0
     23032 W2       7678     TIP3     OH2      OT      -0.834000       15.9994           0
     23033 W2       7678     TIP3     H1       HT       0.417000       1.00800           0
     23034 W2       7678     TIP3     H2       HT       0.417000       1.00800           0
     23035 W2       7679     TIP3     OH2      OT      -0.834000       15.9994           0
     23036 W2       7679     TIP3     H1       HT       0.417000       1.00800           0
     23037 W2       7679     TIP3     H2       HT       0.417000       1.00800           0
     23038 W2       7680     TIP3     OH2      OT      -0.834000       15.9994           0
     23039 W2       7680     TIP3     H1       HT       0.417000       1.00800           0
     23040 W2       7680     TIP3     H2       HT       0.417000       1.00800           0
     23041 W2       7681     TIP3     OH2      OT      -0.834000       15.9994           0
     23042 W2       7681     TIP3     H1       HT       0.417000       1.00800           0
     23043 W2       7681     TIP3     H2       HT       0.417000       1.00800           0
     23044 W2       7682     TIP3     OH2      OT      -0.834000       15.9994           0
     23045 W2       7682     TIP3     H1       HT       0.417000       1.00800           0
     23046 W2       7682     TIP3     H2       HT       0.417000       1.00800           0
     23047 W2       7683     TIP3     OH2      OT      -0.834000       15.9994           0
     23048 W2       7683     TIP3     H1       HT       0.417000       1.00800           0
     23049 W2       7683     TIP3     H2       HT       0.417000       1.00800           0
     23050 W2       7684     TIP3     OH2      OT      -0.834000       15.9994           0
     23051 W2       7684     TIP3     H1       HT       0.417000       1.00800           0
     23052 W2       7684     TIP3     H2       HT       0.417000       1.00800           0
     23053 W2       7685     TIP3     OH2      OT      -0.834000       15.9994           0
     23054 W2       7685     TIP3     H1       HT       0.417000       1.00800           0
     23055 W2       7685     TIP3     H2       HT       0.417000       1.00800           0
     23056 W2       7686     TIP3     OH2      OT      -0.834000       15.9994           0
     23057 W2       7686     TIP3     H1       HT       0.417000       1.00800           0
     23058 W2       7686     TIP3     H2       HT       0.417000       1.00800           0
     23059 W2       7687     TIP3     OH2      OT      -0.834000       15.9994           0
     23060 W2       7687     TIP3     H1       HT       0.417000       1.00800           0
     23061 W2       7687     TIP3     H2       HT       0.417000       1.00800           0
     23062 W2       7688     TIP3     OH2      OT      -0.834000       15.9994           0
     23063 W2       7688     TIP3     H1       HT       0.417000       1.00800           0
     23064 W2       7688     TIP3     H2       HT       0.417000       1.00800           0
     23065 W2       7689     TIP3     OH2      OT      -0.834000       15.9994           0
     23066 W2       7689     TIP3     H1       HT       0.417000       1.00800           0
     23067 W2       7689     TIP3     H2       HT       0.417000       1.00800           0
     23068 W2       7690     TIP3     OH2      OT      -0.834000       15.9994           0
     23069 W2       7690     TIP3     H1       HT       0.417000       1.00800           0
     23070 W2       7690     TIP3     H2       HT       0.417000       1.00800           0
     23071 W2       7691     TIP3     OH2      OT      -0.834000       15.9994           0
     23072 W2       7691     TIP3     H1       HT       0.417000       1.00800           0
     23073 W2       7691     TIP3     H2       HT       0.417000       1.00800           0
     23074 W2       7692     TIP3     OH2      OT      -0.834000       15.9994           0
     23075 W2       7692     TIP3     H1       HT       0.417000       1.00800           0
     23076 W2       7692     TIP3     H2       HT       0.417000       1.00800           0
     23077 W2       7693     TIP3     OH2      OT      -0.834000       15.9994           0
     23078 W2       7693     TIP3     H1       HT       0.417000       1.00800           0
     23079 W2       7693     TIP3     H2       HT       0.417000       1.00800           0
     23080 W2       7694     TIP3     OH2      OT      -0.834000       15.9994           0
     23081 W2       7694     TIP3     H1       HT       0.417000       1.00800           0
     23082 W2       7694     TIP3     H2       HT       0.417000       1.00800           0
     23083 W2       7695     TIP3     OH2      OT      -0.834000       15.9994           0
     23084 W2       7695     TIP3     H1       HT       0.417000       1.00800           0
     23085 W2       7695     TIP3     H2       HT       0.417000       1.00800           0
     23086 W2       7696     TIP3     OH2      OT      -0.834000       15.9994           0
     23087 W2       7696     TIP3     H1       HT       0.417000       1.00800           0
     23088 W2       7696     TIP3     H2       HT       0.417000       1.00800           0
     23089 W2       7697     TIP3     OH2      OT      -0.834000       15.9994           0
     23090 W2       7697     TIP3     H1       HT       0.417000       1.00800           0
     23091 W2       7697     TIP3     H2       HT       0.417000       1.00800           0
     23092 W2       7698     TIP3     OH2      OT      -0.834000       15.9994           0
     23093 W2       7698     TIP3     H1       HT       0.417000       1.00800           0
     23094 W2       7698     TIP3     H2       HT       0.417000       1.00800           0
     23095 W2       7699     TIP3     OH2      OT      -0.834000       15.9994           0
     23096 W2       7699     TIP3     H1       HT       0.417000       1.00800           0
     23097 W2       7699     TIP3     H2       HT       0.417000       1.00800           0
     23098 W2       7700     TIP3     OH2      OT      -0.834000       15.9994           0
     23099 W2       7700     TIP3     H1       HT       0.417000       1.00800           0
     23100 W2       7700     TIP3     H2       HT       0.417000       1.00800           0
     23101 W2       7701     TIP3     OH2      OT      -0.834000       15.9994           0
     23102 W2       7701     TIP3     H1       HT       0.417000       1.00800           0
     23103 W2       7701     TIP3     H2       HT       0.417000       1.00800           0
     23104 W2       7702     TIP3     OH2      OT      -0.834000       15.9994           0
     23105 W2       7702     TIP3     H1       HT       0.417000       1.00800           0
     23106 W2       7702     TIP3     H2       HT       0.417000       1.00800           0
     23107 W2       7703     TIP3     OH2      OT      -0.834000       15.9994           0
     23108 W2       7703     TIP3     H1       HT       0.417000       1.00800           0
     23109 W2       7703     TIP3     H2       HT       0.417000       1.00800           0
     23110 W2       7704     TIP3     OH2      OT      -0.834000       15.9994           0
     23111 W2       7704     TIP3     H1       HT       0.417000       1.00800           0
     23112 W2       7704     TIP3     H2       HT       0.417000       1.00800           0
     23113 W2       7705     TIP3     OH2      OT      -0.834000       15.9994           0
     23114 W2       7705     TIP3     H1       HT       0.417000       1.00800           0
     23115 W2       7705     TIP3     H2       HT       0.417000       1.00800           0
     23116 W2       7706     TIP3     OH2      OT      -0.834000       15.9994           0
     23117 W2       7706     TIP3     H1       HT       0.417000       1.00800           0
     23118 W2       7706     TIP3     H2       HT       0.417000       1.00800           0
     23119 W2       7707     TIP3     OH2      OT      -0.834000       15.9994           0
     23120 W2       7707     TIP3     H1       HT       0.417000       1.00800           0
     23121 W2       7707     TIP3     H2       HT       0.417000       1.00800           0
     23122 W2       7708     TIP3     OH2      OT      -0.834000       15.9994           0
     23123 W2       7708     TIP3     H1       HT       0.417000       1.00800           0
     23124 W2       7708     TIP3     H2       HT       0.417000       1.00800           0
     23125 W2       7709     TIP3     OH2      OT      -0.834000       15.9994           0
     23126 W2       7709     TIP3     H1       HT       0.417000       1.00800           0
     23127 W2       7709     TIP3     H2       HT       0.417000       1.00800           0
     23128 W2       7710     TIP3     OH2      OT      -0.834000       15.9994           0
     23129 W2       7710     TIP3     H1       HT       0.417000       1.00800           0
     23130 W2       7710     TIP3     H2       HT       0.417000       1.00800           0
     23131 W2       7711     TIP3     OH2      OT      -0.834000       15.9994           0
     23132 W2       7711     TIP3     H1       HT       0.417000       1.00800           0
     23133 W2       7711     TIP3     H2       HT       0.417000       1.00800           0
     23134 W2       7712     TIP3     OH2      OT      -0.834000       15.9994           0
     23135 W2       7712     TIP3     H1       HT       0.417000       1.00800           0
     23136 W2       7712     TIP3     H2       HT       0.417000       1.00800           0
     23137 W2       7713     TIP3     OH2      OT      -0.834000       15.9994           0
     23138 W2       7713     TIP3     H1       HT       0.417000       1.00800           0
     23139 W2       7713     TIP3     H2       HT       0.417000       1.00800           0
     23140 W2       7714     TIP3     OH2      OT      -0.834000       15.9994           0
     23141 W2       7714     TIP3     H1       HT       0.417000       1.00800           0
     23142 W2       7714     TIP3     H2       HT       0.417000       1.00800           0
     23143 W2       7715     TIP3     OH2      OT      -0.834000       15.9994           0
     23144 W2       7715     TIP3     H1       HT       0.417000       1.00800           0
     23145 W2       7715     TIP3     H2       HT       0.417000       1.00800           0
     23146 W2       7716     TIP3     OH2      OT      -0.834000       15.9994           0
     23147 W2       7716     TIP3     H1       HT       0.417000       1.00800           0
     23148 W2       7716     TIP3     H2       HT       0.417000       1.00800           0
     23149 W2       7717     TIP3     OH2      OT      -0.834000       15.9994           0
     23150 W2       7717     TIP3     H1       HT       0.417000       1.00800           0
     23151 W2       7717     TIP3     H2       HT       0.417000       1.00800           0
     23152 W2       7718     TIP3     OH2      OT      -0.834000       15.9994           0
     23153 W2       7718     TIP3     H1       HT       0.417000       1.00800           0
     23154 W2       7718     TIP3     H2       HT       0.417000       1.00800           0
     23155 W2       7719     TIP3     OH2      OT      -0.834000       15.9994           0
     23156 W2       7719     TIP3     H1       HT       0.417000       1.00800           0
     23157 W2       7719     TIP3     H2       HT       0.417000       1.00800           0
     23158 W2       7720     TIP3     OH2      OT      -0.834000       15.9994           0
     23159 W2       7720     TIP3     H1       HT       0.417000       1.00800           0
     23160 W2       7720     TIP3     H2       HT       0.417000       1.00800           0
     23161 W2       7721     TIP3     OH2      OT      -0.834000       15.9994           0
     23162 W2       7721     TIP3     H1       HT       0.417000       1.00800           0
     23163 W2       7721     TIP3     H2       HT       0.417000       1.00800           0
     23164 W2       7722     TIP3     OH2      OT      -0.834000       15.9994           0
     23165 W2       7722     TIP3     H1       HT       0.417000       1.00800           0
     23166 W2       7722     TIP3     H2       HT       0.417000       1.00800           0
     23167 W2       7723     TIP3     OH2      OT      -0.834000       15.9994           0
     23168 W2       7723     TIP3     H1       HT       0.417000       1.00800           0
     23169 W2       7723     TIP3     H2       HT       0.417000       1.00800           0
     23170 W2       7724     TIP3     OH2      OT      -0.834000       15.9994           0
     23171 W2       7724     TIP3     H1       HT       0.417000       1.00800           0
     23172 W2       7724     TIP3     H2       HT       0.417000       1.00800           0
     23173 W2       7725     TIP3     OH2      OT      -0.834000       15.9994           0
     23174 W2       7725     TIP3     H1       HT       0.417000       1.00800           0
     23175 W2       7725     TIP3     H2       HT       0.417000       1.00800           0
     23176 W2       7726     TIP3     OH2      OT      -0.834000       15.9994           0
     23177 W2       7726     TIP3     H1       HT       0.417000       1.00800           0
     23178 W2       7726     TIP3     H2       HT       0.417000       1.00800           0
     23179 W2       7727     TIP3     OH2      OT      -0.834000       15.9994           0
     23180 W2       7727     TIP3     H1       HT       0.417000       1.00800           0
     23181 W2       7727     TIP3     H2       HT       0.417000       1.00800           0
     23182 W2       7728     TIP3     OH2      OT      -0.834000       15.9994           0
     23183 W2       7728     TIP3     H1       HT       0.417000       1.00800           0
     23184 W2       7728     TIP3     H2       HT       0.417000       1.00800           0
     23185 W2       7729     TIP3     OH2      OT      -0.834000       15.9994           0
     23186 W2       7729     TIP3     H1       HT       0.417000       1.00800           0
     23187 W2       7729     TIP3     H2       HT       0.417000       1.00800           0
     23188 W2       7730     TIP3     OH2      OT      -0.834000       15.9994           0
     23189 W2       7730     TIP3     H1       HT       0.417000       1.00800           0
     23190 W2       7730     TIP3     H2       HT       0.417000       1.00800           0
     23191 W2       7731     TIP3     OH2      OT      -0.834000       15.9994           0
     23192 W2       7731     TIP3     H1       HT       0.417000       1.00800           0
     23193 W2       7731     TIP3     H2       HT       0.417000       1.00800           0
     23194 W2       7732     TIP3     OH2      OT      -0.834000       15.9994           0
     23195 W2       7732     TIP3     H1       HT       0.417000       1.00800           0
     23196 W2       7732     TIP3     H2       HT       0.417000       1.00800           0
     23197 W2       7733     TIP3     OH2      OT      -0.834000       15.9994           0
     23198 W2       7733     TIP3     H1       HT       0.417000       1.00800           0
     23199 W2       7733     TIP3     H2       HT       0.417000       1.00800           0
     23200 W2       7734     TIP3     OH2      OT      -0.834000       15.9994           0
     23201 W2       7734     TIP3     H1       HT       0.417000       1.00800           0
     23202 W2       7734     TIP3     H2       HT       0.417000       1.00800           0
     23203 W2       7735     TIP3     OH2      OT      -0.834000       15.9994           0
     23204 W2       7735     TIP3     H1       HT       0.417000       1.00800           0
     23205 W2       7735     TIP3     H2       HT       0.417000       1.00800           0
     23206 W2       7736     TIP3     OH2      OT      -0.834000       15.9994           0
     23207 W2       7736     TIP3     H1       HT       0.417000       1.00800           0
     23208 W2       7736     TIP3     H2       HT       0.417000       1.00800           0
     23209 W2       7737     TIP3     OH2      OT      -0.834000       15.9994           0
     23210 W2       7737     TIP3     H1       HT       0.417000       1.00800           0
     23211 W2       7737     TIP3     H2       HT       0.417000       1.00800           0
     23212 W2       7738     TIP3     OH2      OT      -0.834000       15.9994           0
     23213 W2       7738     TIP3     H1       HT       0.417000       1.00800           0
     23214 W2       7738     TIP3     H2       HT       0.417000       1.00800           0
     23215 W2       7739     TIP3     OH2      OT      -0.834000       15.9994           0
     23216 W2       7739     TIP3     H1       HT       0.417000       1.00800           0
     23217 W2       7739     TIP3     H2       HT       0.417000       1.00800           0
     23218 W2       7740     TIP3     OH2      OT      -0.834000       15.9994           0
     23219 W2       7740     TIP3     H1       HT       0.417000       1.00800           0
     23220 W2       7740     TIP3     H2       HT       0.417000       1.00800           0
     23221 W2       7741     TIP3     OH2      OT      -0.834000       15.9994           0
     23222 W2       7741     TIP3     H1       HT       0.417000       1.00800           0
     23223 W2       7741     TIP3     H2       HT       0.417000       1.00800           0
     23224 W2       7742     TIP3     OH2      OT      -0.834000       15.9994           0
     23225 W2       7742     TIP3     H1       HT       0.417000       1.00800           0
     23226 W2       7742     TIP3     H2       HT       0.417000       1.00800           0
     23227 W2       7743     TIP3     OH2      OT      -0.834000       15.9994           0
     23228 W2       7743     TIP3     H1       HT       0.417000       1.00800           0
     23229 W2       7743     TIP3     H2       HT       0.417000       1.00800           0
     23230 W2       7744     TIP3     OH2      OT      -0.834000       15.9994           0
     23231 W2       7744     TIP3     H1       HT       0.417000       1.00800           0
     23232 W2       7744     TIP3     H2       HT       0.417000       1.00800           0
     23233 W2       7745     TIP3     OH2      OT      -0.834000       15.9994           0
     23234 W2       7745     TIP3     H1       HT       0.417000       1.00800           0
     23235 W2       7745     TIP3     H2       HT       0.417000       1.00800           0
     23236 W2       7746     TIP3     OH2      OT      -0.834000       15.9994           0
     23237 W2       7746     TIP3     H1       HT       0.417000       1.00800           0
     23238 W2       7746     TIP3     H2       HT       0.417000       1.00800           0
     23239 W2       7747     TIP3     OH2      OT      -0.834000       15.9994           0
     23240 W2       7747     TIP3     H1       HT       0.417000       1.00800           0
     23241 W2       7747     TIP3     H2       HT       0.417000       1.00800           0
     23242 W2       7748     TIP3     OH2      OT      -0.834000       15.9994           0
     23243 W2       7748     TIP3     H1       HT       0.417000       1.00800           0
     23244 W2       7748     TIP3     H2       HT       0.417000       1.00800           0
     23245 W2       7749     TIP3     OH2      OT      -0.834000       15.9994           0
     23246 W2       7749     TIP3     H1       HT       0.417000       1.00800           0
     23247 W2       7749     TIP3     H2       HT       0.417000       1.00800           0
     23248 W2       7750     TIP3     OH2      OT      -0.834000       15.9994           0
     23249 W2       7750     TIP3     H1       HT       0.417000       1.00800           0
     23250 W2       7750     TIP3     H2       HT       0.417000       1.00800           0
     23251 W2       7751     TIP3     OH2      OT      -0.834000       15.9994           0
     23252 W2       7751     TIP3     H1       HT       0.417000       1.00800           0
     23253 W2       7751     TIP3     H2       HT       0.417000       1.00800           0
     23254 W2       7752     TIP3     OH2      OT      -0.834000       15.9994           0
     23255 W2       7752     TIP3     H1       HT       0.417000       1.00800           0
     23256 W2       7752     TIP3     H2       HT       0.417000       1.00800           0
     23257 W2       7753     TIP3     OH2      OT      -0.834000       15.9994           0
     23258 W2       7753     TIP3     H1       HT       0.417000       1.00800           0
     23259 W2       7753     TIP3     H2       HT       0.417000       1.00800           0
     23260 W2       7754     TIP3     OH2      OT      -0.834000       15.9994           0
     23261 W2       7754     TIP3     H1       HT       0.417000       1.00800           0
     23262 W2       7754     TIP3     H2       HT       0.417000       1.00800           0
     23263 W2       7755     TIP3     OH2      OT      -0.834000       15.9994           0
     23264 W2       7755     TIP3     H1       HT       0.417000       1.00800           0
     23265 W2       7755     TIP3     H2       HT       0.417000       1.00800           0
     23266 W2       7756     TIP3     OH2      OT      -0.834000       15.9994           0
     23267 W2       7756     TIP3     H1       HT       0.417000       1.00800           0
     23268 W2       7756     TIP3     H2       HT       0.417000       1.00800           0
     23269 W2       7757     TIP3     OH2      OT      -0.834000       15.9994           0
     23270 W2       7757     TIP3     H1       HT       0.417000       1.00800           0
     23271 W2       7757     TIP3     H2       HT       0.417000       1.00800           0
     23272 W2       7758     TIP3     OH2      OT      -0.834000       15.9994           0
     23273 W2       7758     TIP3     H1       HT       0.417000       1.00800           0
     23274 W2       7758     TIP3     H2       HT       0.417000       1.00800           0
     23275 W2       7759     TIP3     OH2      OT      -0.834000       15.9994           0
     23276 W2       7759     TIP3     H1       HT       0.417000       1.00800           0
     23277 W2       7759     TIP3     H2       HT       0.417000       1.00800           0
     23278 W2       7760     TIP3     OH2      OT      -0.834000       15.9994           0
     23279 W2       7760     TIP3     H1       HT       0.417000       1.00800           0
     23280 W2       7760     TIP3     H2       HT       0.417000       1.00800           0
     23281 W2       7761     TIP3     OH2      OT      -0.834000       15.9994           0
     23282 W2       7761     TIP3     H1       HT       0.417000       1.00800           0
     23283 W2       7761     TIP3     H2       HT       0.417000       1.00800           0
     23284 W2       7762     TIP3     OH2      OT      -0.834000       15.9994           0
     23285 W2       7762     TIP3     H1       HT       0.417000       1.00800           0
     23286 W2       7762     TIP3     H2       HT       0.417000       1.00800           0
     23287 W2       7763     TIP3     OH2      OT      -0.834000       15.9994           0
     23288 W2       7763     TIP3     H1       HT       0.417000       1.00800           0
     23289 W2       7763     TIP3     H2       HT       0.417000       1.00800           0
     23290 W2       7764     TIP3     OH2      OT      -0.834000       15.9994           0
     23291 W2       7764     TIP3     H1       HT       0.417000       1.00800           0
     23292 W2       7764     TIP3     H2       HT       0.417000       1.00800           0
     23293 W2       7765     TIP3     OH2      OT      -0.834000       15.9994           0
     23294 W2       7765     TIP3     H1       HT       0.417000       1.00800           0
     23295 W2       7765     TIP3     H2       HT       0.417000       1.00800           0
     23296 W2       7766     TIP3     OH2      OT      -0.834000       15.9994           0
     23297 W2       7766     TIP3     H1       HT       0.417000       1.00800           0
     23298 W2       7766     TIP3     H2       HT       0.417000       1.00800           0
     23299 W2       7767     TIP3     OH2      OT      -0.834000       15.9994           0
     23300 W2       7767     TIP3     H1       HT       0.417000       1.00800           0
     23301 W2       7767     TIP3     H2       HT       0.417000       1.00800           0
     23302 W2       7768     TIP3     OH2      OT      -0.834000       15.9994           0
     23303 W2       7768     TIP3     H1       HT       0.417000       1.00800           0
     23304 W2       7768     TIP3     H2       HT       0.417000       1.00800           0
     23305 W2       7769     TIP3     OH2      OT      -0.834000       15.9994           0
     23306 W2       7769     TIP3     H1       HT       0.417000       1.00800           0
     23307 W2       7769     TIP3     H2       HT       0.417000       1.00800           0
     23308 W2       7770     TIP3     OH2      OT      -0.834000       15.9994           0
     23309 W2       7770     TIP3     H1       HT       0.417000       1.00800           0
     23310 W2       7770     TIP3     H2       HT       0.417000       1.00800           0
     23311 W2       7771     TIP3     OH2      OT      -0.834000       15.9994           0
     23312 W2       7771     TIP3     H1       HT       0.417000       1.00800           0
     23313 W2       7771     TIP3     H2       HT       0.417000       1.00800           0
     23314 W2       7772     TIP3     OH2      OT      -0.834000       15.9994           0
     23315 W2       7772     TIP3     H1       HT       0.417000       1.00800           0
     23316 W2       7772     TIP3     H2       HT       0.417000       1.00800           0
     23317 W2       7773     TIP3     OH2      OT      -0.834000       15.9994           0
     23318 W2       7773     TIP3     H1       HT       0.417000       1.00800           0
     23319 W2       7773     TIP3     H2       HT       0.417000       1.00800           0
     23320 W2       7774     TIP3     OH2      OT      -0.834000       15.9994           0
     23321 W2       7774     TIP3     H1       HT       0.417000       1.00800           0
     23322 W2       7774     TIP3     H2       HT       0.417000       1.00800           0
     23323 W2       7775     TIP3     OH2      OT      -0.834000       15.9994           0
     23324 W2       7775     TIP3     H1       HT       0.417000       1.00800           0
     23325 W2       7775     TIP3     H2       HT       0.417000       1.00800           0
     23326 W2       7776     TIP3     OH2      OT      -0.834000       15.9994           0
     23327 W2       7776     TIP3     H1       HT       0.417000       1.00800           0
     23328 W2       7776     TIP3     H2       HT       0.417000       1.00800           0
     23329 W2       7777     TIP3     OH2      OT      -0.834000       15.9994           0
     23330 W2       7777     TIP3     H1       HT       0.417000       1.00800           0
     23331 W2       7777     TIP3     H2       HT       0.417000       1.00800           0
     23332 W2       7778     TIP3     OH2      OT      -0.834000       15.9994           0
     23333 W2       7778     TIP3     H1       HT       0.417000       1.00800           0
     23334 W2       7778     TIP3     H2       HT       0.417000       1.00800           0
     23335 W2       7779     TIP3     OH2      OT      -0.834000       15.9994           0
     23336 W2       7779     TIP3     H1       HT       0.417000       1.00800           0
     23337 W2       7779     TIP3     H2       HT       0.417000       1.00800           0
     23338 W2       7780     TIP3     OH2      OT      -0.834000       15.9994           0
     23339 W2       7780     TIP3     H1       HT       0.417000       1.00800           0
     23340 W2       7780     TIP3     H2       HT       0.417000       1.00800           0
     23341 W2       7781     TIP3     OH2      OT      -0.834000       15.9994           0
     23342 W2       7781     TIP3     H1       HT       0.417000       1.00800           0
     23343 W2       7781     TIP3     H2       HT       0.417000       1.00800           0
     23344 W2       7782     TIP3     OH2      OT      -0.834000       15.9994           0
     23345 W2       7782     TIP3     H1       HT       0.417000       1.00800           0
     23346 W2       7782     TIP3     H2       HT       0.417000       1.00800           0
     23347 W2       7783     TIP3     OH2      OT      -0.834000       15.9994           0
     23348 W2       7783     TIP3     H1       HT       0.417000       1.00800           0
     23349 W2       7783     TIP3     H2       HT       0.417000       1.00800           0
     23350 W2       7784     TIP3     OH2      OT      -0.834000       15.9994           0
     23351 W2       7784     TIP3     H1       HT       0.417000       1.00800           0
     23352 W2       7784     TIP3     H2       HT       0.417000       1.00800           0
     23353 W2       7785     TIP3     OH2      OT      -0.834000       15.9994           0
     23354 W2       7785     TIP3     H1       HT       0.417000       1.00800           0
     23355 W2       7785     TIP3     H2       HT       0.417000       1.00800           0
     23356 W2       7786     TIP3     OH2      OT      -0.834000       15.9994           0
     23357 W2       7786     TIP3     H1       HT       0.417000       1.00800           0
     23358 W2       7786     TIP3     H2       HT       0.417000       1.00800           0
     23359 W2       7787     TIP3     OH2      OT      -0.834000       15.9994           0
     23360 W2       7787     TIP3     H1       HT       0.417000       1.00800           0
     23361 W2       7787     TIP3     H2       HT       0.417000       1.00800           0
     23362 W2       7788     TIP3     OH2      OT      -0.834000       15.9994           0
     23363 W2       7788     TIP3     H1       HT       0.417000       1.00800           0
     23364 W2       7788     TIP3     H2       HT       0.417000       1.00800           0
     23365 W2       7789     TIP3     OH2      OT      -0.834000       15.9994           0
     23366 W2       7789     TIP3     H1       HT       0.417000       1.00800           0
     23367 W2       7789     TIP3     H2       HT       0.417000       1.00800           0
     23368 W2       7790     TIP3     OH2      OT      -0.834000       15.9994           0
     23369 W2       7790     TIP3     H1       HT       0.417000       1.00800           0
     23370 W2       7790     TIP3     H2       HT       0.417000       1.00800           0
     23371 W2       7791     TIP3     OH2      OT      -0.834000       15.9994           0
     23372 W2       7791     TIP3     H1       HT       0.417000       1.00800           0
     23373 W2       7791     TIP3     H2       HT       0.417000       1.00800           0
     23374 W2       7792     TIP3     OH2      OT      -0.834000       15.9994           0
     23375 W2       7792     TIP3     H1       HT       0.417000       1.00800           0
     23376 W2       7792     TIP3     H2       HT       0.417000       1.00800           0
     23377 W2       7793     TIP3     OH2      OT      -0.834000       15.9994           0
     23378 W2       7793     TIP3     H1       HT       0.417000       1.00800           0
     23379 W2       7793     TIP3     H2       HT       0.417000       1.00800           0
     23380 W2       7794     TIP3     OH2      OT      -0.834000       15.9994           0
     23381 W2       7794     TIP3     H1       HT       0.417000       1.00800           0
     23382 W2       7794     TIP3     H2       HT       0.417000       1.00800           0
     23383 W2       7795     TIP3     OH2      OT      -0.834000       15.9994           0
     23384 W2       7795     TIP3     H1       HT       0.417000       1.00800           0
     23385 W2       7795     TIP3     H2       HT       0.417000       1.00800           0
     23386 W2       7796     TIP3     OH2      OT      -0.834000       15.9994           0
     23387 W2       7796     TIP3     H1       HT       0.417000       1.00800           0
     23388 W2       7796     TIP3     H2       HT       0.417000       1.00800           0
     23389 W2       7797     TIP3     OH2      OT      -0.834000       15.9994           0
     23390 W2       7797     TIP3     H1       HT       0.417000       1.00800           0
     23391 W2       7797     TIP3     H2       HT       0.417000       1.00800           0
     23392 W2       7798     TIP3     OH2      OT      -0.834000       15.9994           0
     23393 W2       7798     TIP3     H1       HT       0.417000       1.00800           0
     23394 W2       7798     TIP3     H2       HT       0.417000       1.00800           0
     23395 W2       7799     TIP3     OH2      OT      -0.834000       15.9994           0
     23396 W2       7799     TIP3     H1       HT       0.417000       1.00800           0
     23397 W2       7799     TIP3     H2       HT       0.417000       1.00800           0
     23398 W2       7800     TIP3     OH2      OT      -0.834000       15.9994           0
     23399 W2       7800     TIP3     H1       HT       0.417000       1.00800           0
     23400 W2       7800     TIP3     H2       HT       0.417000       1.00800           0
     23401 W2       7801     TIP3     OH2      OT      -0.834000       15.9994           0
     23402 W2       7801     TIP3     H1       HT       0.417000       1.00800           0
     23403 W2       7801     TIP3     H2       HT       0.417000       1.00800           0
     23404 W2       7802     TIP3     OH2      OT      -0.834000       15.9994           0
     23405 W2       7802     TIP3     H1       HT       0.417000       1.00800           0
     23406 W2       7802     TIP3     H2       HT       0.417000       1.00800           0
     23407 W2       7803     TIP3     OH2      OT      -0.834000       15.9994           0
     23408 W2       7803     TIP3     H1       HT       0.417000       1.00800           0
     23409 W2       7803     TIP3     H2       HT       0.417000       1.00800           0
     23410 W2       7804     TIP3     OH2      OT      -0.834000       15.9994           0
     23411 W2       7804     TIP3     H1       HT       0.417000       1.00800           0
     23412 W2       7804     TIP3     H2       HT       0.417000       1.00800           0
     23413 W2       7805     TIP3     OH2      OT      -0.834000       15.9994           0
     23414 W2       7805     TIP3     H1       HT       0.417000       1.00800           0
     23415 W2       7805     TIP3     H2       HT       0.417000       1.00800           0
     23416 W2       7806     TIP3     OH2      OT      -0.834000       15.9994           0
     23417 W2       7806     TIP3     H1       HT       0.417000       1.00800           0
     23418 W2       7806     TIP3     H2       HT       0.417000       1.00800           0
     23419 W2       7807     TIP3     OH2      OT      -0.834000       15.9994           0
     23420 W2       7807     TIP3     H1       HT       0.417000       1.00800           0
     23421 W2       7807     TIP3     H2       HT       0.417000       1.00800           0
     23422 W2       7808     TIP3     OH2      OT      -0.834000       15.9994           0
     23423 W2       7808     TIP3     H1       HT       0.417000       1.00800           0
     23424 W2       7808     TIP3     H2       HT       0.417000       1.00800           0
     23425 W2       7809     TIP3     OH2      OT      -0.834000       15.9994           0
     23426 W2       7809     TIP3     H1       HT       0.417000       1.00800           0
     23427 W2       7809     TIP3     H2       HT       0.417000       1.00800           0
     23428 W2       7810     TIP3     OH2      OT      -0.834000       15.9994           0
     23429 W2       7810     TIP3     H1       HT       0.417000       1.00800           0
     23430 W2       7810     TIP3     H2       HT       0.417000       1.00800           0
     23431 W2       7811     TIP3     OH2      OT      -0.834000       15.9994           0
     23432 W2       7811     TIP3     H1       HT       0.417000       1.00800           0
     23433 W2       7811     TIP3     H2       HT       0.417000       1.00800           0
     23434 W2       7812     TIP3     OH2      OT      -0.834000       15.9994           0
     23435 W2       7812     TIP3     H1       HT       0.417000       1.00800           0
     23436 W2       7812     TIP3     H2       HT       0.417000       1.00800           0
     23437 W2       7813     TIP3     OH2      OT      -0.834000       15.9994           0
     23438 W2       7813     TIP3     H1       HT       0.417000       1.00800           0
     23439 W2       7813     TIP3     H2       HT       0.417000       1.00800           0
     23440 W2       7814     TIP3     OH2      OT      -0.834000       15.9994           0
     23441 W2       7814     TIP3     H1       HT       0.417000       1.00800           0
     23442 W2       7814     TIP3     H2       HT       0.417000       1.00800           0
     23443 W2       7815     TIP3     OH2      OT      -0.834000       15.9994           0
     23444 W2       7815     TIP3     H1       HT       0.417000       1.00800           0
     23445 W2       7815     TIP3     H2       HT       0.417000       1.00800           0
     23446 W2       7816     TIP3     OH2      OT      -0.834000       15.9994           0
     23447 W2       7816     TIP3     H1       HT       0.417000       1.00800           0
     23448 W2       7816     TIP3     H2       HT       0.417000       1.00800           0
     23449 W2       7817     TIP3     OH2      OT      -0.834000       15.9994           0
     23450 W2       7817     TIP3     H1       HT       0.417000       1.00800           0
     23451 W2       7817     TIP3     H2       HT       0.417000       1.00800           0
     23452 W2       7818     TIP3     OH2      OT      -0.834000       15.9994           0
     23453 W2       7818     TIP3     H1       HT       0.417000       1.00800           0
     23454 W2       7818     TIP3     H2       HT       0.417000       1.00800           0
     23455 W2       7819     TIP3     OH2      OT      -0.834000       15.9994           0
     23456 W2       7819     TIP3     H1       HT       0.417000       1.00800           0
     23457 W2       7819     TIP3     H2       HT       0.417000       1.00800           0
     23458 W2       7820     TIP3     OH2      OT      -0.834000       15.9994           0
     23459 W2       7820     TIP3     H1       HT       0.417000       1.00800           0
     23460 W2       7820     TIP3     H2       HT       0.417000       1.00800           0
     23461 W2       7821     TIP3     OH2      OT      -0.834000       15.9994           0
     23462 W2       7821     TIP3     H1       HT       0.417000       1.00800           0
     23463 W2       7821     TIP3     H2       HT       0.417000       1.00800           0
     23464 W2       7822     TIP3     OH2      OT      -0.834000       15.9994           0
     23465 W2       7822     TIP3     H1       HT       0.417000       1.00800           0
     23466 W2       7822     TIP3     H2       HT       0.417000       1.00800           0
     23467 W2       7823     TIP3     OH2      OT      -0.834000       15.9994           0
     23468 W2       7823     TIP3     H1       HT       0.417000       1.00800           0
     23469 W2       7823     TIP3     H2       HT       0.417000       1.00800           0
     23470 W2       7824     TIP3     OH2      OT      -0.834000       15.9994           0
     23471 W2       7824     TIP3     H1       HT       0.417000       1.00800           0
     23472 W2       7824     TIP3     H2       HT       0.417000       1.00800           0
     23473 W2       7825     TIP3     OH2      OT      -0.834000       15.9994           0
     23474 W2       7825     TIP3     H1       HT       0.417000       1.00800           0
     23475 W2       7825     TIP3     H2       HT       0.417000       1.00800           0
     23476 W2       7826     TIP3     OH2      OT      -0.834000       15.9994           0
     23477 W2       7826     TIP3     H1       HT       0.417000       1.00800           0
     23478 W2       7826     TIP3     H2       HT       0.417000       1.00800           0
     23479 W2       7827     TIP3     OH2      OT      -0.834000       15.9994           0
     23480 W2       7827     TIP3     H1       HT       0.417000       1.00800           0
     23481 W2       7827     TIP3     H2       HT       0.417000       1.00800           0
     23482 W2       7828     TIP3     OH2      OT      -0.834000       15.9994           0
     23483 W2       7828     TIP3     H1       HT       0.417000       1.00800           0
     23484 W2       7828     TIP3     H2       HT       0.417000       1.00800           0
     23485 W2       7829     TIP3     OH2      OT      -0.834000       15.9994           0
     23486 W2       7829     TIP3     H1       HT       0.417000       1.00800           0
     23487 W2       7829     TIP3     H2       HT       0.417000       1.00800           0
     23488 W2       7830     TIP3     OH2      OT      -0.834000       15.9994           0
     23489 W2       7830     TIP3     H1       HT       0.417000       1.00800           0
     23490 W2       7830     TIP3     H2       HT       0.417000       1.00800           0
     23491 W2       7831     TIP3     OH2      OT      -0.834000       15.9994           0
     23492 W2       7831     TIP3     H1       HT       0.417000       1.00800           0
     23493 W2       7831     TIP3     H2       HT       0.417000       1.00800           0
     23494 W2       7832     TIP3     OH2      OT      -0.834000       15.9994           0
     23495 W2       7832     TIP3     H1       HT       0.417000       1.00800           0
     23496 W2       7832     TIP3     H2       HT       0.417000       1.00800           0
     23497 W2       7833     TIP3     OH2      OT      -0.834000       15.9994           0
     23498 W2       7833     TIP3     H1       HT       0.417000       1.00800           0
     23499 W2       7833     TIP3     H2       HT       0.417000       1.00800           0
     23500 W2       7834     TIP3     OH2      OT      -0.834000       15.9994           0
     23501 W2       7834     TIP3     H1       HT       0.417000       1.00800           0
     23502 W2       7834     TIP3     H2       HT       0.417000       1.00800           0
     23503 W2       7835     TIP3     OH2      OT      -0.834000       15.9994           0
     23504 W2       7835     TIP3     H1       HT       0.417000       1.00800           0
     23505 W2       7835     TIP3     H2       HT       0.417000       1.00800           0
     23506 W2       7836     TIP3     OH2      OT      -0.834000       15.9994           0
     23507 W2       7836     TIP3     H1       HT       0.417000       1.00800           0
     23508 W2       7836     TIP3     H2       HT       0.417000       1.00800           0
     23509 W2       7837     TIP3     OH2      OT      -0.834000       15.9994           0
     23510 W2       7837     TIP3     H1       HT       0.417000       1.00800           0
     23511 W2       7837     TIP3     H2       HT       0.417000       1.00800           0
     23512 W2       7838     TIP3     OH2      OT      -0.834000       15.9994           0
     23513 W2       7838     TIP3     H1       HT       0.417000       1.00800           0
     23514 W2       7838     TIP3     H2       HT       0.417000       1.00800           0
     23515 W2       7839     TIP3     OH2      OT      -0.834000       15.9994           0
     23516 W2       7839     TIP3     H1       HT       0.417000       1.00800           0
     23517 W2       7839     TIP3     H2       HT       0.417000       1.00800           0
     23518 W2       7840     TIP3     OH2      OT      -0.834000       15.9994           0
     23519 W2       7840     TIP3     H1       HT       0.417000       1.00800           0
     23520 W2       7840     TIP3     H2       HT       0.417000       1.00800           0
     23521 W2       7841     TIP3     OH2      OT      -0.834000       15.9994           0
     23522 W2       7841     TIP3     H1       HT       0.417000       1.00800           0
     23523 W2       7841     TIP3     H2       HT       0.417000       1.00800           0
     23524 W2       7842     TIP3     OH2      OT      -0.834000       15.9994           0
     23525 W2       7842     TIP3     H1       HT       0.417000       1.00800           0
     23526 W2       7842     TIP3     H2       HT       0.417000       1.00800           0
     23527 W2       7843     TIP3     OH2      OT      -0.834000       15.9994           0
     23528 W2       7843     TIP3     H1       HT       0.417000       1.00800           0
     23529 W2       7843     TIP3     H2       HT       0.417000       1.00800           0
     23530 W2       7844     TIP3     OH2      OT      -0.834000       15.9994           0
     23531 W2       7844     TIP3     H1       HT       0.417000       1.00800           0
     23532 W2       7844     TIP3     H2       HT       0.417000       1.00800           0
     23533 W2       7845     TIP3     OH2      OT      -0.834000       15.9994           0
     23534 W2       7845     TIP3     H1       HT       0.417000       1.00800           0
     23535 W2       7845     TIP3     H2       HT       0.417000       1.00800           0
     23536 W2       7846     TIP3     OH2      OT      -0.834000       15.9994           0
     23537 W2       7846     TIP3     H1       HT       0.417000       1.00800           0
     23538 W2       7846     TIP3     H2       HT       0.417000       1.00800           0
     23539 W2       7847     TIP3     OH2      OT      -0.834000       15.9994           0
     23540 W2       7847     TIP3     H1       HT       0.417000       1.00800           0
     23541 W2       7847     TIP3     H2       HT       0.417000       1.00800           0
     23542 W2       7848     TIP3     OH2      OT      -0.834000       15.9994           0
     23543 W2       7848     TIP3     H1       HT       0.417000       1.00800           0
     23544 W2       7848     TIP3     H2       HT       0.417000       1.00800           0
     23545 W2       7849     TIP3     OH2      OT      -0.834000       15.9994           0
     23546 W2       7849     TIP3     H1       HT       0.417000       1.00800           0
     23547 W2       7849     TIP3     H2       HT       0.417000       1.00800           0
     23548 W2       7850     TIP3     OH2      OT      -0.834000       15.9994           0
     23549 W2       7850     TIP3     H1       HT       0.417000       1.00800           0
     23550 W2       7850     TIP3     H2       HT       0.417000       1.00800           0
     23551 W2       7851     TIP3     OH2      OT      -0.834000       15.9994           0
     23552 W2       7851     TIP3     H1       HT       0.417000       1.00800           0
     23553 W2       7851     TIP3     H2       HT       0.417000       1.00800           0
     23554 W2       7852     TIP3     OH2      OT      -0.834000       15.9994           0
     23555 W2       7852     TIP3     H1       HT       0.417000       1.00800           0
     23556 W2       7852     TIP3     H2       HT       0.417000       1.00800           0
     23557 W2       7853     TIP3     OH2      OT      -0.834000       15.9994           0
     23558 W2       7853     TIP3     H1       HT       0.417000       1.00800           0
     23559 W2       7853     TIP3     H2       HT       0.417000       1.00800           0
     23560 W2       7854     TIP3     OH2      OT      -0.834000       15.9994           0
     23561 W2       7854     TIP3     H1       HT       0.417000       1.00800           0
     23562 W2       7854     TIP3     H2       HT       0.417000       1.00800           0
     23563 W2       7855     TIP3     OH2      OT      -0.834000       15.9994           0
     23564 W2       7855     TIP3     H1       HT       0.417000       1.00800           0
     23565 W2       7855     TIP3     H2       HT       0.417000       1.00800           0
     23566 W2       7856     TIP3     OH2      OT      -0.834000       15.9994           0
     23567 W2       7856     TIP3     H1       HT       0.417000       1.00800           0
     23568 W2       7856     TIP3     H2       HT       0.417000       1.00800           0
     23569 W2       7857     TIP3     OH2      OT      -0.834000       15.9994           0
     23570 W2       7857     TIP3     H1       HT       0.417000       1.00800           0
     23571 W2       7857     TIP3     H2       HT       0.417000       1.00800           0
     23572 W2       7858     TIP3     OH2      OT      -0.834000       15.9994           0
     23573 W2       7858     TIP3     H1       HT       0.417000       1.00800           0
     23574 W2       7858     TIP3     H2       HT       0.417000       1.00800           0
     23575 W2       7859     TIP3     OH2      OT      -0.834000       15.9994           0
     23576 W2       7859     TIP3     H1       HT       0.417000       1.00800           0
     23577 W2       7859     TIP3     H2       HT       0.417000       1.00800           0
     23578 W2       7860     TIP3     OH2      OT      -0.834000       15.9994           0
     23579 W2       7860     TIP3     H1       HT       0.417000       1.00800           0
     23580 W2       7860     TIP3     H2       HT       0.417000       1.00800           0
     23581 W2       7861     TIP3     OH2      OT      -0.834000       15.9994           0
     23582 W2       7861     TIP3     H1       HT       0.417000       1.00800           0
     23583 W2       7861     TIP3     H2       HT       0.417000       1.00800           0
     23584 W2       7862     TIP3     OH2      OT      -0.834000       15.9994           0
     23585 W2       7862     TIP3     H1       HT       0.417000       1.00800           0
     23586 W2       7862     TIP3     H2       HT       0.417000       1.00800           0
     23587 W2       7863     TIP3     OH2      OT      -0.834000       15.9994           0
     23588 W2       7863     TIP3     H1       HT       0.417000       1.00800           0
     23589 W2       7863     TIP3     H2       HT       0.417000       1.00800           0
     23590 W2       7864     TIP3     OH2      OT      -0.834000       15.9994           0
     23591 W2       7864     TIP3     H1       HT       0.417000       1.00800           0
     23592 W2       7864     TIP3     H2       HT       0.417000       1.00800           0
     23593 W2       7865     TIP3     OH2      OT      -0.834000       15.9994           0
     23594 W2       7865     TIP3     H1       HT       0.417000       1.00800           0
     23595 W2       7865     TIP3     H2       HT       0.417000       1.00800           0
     23596 W2       7866     TIP3     OH2      OT      -0.834000       15.9994           0
     23597 W2       7866     TIP3     H1       HT       0.417000       1.00800           0
     23598 W2       7866     TIP3     H2       HT       0.417000       1.00800           0
     23599 W2       7867     TIP3     OH2      OT      -0.834000       15.9994           0
     23600 W2       7867     TIP3     H1       HT       0.417000       1.00800           0
     23601 W2       7867     TIP3     H2       HT       0.417000       1.00800           0
     23602 W2       7868     TIP3     OH2      OT      -0.834000       15.9994           0
     23603 W2       7868     TIP3     H1       HT       0.417000       1.00800           0
     23604 W2       7868     TIP3     H2       HT       0.417000       1.00800           0
     23605 W2       7869     TIP3     OH2      OT      -0.834000       15.9994           0
     23606 W2       7869     TIP3     H1       HT       0.417000       1.00800           0
     23607 W2       7869     TIP3     H2       HT       0.417000       1.00800           0
     23608 W2       7870     TIP3     OH2      OT      -0.834000       15.9994           0
     23609 W2       7870     TIP3     H1       HT       0.417000       1.00800           0
     23610 W2       7870     TIP3     H2       HT       0.417000       1.00800           0
     23611 W2       7871     TIP3     OH2      OT      -0.834000       15.9994           0
     23612 W2       7871     TIP3     H1       HT       0.417000       1.00800           0
     23613 W2       7871     TIP3     H2       HT       0.417000       1.00800           0
     23614 W2       7872     TIP3     OH2      OT      -0.834000       15.9994           0
     23615 W2       7872     TIP3     H1       HT       0.417000       1.00800           0
     23616 W2       7872     TIP3     H2       HT       0.417000       1.00800           0
     23617 W2       7873     TIP3     OH2      OT      -0.834000       15.9994           0
     23618 W2       7873     TIP3     H1       HT       0.417000       1.00800           0
     23619 W2       7873     TIP3     H2       HT       0.417000       1.00800           0
     23620 W2       7874     TIP3     OH2      OT      -0.834000       15.9994           0
     23621 W2       7874     TIP3     H1       HT       0.417000       1.00800           0
     23622 W2       7874     TIP3     H2       HT       0.417000       1.00800           0
     23623 W2       7875     TIP3     OH2      OT      -0.834000       15.9994           0
     23624 W2       7875     TIP3     H1       HT       0.417000       1.00800           0
     23625 W2       7875     TIP3     H2       HT       0.417000       1.00800           0
     23626 W2       7876     TIP3     OH2      OT      -0.834000       15.9994           0
     23627 W2       7876     TIP3     H1       HT       0.417000       1.00800           0
     23628 W2       7876     TIP3     H2       HT       0.417000       1.00800           0
     23629 W2       7877     TIP3     OH2      OT      -0.834000       15.9994           0
     23630 W2       7877     TIP3     H1       HT       0.417000       1.00800           0
     23631 W2       7877     TIP3     H2       HT       0.417000       1.00800           0
     23632 W2       7878     TIP3     OH2      OT      -0.834000       15.9994           0
     23633 W2       7878     TIP3     H1       HT       0.417000       1.00800           0
     23634 W2       7878     TIP3     H2       HT       0.417000       1.00800           0
     23635 W2       7879     TIP3     OH2      OT      -0.834000       15.9994           0
     23636 W2       7879     TIP3     H1       HT       0.417000       1.00800           0
     23637 W2       7879     TIP3     H2       HT       0.417000       1.00800           0
     23638 W2       7880     TIP3     OH2      OT      -0.834000       15.9994           0
     23639 W2       7880     TIP3     H1       HT       0.417000       1.00800           0
     23640 W2       7880     TIP3     H2       HT       0.417000       1.00800           0
     23641 W2       7881     TIP3     OH2      OT      -0.834000       15.9994           0
     23642 W2       7881     TIP3     H1       HT       0.417000       1.00800           0
     23643 W2       7881     TIP3     H2       HT       0.417000       1.00800           0
     23644 W2       7882     TIP3     OH2      OT      -0.834000       15.9994           0
     23645 W2       7882     TIP3     H1       HT       0.417000       1.00800           0
     23646 W2       7882     TIP3     H2       HT       0.417000       1.00800           0
     23647 W2       7883     TIP3     OH2      OT      -0.834000       15.9994           0
     23648 W2       7883     TIP3     H1       HT       0.417000       1.00800           0
     23649 W2       7883     TIP3     H2       HT       0.417000       1.00800           0
     23650 W2       7884     TIP3     OH2      OT      -0.834000       15.9994           0
     23651 W2       7884     TIP3     H1       HT       0.417000       1.00800           0
     23652 W2       7884     TIP3     H2       HT       0.417000       1.00800           0
     23653 W2       7885     TIP3     OH2      OT      -0.834000       15.9994           0
     23654 W2       7885     TIP3     H1       HT       0.417000       1.00800           0
     23655 W2       7885     TIP3     H2       HT       0.417000       1.00800           0
     23656 W2       7886     TIP3     OH2      OT      -0.834000       15.9994           0
     23657 W2       7886     TIP3     H1       HT       0.417000       1.00800           0
     23658 W2       7886     TIP3     H2       HT       0.417000       1.00800           0
     23659 W2       7887     TIP3     OH2      OT      -0.834000       15.9994           0
     23660 W2       7887     TIP3     H1       HT       0.417000       1.00800           0
     23661 W2       7887     TIP3     H2       HT       0.417000       1.00800           0
     23662 W2       7888     TIP3     OH2      OT      -0.834000       15.9994           0
     23663 W2       7888     TIP3     H1       HT       0.417000       1.00800           0
     23664 W2       7888     TIP3     H2       HT       0.417000       1.00800           0
     23665 W2       7889     TIP3     OH2      OT      -0.834000       15.9994           0
     23666 W2       7889     TIP3     H1       HT       0.417000       1.00800           0
     23667 W2       7889     TIP3     H2       HT       0.417000       1.00800           0
     23668 W2       7890     TIP3     OH2      OT      -0.834000       15.9994           0
     23669 W2       7890     TIP3     H1       HT       0.417000       1.00800           0
     23670 W2       7890     TIP3     H2       HT       0.417000       1.00800           0
     23671 W2       7891     TIP3     OH2      OT      -0.834000       15.9994           0
     23672 W2       7891     TIP3     H1       HT       0.417000       1.00800           0
     23673 W2       7891     TIP3     H2       HT       0.417000       1.00800           0
     23674 W2       7892     TIP3     OH2      OT      -0.834000       15.9994           0
     23675 W2       7892     TIP3     H1       HT       0.417000       1.00800           0
     23676 W2       7892     TIP3     H2       HT       0.417000       1.00800           0
     23677 W2       7893     TIP3     OH2      OT      -0.834000       15.9994           0
     23678 W2       7893     TIP3     H1       HT       0.417000       1.00800           0
     23679 W2       7893     TIP3     H2       HT       0.417000       1.00800           0
     23680 W2       7894     TIP3     OH2      OT      -0.834000       15.9994           0
     23681 W2       7894     TIP3     H1       HT       0.417000       1.00800           0
     23682 W2       7894     TIP3     H2       HT       0.417000       1.00800           0
     23683 W2       7895     TIP3     OH2      OT      -0.834000       15.9994           0
     23684 W2       7895     TIP3     H1       HT       0.417000       1.00800           0
     23685 W2       7895     TIP3     H2       HT       0.417000       1.00800           0
     23686 W2       7896     TIP3     OH2      OT      -0.834000       15.9994           0
     23687 W2       7896     TIP3     H1       HT       0.417000       1.00800           0
     23688 W2       7896     TIP3     H2       HT       0.417000       1.00800           0
     23689 W2       7897     TIP3     OH2      OT      -0.834000       15.9994           0
     23690 W2       7897     TIP3     H1       HT       0.417000       1.00800           0
     23691 W2       7897     TIP3     H2       HT       0.417000       1.00800           0
     23692 W2       7898     TIP3     OH2      OT      -0.834000       15.9994           0
     23693 W2       7898     TIP3     H1       HT       0.417000       1.00800           0
     23694 W2       7898     TIP3     H2       HT       0.417000       1.00800           0
     23695 W2       7899     TIP3     OH2      OT      -0.834000       15.9994           0
     23696 W2       7899     TIP3     H1       HT       0.417000       1.00800           0
     23697 W2       7899     TIP3     H2       HT       0.417000       1.00800           0
     23698 W2       7900     TIP3     OH2      OT      -0.834000       15.9994           0
     23699 W2       7900     TIP3     H1       HT       0.417000       1.00800           0
     23700 W2       7900     TIP3     H2       HT       0.417000       1.00800           0
     23701 W2       7901     TIP3     OH2      OT      -0.834000       15.9994           0
     23702 W2       7901     TIP3     H1       HT       0.417000       1.00800           0
     23703 W2       7901     TIP3     H2       HT       0.417000       1.00800           0
     23704 W2       7902     TIP3     OH2      OT      -0.834000       15.9994           0
     23705 W2       7902     TIP3     H1       HT       0.417000       1.00800           0
     23706 W2       7902     TIP3     H2       HT       0.417000       1.00800           0
     23707 W2       7903     TIP3     OH2      OT      -0.834000       15.9994           0
     23708 W2       7903     TIP3     H1       HT       0.417000       1.00800           0
     23709 W2       7903     TIP3     H2       HT       0.417000       1.00800           0
     23710 W2       7904     TIP3     OH2      OT      -0.834000       15.9994           0
     23711 W2       7904     TIP3     H1       HT       0.417000       1.00800           0
     23712 W2       7904     TIP3     H2       HT       0.417000       1.00800           0
     23713 W2       7905     TIP3     OH2      OT      -0.834000       15.9994           0
     23714 W2       7905     TIP3     H1       HT       0.417000       1.00800           0
     23715 W2       7905     TIP3     H2       HT       0.417000       1.00800           0
     23716 W2       7906     TIP3     OH2      OT      -0.834000       15.9994           0
     23717 W2       7906     TIP3     H1       HT       0.417000       1.00800           0
     23718 W2       7906     TIP3     H2       HT       0.417000       1.00800           0
     23719 W2       7907     TIP3     OH2      OT      -0.834000       15.9994           0
     23720 W2       7907     TIP3     H1       HT       0.417000       1.00800           0
     23721 W2       7907     TIP3     H2       HT       0.417000       1.00800           0
     23722 W2       7908     TIP3     OH2      OT      -0.834000       15.9994           0
     23723 W2       7908     TIP3     H1       HT       0.417000       1.00800           0
     23724 W2       7908     TIP3     H2       HT       0.417000       1.00800           0
     23725 W2       7909     TIP3     OH2      OT      -0.834000       15.9994           0
     23726 W2       7909     TIP3     H1       HT       0.417000       1.00800           0
     23727 W2       7909     TIP3     H2       HT       0.417000       1.00800           0
     23728 W2       7910     TIP3     OH2      OT      -0.834000       15.9994           0
     23729 W2       7910     TIP3     H1       HT       0.417000       1.00800           0
     23730 W2       7910     TIP3     H2       HT       0.417000       1.00800           0
     23731 W2       7911     TIP3     OH2      OT      -0.834000       15.9994           0
     23732 W2       7911     TIP3     H1       HT       0.417000       1.00800           0
     23733 W2       7911     TIP3     H2       HT       0.417000       1.00800           0
     23734 W2       7912     TIP3     OH2      OT      -0.834000       15.9994           0
     23735 W2       7912     TIP3     H1       HT       0.417000       1.00800           0
     23736 W2       7912     TIP3     H2       HT       0.417000       1.00800           0
     23737 W2       7913     TIP3     OH2      OT      -0.834000       15.9994           0
     23738 W2       7913     TIP3     H1       HT       0.417000       1.00800           0
     23739 W2       7913     TIP3     H2       HT       0.417000       1.00800           0
     23740 W2       7914     TIP3     OH2      OT      -0.834000       15.9994           0
     23741 W2       7914     TIP3     H1       HT       0.417000       1.00800           0
     23742 W2       7914     TIP3     H2       HT       0.417000       1.00800           0
     23743 W2       7915     TIP3     OH2      OT      -0.834000       15.9994           0
     23744 W2       7915     TIP3     H1       HT       0.417000       1.00800           0
     23745 W2       7915     TIP3     H2       HT       0.417000       1.00800           0
     23746 W2       7916     TIP3     OH2      OT      -0.834000       15.9994           0
     23747 W2       7916     TIP3     H1       HT       0.417000       1.00800           0
     23748 W2       7916     TIP3     H2       HT       0.417000       1.00800           0
     23749 W2       7917     TIP3     OH2      OT      -0.834000       15.9994           0
     23750 W2       7917     TIP3     H1       HT       0.417000       1.00800           0
     23751 W2       7917     TIP3     H2       HT       0.417000       1.00800           0
     23752 W2       7918     TIP3     OH2      OT      -0.834000       15.9994           0
     23753 W2       7918     TIP3     H1       HT       0.417000       1.00800           0
     23754 W2       7918     TIP3     H2       HT       0.417000       1.00800           0
     23755 W2       7919     TIP3     OH2      OT      -0.834000       15.9994           0
     23756 W2       7919     TIP3     H1       HT       0.417000       1.00800           0
     23757 W2       7919     TIP3     H2       HT       0.417000       1.00800           0
     23758 W2       7920     TIP3     OH2      OT      -0.834000       15.9994           0
     23759 W2       7920     TIP3     H1       HT       0.417000       1.00800           0
     23760 W2       7920     TIP3     H2       HT       0.417000       1.00800           0
     23761 W2       7921     TIP3     OH2      OT      -0.834000       15.9994           0
     23762 W2       7921     TIP3     H1       HT       0.417000       1.00800           0
     23763 W2       7921     TIP3     H2       HT       0.417000       1.00800           0
     23764 W2       7922     TIP3     OH2      OT      -0.834000       15.9994           0
     23765 W2       7922     TIP3     H1       HT       0.417000       1.00800           0
     23766 W2       7922     TIP3     H2       HT       0.417000       1.00800           0
     23767 W2       7923     TIP3     OH2      OT      -0.834000       15.9994           0
     23768 W2       7923     TIP3     H1       HT       0.417000       1.00800           0
     23769 W2       7923     TIP3     H2       HT       0.417000       1.00800           0
     23770 W2       7924     TIP3     OH2      OT      -0.834000       15.9994           0
     23771 W2       7924     TIP3     H1       HT       0.417000       1.00800           0
     23772 W2       7924     TIP3     H2       HT       0.417000       1.00800           0
     23773 W2       7925     TIP3     OH2      OT      -0.834000       15.9994           0
     23774 W2       7925     TIP3     H1       HT       0.417000       1.00800           0
     23775 W2       7925     TIP3     H2       HT       0.417000       1.00800           0
     23776 W2       7926     TIP3     OH2      OT      -0.834000       15.9994           0
     23777 W2       7926     TIP3     H1       HT       0.417000       1.00800           0
     23778 W2       7926     TIP3     H2       HT       0.417000       1.00800           0
     23779 W2       7927     TIP3     OH2      OT      -0.834000       15.9994           0
     23780 W2       7927     TIP3     H1       HT       0.417000       1.00800           0
     23781 W2       7927     TIP3     H2       HT       0.417000       1.00800           0
     23782 W2       7928     TIP3     OH2      OT      -0.834000       15.9994           0
     23783 W2       7928     TIP3     H1       HT       0.417000       1.00800           0
     23784 W2       7928     TIP3     H2       HT       0.417000       1.00800           0
     23785 W2       7929     TIP3     OH2      OT      -0.834000       15.9994           0
     23786 W2       7929     TIP3     H1       HT       0.417000       1.00800           0
     23787 W2       7929     TIP3     H2       HT       0.417000       1.00800           0
     23788 W2       7930     TIP3     OH2      OT      -0.834000       15.9994           0
     23789 W2       7930     TIP3     H1       HT       0.417000       1.00800           0
     23790 W2       7930     TIP3     H2       HT       0.417000       1.00800           0
     23791 W2       7931     TIP3     OH2      OT      -0.834000       15.9994           0
     23792 W2       7931     TIP3     H1       HT       0.417000       1.00800           0
     23793 W2       7931     TIP3     H2       HT       0.417000       1.00800           0
     23794 W2       7932     TIP3     OH2      OT      -0.834000       15.9994           0
     23795 W2       7932     TIP3     H1       HT       0.417000       1.00800           0
     23796 W2       7932     TIP3     H2       HT       0.417000       1.00800           0
     23797 W2       7933     TIP3     OH2      OT      -0.834000       15.9994           0
     23798 W2       7933     TIP3     H1       HT       0.417000       1.00800           0
     23799 W2       7933     TIP3     H2       HT       0.417000       1.00800           0
     23800 W2       7934     TIP3     OH2      OT      -0.834000       15.9994           0
     23801 W2       7934     TIP3     H1       HT       0.417000       1.00800           0
     23802 W2       7934     TIP3     H2       HT       0.417000       1.00800           0
     23803 W2       7935     TIP3     OH2      OT      -0.834000       15.9994           0
     23804 W2       7935     TIP3     H1       HT       0.417000       1.00800           0
     23805 W2       7935     TIP3     H2       HT       0.417000       1.00800           0
     23806 W2       7936     TIP3     OH2      OT      -0.834000       15.9994           0
     23807 W2       7936     TIP3     H1       HT       0.417000       1.00800           0
     23808 W2       7936     TIP3     H2       HT       0.417000       1.00800           0
     23809 W2       7937     TIP3     OH2      OT      -0.834000       15.9994           0
     23810 W2       7937     TIP3     H1       HT       0.417000       1.00800           0
     23811 W2       7937     TIP3     H2       HT       0.417000       1.00800           0
     23812 W2       7938     TIP3     OH2      OT      -0.834000       15.9994           0
     23813 W2       7938     TIP3     H1       HT       0.417000       1.00800           0
     23814 W2       7938     TIP3     H2       HT       0.417000       1.00800           0
     23815 W2       7939     TIP3     OH2      OT      -0.834000       15.9994           0
     23816 W2       7939     TIP3     H1       HT       0.417000       1.00800           0
     23817 W2       7939     TIP3     H2       HT       0.417000       1.00800           0
     23818 W2       7940     TIP3     OH2      OT      -0.834000       15.9994           0
     23819 W2       7940     TIP3     H1       HT       0.417000       1.00800           0
     23820 W2       7940     TIP3     H2       HT       0.417000       1.00800           0
     23821 W2       7941     TIP3     OH2      OT      -0.834000       15.9994           0
     23822 W2       7941     TIP3     H1       HT       0.417000       1.00800           0
     23823 W2       7941     TIP3     H2       HT       0.417000       1.00800           0
     23824 W2       7942     TIP3     OH2      OT      -0.834000       15.9994           0
     23825 W2       7942     TIP3     H1       HT       0.417000       1.00800           0
     23826 W2       7942     TIP3     H2       HT       0.417000       1.00800           0
     23827 W2       7943     TIP3     OH2      OT      -0.834000       15.9994           0
     23828 W2       7943     TIP3     H1       HT       0.417000       1.00800           0
     23829 W2       7943     TIP3     H2       HT       0.417000       1.00800           0
     23830 W2       7944     TIP3     OH2      OT      -0.834000       15.9994           0
     23831 W2       7944     TIP3     H1       HT       0.417000       1.00800           0
     23832 W2       7944     TIP3     H2       HT       0.417000       1.00800           0
     23833 W2       7945     TIP3     OH2      OT      -0.834000       15.9994           0
     23834 W2       7945     TIP3     H1       HT       0.417000       1.00800           0
     23835 W2       7945     TIP3     H2       HT       0.417000       1.00800           0
     23836 W2       7946     TIP3     OH2      OT      -0.834000       15.9994           0
     23837 W2       7946     TIP3     H1       HT       0.417000       1.00800           0
     23838 W2       7946     TIP3     H2       HT       0.417000       1.00800           0
     23839 W2       7947     TIP3     OH2      OT      -0.834000       15.9994           0
     23840 W2       7947     TIP3     H1       HT       0.417000       1.00800           0
     23841 W2       7947     TIP3     H2       HT       0.417000       1.00800           0
     23842 W2       7948     TIP3     OH2      OT      -0.834000       15.9994           0
     23843 W2       7948     TIP3     H1       HT       0.417000       1.00800           0
     23844 W2       7948     TIP3     H2       HT       0.417000       1.00800           0
     23845 W2       7949     TIP3     OH2      OT      -0.834000       15.9994           0
     23846 W2       7949     TIP3     H1       HT       0.417000       1.00800           0
     23847 W2       7949     TIP3     H2       HT       0.417000       1.00800           0
     23848 W2       7950     TIP3     OH2      OT      -0.834000       15.9994           0
     23849 W2       7950     TIP3     H1       HT       0.417000       1.00800           0
     23850 W2       7950     TIP3     H2       HT       0.417000       1.00800           0
     23851 W2       7951     TIP3     OH2      OT      -0.834000       15.9994           0
     23852 W2       7951     TIP3     H1       HT       0.417000       1.00800           0
     23853 W2       7951     TIP3     H2       HT       0.417000       1.00800           0
     23854 W2       7952     TIP3     OH2      OT      -0.834000       15.9994           0
     23855 W2       7952     TIP3     H1       HT       0.417000       1.00800           0
     23856 W2       7952     TIP3     H2       HT       0.417000       1.00800           0
     23857 W2       7953     TIP3     OH2      OT      -0.834000       15.9994           0
     23858 W2       7953     TIP3     H1       HT       0.417000       1.00800           0
     23859 W2       7953     TIP3     H2       HT       0.417000       1.00800           0
     23860 W2       7954     TIP3     OH2      OT      -0.834000       15.9994           0
     23861 W2       7954     TIP3     H1       HT       0.417000       1.00800           0
     23862 W2       7954     TIP3     H2       HT       0.417000       1.00800           0
     23863 W2       7955     TIP3     OH2      OT      -0.834000       15.9994           0
     23864 W2       7955     TIP3     H1       HT       0.417000       1.00800           0
     23865 W2       7955     TIP3     H2       HT       0.417000       1.00800           0
     23866 W2       7956     TIP3     OH2      OT      -0.834000       15.9994           0
     23867 W2       7956     TIP3     H1       HT       0.417000       1.00800           0
     23868 W2       7956     TIP3     H2       HT       0.417000       1.00800           0
     23869 W2       7957     TIP3     OH2      OT      -0.834000       15.9994           0
     23870 W2       7957     TIP3     H1       HT       0.417000       1.00800           0
     23871 W2       7957     TIP3     H2       HT       0.417000       1.00800           0
     23872 W2       7958     TIP3     OH2      OT      -0.834000       15.9994           0
     23873 W2       7958     TIP3     H1       HT       0.417000       1.00800           0
     23874 W2       7958     TIP3     H2       HT       0.417000       1.00800           0
     23875 W2       7959     TIP3     OH2      OT      -0.834000       15.9994           0
     23876 W2       7959     TIP3     H1       HT       0.417000       1.00800           0
     23877 W2       7959     TIP3     H2       HT       0.417000       1.00800           0
     23878 W2       7960     TIP3     OH2      OT      -0.834000       15.9994           0
     23879 W2       7960     TIP3     H1       HT       0.417000       1.00800           0
     23880 W2       7960     TIP3     H2       HT       0.417000       1.00800           0
     23881 W2       7961     TIP3     OH2      OT      -0.834000       15.9994           0
     23882 W2       7961     TIP3     H1       HT       0.417000       1.00800           0
     23883 W2       7961     TIP3     H2       HT       0.417000       1.00800           0
     23884 W2       7962     TIP3     OH2      OT      -0.834000       15.9994           0
     23885 W2       7962     TIP3     H1       HT       0.417000       1.00800           0
     23886 W2       7962     TIP3     H2       HT       0.417000       1.00800           0
     23887 W2       7963     TIP3     OH2      OT      -0.834000       15.9994           0
     23888 W2       7963     TIP3     H1       HT       0.417000       1.00800           0
     23889 W2       7963     TIP3     H2       HT       0.417000       1.00800           0
     23890 W2       7964     TIP3     OH2      OT      -0.834000       15.9994           0
     23891 W2       7964     TIP3     H1       HT       0.417000       1.00800           0
     23892 W2       7964     TIP3     H2       HT       0.417000       1.00800           0
     23893 W2       7965     TIP3     OH2      OT      -0.834000       15.9994           0
     23894 W2       7965     TIP3     H1       HT       0.417000       1.00800           0
     23895 W2       7965     TIP3     H2       HT       0.417000       1.00800           0
     23896 W2       7966     TIP3     OH2      OT      -0.834000       15.9994           0
     23897 W2       7966     TIP3     H1       HT       0.417000       1.00800           0
     23898 W2       7966     TIP3     H2       HT       0.417000       1.00800           0
     23899 W2       7967     TIP3     OH2      OT      -0.834000       15.9994           0
     23900 W2       7967     TIP3     H1       HT       0.417000       1.00800           0
     23901 W2       7967     TIP3     H2       HT       0.417000       1.00800           0
     23902 W2       7968     TIP3     OH2      OT      -0.834000       15.9994           0
     23903 W2       7968     TIP3     H1       HT       0.417000       1.00800           0
     23904 W2       7968     TIP3     H2       HT       0.417000       1.00800           0
     23905 W2       7969     TIP3     OH2      OT      -0.834000       15.9994           0
     23906 W2       7969     TIP3     H1       HT       0.417000       1.00800           0
     23907 W2       7969     TIP3     H2       HT       0.417000       1.00800           0
     23908 W2       7970     TIP3     OH2      OT      -0.834000       15.9994           0
     23909 W2       7970     TIP3     H1       HT       0.417000       1.00800           0
     23910 W2       7970     TIP3     H2       HT       0.417000       1.00800           0
     23911 W2       7971     TIP3     OH2      OT      -0.834000       15.9994           0
     23912 W2       7971     TIP3     H1       HT       0.417000       1.00800           0
     23913 W2       7971     TIP3     H2       HT       0.417000       1.00800           0
     23914 W2       7972     TIP3     OH2      OT      -0.834000       15.9994           0
     23915 W2       7972     TIP3     H1       HT       0.417000       1.00800           0
     23916 W2       7972     TIP3     H2       HT       0.417000       1.00800           0
     23917 W2       7973     TIP3     OH2      OT      -0.834000       15.9994           0
     23918 W2       7973     TIP3     H1       HT       0.417000       1.00800           0
     23919 W2       7973     TIP3     H2       HT       0.417000       1.00800           0
     23920 W2       7974     TIP3     OH2      OT      -0.834000       15.9994           0
     23921 W2       7974     TIP3     H1       HT       0.417000       1.00800           0
     23922 W2       7974     TIP3     H2       HT       0.417000       1.00800           0
     23923 W2       7975     TIP3     OH2      OT      -0.834000       15.9994           0
     23924 W2       7975     TIP3     H1       HT       0.417000       1.00800           0
     23925 W2       7975     TIP3     H2       HT       0.417000       1.00800           0
     23926 W2       7976     TIP3     OH2      OT      -0.834000       15.9994           0
     23927 W2       7976     TIP3     H1       HT       0.417000       1.00800           0
     23928 W2       7976     TIP3     H2       HT       0.417000       1.00800           0
     23929 W2       7977     TIP3     OH2      OT      -0.834000       15.9994           0
     23930 W2       7977     TIP3     H1       HT       0.417000       1.00800           0
     23931 W2       7977     TIP3     H2       HT       0.417000       1.00800           0
     23932 W2       7978     TIP3     OH2      OT      -0.834000       15.9994           0
     23933 W2       7978     TIP3     H1       HT       0.417000       1.00800           0
     23934 W2       7978     TIP3     H2       HT       0.417000       1.00800           0
     23935 W2       7979     TIP3     OH2      OT      -0.834000       15.9994           0
     23936 W2       7979     TIP3     H1       HT       0.417000       1.00800           0
     23937 W2       7979     TIP3     H2       HT       0.417000       1.00800           0
     23938 W2       7980     TIP3     OH2      OT      -0.834000       15.9994           0
     23939 W2       7980     TIP3     H1       HT       0.417000       1.00800           0
     23940 W2       7980     TIP3     H2       HT       0.417000       1.00800           0
     23941 W2       7981     TIP3     OH2      OT      -0.834000       15.9994           0
     23942 W2       7981     TIP3     H1       HT       0.417000       1.00800           0
     23943 W2       7981     TIP3     H2       HT       0.417000       1.00800           0
     23944 W2       7982     TIP3     OH2      OT      -0.834000       15.9994           0
     23945 W2       7982     TIP3     H1       HT       0.417000       1.00800           0
     23946 W2       7982     TIP3     H2       HT       0.417000       1.00800           0
     23947 W2       7983     TIP3     OH2      OT      -0.834000       15.9994           0
     23948 W2       7983     TIP3     H1       HT       0.417000       1.00800           0
     23949 W2       7983     TIP3     H2       HT       0.417000       1.00800           0
     23950 W2       7984     TIP3     OH2      OT      -0.834000       15.9994           0
     23951 W2       7984     TIP3     H1       HT       0.417000       1.00800           0
     23952 W2       7984     TIP3     H2       HT       0.417000       1.00800           0
     23953 W2       7985     TIP3     OH2      OT      -0.834000       15.9994           0
     23954 W2       7985     TIP3     H1       HT       0.417000       1.00800           0
     23955 W2       7985     TIP3     H2       HT       0.417000       1.00800           0
     23956 W2       7986     TIP3     OH2      OT      -0.834000       15.9994           0
     23957 W2       7986     TIP3     H1       HT       0.417000       1.00800           0
     23958 W2       7986     TIP3     H2       HT       0.417000       1.00800           0
     23959 W2       7987     TIP3     OH2      OT      -0.834000       15.9994           0
     23960 W2       7987     TIP3     H1       HT       0.417000       1.00800           0
     23961 W2       7987     TIP3     H2       HT       0.417000       1.00800           0
     23962 W2       7988     TIP3     OH2      OT      -0.834000       15.9994           0
     23963 W2       7988     TIP3     H1       HT       0.417000       1.00800           0
     23964 W2       7988     TIP3     H2       HT       0.417000       1.00800           0
     23965 W2       7989     TIP3     OH2      OT      -0.834000       15.9994           0
     23966 W2       7989     TIP3     H1       HT       0.417000       1.00800           0
     23967 W2       7989     TIP3     H2       HT       0.417000       1.00800           0
     23968 W2       7990     TIP3     OH2      OT      -0.834000       15.9994           0
     23969 W2       7990     TIP3     H1       HT       0.417000       1.00800           0
     23970 W2       7990     TIP3     H2       HT       0.417000       1.00800           0
     23971 W2       7991     TIP3     OH2      OT      -0.834000       15.9994           0
     23972 W2       7991     TIP3     H1       HT       0.417000       1.00800           0
     23973 W2       7991     TIP3     H2       HT       0.417000       1.00800           0
     23974 W2       7992     TIP3     OH2      OT      -0.834000       15.9994           0
     23975 W2       7992     TIP3     H1       HT       0.417000       1.00800           0
     23976 W2       7992     TIP3     H2       HT       0.417000       1.00800           0
     23977 W2       7993     TIP3     OH2      OT      -0.834000       15.9994           0
     23978 W2       7993     TIP3     H1       HT       0.417000       1.00800           0
     23979 W2       7993     TIP3     H2       HT       0.417000       1.00800           0
     23980 W2       7994     TIP3     OH2      OT      -0.834000       15.9994           0
     23981 W2       7994     TIP3     H1       HT       0.417000       1.00800           0
     23982 W2       7994     TIP3     H2       HT       0.417000       1.00800           0
     23983 W2       7995     TIP3     OH2      OT      -0.834000       15.9994           0
     23984 W2       7995     TIP3     H1       HT       0.417000       1.00800           0
     23985 W2       7995     TIP3     H2       HT       0.417000       1.00800           0
     23986 W2       7996     TIP3     OH2      OT      -0.834000       15.9994           0
     23987 W2       7996     TIP3     H1       HT       0.417000       1.00800           0
     23988 W2       7996     TIP3     H2       HT       0.417000       1.00800           0
     23989 W2       7997     TIP3     OH2      OT      -0.834000       15.9994           0
     23990 W2       7997     TIP3     H1       HT       0.417000       1.00800           0
     23991 W2       7997     TIP3     H2       HT       0.417000       1.00800           0
     23992 W2       7998     TIP3     OH2      OT      -0.834000       15.9994           0
     23993 W2       7998     TIP3     H1       HT       0.417000       1.00800           0
     23994 W2       7998     TIP3     H2       HT       0.417000       1.00800           0
     23995 W2       7999     TIP3     OH2      OT      -0.834000       15.9994           0
     23996 W2       7999     TIP3     H1       HT       0.417000       1.00800           0
     23997 W2       7999     TIP3     H2       HT       0.417000       1.00800           0
     23998 W2       8000     TIP3     OH2      OT      -0.834000       15.9994           0
     23999 W2       8000     TIP3     H1       HT       0.417000       1.00800           0
     24000 W2       8000     TIP3     H2       HT       0.417000       1.00800           0
     24001 W2       8001     TIP3     OH2      OT      -0.834000       15.9994           0
     24002 W2       8001     TIP3     H1       HT       0.417000       1.00800           0
     24003 W2       8001     TIP3     H2       HT       0.417000       1.00800           0
     24004 W2       8002     TIP3     OH2      OT      -0.834000       15.9994           0
     24005 W2       8002     TIP3     H1       HT       0.417000       1.00800           0
     24006 W2       8002     TIP3     H2       HT       0.417000       1.00800           0
     24007 W2       8003     TIP3     OH2      OT      -0.834000       15.9994           0
     24008 W2       8003     TIP3     H1       HT       0.417000       1.00800           0
     24009 W2       8003     TIP3     H2       HT       0.417000       1.00800           0
     24010 W2       8004     TIP3     OH2      OT      -0.834000       15.9994           0
     24011 W2       8004     TIP3     H1       HT       0.417000       1.00800           0
     24012 W2       8004     TIP3     H2       HT       0.417000       1.00800           0
     24013 W2       8005     TIP3     OH2      OT      -0.834000       15.9994           0
     24014 W2       8005     TIP3     H1       HT       0.417000       1.00800           0
     24015 W2       8005     TIP3     H2       HT       0.417000       1.00800           0
     24016 W2       8006     TIP3     OH2      OT      -0.834000       15.9994           0
     24017 W2       8006     TIP3     H1       HT       0.417000       1.00800           0
     24018 W2       8006     TIP3     H2       HT       0.417000       1.00800           0
     24019 W2       8007     TIP3     OH2      OT      -0.834000       15.9994           0
     24020 W2       8007     TIP3     H1       HT       0.417000       1.00800           0
     24021 W2       8007     TIP3     H2       HT       0.417000       1.00800           0
     24022 W2       8008     TIP3     OH2      OT      -0.834000       15.9994           0
     24023 W2       8008     TIP3     H1       HT       0.417000       1.00800           0
     24024 W2       8008     TIP3     H2       HT       0.417000       1.00800           0
     24025 W2       8009     TIP3     OH2      OT      -0.834000       15.9994           0
     24026 W2       8009     TIP3     H1       HT       0.417000       1.00800           0
     24027 W2       8009     TIP3     H2       HT       0.417000       1.00800           0
     24028 W2       8010     TIP3     OH2      OT      -0.834000       15.9994           0
     24029 W2       8010     TIP3     H1       HT       0.417000       1.00800           0
     24030 W2       8010     TIP3     H2       HT       0.417000       1.00800           0
     24031 W2       8011     TIP3     OH2      OT      -0.834000       15.9994           0
     24032 W2       8011     TIP3     H1       HT       0.417000       1.00800           0
     24033 W2       8011     TIP3     H2       HT       0.417000       1.00800           0
     24034 W2       8012     TIP3     OH2      OT      -0.834000       15.9994           0
     24035 W2       8012     TIP3     H1       HT       0.417000       1.00800           0
     24036 W2       8012     TIP3     H2       HT       0.417000       1.00800           0
     24037 W2       8013     TIP3     OH2      OT      -0.834000       15.9994           0
     24038 W2       8013     TIP3     H1       HT       0.417000       1.00800           0
     24039 W2       8013     TIP3     H2       HT       0.417000       1.00800           0
     24040 W2       8014     TIP3     OH2      OT      -0.834000       15.9994           0
     24041 W2       8014     TIP3     H1       HT       0.417000       1.00800           0
     24042 W2       8014     TIP3     H2       HT       0.417000       1.00800           0
     24043 W2       8015     TIP3     OH2      OT      -0.834000       15.9994           0
     24044 W2       8015     TIP3     H1       HT       0.417000       1.00800           0
     24045 W2       8015     TIP3     H2       HT       0.417000       1.00800           0
     24046 W2       8016     TIP3     OH2      OT      -0.834000       15.9994           0
     24047 W2       8016     TIP3     H1       HT       0.417000       1.00800           0
     24048 W2       8016     TIP3     H2       HT       0.417000       1.00800           0
     24049 W2       8017     TIP3     OH2      OT      -0.834000       15.9994           0
     24050 W2       8017     TIP3     H1       HT       0.417000       1.00800           0
     24051 W2       8017     TIP3     H2       HT       0.417000       1.00800           0
     24052 W2       8018     TIP3     OH2      OT      -0.834000       15.9994           0
     24053 W2       8018     TIP3     H1       HT       0.417000       1.00800           0
     24054 W2       8018     TIP3     H2       HT       0.417000       1.00800           0
     24055 W2       8019     TIP3     OH2      OT      -0.834000       15.9994           0
     24056 W2       8019     TIP3     H1       HT       0.417000       1.00800           0
     24057 W2       8019     TIP3     H2       HT       0.417000       1.00800           0
     24058 W2       8020     TIP3     OH2      OT      -0.834000       15.9994           0
     24059 W2       8020     TIP3     H1       HT       0.417000       1.00800           0
     24060 W2       8020     TIP3     H2       HT       0.417000       1.00800           0
     24061 W2       8021     TIP3     OH2      OT      -0.834000       15.9994           0
     24062 W2       8021     TIP3     H1       HT       0.417000       1.00800           0
     24063 W2       8021     TIP3     H2       HT       0.417000       1.00800           0
     24064 W2       8022     TIP3     OH2      OT      -0.834000       15.9994           0
     24065 W2       8022     TIP3     H1       HT       0.417000       1.00800           0
     24066 W2       8022     TIP3     H2       HT       0.417000       1.00800           0
     24067 W2       8023     TIP3     OH2      OT      -0.834000       15.9994           0
     24068 W2       8023     TIP3     H1       HT       0.417000       1.00800           0
     24069 W2       8023     TIP3     H2       HT       0.417000       1.00800           0
     24070 W2       8024     TIP3     OH2      OT      -0.834000       15.9994           0
     24071 W2       8024     TIP3     H1       HT       0.417000       1.00800           0
     24072 W2       8024     TIP3     H2       HT       0.417000       1.00800           0
     24073 W2       8025     TIP3     OH2      OT      -0.834000       15.9994           0
     24074 W2       8025     TIP3     H1       HT       0.417000       1.00800           0
     24075 W2       8025     TIP3     H2       HT       0.417000       1.00800           0
     24076 W2       8026     TIP3     OH2      OT      -0.834000       15.9994           0
     24077 W2       8026     TIP3     H1       HT       0.417000       1.00800           0
     24078 W2       8026     TIP3     H2       HT       0.417000       1.00800           0
     24079 W2       8027     TIP3     OH2      OT      -0.834000       15.9994           0
     24080 W2       8027     TIP3     H1       HT       0.417000       1.00800           0
     24081 W2       8027     TIP3     H2       HT       0.417000       1.00800           0
     24082 W2       8028     TIP3     OH2      OT      -0.834000       15.9994           0
     24083 W2       8028     TIP3     H1       HT       0.417000       1.00800           0
     24084 W2       8028     TIP3     H2       HT       0.417000       1.00800           0
     24085 W2       8029     TIP3     OH2      OT      -0.834000       15.9994           0
     24086 W2       8029     TIP3     H1       HT       0.417000       1.00800           0
     24087 W2       8029     TIP3     H2       HT       0.417000       1.00800           0
     24088 W2       8030     TIP3     OH2      OT      -0.834000       15.9994           0
     24089 W2       8030     TIP3     H1       HT       0.417000       1.00800           0
     24090 W2       8030     TIP3     H2       HT       0.417000       1.00800           0
     24091 W2       8031     TIP3     OH2      OT      -0.834000       15.9994           0
     24092 W2       8031     TIP3     H1       HT       0.417000       1.00800           0
     24093 W2       8031     TIP3     H2       HT       0.417000       1.00800           0
     24094 W2       8032     TIP3     OH2      OT      -0.834000       15.9994           0
     24095 W2       8032     TIP3     H1       HT       0.417000       1.00800           0
     24096 W2       8032     TIP3     H2       HT       0.417000       1.00800           0
     24097 W2       8033     TIP3     OH2      OT      -0.834000       15.9994           0
     24098 W2       8033     TIP3     H1       HT       0.417000       1.00800           0
     24099 W2       8033     TIP3     H2       HT       0.417000       1.00800           0
     24100 W2       8034     TIP3     OH2      OT      -0.834000       15.9994           0
     24101 W2       8034     TIP3     H1       HT       0.417000       1.00800           0
     24102 W2       8034     TIP3     H2       HT       0.417000       1.00800           0
     24103 W2       8035     TIP3     OH2      OT      -0.834000       15.9994           0
     24104 W2       8035     TIP3     H1       HT       0.417000       1.00800           0
     24105 W2       8035     TIP3     H2       HT       0.417000       1.00800           0
     24106 W2       8036     TIP3     OH2      OT      -0.834000       15.9994           0
     24107 W2       8036     TIP3     H1       HT       0.417000       1.00800           0
     24108 W2       8036     TIP3     H2       HT       0.417000       1.00800           0
     24109 W2       8037     TIP3     OH2      OT      -0.834000       15.9994           0
     24110 W2       8037     TIP3     H1       HT       0.417000       1.00800           0
     24111 W2       8037     TIP3     H2       HT       0.417000       1.00800           0
     24112 W2       8038     TIP3     OH2      OT      -0.834000       15.9994           0
     24113 W2       8038     TIP3     H1       HT       0.417000       1.00800           0
     24114 W2       8038     TIP3     H2       HT       0.417000       1.00800           0
     24115 W2       8039     TIP3     OH2      OT      -0.834000       15.9994           0
     24116 W2       8039     TIP3     H1       HT       0.417000       1.00800           0
     24117 W2       8039     TIP3     H2       HT       0.417000       1.00800           0
     24118 W2       8040     TIP3     OH2      OT      -0.834000       15.9994           0
     24119 W2       8040     TIP3     H1       HT       0.417000       1.00800           0
     24120 W2       8040     TIP3     H2       HT       0.417000       1.00800           0
     24121 W2       8041     TIP3     OH2      OT      -0.834000       15.9994           0
     24122 W2       8041     TIP3     H1       HT       0.417000       1.00800           0
     24123 W2       8041     TIP3     H2       HT       0.417000       1.00800           0
     24124 W2       8042     TIP3     OH2      OT      -0.834000       15.9994           0
     24125 W2       8042     TIP3     H1       HT       0.417000       1.00800           0
     24126 W2       8042     TIP3     H2       HT       0.417000       1.00800           0
     24127 W2       8043     TIP3     OH2      OT      -0.834000       15.9994           0
     24128 W2       8043     TIP3     H1       HT       0.417000       1.00800           0
     24129 W2       8043     TIP3     H2       HT       0.417000       1.00800           0
     24130 W2       8044     TIP3     OH2      OT      -0.834000       15.9994           0
     24131 W2       8044     TIP3     H1       HT       0.417000       1.00800           0
     24132 W2       8044     TIP3     H2       HT       0.417000       1.00800           0
     24133 W2       8045     TIP3     OH2      OT      -0.834000       15.9994           0
     24134 W2       8045     TIP3     H1       HT       0.417000       1.00800           0
     24135 W2       8045     TIP3     H2       HT       0.417000       1.00800           0
     24136 W2       8046     TIP3     OH2      OT      -0.834000       15.9994           0
     24137 W2       8046     TIP3     H1       HT       0.417000       1.00800           0
     24138 W2       8046     TIP3     H2       HT       0.417000       1.00800           0
     24139 W2       8047     TIP3     OH2      OT      -0.834000       15.9994           0
     24140 W2       8047     TIP3     H1       HT       0.417000       1.00800           0
     24141 W2       8047     TIP3     H2       HT       0.417000       1.00800           0
     24142 W2       8048     TIP3     OH2      OT      -0.834000       15.9994           0
     24143 W2       8048     TIP3     H1       HT       0.417000       1.00800           0
     24144 W2       8048     TIP3     H2       HT       0.417000       1.00800           0
     24145 W2       8049     TIP3     OH2      OT      -0.834000       15.9994           0
     24146 W2       8049     TIP3     H1       HT       0.417000       1.00800           0
     24147 W2       8049     TIP3     H2       HT       0.417000       1.00800           0
     24148 W2       8050     TIP3     OH2      OT      -0.834000       15.9994           0
     24149 W2       8050     TIP3     H1       HT       0.417000       1.00800           0
     24150 W2       8050     TIP3     H2       HT       0.417000       1.00800           0
     24151 W2       8051     TIP3     OH2      OT      -0.834000       15.9994           0
     24152 W2       8051     TIP3     H1       HT       0.417000       1.00800           0
     24153 W2       8051     TIP3     H2       HT       0.417000       1.00800           0
     24154 W2       8052     TIP3     OH2      OT      -0.834000       15.9994           0
     24155 W2       8052     TIP3     H1       HT       0.417000       1.00800           0
     24156 W2       8052     TIP3     H2       HT       0.417000       1.00800           0
     24157 W2       8053     TIP3     OH2      OT      -0.834000       15.9994           0
     24158 W2       8053     TIP3     H1       HT       0.417000       1.00800           0
     24159 W2       8053     TIP3     H2       HT       0.417000       1.00800           0
     24160 W2       8054     TIP3     OH2      OT      -0.834000       15.9994           0
     24161 W2       8054     TIP3     H1       HT       0.417000       1.00800           0
     24162 W2       8054     TIP3     H2       HT       0.417000       1.00800           0
     24163 W2       8055     TIP3     OH2      OT      -0.834000       15.9994           0
     24164 W2       8055     TIP3     H1       HT       0.417000       1.00800           0
     24165 W2       8055     TIP3     H2       HT       0.417000       1.00800           0
     24166 W2       8056     TIP3     OH2      OT      -0.834000       15.9994           0
     24167 W2       8056     TIP3     H1       HT       0.417000       1.00800           0
     24168 W2       8056     TIP3     H2       HT       0.417000       1.00800           0
     24169 W2       8057     TIP3     OH2      OT      -0.834000       15.9994           0
     24170 W2       8057     TIP3     H1       HT       0.417000       1.00800           0
     24171 W2       8057     TIP3     H2       HT       0.417000       1.00800           0
     24172 W2       8058     TIP3     OH2      OT      -0.834000       15.9994           0
     24173 W2       8058     TIP3     H1       HT       0.417000       1.00800           0
     24174 W2       8058     TIP3     H2       HT       0.417000       1.00800           0
     24175 W2       8059     TIP3     OH2      OT      -0.834000       15.9994           0
     24176 W2       8059     TIP3     H1       HT       0.417000       1.00800           0
     24177 W2       8059     TIP3     H2       HT       0.417000       1.00800           0
     24178 W2       8060     TIP3     OH2      OT      -0.834000       15.9994           0
     24179 W2       8060     TIP3     H1       HT       0.417000       1.00800           0
     24180 W2       8060     TIP3     H2       HT       0.417000       1.00800           0
     24181 W2       8061     TIP3     OH2      OT      -0.834000       15.9994           0
     24182 W2       8061     TIP3     H1       HT       0.417000       1.00800           0
     24183 W2       8061     TIP3     H2       HT       0.417000       1.00800           0
     24184 W2       8062     TIP3     OH2      OT      -0.834000       15.9994           0
     24185 W2       8062     TIP3     H1       HT       0.417000       1.00800           0
     24186 W2       8062     TIP3     H2       HT       0.417000       1.00800           0
     24187 W2       8063     TIP3     OH2      OT      -0.834000       15.9994           0
     24188 W2       8063     TIP3     H1       HT       0.417000       1.00800           0
     24189 W2       8063     TIP3     H2       HT       0.417000       1.00800           0
     24190 W2       8064     TIP3     OH2      OT      -0.834000       15.9994           0
     24191 W2       8064     TIP3     H1       HT       0.417000       1.00800           0
     24192 W2       8064     TIP3     H2       HT       0.417000       1.00800           0
     24193 W2       8065     TIP3     OH2      OT      -0.834000       15.9994           0
     24194 W2       8065     TIP3     H1       HT       0.417000       1.00800           0
     24195 W2       8065     TIP3     H2       HT       0.417000       1.00800           0
     24196 W2       8066     TIP3     OH2      OT      -0.834000       15.9994           0
     24197 W2       8066     TIP3     H1       HT       0.417000       1.00800           0
     24198 W2       8066     TIP3     H2       HT       0.417000       1.00800           0
     24199 W2       8067     TIP3     OH2      OT      -0.834000       15.9994           0
     24200 W2       8067     TIP3     H1       HT       0.417000       1.00800           0
     24201 W2       8067     TIP3     H2       HT       0.417000       1.00800           0
     24202 W2       8068     TIP3     OH2      OT      -0.834000       15.9994           0
     24203 W2       8068     TIP3     H1       HT       0.417000       1.00800           0
     24204 W2       8068     TIP3     H2       HT       0.417000       1.00800           0
     24205 W2       8069     TIP3     OH2      OT      -0.834000       15.9994           0
     24206 W2       8069     TIP3     H1       HT       0.417000       1.00800           0
     24207 W2       8069     TIP3     H2       HT       0.417000       1.00800           0
     24208 W2       8070     TIP3     OH2      OT      -0.834000       15.9994           0
     24209 W2       8070     TIP3     H1       HT       0.417000       1.00800           0
     24210 W2       8070     TIP3     H2       HT       0.417000       1.00800           0
     24211 W2       8071     TIP3     OH2      OT      -0.834000       15.9994           0
     24212 W2       8071     TIP3     H1       HT       0.417000       1.00800           0
     24213 W2       8071     TIP3     H2       HT       0.417000       1.00800           0
     24214 W2       8072     TIP3     OH2      OT      -0.834000       15.9994           0
     24215 W2       8072     TIP3     H1       HT       0.417000       1.00800           0
     24216 W2       8072     TIP3     H2       HT       0.417000       1.00800           0
     24217 W2       8073     TIP3     OH2      OT      -0.834000       15.9994           0
     24218 W2       8073     TIP3     H1       HT       0.417000       1.00800           0
     24219 W2       8073     TIP3     H2       HT       0.417000       1.00800           0
     24220 W2       8074     TIP3     OH2      OT      -0.834000       15.9994           0
     24221 W2       8074     TIP3     H1       HT       0.417000       1.00800           0
     24222 W2       8074     TIP3     H2       HT       0.417000       1.00800           0
     24223 W2       8075     TIP3     OH2      OT      -0.834000       15.9994           0
     24224 W2       8075     TIP3     H1       HT       0.417000       1.00800           0
     24225 W2       8075     TIP3     H2       HT       0.417000       1.00800           0
     24226 W2       8076     TIP3     OH2      OT      -0.834000       15.9994           0
     24227 W2       8076     TIP3     H1       HT       0.417000       1.00800           0
     24228 W2       8076     TIP3     H2       HT       0.417000       1.00800           0
     24229 W2       8077     TIP3     OH2      OT      -0.834000       15.9994           0
     24230 W2       8077     TIP3     H1       HT       0.417000       1.00800           0
     24231 W2       8077     TIP3     H2       HT       0.417000       1.00800           0
     24232 W2       8078     TIP3     OH2      OT      -0.834000       15.9994           0
     24233 W2       8078     TIP3     H1       HT       0.417000       1.00800           0
     24234 W2       8078     TIP3     H2       HT       0.417000       1.00800           0
     24235 W2       8079     TIP3     OH2      OT      -0.834000       15.9994           0
     24236 W2       8079     TIP3     H1       HT       0.417000       1.00800           0
     24237 W2       8079     TIP3     H2       HT       0.417000       1.00800           0
     24238 W2       8080     TIP3     OH2      OT      -0.834000       15.9994           0
     24239 W2       8080     TIP3     H1       HT       0.417000       1.00800           0
     24240 W2       8080     TIP3     H2       HT       0.417000       1.00800           0
     24241 W2       8081     TIP3     OH2      OT      -0.834000       15.9994           0
     24242 W2       8081     TIP3     H1       HT       0.417000       1.00800           0
     24243 W2       8081     TIP3     H2       HT       0.417000       1.00800           0
     24244 W2       8082     TIP3     OH2      OT      -0.834000       15.9994           0
     24245 W2       8082     TIP3     H1       HT       0.417000       1.00800           0
     24246 W2       8082     TIP3     H2       HT       0.417000       1.00800           0
     24247 W2       8083     TIP3     OH2      OT      -0.834000       15.9994           0
     24248 W2       8083     TIP3     H1       HT       0.417000       1.00800           0
     24249 W2       8083     TIP3     H2       HT       0.417000       1.00800           0
     24250 W2       8084     TIP3     OH2      OT      -0.834000       15.9994           0
     24251 W2       8084     TIP3     H1       HT       0.417000       1.00800           0
     24252 W2       8084     TIP3     H2       HT       0.417000       1.00800           0
     24253 W2       8085     TIP3     OH2      OT      -0.834000       15.9994           0
     24254 W2       8085     TIP3     H1       HT       0.417000       1.00800           0
     24255 W2       8085     TIP3     H2       HT       0.417000       1.00800           0
     24256 W2       8086     TIP3     OH2      OT      -0.834000       15.9994           0
     24257 W2       8086     TIP3     H1       HT       0.417000       1.00800           0
     24258 W2       8086     TIP3     H2       HT       0.417000       1.00800           0
     24259 W2       8087     TIP3     OH2      OT      -0.834000       15.9994           0
     24260 W2       8087     TIP3     H1       HT       0.417000       1.00800           0
     24261 W2       8087     TIP3     H2       HT       0.417000       1.00800           0
     24262 W2       8088     TIP3     OH2      OT      -0.834000       15.9994           0
     24263 W2       8088     TIP3     H1       HT       0.417000       1.00800           0
     24264 W2       8088     TIP3     H2       HT       0.417000       1.00800           0
     24265 W2       8089     TIP3     OH2      OT      -0.834000       15.9994           0
     24266 W2       8089     TIP3     H1       HT       0.417000       1.00800           0
     24267 W2       8089     TIP3     H2       HT       0.417000       1.00800           0
     24268 W2       8090     TIP3     OH2      OT      -0.834000       15.9994           0
     24269 W2       8090     TIP3     H1       HT       0.417000       1.00800           0
     24270 W2       8090     TIP3     H2       HT       0.417000       1.00800           0
     24271 W2       8091     TIP3     OH2      OT      -0.834000       15.9994           0
     24272 W2       8091     TIP3     H1       HT       0.417000       1.00800           0
     24273 W2       8091     TIP3     H2       HT       0.417000       1.00800           0
     24274 W2       8092     TIP3     OH2      OT      -0.834000       15.9994           0
     24275 W2       8092     TIP3     H1       HT       0.417000       1.00800           0
     24276 W2       8092     TIP3     H2       HT       0.417000       1.00800           0
     24277 W2       8093     TIP3     OH2      OT      -0.834000       15.9994           0
     24278 W2       8093     TIP3     H1       HT       0.417000       1.00800           0
     24279 W2       8093     TIP3     H2       HT       0.417000       1.00800           0
     24280 W2       8094     TIP3     OH2      OT      -0.834000       15.9994           0
     24281 W2       8094     TIP3     H1       HT       0.417000       1.00800           0
     24282 W2       8094     TIP3     H2       HT       0.417000       1.00800           0
     24283 W2       8095     TIP3     OH2      OT      -0.834000       15.9994           0
     24284 W2       8095     TIP3     H1       HT       0.417000       1.00800           0
     24285 W2       8095     TIP3     H2       HT       0.417000       1.00800           0
     24286 W2       8096     TIP3     OH2      OT      -0.834000       15.9994           0
     24287 W2       8096     TIP3     H1       HT       0.417000       1.00800           0
     24288 W2       8096     TIP3     H2       HT       0.417000       1.00800           0
     24289 W2       8097     TIP3     OH2      OT      -0.834000       15.9994           0
     24290 W2       8097     TIP3     H1       HT       0.417000       1.00800           0
     24291 W2       8097     TIP3     H2       HT       0.417000       1.00800           0
     24292 W2       8098     TIP3     OH2      OT      -0.834000       15.9994           0
     24293 W2       8098     TIP3     H1       HT       0.417000       1.00800           0
     24294 W2       8098     TIP3     H2       HT       0.417000       1.00800           0
     24295 W2       8099     TIP3     OH2      OT      -0.834000       15.9994           0
     24296 W2       8099     TIP3     H1       HT       0.417000       1.00800           0
     24297 W2       8099     TIP3     H2       HT       0.417000       1.00800           0
     24298 W2       8100     TIP3     OH2      OT      -0.834000       15.9994           0
     24299 W2       8100     TIP3     H1       HT       0.417000       1.00800           0
     24300 W2       8100     TIP3     H2       HT       0.417000       1.00800           0
     24301 W2       8101     TIP3     OH2      OT      -0.834000       15.9994           0
     24302 W2       8101     TIP3     H1       HT       0.417000       1.00800           0
     24303 W2       8101     TIP3     H2       HT       0.417000       1.00800           0
     24304 W2       8102     TIP3     OH2      OT      -0.834000       15.9994           0
     24305 W2       8102     TIP3     H1       HT       0.417000       1.00800           0
     24306 W2       8102     TIP3     H2       HT       0.417000       1.00800           0
     24307 W2       8103     TIP3     OH2      OT      -0.834000       15.9994           0
     24308 W2       8103     TIP3     H1       HT       0.417000       1.00800           0
     24309 W2       8103     TIP3     H2       HT       0.417000       1.00800           0
     24310 W2       8104     TIP3     OH2      OT      -0.834000       15.9994           0
     24311 W2       8104     TIP3     H1       HT       0.417000       1.00800           0
     24312 W2       8104     TIP3     H2       HT       0.417000       1.00800           0
     24313 W2       8105     TIP3     OH2      OT      -0.834000       15.9994           0
     24314 W2       8105     TIP3     H1       HT       0.417000       1.00800           0
     24315 W2       8105     TIP3     H2       HT       0.417000       1.00800           0
     24316 W2       8106     TIP3     OH2      OT      -0.834000       15.9994           0
     24317 W2       8106     TIP3     H1       HT       0.417000       1.00800           0
     24318 W2       8106     TIP3     H2       HT       0.417000       1.00800           0
     24319 W2       8107     TIP3     OH2      OT      -0.834000       15.9994           0
     24320 W2       8107     TIP3     H1       HT       0.417000       1.00800           0
     24321 W2       8107     TIP3     H2       HT       0.417000       1.00800           0
     24322 W2       8108     TIP3     OH2      OT      -0.834000       15.9994           0
     24323 W2       8108     TIP3     H1       HT       0.417000       1.00800           0
     24324 W2       8108     TIP3     H2       HT       0.417000       1.00800           0
     24325 W2       8109     TIP3     OH2      OT      -0.834000       15.9994           0
     24326 W2       8109     TIP3     H1       HT       0.417000       1.00800           0
     24327 W2       8109     TIP3     H2       HT       0.417000       1.00800           0
     24328 W2       8110     TIP3     OH2      OT      -0.834000       15.9994           0
     24329 W2       8110     TIP3     H1       HT       0.417000       1.00800           0
     24330 W2       8110     TIP3     H2       HT       0.417000       1.00800           0
     24331 W2       8111     TIP3     OH2      OT      -0.834000       15.9994           0
     24332 W2       8111     TIP3     H1       HT       0.417000       1.00800           0
     24333 W2       8111     TIP3     H2       HT       0.417000       1.00800           0
     24334 W2       8112     TIP3     OH2      OT      -0.834000       15.9994           0
     24335 W2       8112     TIP3     H1       HT       0.417000       1.00800           0
     24336 W2       8112     TIP3     H2       HT       0.417000       1.00800           0
     24337 W2       8113     TIP3     OH2      OT      -0.834000       15.9994           0
     24338 W2       8113     TIP3     H1       HT       0.417000       1.00800           0
     24339 W2       8113     TIP3     H2       HT       0.417000       1.00800           0
     24340 W2       8114     TIP3     OH2      OT      -0.834000       15.9994           0
     24341 W2       8114     TIP3     H1       HT       0.417000       1.00800           0
     24342 W2       8114     TIP3     H2       HT       0.417000       1.00800           0
     24343 W2       8115     TIP3     OH2      OT      -0.834000       15.9994           0
     24344 W2       8115     TIP3     H1       HT       0.417000       1.00800           0
     24345 W2       8115     TIP3     H2       HT       0.417000       1.00800           0
     24346 W2       8116     TIP3     OH2      OT      -0.834000       15.9994           0
     24347 W2       8116     TIP3     H1       HT       0.417000       1.00800           0
     24348 W2       8116     TIP3     H2       HT       0.417000       1.00800           0
     24349 W2       8117     TIP3     OH2      OT      -0.834000       15.9994           0
     24350 W2       8117     TIP3     H1       HT       0.417000       1.00800           0
     24351 W2       8117     TIP3     H2       HT       0.417000       1.00800           0
     24352 W2       8118     TIP3     OH2      OT      -0.834000       15.9994           0
     24353 W2       8118     TIP3     H1       HT       0.417000       1.00800           0
     24354 W2       8118     TIP3     H2       HT       0.417000       1.00800           0
     24355 W2       8119     TIP3     OH2      OT      -0.834000       15.9994           0
     24356 W2       8119     TIP3     H1       HT       0.417000       1.00800           0
     24357 W2       8119     TIP3     H2       HT       0.417000       1.00800           0
     24358 W2       8120     TIP3     OH2      OT      -0.834000       15.9994           0
     24359 W2       8120     TIP3     H1       HT       0.417000       1.00800           0
     24360 W2       8120     TIP3     H2       HT       0.417000       1.00800           0
     24361 W2       8121     TIP3     OH2      OT      -0.834000       15.9994           0
     24362 W2       8121     TIP3     H1       HT       0.417000       1.00800           0
     24363 W2       8121     TIP3     H2       HT       0.417000       1.00800           0
     24364 W2       8122     TIP3     OH2      OT      -0.834000       15.9994           0
     24365 W2       8122     TIP3     H1       HT       0.417000       1.00800           0
     24366 W2       8122     TIP3     H2       HT       0.417000       1.00800           0
     24367 W2       8123     TIP3     OH2      OT      -0.834000       15.9994           0
     24368 W2       8123     TIP3     H1       HT       0.417000       1.00800           0
     24369 W2       8123     TIP3     H2       HT       0.417000       1.00800           0
     24370 W2       8124     TIP3     OH2      OT      -0.834000       15.9994           0
     24371 W2       8124     TIP3     H1       HT       0.417000       1.00800           0
     24372 W2       8124     TIP3     H2       HT       0.417000       1.00800           0
     24373 W2       8125     TIP3     OH2      OT      -0.834000       15.9994           0
     24374 W2       8125     TIP3     H1       HT       0.417000       1.00800           0
     24375 W2       8125     TIP3     H2       HT       0.417000       1.00800           0
     24376 W2       8126     TIP3     OH2      OT      -0.834000       15.9994           0
     24377 W2       8126     TIP3     H1       HT       0.417000       1.00800           0
     24378 W2       8126     TIP3     H2       HT       0.417000       1.00800           0
     24379 W2       8127     TIP3     OH2      OT      -0.834000       15.9994           0
     24380 W2       8127     TIP3     H1       HT       0.417000       1.00800           0
     24381 W2       8127     TIP3     H2       HT       0.417000       1.00800           0
     24382 W2       8128     TIP3     OH2      OT      -0.834000       15.9994           0
     24383 W2       8128     TIP3     H1       HT       0.417000       1.00800           0
     24384 W2       8128     TIP3     H2       HT       0.417000       1.00800           0
     24385 W2       8129     TIP3     OH2      OT      -0.834000       15.9994           0
     24386 W2       8129     TIP3     H1       HT       0.417000       1.00800           0
     24387 W2       8129     TIP3     H2       HT       0.417000       1.00800           0
     24388 W2       8130     TIP3     OH2      OT      -0.834000       15.9994           0
     24389 W2       8130     TIP3     H1       HT       0.417000       1.00800           0
     24390 W2       8130     TIP3     H2       HT       0.417000       1.00800           0
     24391 W2       8131     TIP3     OH2      OT      -0.834000       15.9994           0
     24392 W2       8131     TIP3     H1       HT       0.417000       1.00800           0
     24393 W2       8131     TIP3     H2       HT       0.417000       1.00800           0
     24394 W2       8132     TIP3     OH2      OT      -0.834000       15.9994           0
     24395 W2       8132     TIP3     H1       HT       0.417000       1.00800           0
     24396 W2       8132     TIP3     H2       HT       0.417000       1.00800           0
     24397 W2       8133     TIP3     OH2      OT      -0.834000       15.9994           0
     24398 W2       8133     TIP3     H1       HT       0.417000       1.00800           0
     24399 W2       8133     TIP3     H2       HT       0.417000       1.00800           0
     24400 W2       8134     TIP3     OH2      OT      -0.834000       15.9994           0
     24401 W2       8134     TIP3     H1       HT       0.417000       1.00800           0
     24402 W2       8134     TIP3     H2       HT       0.417000       1.00800           0
     24403 W2       8135     TIP3     OH2      OT      -0.834000       15.9994           0
     24404 W2       8135     TIP3     H1       HT       0.417000       1.00800           0
     24405 W2       8135     TIP3     H2       HT       0.417000       1.00800           0
     24406 W2       8136     TIP3     OH2      OT      -0.834000       15.9994           0
     24407 W2       8136     TIP3     H1       HT       0.417000       1.00800           0
     24408 W2       8136     TIP3     H2       HT       0.417000       1.00800           0
     24409 W2       8137     TIP3     OH2      OT      -0.834000       15.9994           0
     24410 W2       8137     TIP3     H1       HT       0.417000       1.00800           0
     24411 W2       8137     TIP3     H2       HT       0.417000       1.00800           0
     24412 W2       8138     TIP3     OH2      OT      -0.834000       15.9994           0
     24413 W2       8138     TIP3     H1       HT       0.417000       1.00800           0
     24414 W2       8138     TIP3     H2       HT       0.417000       1.00800           0
     24415 W2       8139     TIP3     OH2      OT      -0.834000       15.9994           0
     24416 W2       8139     TIP3     H1       HT       0.417000       1.00800           0
     24417 W2       8139     TIP3     H2       HT       0.417000       1.00800           0
     24418 W2       8140     TIP3     OH2      OT      -0.834000       15.9994           0
     24419 W2       8140     TIP3     H1       HT       0.417000       1.00800           0
     24420 W2       8140     TIP3     H2       HT       0.417000       1.00800           0
     24421 W2       8141     TIP3     OH2      OT      -0.834000       15.9994           0
     24422 W2       8141     TIP3     H1       HT       0.417000       1.00800           0
     24423 W2       8141     TIP3     H2       HT       0.417000       1.00800           0
     24424 W2       8142     TIP3     OH2      OT      -0.834000       15.9994           0
     24425 W2       8142     TIP3     H1       HT       0.417000       1.00800           0
     24426 W2       8142     TIP3     H2       HT       0.417000       1.00800           0
     24427 W2       8143     TIP3     OH2      OT      -0.834000       15.9994           0
     24428 W2       8143     TIP3     H1       HT       0.417000       1.00800           0
     24429 W2       8143     TIP3     H2       HT       0.417000       1.00800           0
     24430 W2       8144     TIP3     OH2      OT      -0.834000       15.9994           0
     24431 W2       8144     TIP3     H1       HT       0.417000       1.00800           0
     24432 W2       8144     TIP3     H2       HT       0.417000       1.00800           0
     24433 W2       8145     TIP3     OH2      OT      -0.834000       15.9994           0
     24434 W2       8145     TIP3     H1       HT       0.417000       1.00800           0
     24435 W2       8145     TIP3     H2       HT       0.417000       1.00800           0
     24436 W2       8146     TIP3     OH2      OT      -0.834000       15.9994           0
     24437 W2       8146     TIP3     H1       HT       0.417000       1.00800           0
     24438 W2       8146     TIP3     H2       HT       0.417000       1.00800           0
     24439 W2       8147     TIP3     OH2      OT      -0.834000       15.9994           0
     24440 W2       8147     TIP3     H1       HT       0.417000       1.00800           0
     24441 W2       8147     TIP3     H2       HT       0.417000       1.00800           0
     24442 W2       8148     TIP3     OH2      OT      -0.834000       15.9994           0
     24443 W2       8148     TIP3     H1       HT       0.417000       1.00800           0
     24444 W2       8148     TIP3     H2       HT       0.417000       1.00800           0
     24445 W2       8149     TIP3     OH2      OT      -0.834000       15.9994           0
     24446 W2       8149     TIP3     H1       HT       0.417000       1.00800           0
     24447 W2       8149     TIP3     H2       HT       0.417000       1.00800           0
     24448 W2       8150     TIP3     OH2      OT      -0.834000       15.9994           0
     24449 W2       8150     TIP3     H1       HT       0.417000       1.00800           0
     24450 W2       8150     TIP3     H2       HT       0.417000       1.00800           0
     24451 W2       8151     TIP3     OH2      OT      -0.834000       15.9994           0
     24452 W2       8151     TIP3     H1       HT       0.417000       1.00800           0
     24453 W2       8151     TIP3     H2       HT       0.417000       1.00800           0
     24454 W2       8152     TIP3     OH2      OT      -0.834000       15.9994           0
     24455 W2       8152     TIP3     H1       HT       0.417000       1.00800           0
     24456 W2       8152     TIP3     H2       HT       0.417000       1.00800           0
     24457 W2       8153     TIP3     OH2      OT      -0.834000       15.9994           0
     24458 W2       8153     TIP3     H1       HT       0.417000       1.00800           0
     24459 W2       8153     TIP3     H2       HT       0.417000       1.00800           0
     24460 W2       8154     TIP3     OH2      OT      -0.834000       15.9994           0
     24461 W2       8154     TIP3     H1       HT       0.417000       1.00800           0
     24462 W2       8154     TIP3     H2       HT       0.417000       1.00800           0
     24463 W2       8155     TIP3     OH2      OT      -0.834000       15.9994           0
     24464 W2       8155     TIP3     H1       HT       0.417000       1.00800           0
     24465 W2       8155     TIP3     H2       HT       0.417000       1.00800           0
     24466 W2       8156     TIP3     OH2      OT      -0.834000       15.9994           0
     24467 W2       8156     TIP3     H1       HT       0.417000       1.00800           0
     24468 W2       8156     TIP3     H2       HT       0.417000       1.00800           0
     24469 W2       8157     TIP3     OH2      OT      -0.834000       15.9994           0
     24470 W2       8157     TIP3     H1       HT       0.417000       1.00800           0
     24471 W2       8157     TIP3     H2       HT       0.417000       1.00800           0
     24472 W2       8158     TIP3     OH2      OT      -0.834000       15.9994           0
     24473 W2       8158     TIP3     H1       HT       0.417000       1.00800           0
     24474 W2       8158     TIP3     H2       HT       0.417000       1.00800           0
     24475 W2       8159     TIP3     OH2      OT      -0.834000       15.9994           0
     24476 W2       8159     TIP3     H1       HT       0.417000       1.00800           0
     24477 W2       8159     TIP3     H2       HT       0.417000       1.00800           0
     24478 W2       8160     TIP3     OH2      OT      -0.834000       15.9994           0
     24479 W2       8160     TIP3     H1       HT       0.417000       1.00800           0
     24480 W2       8160     TIP3     H2       HT       0.417000       1.00800           0
     24481 W2       8161     TIP3     OH2      OT      -0.834000       15.9994           0
     24482 W2       8161     TIP3     H1       HT       0.417000       1.00800           0
     24483 W2       8161     TIP3     H2       HT       0.417000       1.00800           0
     24484 W2       8162     TIP3     OH2      OT      -0.834000       15.9994           0
     24485 W2       8162     TIP3     H1       HT       0.417000       1.00800           0
     24486 W2       8162     TIP3     H2       HT       0.417000       1.00800           0
     24487 W2       8163     TIP3     OH2      OT      -0.834000       15.9994           0
     24488 W2       8163     TIP3     H1       HT       0.417000       1.00800           0
     24489 W2       8163     TIP3     H2       HT       0.417000       1.00800           0
     24490 W2       8164     TIP3     OH2      OT      -0.834000       15.9994           0
     24491 W2       8164     TIP3     H1       HT       0.417000       1.00800           0
     24492 W2       8164     TIP3     H2       HT       0.417000       1.00800           0
     24493 W2       8165     TIP3     OH2      OT      -0.834000       15.9994           0
     24494 W2       8165     TIP3     H1       HT       0.417000       1.00800           0
     24495 W2       8165     TIP3     H2       HT       0.417000       1.00800           0
     24496 W2       8166     TIP3     OH2      OT      -0.834000       15.9994           0
     24497 W2       8166     TIP3     H1       HT       0.417000       1.00800           0
     24498 W2       8166     TIP3     H2       HT       0.417000       1.00800           0
     24499 W2       8167     TIP3     OH2      OT      -0.834000       15.9994           0
     24500 W2       8167     TIP3     H1       HT       0.417000       1.00800           0
     24501 W2       8167     TIP3     H2       HT       0.417000       1.00800           0
     24502 W2       8168     TIP3     OH2      OT      -0.834000       15.9994           0
     24503 W2       8168     TIP3     H1       HT       0.417000       1.00800           0
     24504 W2       8168     TIP3     H2       HT       0.417000       1.00800           0
     24505 W2       8169     TIP3     OH2      OT      -0.834000       15.9994           0
     24506 W2       8169     TIP3     H1       HT       0.417000       1.00800           0
     24507 W2       8169     TIP3     H2       HT       0.417000       1.00800           0
     24508 W2       8170     TIP3     OH2      OT      -0.834000       15.9994           0
     24509 W2       8170     TIP3     H1       HT       0.417000       1.00800           0
     24510 W2       8170     TIP3     H2       HT       0.417000       1.00800           0
     24511 W2       8171     TIP3     OH2      OT      -0.834000       15.9994           0
     24512 W2       8171     TIP3     H1       HT       0.417000       1.00800           0
     24513 W2       8171     TIP3     H2       HT       0.417000       1.00800           0
     24514 W2       8172     TIP3     OH2      OT      -0.834000       15.9994           0
     24515 W2       8172     TIP3     H1       HT       0.417000       1.00800           0
     24516 W2       8172     TIP3     H2       HT       0.417000       1.00800           0
     24517 W2       8173     TIP3     OH2      OT      -0.834000       15.9994           0
     24518 W2       8173     TIP3     H1       HT       0.417000       1.00800           0
     24519 W2       8173     TIP3     H2       HT       0.417000       1.00800           0
     24520 W2       8174     TIP3     OH2      OT      -0.834000       15.9994           0
     24521 W2       8174     TIP3     H1       HT       0.417000       1.00800           0
     24522 W2       8174     TIP3     H2       HT       0.417000       1.00800           0
     24523 W2       8175     TIP3     OH2      OT      -0.834000       15.9994           0
     24524 W2       8175     TIP3     H1       HT       0.417000       1.00800           0
     24525 W2       8175     TIP3     H2       HT       0.417000       1.00800           0
     24526 W2       8176     TIP3     OH2      OT      -0.834000       15.9994           0
     24527 W2       8176     TIP3     H1       HT       0.417000       1.00800           0
     24528 W2       8176     TIP3     H2       HT       0.417000       1.00800           0
     24529 W2       8177     TIP3     OH2      OT      -0.834000       15.9994           0
     24530 W2       8177     TIP3     H1       HT       0.417000       1.00800           0
     24531 W2       8177     TIP3     H2       HT       0.417000       1.00800           0
     24532 W2       8178     TIP3     OH2      OT      -0.834000       15.9994           0
     24533 W2       8178     TIP3     H1       HT       0.417000       1.00800           0
     24534 W2       8178     TIP3     H2       HT       0.417000       1.00800           0
     24535 W2       8179     TIP3     OH2      OT      -0.834000       15.9994           0
     24536 W2       8179     TIP3     H1       HT       0.417000       1.00800           0
     24537 W2       8179     TIP3     H2       HT       0.417000       1.00800           0
     24538 W2       8180     TIP3     OH2      OT      -0.834000       15.9994           0
     24539 W2       8180     TIP3     H1       HT       0.417000       1.00800           0
     24540 W2       8180     TIP3     H2       HT       0.417000       1.00800           0
     24541 W2       8181     TIP3     OH2      OT      -0.834000       15.9994           0
     24542 W2       8181     TIP3     H1       HT       0.417000       1.00800           0
     24543 W2       8181     TIP3     H2       HT       0.417000       1.00800           0
     24544 W2       8182     TIP3     OH2      OT      -0.834000       15.9994           0
     24545 W2       8182     TIP3     H1       HT       0.417000       1.00800           0
     24546 W2       8182     TIP3     H2       HT       0.417000       1.00800           0
     24547 W2       8183     TIP3     OH2      OT      -0.834000       15.9994           0
     24548 W2       8183     TIP3     H1       HT       0.417000       1.00800           0
     24549 W2       8183     TIP3     H2       HT       0.417000       1.00800           0
     24550 W2       8184     TIP3     OH2      OT      -0.834000       15.9994           0
     24551 W2       8184     TIP3     H1       HT       0.417000       1.00800           0
     24552 W2       8184     TIP3     H2       HT       0.417000       1.00800           0
     24553 W2       8185     TIP3     OH2      OT      -0.834000       15.9994           0
     24554 W2       8185     TIP3     H1       HT       0.417000       1.00800           0
     24555 W2       8185     TIP3     H2       HT       0.417000       1.00800           0
     24556 W2       8186     TIP3     OH2      OT      -0.834000       15.9994           0
     24557 W2       8186     TIP3     H1       HT       0.417000       1.00800           0
     24558 W2       8186     TIP3     H2       HT       0.417000       1.00800           0
     24559 W2       8187     TIP3     OH2      OT      -0.834000       15.9994           0
     24560 W2       8187     TIP3     H1       HT       0.417000       1.00800           0
     24561 W2       8187     TIP3     H2       HT       0.417000       1.00800           0
     24562 W2       8188     TIP3     OH2      OT      -0.834000       15.9994           0
     24563 W2       8188     TIP3     H1       HT       0.417000       1.00800           0
     24564 W2       8188     TIP3     H2       HT       0.417000       1.00800           0
     24565 W2       8189     TIP3     OH2      OT      -0.834000       15.9994           0
     24566 W2       8189     TIP3     H1       HT       0.417000       1.00800           0
     24567 W2       8189     TIP3     H2       HT       0.417000       1.00800           0
     24568 W2       8190     TIP3     OH2      OT      -0.834000       15.9994           0
     24569 W2       8190     TIP3     H1       HT       0.417000       1.00800           0
     24570 W2       8190     TIP3     H2       HT       0.417000       1.00800           0
     24571 W2       8191     TIP3     OH2      OT      -0.834000       15.9994           0
     24572 W2       8191     TIP3     H1       HT       0.417000       1.00800           0
     24573 W2       8191     TIP3     H2       HT       0.417000       1.00800           0
     24574 W2       8192     TIP3     OH2      OT      -0.834000       15.9994           0
     24575 W2       8192     TIP3     H1       HT       0.417000       1.00800           0
     24576 W2       8192     TIP3     H2       HT       0.417000       1.00800           0
     24577 W2       8193     TIP3     OH2      OT      -0.834000       15.9994           0
     24578 W2       8193     TIP3     H1       HT       0.417000       1.00800           0
     24579 W2       8193     TIP3     H2       HT       0.417000       1.00800           0
     24580 W2       8194     TIP3     OH2      OT      -0.834000       15.9994           0
     24581 W2       8194     TIP3     H1       HT       0.417000       1.00800           0
     24582 W2       8194     TIP3     H2       HT       0.417000       1.00800           0
     24583 W2       8195     TIP3     OH2      OT      -0.834000       15.9994           0
     24584 W2       8195     TIP3     H1       HT       0.417000       1.00800           0
     24585 W2       8195     TIP3     H2       HT       0.417000       1.00800           0
     24586 W2       8196     TIP3     OH2      OT      -0.834000       15.9994           0
     24587 W2       8196     TIP3     H1       HT       0.417000       1.00800           0
     24588 W2       8196     TIP3     H2       HT       0.417000       1.00800           0
     24589 W2       8197     TIP3     OH2      OT      -0.834000       15.9994           0
     24590 W2       8197     TIP3     H1       HT       0.417000       1.00800           0
     24591 W2       8197     TIP3     H2       HT       0.417000       1.00800           0
     24592 W2       8198     TIP3     OH2      OT      -0.834000       15.9994           0
     24593 W2       8198     TIP3     H1       HT       0.417000       1.00800           0
     24594 W2       8198     TIP3     H2       HT       0.417000       1.00800           0
     24595 W2       8199     TIP3     OH2      OT      -0.834000       15.9994           0
     24596 W2       8199     TIP3     H1       HT       0.417000       1.00800           0
     24597 W2       8199     TIP3     H2       HT       0.417000       1.00800           0
     24598 W2       8200     TIP3     OH2      OT      -0.834000       15.9994           0
     24599 W2       8200     TIP3     H1       HT       0.417000       1.00800           0
     24600 W2       8200     TIP3     H2       HT       0.417000       1.00800           0
     24601 W2       8201     TIP3     OH2      OT      -0.834000       15.9994           0
     24602 W2       8201     TIP3     H1       HT       0.417000       1.00800           0
     24603 W2       8201     TIP3     H2       HT       0.417000       1.00800           0
     24604 W2       8202     TIP3     OH2      OT      -0.834000       15.9994           0
     24605 W2       8202     TIP3     H1       HT       0.417000       1.00800           0
     24606 W2       8202     TIP3     H2       HT       0.417000       1.00800           0
     24607 W2       8203     TIP3     OH2      OT      -0.834000       15.9994           0
     24608 W2       8203     TIP3     H1       HT       0.417000       1.00800           0
     24609 W2       8203     TIP3     H2       HT       0.417000       1.00800           0
     24610 W2       8204     TIP3     OH2      OT      -0.834000       15.9994           0
     24611 W2       8204     TIP3     H1       HT       0.417000       1.00800           0
     24612 W2       8204     TIP3     H2       HT       0.417000       1.00800           0
     24613 W2       8205     TIP3     OH2      OT      -0.834000       15.9994           0
     24614 W2       8205     TIP3     H1       HT       0.417000       1.00800           0
     24615 W2       8205     TIP3     H2       HT       0.417000       1.00800           0
     24616 W2       8206     TIP3     OH2      OT      -0.834000       15.9994           0
     24617 W2       8206     TIP3     H1       HT       0.417000       1.00800           0
     24618 W2       8206     TIP3     H2       HT       0.417000       1.00800           0
     24619 W2       8207     TIP3     OH2      OT      -0.834000       15.9994           0
     24620 W2       8207     TIP3     H1       HT       0.417000       1.00800           0
     24621 W2       8207     TIP3     H2       HT       0.417000       1.00800           0
     24622 W2       8208     TIP3     OH2      OT      -0.834000       15.9994           0
     24623 W2       8208     TIP3     H1       HT       0.417000       1.00800           0
     24624 W2       8208     TIP3     H2       HT       0.417000       1.00800           0
     24625 W2       8209     TIP3     OH2      OT      -0.834000       15.9994           0
     24626 W2       8209     TIP3     H1       HT       0.417000       1.00800           0
     24627 W2       8209     TIP3     H2       HT       0.417000       1.00800           0
     24628 W2       8210     TIP3     OH2      OT      -0.834000       15.9994           0
     24629 W2       8210     TIP3     H1       HT       0.417000       1.00800           0
     24630 W2       8210     TIP3     H2       HT       0.417000       1.00800           0
     24631 W2       8211     TIP3     OH2      OT      -0.834000       15.9994           0
     24632 W2       8211     TIP3     H1       HT       0.417000       1.00800           0
     24633 W2       8211     TIP3     H2       HT       0.417000       1.00800           0
     24634 W2       8212     TIP3     OH2      OT      -0.834000       15.9994           0
     24635 W2       8212     TIP3     H1       HT       0.417000       1.00800           0
     24636 W2       8212     TIP3     H2       HT       0.417000       1.00800           0
     24637 W2       8213     TIP3     OH2      OT      -0.834000       15.9994           0
     24638 W2       8213     TIP3     H1       HT       0.417000       1.00800           0
     24639 W2       8213     TIP3     H2       HT       0.417000       1.00800           0
     24640 W2       8214     TIP3     OH2      OT      -0.834000       15.9994           0
     24641 W2       8214     TIP3     H1       HT       0.417000       1.00800           0
     24642 W2       8214     TIP3     H2       HT       0.417000       1.00800           0
     24643 W2       8215     TIP3     OH2      OT      -0.834000       15.9994           0
     24644 W2       8215     TIP3     H1       HT       0.417000       1.00800           0
     24645 W2       8215     TIP3     H2       HT       0.417000       1.00800           0
     24646 W2       8216     TIP3     OH2      OT      -0.834000       15.9994           0
     24647 W2       8216     TIP3     H1       HT       0.417000       1.00800           0
     24648 W2       8216     TIP3     H2       HT       0.417000       1.00800           0
     24649 W2       8217     TIP3     OH2      OT      -0.834000       15.9994           0
     24650 W2       8217     TIP3     H1       HT       0.417000       1.00800           0
     24651 W2       8217     TIP3     H2       HT       0.417000       1.00800           0
     24652 W2       8218     TIP3     OH2      OT      -0.834000       15.9994           0
     24653 W2       8218     TIP3     H1       HT       0.417000       1.00800           0
     24654 W2       8218     TIP3     H2       HT       0.417000       1.00800           0
     24655 W2       8219     TIP3     OH2      OT      -0.834000       15.9994           0
     24656 W2       8219     TIP3     H1       HT       0.417000       1.00800           0
     24657 W2       8219     TIP3     H2       HT       0.417000       1.00800           0
     24658 W2       8220     TIP3     OH2      OT      -0.834000       15.9994           0
     24659 W2       8220     TIP3     H1       HT       0.417000       1.00800           0
     24660 W2       8220     TIP3     H2       HT       0.417000       1.00800           0
     24661 W2       8221     TIP3     OH2      OT      -0.834000       15.9994           0
     24662 W2       8221     TIP3     H1       HT       0.417000       1.00800           0
     24663 W2       8221     TIP3     H2       HT       0.417000       1.00800           0
     24664 W2       8222     TIP3     OH2      OT      -0.834000       15.9994           0
     24665 W2       8222     TIP3     H1       HT       0.417000       1.00800           0
     24666 W2       8222     TIP3     H2       HT       0.417000       1.00800           0
     24667 W2       8223     TIP3     OH2      OT      -0.834000       15.9994           0
     24668 W2       8223     TIP3     H1       HT       0.417000       1.00800           0
     24669 W2       8223     TIP3     H2       HT       0.417000       1.00800           0
     24670 W2       8224     TIP3     OH2      OT      -0.834000       15.9994           0
     24671 W2       8224     TIP3     H1       HT       0.417000       1.00800           0
     24672 W2       8224     TIP3     H2       HT       0.417000       1.00800           0
     24673 W2       8225     TIP3     OH2      OT      -0.834000       15.9994           0
     24674 W2       8225     TIP3     H1       HT       0.417000       1.00800           0
     24675 W2       8225     TIP3     H2       HT       0.417000       1.00800           0
     24676 W2       8226     TIP3     OH2      OT      -0.834000       15.9994           0
     24677 W2       8226     TIP3     H1       HT       0.417000       1.00800           0
     24678 W2       8226     TIP3     H2       HT       0.417000       1.00800           0
     24679 W2       8227     TIP3     OH2      OT      -0.834000       15.9994           0
     24680 W2       8227     TIP3     H1       HT       0.417000       1.00800           0
     24681 W2       8227     TIP3     H2       HT       0.417000       1.00800           0
     24682 W2       8228     TIP3     OH2      OT      -0.834000       15.9994           0
     24683 W2       8228     TIP3     H1       HT       0.417000       1.00800           0
     24684 W2       8228     TIP3     H2       HT       0.417000       1.00800           0
     24685 W2       8229     TIP3     OH2      OT      -0.834000       15.9994           0
     24686 W2       8229     TIP3     H1       HT       0.417000       1.00800           0
     24687 W2       8229     TIP3     H2       HT       0.417000       1.00800           0
     24688 W2       8230     TIP3     OH2      OT      -0.834000       15.9994           0
     24689 W2       8230     TIP3     H1       HT       0.417000       1.00800           0
     24690 W2       8230     TIP3     H2       HT       0.417000       1.00800           0
     24691 W2       8231     TIP3     OH2      OT      -0.834000       15.9994           0
     24692 W2       8231     TIP3     H1       HT       0.417000       1.00800           0
     24693 W2       8231     TIP3     H2       HT       0.417000       1.00800           0
     24694 W2       8232     TIP3     OH2      OT      -0.834000       15.9994           0
     24695 W2       8232     TIP3     H1       HT       0.417000       1.00800           0
     24696 W2       8232     TIP3     H2       HT       0.417000       1.00800           0
     24697 W2       8233     TIP3     OH2      OT      -0.834000       15.9994           0
     24698 W2       8233     TIP3     H1       HT       0.417000       1.00800           0
     24699 W2       8233     TIP3     H2       HT       0.417000       1.00800           0
     24700 W2       8234     TIP3     OH2      OT      -0.834000       15.9994           0
     24701 W2       8234     TIP3     H1       HT       0.417000       1.00800           0
     24702 W2       8234     TIP3     H2       HT       0.417000       1.00800           0
     24703 W2       8235     TIP3     OH2      OT      -0.834000       15.9994           0
     24704 W2       8235     TIP3     H1       HT       0.417000       1.00800           0
     24705 W2       8235     TIP3     H2       HT       0.417000       1.00800           0
     24706 W2       8236     TIP3     OH2      OT      -0.834000       15.9994           0
     24707 W2       8236     TIP3     H1       HT       0.417000       1.00800           0
     24708 W2       8236     TIP3     H2       HT       0.417000       1.00800           0
     24709 W2       8237     TIP3     OH2      OT      -0.834000       15.9994           0
     24710 W2       8237     TIP3     H1       HT       0.417000       1.00800           0
     24711 W2       8237     TIP3     H2       HT       0.417000       1.00800           0
     24712 W2       8238     TIP3     OH2      OT      -0.834000       15.9994           0
     24713 W2       8238     TIP3     H1       HT       0.417000       1.00800           0
     24714 W2       8238     TIP3     H2       HT       0.417000       1.00800           0
     24715 W2       8239     TIP3     OH2      OT      -0.834000       15.9994           0
     24716 W2       8239     TIP3     H1       HT       0.417000       1.00800           0
     24717 W2       8239     TIP3     H2       HT       0.417000       1.00800           0
     24718 W2       8240     TIP3     OH2      OT      -0.834000       15.9994           0
     24719 W2       8240     TIP3     H1       HT       0.417000       1.00800           0
     24720 W2       8240     TIP3     H2       HT       0.417000       1.00800           0
     24721 W2       8241     TIP3     OH2      OT      -0.834000       15.9994           0
     24722 W2       8241     TIP3     H1       HT       0.417000       1.00800           0
     24723 W2       8241     TIP3     H2       HT       0.417000       1.00800           0
     24724 W2       8242     TIP3     OH2      OT      -0.834000       15.9994           0
     24725 W2       8242     TIP3     H1       HT       0.417000       1.00800           0
     24726 W2       8242     TIP3     H2       HT       0.417000       1.00800           0
     24727 W2       8243     TIP3     OH2      OT      -0.834000       15.9994           0
     24728 W2       8243     TIP3     H1       HT       0.417000       1.00800           0
     24729 W2       8243     TIP3     H2       HT       0.417000       1.00800           0
     24730 W2       8244     TIP3     OH2      OT      -0.834000       15.9994           0
     24731 W2       8244     TIP3     H1       HT       0.417000       1.00800           0
     24732 W2       8244     TIP3     H2       HT       0.417000       1.00800           0
     24733 W2       8245     TIP3     OH2      OT      -0.834000       15.9994           0
     24734 W2       8245     TIP3     H1       HT       0.417000       1.00800           0
     24735 W2       8245     TIP3     H2       HT       0.417000       1.00800           0
     24736 W2       8246     TIP3     OH2      OT      -0.834000       15.9994           0
     24737 W2       8246     TIP3     H1       HT       0.417000       1.00800           0
     24738 W2       8246     TIP3     H2       HT       0.417000       1.00800           0
     24739 W2       8247     TIP3     OH2      OT      -0.834000       15.9994           0
     24740 W2       8247     TIP3     H1       HT       0.417000       1.00800           0
     24741 W2       8247     TIP3     H2       HT       0.417000       1.00800           0
     24742 W2       8248     TIP3     OH2      OT      -0.834000       15.9994           0
     24743 W2       8248     TIP3     H1       HT       0.417000       1.00800           0
     24744 W2       8248     TIP3     H2       HT       0.417000       1.00800           0
     24745 W2       8249     TIP3     OH2      OT      -0.834000       15.9994           0
     24746 W2       8249     TIP3     H1       HT       0.417000       1.00800           0
     24747 W2       8249     TIP3     H2       HT       0.417000       1.00800           0
     24748 W2       8250     TIP3     OH2      OT      -0.834000       15.9994           0
     24749 W2       8250     TIP3     H1       HT       0.417000       1.00800           0
     24750 W2       8250     TIP3     H2       HT       0.417000       1.00800           0
     24751 W2       8251     TIP3     OH2      OT      -0.834000       15.9994           0
     24752 W2       8251     TIP3     H1       HT       0.417000       1.00800           0
     24753 W2       8251     TIP3     H2       HT       0.417000       1.00800           0
     24754 W2       8252     TIP3     OH2      OT      -0.834000       15.9994           0
     24755 W2       8252     TIP3     H1       HT       0.417000       1.00800           0
     24756 W2       8252     TIP3     H2       HT       0.417000       1.00800           0
     24757 W2       8253     TIP3     OH2      OT      -0.834000       15.9994           0
     24758 W2       8253     TIP3     H1       HT       0.417000       1.00800           0
     24759 W2       8253     TIP3     H2       HT       0.417000       1.00800           0
     24760 W2       8254     TIP3     OH2      OT      -0.834000       15.9994           0
     24761 W2       8254     TIP3     H1       HT       0.417000       1.00800           0
     24762 W2       8254     TIP3     H2       HT       0.417000       1.00800           0
     24763 W2       8255     TIP3     OH2      OT      -0.834000       15.9994           0
     24764 W2       8255     TIP3     H1       HT       0.417000       1.00800           0
     24765 W2       8255     TIP3     H2       HT       0.417000       1.00800           0
     24766 W2       8256     TIP3     OH2      OT      -0.834000       15.9994           0
     24767 W2       8256     TIP3     H1       HT       0.417000       1.00800           0
     24768 W2       8256     TIP3     H2       HT       0.417000       1.00800           0
     24769 W2       8257     TIP3     OH2      OT      -0.834000       15.9994           0
     24770 W2       8257     TIP3     H1       HT       0.417000       1.00800           0
     24771 W2       8257     TIP3     H2       HT       0.417000       1.00800           0
     24772 W2       8258     TIP3     OH2      OT      -0.834000       15.9994           0
     24773 W2       8258     TIP3     H1       HT       0.417000       1.00800           0
     24774 W2       8258     TIP3     H2       HT       0.417000       1.00800           0
     24775 W2       8259     TIP3     OH2      OT      -0.834000       15.9994           0
     24776 W2       8259     TIP3     H1       HT       0.417000       1.00800           0
     24777 W2       8259     TIP3     H2       HT       0.417000       1.00800           0
     24778 W2       8260     TIP3     OH2      OT      -0.834000       15.9994           0
     24779 W2       8260     TIP3     H1       HT       0.417000       1.00800           0
     24780 W2       8260     TIP3     H2       HT       0.417000       1.00800           0
     24781 W2       8261     TIP3     OH2      OT      -0.834000       15.9994           0
     24782 W2       8261     TIP3     H1       HT       0.417000       1.00800           0
     24783 W2       8261     TIP3     H2       HT       0.417000       1.00800           0
     24784 W2       8262     TIP3     OH2      OT      -0.834000       15.9994           0
     24785 W2       8262     TIP3     H1       HT       0.417000       1.00800           0
     24786 W2       8262     TIP3     H2       HT       0.417000       1.00800           0
     24787 W2       8263     TIP3     OH2      OT      -0.834000       15.9994           0
     24788 W2       8263     TIP3     H1       HT       0.417000       1.00800           0
     24789 W2       8263     TIP3     H2       HT       0.417000       1.00800           0
     24790 W2       8264     TIP3     OH2      OT      -0.834000       15.9994           0
     24791 W2       8264     TIP3     H1       HT       0.417000       1.00800           0
     24792 W2       8264     TIP3     H2       HT       0.417000       1.00800           0
     24793 W2       8265     TIP3     OH2      OT      -0.834000       15.9994           0
     24794 W2       8265     TIP3     H1       HT       0.417000       1.00800           0
     24795 W2       8265     TIP3     H2       HT       0.417000       1.00800           0
     24796 W2       8266     TIP3     OH2      OT      -0.834000       15.9994           0
     24797 W2       8266     TIP3     H1       HT       0.417000       1.00800           0
     24798 W2       8266     TIP3     H2       HT       0.417000       1.00800           0
     24799 W2       8267     TIP3     OH2      OT      -0.834000       15.9994           0
     24800 W2       8267     TIP3     H1       HT       0.417000       1.00800           0
     24801 W2       8267     TIP3     H2       HT       0.417000       1.00800           0
     24802 W2       8268     TIP3     OH2      OT      -0.834000       15.9994           0
     24803 W2       8268     TIP3     H1       HT       0.417000       1.00800           0
     24804 W2       8268     TIP3     H2       HT       0.417000       1.00800           0
     24805 W2       8269     TIP3     OH2      OT      -0.834000       15.9994           0
     24806 W2       8269     TIP3     H1       HT       0.417000       1.00800           0
     24807 W2       8269     TIP3     H2       HT       0.417000       1.00800           0
     24808 W2       8270     TIP3     OH2      OT      -0.834000       15.9994           0
     24809 W2       8270     TIP3     H1       HT       0.417000       1.00800           0
     24810 W2       8270     TIP3     H2       HT       0.417000       1.00800           0
     24811 W2       8271     TIP3     OH2      OT      -0.834000       15.9994           0
     24812 W2       8271     TIP3     H1       HT       0.417000       1.00800           0
     24813 W2       8271     TIP3     H2       HT       0.417000       1.00800           0
     24814 W2       8272     TIP3     OH2      OT      -0.834000       15.9994           0
     24815 W2       8272     TIP3     H1       HT       0.417000       1.00800           0
     24816 W2       8272     TIP3     H2       HT       0.417000       1.00800           0
     24817 W2       8273     TIP3     OH2      OT      -0.834000       15.9994           0
     24818 W2       8273     TIP3     H1       HT       0.417000       1.00800           0
     24819 W2       8273     TIP3     H2       HT       0.417000       1.00800           0
     24820 W2       8274     TIP3     OH2      OT      -0.834000       15.9994           0
     24821 W2       8274     TIP3     H1       HT       0.417000       1.00800           0
     24822 W2       8274     TIP3     H2       HT       0.417000       1.00800           0
     24823 W2       8275     TIP3     OH2      OT      -0.834000       15.9994           0
     24824 W2       8275     TIP3     H1       HT       0.417000       1.00800           0
     24825 W2       8275     TIP3     H2       HT       0.417000       1.00800           0
     24826 W2       8276     TIP3     OH2      OT      -0.834000       15.9994           0
     24827 W2       8276     TIP3     H1       HT       0.417000       1.00800           0
     24828 W2       8276     TIP3     H2       HT       0.417000       1.00800           0
     24829 W2       8277     TIP3     OH2      OT      -0.834000       15.9994           0
     24830 W2       8277     TIP3     H1       HT       0.417000       1.00800           0
     24831 W2       8277     TIP3     H2       HT       0.417000       1.00800           0
     24832 W2       8278     TIP3     OH2      OT      -0.834000       15.9994           0
     24833 W2       8278     TIP3     H1       HT       0.417000       1.00800           0
     24834 W2       8278     TIP3     H2       HT       0.417000       1.00800           0
     24835 W2       8279     TIP3     OH2      OT      -0.834000       15.9994           0
     24836 W2       8279     TIP3     H1       HT       0.417000       1.00800           0
     24837 W2       8279     TIP3     H2       HT       0.417000       1.00800           0
     24838 W2       8280     TIP3     OH2      OT      -0.834000       15.9994           0
     24839 W2       8280     TIP3     H1       HT       0.417000       1.00800           0
     24840 W2       8280     TIP3     H2       HT       0.417000       1.00800           0
     24841 W2       8281     TIP3     OH2      OT      -0.834000       15.9994           0
     24842 W2       8281     TIP3     H1       HT       0.417000       1.00800           0
     24843 W2       8281     TIP3     H2       HT       0.417000       1.00800           0
     24844 W2       8282     TIP3     OH2      OT      -0.834000       15.9994           0
     24845 W2       8282     TIP3     H1       HT       0.417000       1.00800           0
     24846 W2       8282     TIP3     H2       HT       0.417000       1.00800           0
     24847 W2       8283     TIP3     OH2      OT      -0.834000       15.9994           0
     24848 W2       8283     TIP3     H1       HT       0.417000       1.00800           0
     24849 W2       8283     TIP3     H2       HT       0.417000       1.00800           0
     24850 W2       8284     TIP3     OH2      OT      -0.834000       15.9994           0
     24851 W2       8284     TIP3     H1       HT       0.417000       1.00800           0
     24852 W2       8284     TIP3     H2       HT       0.417000       1.00800           0
     24853 W2       8285     TIP3     OH2      OT      -0.834000       15.9994           0
     24854 W2       8285     TIP3     H1       HT       0.417000       1.00800           0
     24855 W2       8285     TIP3     H2       HT       0.417000       1.00800           0
     24856 W2       8286     TIP3     OH2      OT      -0.834000       15.9994           0
     24857 W2       8286     TIP3     H1       HT       0.417000       1.00800           0
     24858 W2       8286     TIP3     H2       HT       0.417000       1.00800           0
     24859 W2       8287     TIP3     OH2      OT      -0.834000       15.9994           0
     24860 W2       8287     TIP3     H1       HT       0.417000       1.00800           0
     24861 W2       8287     TIP3     H2       HT       0.417000       1.00800           0
     24862 W2       8288     TIP3     OH2      OT      -0.834000       15.9994           0
     24863 W2       8288     TIP3     H1       HT       0.417000       1.00800           0
     24864 W2       8288     TIP3     H2       HT       0.417000       1.00800           0
     24865 W2       8289     TIP3     OH2      OT      -0.834000       15.9994           0
     24866 W2       8289     TIP3     H1       HT       0.417000       1.00800           0
     24867 W2       8289     TIP3     H2       HT       0.417000       1.00800           0
     24868 W2       8290     TIP3     OH2      OT      -0.834000       15.9994           0
     24869 W2       8290     TIP3     H1       HT       0.417000       1.00800           0
     24870 W2       8290     TIP3     H2       HT       0.417000       1.00800           0
     24871 W2       8291     TIP3     OH2      OT      -0.834000       15.9994           0
     24872 W2       8291     TIP3     H1       HT       0.417000       1.00800           0
     24873 W2       8291     TIP3     H2       HT       0.417000       1.00800           0
     24874 W2       8292     TIP3     OH2      OT      -0.834000       15.9994           0
     24875 W2       8292     TIP3     H1       HT       0.417000       1.00800           0
     24876 W2       8292     TIP3     H2       HT       0.417000       1.00800           0
     24877 W2       8293     TIP3     OH2      OT      -0.834000       15.9994           0
     24878 W2       8293     TIP3     H1       HT       0.417000       1.00800           0
     24879 W2       8293     TIP3     H2       HT       0.417000       1.00800           0
     24880 W2       8294     TIP3     OH2      OT      -0.834000       15.9994           0
     24881 W2       8294     TIP3     H1       HT       0.417000       1.00800           0
     24882 W2       8294     TIP3     H2       HT       0.417000       1.00800           0
     24883 W2       8295     TIP3     OH2      OT      -0.834000       15.9994           0
     24884 W2       8295     TIP3     H1       HT       0.417000       1.00800           0
     24885 W2       8295     TIP3     H2       HT       0.417000       1.00800           0
     24886 W2       8296     TIP3     OH2      OT      -0.834000       15.9994           0
     24887 W2       8296     TIP3     H1       HT       0.417000       1.00800           0
     24888 W2       8296     TIP3     H2       HT       0.417000       1.00800           0
     24889 W2       8297     TIP3     OH2      OT      -0.834000       15.9994           0
     24890 W2       8297     TIP3     H1       HT       0.417000       1.00800           0
     24891 W2       8297     TIP3     H2       HT       0.417000       1.00800           0
     24892 W2       8298     TIP3     OH2      OT      -0.834000       15.9994           0
     24893 W2       8298     TIP3     H1       HT       0.417000       1.00800           0
     24894 W2       8298     TIP3     H2       HT       0.417000       1.00800           0
     24895 W2       8299     TIP3     OH2      OT      -0.834000       15.9994           0
     24896 W2       8299     TIP3     H1       HT       0.417000       1.00800           0
     24897 W2       8299     TIP3     H2       HT       0.417000       1.00800           0
     24898 W2       8300     TIP3     OH2      OT      -0.834000       15.9994           0
     24899 W2       8300     TIP3     H1       HT       0.417000       1.00800           0
     24900 W2       8300     TIP3     H2       HT       0.417000       1.00800           0
     24901 W2       8301     TIP3     OH2      OT      -0.834000       15.9994           0
     24902 W2       8301     TIP3     H1       HT       0.417000       1.00800           0
     24903 W2       8301     TIP3     H2       HT       0.417000       1.00800           0
     24904 W2       8302     TIP3     OH2      OT      -0.834000       15.9994           0
     24905 W2       8302     TIP3     H1       HT       0.417000       1.00800           0
     24906 W2       8302     TIP3     H2       HT       0.417000       1.00800           0
     24907 W2       8303     TIP3     OH2      OT      -0.834000       15.9994           0
     24908 W2       8303     TIP3     H1       HT       0.417000       1.00800           0
     24909 W2       8303     TIP3     H2       HT       0.417000       1.00800           0
     24910 W2       8304     TIP3     OH2      OT      -0.834000       15.9994           0
     24911 W2       8304     TIP3     H1       HT       0.417000       1.00800           0
     24912 W2       8304     TIP3     H2       HT       0.417000       1.00800           0
     24913 W2       8305     TIP3     OH2      OT      -0.834000       15.9994           0
     24914 W2       8305     TIP3     H1       HT       0.417000       1.00800           0
     24915 W2       8305     TIP3     H2       HT       0.417000       1.00800           0
     24916 W2       8306     TIP3     OH2      OT      -0.834000       15.9994           0
     24917 W2       8306     TIP3     H1       HT       0.417000       1.00800           0
     24918 W2       8306     TIP3     H2       HT       0.417000       1.00800           0
     24919 W2       8307     TIP3     OH2      OT      -0.834000       15.9994           0
     24920 W2       8307     TIP3     H1       HT       0.417000       1.00800           0
     24921 W2       8307     TIP3     H2       HT       0.417000       1.00800           0
     24922 W2       8308     TIP3     OH2      OT      -0.834000       15.9994           0
     24923 W2       8308     TIP3     H1       HT       0.417000       1.00800           0
     24924 W2       8308     TIP3     H2       HT       0.417000       1.00800           0
     24925 W2       8309     TIP3     OH2      OT      -0.834000       15.9994           0
     24926 W2       8309     TIP3     H1       HT       0.417000       1.00800           0
     24927 W2       8309     TIP3     H2       HT       0.417000       1.00800           0
     24928 W2       8310     TIP3     OH2      OT      -0.834000       15.9994           0
     24929 W2       8310     TIP3     H1       HT       0.417000       1.00800           0
     24930 W2       8310     TIP3     H2       HT       0.417000       1.00800           0
     24931 W2       8311     TIP3     OH2      OT      -0.834000       15.9994           0
     24932 W2       8311     TIP3     H1       HT       0.417000       1.00800           0
     24933 W2       8311     TIP3     H2       HT       0.417000       1.00800           0
     24934 W2       8312     TIP3     OH2      OT      -0.834000       15.9994           0
     24935 W2       8312     TIP3     H1       HT       0.417000       1.00800           0
     24936 W2       8312     TIP3     H2       HT       0.417000       1.00800           0
     24937 W2       8313     TIP3     OH2      OT      -0.834000       15.9994           0
     24938 W2       8313     TIP3     H1       HT       0.417000       1.00800           0
     24939 W2       8313     TIP3     H2       HT       0.417000       1.00800           0
     24940 W2       8314     TIP3     OH2      OT      -0.834000       15.9994           0
     24941 W2       8314     TIP3     H1       HT       0.417000       1.00800           0
     24942 W2       8314     TIP3     H2       HT       0.417000       1.00800           0
     24943 W2       8315     TIP3     OH2      OT      -0.834000       15.9994           0
     24944 W2       8315     TIP3     H1       HT       0.417000       1.00800           0
     24945 W2       8315     TIP3     H2       HT       0.417000       1.00800           0
     24946 W2       8316     TIP3     OH2      OT      -0.834000       15.9994           0
     24947 W2       8316     TIP3     H1       HT       0.417000       1.00800           0
     24948 W2       8316     TIP3     H2       HT       0.417000       1.00800           0
     24949 W2       8317     TIP3     OH2      OT      -0.834000       15.9994           0
     24950 W2       8317     TIP3     H1       HT       0.417000       1.00800           0
     24951 W2       8317     TIP3     H2       HT       0.417000       1.00800           0
     24952 W2       8318     TIP3     OH2      OT      -0.834000       15.9994           0
     24953 W2       8318     TIP3     H1       HT       0.417000       1.00800           0
     24954 W2       8318     TIP3     H2       HT       0.417000       1.00800           0
     24955 W2       8319     TIP3     OH2      OT      -0.834000       15.9994           0
     24956 W2       8319     TIP3     H1       HT       0.417000       1.00800           0
     24957 W2       8319     TIP3     H2       HT       0.417000       1.00800           0
     24958 W2       8320     TIP3     OH2      OT      -0.834000       15.9994           0
     24959 W2       8320     TIP3     H1       HT       0.417000       1.00800           0
     24960 W2       8320     TIP3     H2       HT       0.417000       1.00800           0
     24961 W2       8321     TIP3     OH2      OT      -0.834000       15.9994           0
     24962 W2       8321     TIP3     H1       HT       0.417000       1.00800           0
     24963 W2       8321     TIP3     H2       HT       0.417000       1.00800           0
     24964 W2       8322     TIP3     OH2      OT      -0.834000       15.9994           0
     24965 W2       8322     TIP3     H1       HT       0.417000       1.00800           0
     24966 W2       8322     TIP3     H2       HT       0.417000       1.00800           0
     24967 W2       8323     TIP3     OH2      OT      -0.834000       15.9994           0
     24968 W2       8323     TIP3     H1       HT       0.417000       1.00800           0
     24969 W2       8323     TIP3     H2       HT       0.417000       1.00800           0
     24970 W2       8324     TIP3     OH2      OT      -0.834000       15.9994           0
     24971 W2       8324     TIP3     H1       HT       0.417000       1.00800           0
     24972 W2       8324     TIP3     H2       HT       0.417000       1.00800           0
     24973 W2       8325     TIP3     OH2      OT      -0.834000       15.9994           0
     24974 W2       8325     TIP3     H1       HT       0.417000       1.00800           0
     24975 W2       8325     TIP3     H2       HT       0.417000       1.00800           0
     24976 W2       8326     TIP3     OH2      OT      -0.834000       15.9994           0
     24977 W2       8326     TIP3     H1       HT       0.417000       1.00800           0
     24978 W2       8326     TIP3     H2       HT       0.417000       1.00800           0
     24979 W2       8327     TIP3     OH2      OT      -0.834000       15.9994           0
     24980 W2       8327     TIP3     H1       HT       0.417000       1.00800           0
     24981 W2       8327     TIP3     H2       HT       0.417000       1.00800           0
     24982 W2       8328     TIP3     OH2      OT      -0.834000       15.9994           0
     24983 W2       8328     TIP3     H1       HT       0.417000       1.00800           0
     24984 W2       8328     TIP3     H2       HT       0.417000       1.00800           0
     24985 W2       8329     TIP3     OH2      OT      -0.834000       15.9994           0
     24986 W2       8329     TIP3     H1       HT       0.417000       1.00800           0
     24987 W2       8329     TIP3     H2       HT       0.417000       1.00800           0
     24988 W2       8330     TIP3     OH2      OT      -0.834000       15.9994           0
     24989 W2       8330     TIP3     H1       HT       0.417000       1.00800           0
     24990 W2       8330     TIP3     H2       HT       0.417000       1.00800           0
     24991 W2       8331     TIP3     OH2      OT      -0.834000       15.9994           0
     24992 W2       8331     TIP3     H1       HT       0.417000       1.00800           0
     24993 W2       8331     TIP3     H2       HT       0.417000       1.00800           0
     24994 W2       8332     TIP3     OH2      OT      -0.834000       15.9994           0
     24995 W2       8332     TIP3     H1       HT       0.417000       1.00800           0
     24996 W2       8332     TIP3     H2       HT       0.417000       1.00800           0
     24997 W2       8333     TIP3     OH2      OT      -0.834000       15.9994           0
     24998 W2       8333     TIP3     H1       HT       0.417000       1.00800           0
     24999 W2       8333     TIP3     H2       HT       0.417000       1.00800           0
     25000 W2       8334     TIP3     OH2      OT      -0.834000       15.9994           0
     25001 W2       8334     TIP3     H1       HT       0.417000       1.00800           0
     25002 W2       8334     TIP3     H2       HT       0.417000       1.00800           0
     25003 W2       8335     TIP3     OH2      OT      -0.834000       15.9994           0
     25004 W2       8335     TIP3     H1       HT       0.417000       1.00800           0
     25005 W2       8335     TIP3     H2       HT       0.417000       1.00800           0
     25006 W2       8336     TIP3     OH2      OT      -0.834000       15.9994           0
     25007 W2       8336     TIP3     H1       HT       0.417000       1.00800           0
     25008 W2       8336     TIP3     H2       HT       0.417000       1.00800           0
     25009 W2       8337     TIP3     OH2      OT      -0.834000       15.9994           0
     25010 W2       8337     TIP3     H1       HT       0.417000       1.00800           0
     25011 W2       8337     TIP3     H2       HT       0.417000       1.00800           0
     25012 W2       8338     TIP3     OH2      OT      -0.834000       15.9994           0
     25013 W2       8338     TIP3     H1       HT       0.417000       1.00800           0
     25014 W2       8338     TIP3     H2       HT       0.417000       1.00800           0
     25015 W2       8339     TIP3     OH2      OT      -0.834000       15.9994           0
     25016 W2       8339     TIP3     H1       HT       0.417000       1.00800           0
     25017 W2       8339     TIP3     H2       HT       0.417000       1.00800           0
     25018 W2       8340     TIP3     OH2      OT      -0.834000       15.9994           0
     25019 W2       8340     TIP3     H1       HT       0.417000       1.00800           0
     25020 W2       8340     TIP3     H2       HT       0.417000       1.00800           0
     25021 W2       8341     TIP3     OH2      OT      -0.834000       15.9994           0
     25022 W2       8341     TIP3     H1       HT       0.417000       1.00800           0
     25023 W2       8341     TIP3     H2       HT       0.417000       1.00800           0
     25024 W2       8342     TIP3     OH2      OT      -0.834000       15.9994           0
     25025 W2       8342     TIP3     H1       HT       0.417000       1.00800           0
     25026 W2       8342     TIP3     H2       HT       0.417000       1.00800           0
     25027 W2       8343     TIP3     OH2      OT      -0.834000       15.9994           0
     25028 W2       8343     TIP3     H1       HT       0.417000       1.00800           0
     25029 W2       8343     TIP3     H2       HT       0.417000       1.00800           0
     25030 W2       8344     TIP3     OH2      OT      -0.834000       15.9994           0
     25031 W2       8344     TIP3     H1       HT       0.417000       1.00800           0
     25032 W2       8344     TIP3     H2       HT       0.417000       1.00800           0
     25033 W2       8345     TIP3     OH2      OT      -0.834000       15.9994           0
     25034 W2       8345     TIP3     H1       HT       0.417000       1.00800           0
     25035 W2       8345     TIP3     H2       HT       0.417000       1.00800           0
     25036 W2       8346     TIP3     OH2      OT      -0.834000       15.9994           0
     25037 W2       8346     TIP3     H1       HT       0.417000       1.00800           0
     25038 W2       8346     TIP3     H2       HT       0.417000       1.00800           0
     25039 W2       8347     TIP3     OH2      OT      -0.834000       15.9994           0
     25040 W2       8347     TIP3     H1       HT       0.417000       1.00800           0
     25041 W2       8347     TIP3     H2       HT       0.417000       1.00800           0
     25042 W2       8348     TIP3     OH2      OT      -0.834000       15.9994           0
     25043 W2       8348     TIP3     H1       HT       0.417000       1.00800           0
     25044 W2       8348     TIP3     H2       HT       0.417000       1.00800           0
     25045 W2       8349     TIP3     OH2      OT      -0.834000       15.9994           0
     25046 W2       8349     TIP3     H1       HT       0.417000       1.00800           0
     25047 W2       8349     TIP3     H2       HT       0.417000       1.00800           0
     25048 W2       8350     TIP3     OH2      OT      -0.834000       15.9994           0
     25049 W2       8350     TIP3     H1       HT       0.417000       1.00800           0
     25050 W2       8350     TIP3     H2       HT       0.417000       1.00800           0
     25051 W2       8351     TIP3     OH2      OT      -0.834000       15.9994           0
     25052 W2       8351     TIP3     H1       HT       0.417000       1.00800           0
     25053 W2       8351     TIP3     H2       HT       0.417000       1.00800           0
     25054 W2       8352     TIP3     OH2      OT      -0.834000       15.9994           0
     25055 W2       8352     TIP3     H1       HT       0.417000       1.00800           0
     25056 W2       8352     TIP3     H2       HT       0.417000       1.00800           0
     25057 W2       8353     TIP3     OH2      OT      -0.834000       15.9994           0
     25058 W2       8353     TIP3     H1       HT       0.417000       1.00800           0
     25059 W2       8353     TIP3     H2       HT       0.417000       1.00800           0
     25060 W2       8354     TIP3     OH2      OT      -0.834000       15.9994           0
     25061 W2       8354     TIP3     H1       HT       0.417000       1.00800           0
     25062 W2       8354     TIP3     H2       HT       0.417000       1.00800           0
     25063 W2       8355     TIP3     OH2      OT      -0.834000       15.9994           0
     25064 W2       8355     TIP3     H1       HT       0.417000       1.00800           0
     25065 W2       8355     TIP3     H2       HT       0.417000       1.00800           0
     25066 W2       8356     TIP3     OH2      OT      -0.834000       15.9994           0
     25067 W2       8356     TIP3     H1       HT       0.417000       1.00800           0
     25068 W2       8356     TIP3     H2       HT       0.417000       1.00800           0
     25069 W2       8357     TIP3     OH2      OT      -0.834000       15.9994           0
     25070 W2       8357     TIP3     H1       HT       0.417000       1.00800           0
     25071 W2       8357     TIP3     H2       HT       0.417000       1.00800           0
     25072 W2       8358     TIP3     OH2      OT      -0.834000       15.9994           0
     25073 W2       8358     TIP3     H1       HT       0.417000       1.00800           0
     25074 W2       8358     TIP3     H2       HT       0.417000       1.00800           0
     25075 W2       8359     TIP3     OH2      OT      -0.834000       15.9994           0
     25076 W2       8359     TIP3     H1       HT       0.417000       1.00800           0
     25077 W2       8359     TIP3     H2       HT       0.417000       1.00800           0
     25078 W2       8360     TIP3     OH2      OT      -0.834000       15.9994           0
     25079 W2       8360     TIP3     H1       HT       0.417000       1.00800           0
     25080 W2       8360     TIP3     H2       HT       0.417000       1.00800           0
     25081 W2       8361     TIP3     OH2      OT      -0.834000       15.9994           0
     25082 W2       8361     TIP3     H1       HT       0.417000       1.00800           0
     25083 W2       8361     TIP3     H2       HT       0.417000       1.00800           0
     25084 W2       8362     TIP3     OH2      OT      -0.834000       15.9994           0
     25085 W2       8362     TIP3     H1       HT       0.417000       1.00800           0
     25086 W2       8362     TIP3     H2       HT       0.417000       1.00800           0
     25087 W2       8363     TIP3     OH2      OT      -0.834000       15.9994           0
     25088 W2       8363     TIP3     H1       HT       0.417000       1.00800           0
     25089 W2       8363     TIP3     H2       HT       0.417000       1.00800           0
     25090 W2       8364     TIP3     OH2      OT      -0.834000       15.9994           0
     25091 W2       8364     TIP3     H1       HT       0.417000       1.00800           0
     25092 W2       8364     TIP3     H2       HT       0.417000       1.00800           0
     25093 W2       8365     TIP3     OH2      OT      -0.834000       15.9994           0
     25094 W2       8365     TIP3     H1       HT       0.417000       1.00800           0
     25095 W2       8365     TIP3     H2       HT       0.417000       1.00800           0
     25096 W2       8366     TIP3     OH2      OT      -0.834000       15.9994           0
     25097 W2       8366     TIP3     H1       HT       0.417000       1.00800           0
     25098 W2       8366     TIP3     H2       HT       0.417000       1.00800           0
     25099 W2       8367     TIP3     OH2      OT      -0.834000       15.9994           0
     25100 W2       8367     TIP3     H1       HT       0.417000       1.00800           0
     25101 W2       8367     TIP3     H2       HT       0.417000       1.00800           0
     25102 W2       8368     TIP3     OH2      OT      -0.834000       15.9994           0
     25103 W2       8368     TIP3     H1       HT       0.417000       1.00800           0
     25104 W2       8368     TIP3     H2       HT       0.417000       1.00800           0
     25105 W2       8369     TIP3     OH2      OT      -0.834000       15.9994           0
     25106 W2       8369     TIP3     H1       HT       0.417000       1.00800           0
     25107 W2       8369     TIP3     H2       HT       0.417000       1.00800           0
     25108 W2       8370     TIP3     OH2      OT      -0.834000       15.9994           0
     25109 W2       8370     TIP3     H1       HT       0.417000       1.00800           0
     25110 W2       8370     TIP3     H2       HT       0.417000       1.00800           0
     25111 W2       8371     TIP3     OH2      OT      -0.834000       15.9994           0
     25112 W2       8371     TIP3     H1       HT       0.417000       1.00800           0
     25113 W2       8371     TIP3     H2       HT       0.417000       1.00800           0
     25114 W2       8372     TIP3     OH2      OT      -0.834000       15.9994           0
     25115 W2       8372     TIP3     H1       HT       0.417000       1.00800           0
     25116 W2       8372     TIP3     H2       HT       0.417000       1.00800           0
     25117 W2       8373     TIP3     OH2      OT      -0.834000       15.9994           0
     25118 W2       8373     TIP3     H1       HT       0.417000       1.00800           0
     25119 W2       8373     TIP3     H2       HT       0.417000       1.00800           0
     25120 W2       8374     TIP3     OH2      OT      -0.834000       15.9994           0
     25121 W2       8374     TIP3     H1       HT       0.417000       1.00800           0
     25122 W2       8374     TIP3     H2       HT       0.417000       1.00800           0
     25123 W2       8375     TIP3     OH2      OT      -0.834000       15.9994           0
     25124 W2       8375     TIP3     H1       HT       0.417000       1.00800           0
     25125 W2       8375     TIP3     H2       HT       0.417000       1.00800           0
     25126 W2       8376     TIP3     OH2      OT      -0.834000       15.9994           0
     25127 W2       8376     TIP3     H1       HT       0.417000       1.00800           0
     25128 W2       8376     TIP3     H2       HT       0.417000       1.00800           0
     25129 W2       8377     TIP3     OH2      OT      -0.834000       15.9994           0
     25130 W2       8377     TIP3     H1       HT       0.417000       1.00800           0
     25131 W2       8377     TIP3     H2       HT       0.417000       1.00800           0
     25132 W2       8378     TIP3     OH2      OT      -0.834000       15.9994           0
     25133 W2       8378     TIP3     H1       HT       0.417000       1.00800           0
     25134 W2       8378     TIP3     H2       HT       0.417000       1.00800           0
     25135 W2       8379     TIP3     OH2      OT      -0.834000       15.9994           0
     25136 W2       8379     TIP3     H1       HT       0.417000       1.00800           0
     25137 W2       8379     TIP3     H2       HT       0.417000       1.00800           0
     25138 W2       8380     TIP3     OH2      OT      -0.834000       15.9994           0
     25139 W2       8380     TIP3     H1       HT       0.417000       1.00800           0
     25140 W2       8380     TIP3     H2       HT       0.417000       1.00800           0
     25141 W2       8381     TIP3     OH2      OT      -0.834000       15.9994           0
     25142 W2       8381     TIP3     H1       HT       0.417000       1.00800           0
     25143 W2       8381     TIP3     H2       HT       0.417000       1.00800           0
     25144 W2       8382     TIP3     OH2      OT      -0.834000       15.9994           0
     25145 W2       8382     TIP3     H1       HT       0.417000       1.00800           0
     25146 W2       8382     TIP3     H2       HT       0.417000       1.00800           0
     25147 W2       8383     TIP3     OH2      OT      -0.834000       15.9994           0
     25148 W2       8383     TIP3     H1       HT       0.417000       1.00800           0
     25149 W2       8383     TIP3     H2       HT       0.417000       1.00800           0
     25150 W2       8384     TIP3     OH2      OT      -0.834000       15.9994           0
     25151 W2       8384     TIP3     H1       HT       0.417000       1.00800           0
     25152 W2       8384     TIP3     H2       HT       0.417000       1.00800           0
     25153 W2       8385     TIP3     OH2      OT      -0.834000       15.9994           0
     25154 W2       8385     TIP3     H1       HT       0.417000       1.00800           0
     25155 W2       8385     TIP3     H2       HT       0.417000       1.00800           0
     25156 W2       8386     TIP3     OH2      OT      -0.834000       15.9994           0
     25157 W2       8386     TIP3     H1       HT       0.417000       1.00800           0
     25158 W2       8386     TIP3     H2       HT       0.417000       1.00800           0
     25159 W2       8387     TIP3     OH2      OT      -0.834000       15.9994           0
     25160 W2       8387     TIP3     H1       HT       0.417000       1.00800           0
     25161 W2       8387     TIP3     H2       HT       0.417000       1.00800           0
     25162 W2       8388     TIP3     OH2      OT      -0.834000       15.9994           0
     25163 W2       8388     TIP3     H1       HT       0.417000       1.00800           0
     25164 W2       8388     TIP3     H2       HT       0.417000       1.00800           0
     25165 W2       8389     TIP3     OH2      OT      -0.834000       15.9994           0
     25166 W2       8389     TIP3     H1       HT       0.417000       1.00800           0
     25167 W2       8389     TIP3     H2       HT       0.417000       1.00800           0
     25168 W2       8390     TIP3     OH2      OT      -0.834000       15.9994           0
     25169 W2       8390     TIP3     H1       HT       0.417000       1.00800           0
     25170 W2       8390     TIP3     H2       HT       0.417000       1.00800           0
     25171 W2       8391     TIP3     OH2      OT      -0.834000       15.9994           0
     25172 W2       8391     TIP3     H1       HT       0.417000       1.00800           0
     25173 W2       8391     TIP3     H2       HT       0.417000       1.00800           0
     25174 W2       8392     TIP3     OH2      OT      -0.834000       15.9994           0
     25175 W2       8392     TIP3     H1       HT       0.417000       1.00800           0
     25176 W2       8392     TIP3     H2       HT       0.417000       1.00800           0
     25177 W2       8393     TIP3     OH2      OT      -0.834000       15.9994           0
     25178 W2       8393     TIP3     H1       HT       0.417000       1.00800           0
     25179 W2       8393     TIP3     H2       HT       0.417000       1.00800           0
     25180 W2       8394     TIP3     OH2      OT      -0.834000       15.9994           0
     25181 W2       8394     TIP3     H1       HT       0.417000       1.00800           0
     25182 W2       8394     TIP3     H2       HT       0.417000       1.00800           0
     25183 W2       8395     TIP3     OH2      OT      -0.834000       15.9994           0
     25184 W2       8395     TIP3     H1       HT       0.417000       1.00800           0
     25185 W2       8395     TIP3     H2       HT       0.417000       1.00800           0
     25186 W2       8396     TIP3     OH2      OT      -0.834000       15.9994           0
     25187 W2       8396     TIP3     H1       HT       0.417000       1.00800           0
     25188 W2       8396     TIP3     H2       HT       0.417000       1.00800           0
     25189 W2       8397     TIP3     OH2      OT      -0.834000       15.9994           0
     25190 W2       8397     TIP3     H1       HT       0.417000       1.00800           0
     25191 W2       8397     TIP3     H2       HT       0.417000       1.00800           0
     25192 W2       8398     TIP3     OH2      OT      -0.834000       15.9994           0
     25193 W2       8398     TIP3     H1       HT       0.417000       1.00800           0
     25194 W2       8398     TIP3     H2       HT       0.417000       1.00800           0
     25195 W2       8399     TIP3     OH2      OT      -0.834000       15.9994           0
     25196 W2       8399     TIP3     H1       HT       0.417000       1.00800           0
     25197 W2       8399     TIP3     H2       HT       0.417000       1.00800           0
     25198 W2       8400     TIP3     OH2      OT      -0.834000       15.9994           0
     25199 W2       8400     TIP3     H1       HT       0.417000       1.00800           0
     25200 W2       8400     TIP3     H2       HT       0.417000       1.00800           0
     25201 W2       8401     TIP3     OH2      OT      -0.834000       15.9994           0
     25202 W2       8401     TIP3     H1       HT       0.417000       1.00800           0
     25203 W2       8401     TIP3     H2       HT       0.417000       1.00800           0
     25204 W2       8402     TIP3     OH2      OT      -0.834000       15.9994           0
     25205 W2       8402     TIP3     H1       HT       0.417000       1.00800           0
     25206 W2       8402     TIP3     H2       HT       0.417000       1.00800           0
     25207 W2       8403     TIP3     OH2      OT      -0.834000       15.9994           0
     25208 W2       8403     TIP3     H1       HT       0.417000       1.00800           0
     25209 W2       8403     TIP3     H2       HT       0.417000       1.00800           0
     25210 W2       8404     TIP3     OH2      OT      -0.834000       15.9994           0
     25211 W2       8404     TIP3     H1       HT       0.417000       1.00800           0
     25212 W2       8404     TIP3     H2       HT       0.417000       1.00800           0
     25213 W2       8405     TIP3     OH2      OT      -0.834000       15.9994           0
     25214 W2       8405     TIP3     H1       HT       0.417000       1.00800           0
     25215 W2       8405     TIP3     H2       HT       0.417000       1.00800           0
     25216 W2       8406     TIP3     OH2      OT      -0.834000       15.9994           0
     25217 W2       8406     TIP3     H1       HT       0.417000       1.00800           0
     25218 W2       8406     TIP3     H2       HT       0.417000       1.00800           0
     25219 W2       8407     TIP3     OH2      OT      -0.834000       15.9994           0
     25220 W2       8407     TIP3     H1       HT       0.417000       1.00800           0
     25221 W2       8407     TIP3     H2       HT       0.417000       1.00800           0
     25222 W2       8408     TIP3     OH2      OT      -0.834000       15.9994           0
     25223 W2       8408     TIP3     H1       HT       0.417000       1.00800           0
     25224 W2       8408     TIP3     H2       HT       0.417000       1.00800           0
     25225 W2       8409     TIP3     OH2      OT      -0.834000       15.9994           0
     25226 W2       8409     TIP3     H1       HT       0.417000       1.00800           0
     25227 W2       8409     TIP3     H2       HT       0.417000       1.00800           0
     25228 W2       8410     TIP3     OH2      OT      -0.834000       15.9994           0
     25229 W2       8410     TIP3     H1       HT       0.417000       1.00800           0
     25230 W2       8410     TIP3     H2       HT       0.417000       1.00800           0
     25231 W2       8411     TIP3     OH2      OT      -0.834000       15.9994           0
     25232 W2       8411     TIP3     H1       HT       0.417000       1.00800           0
     25233 W2       8411     TIP3     H2       HT       0.417000       1.00800           0
     25234 W2       8412     TIP3     OH2      OT      -0.834000       15.9994           0
     25235 W2       8412     TIP3     H1       HT       0.417000       1.00800           0
     25236 W2       8412     TIP3     H2       HT       0.417000       1.00800           0
     25237 W2       8413     TIP3     OH2      OT      -0.834000       15.9994           0
     25238 W2       8413     TIP3     H1       HT       0.417000       1.00800           0
     25239 W2       8413     TIP3     H2       HT       0.417000       1.00800           0
     25240 W2       8414     TIP3     OH2      OT      -0.834000       15.9994           0
     25241 W2       8414     TIP3     H1       HT       0.417000       1.00800           0
     25242 W2       8414     TIP3     H2       HT       0.417000       1.00800           0
     25243 W2       8415     TIP3     OH2      OT      -0.834000       15.9994           0
     25244 W2       8415     TIP3     H1       HT       0.417000       1.00800           0
     25245 W2       8415     TIP3     H2       HT       0.417000       1.00800           0
     25246 W2       8416     TIP3     OH2      OT      -0.834000       15.9994           0
     25247 W2       8416     TIP3     H1       HT       0.417000       1.00800           0
     25248 W2       8416     TIP3     H2       HT       0.417000       1.00800           0
     25249 W2       8417     TIP3     OH2      OT      -0.834000       15.9994           0
     25250 W2       8417     TIP3     H1       HT       0.417000       1.00800           0
     25251 W2       8417     TIP3     H2       HT       0.417000       1.00800           0
     25252 W2       8418     TIP3     OH2      OT      -0.834000       15.9994           0
     25253 W2       8418     TIP3     H1       HT       0.417000       1.00800           0
     25254 W2       8418     TIP3     H2       HT       0.417000       1.00800           0
     25255 W2       8419     TIP3     OH2      OT      -0.834000       15.9994           0
     25256 W2       8419     TIP3     H1       HT       0.417000       1.00800           0
     25257 W2       8419     TIP3     H2       HT       0.417000       1.00800           0
     25258 W2       8420     TIP3     OH2      OT      -0.834000       15.9994           0
     25259 W2       8420     TIP3     H1       HT       0.417000       1.00800           0
     25260 W2       8420     TIP3     H2       HT       0.417000       1.00800           0
     25261 W2       8421     TIP3     OH2      OT      -0.834000       15.9994           0
     25262 W2       8421     TIP3     H1       HT       0.417000       1.00800           0
     25263 W2       8421     TIP3     H2       HT       0.417000       1.00800           0
     25264 W2       8422     TIP3     OH2      OT      -0.834000       15.9994           0
     25265 W2       8422     TIP3     H1       HT       0.417000       1.00800           0
     25266 W2       8422     TIP3     H2       HT       0.417000       1.00800           0
     25267 W2       8423     TIP3     OH2      OT      -0.834000       15.9994           0
     25268 W2       8423     TIP3     H1       HT       0.417000       1.00800           0
     25269 W2       8423     TIP3     H2       HT       0.417000       1.00800           0
     25270 W2       8424     TIP3     OH2      OT      -0.834000       15.9994           0
     25271 W2       8424     TIP3     H1       HT       0.417000       1.00800           0
     25272 W2       8424     TIP3     H2       HT       0.417000       1.00800           0
     25273 W2       8425     TIP3     OH2      OT      -0.834000       15.9994           0
     25274 W2       8425     TIP3     H1       HT       0.417000       1.00800           0
     25275 W2       8425     TIP3     H2       HT       0.417000       1.00800           0
     25276 W2       8426     TIP3     OH2      OT      -0.834000       15.9994           0
     25277 W2       8426     TIP3     H1       HT       0.417000       1.00800           0
     25278 W2       8426     TIP3     H2       HT       0.417000       1.00800           0
     25279 W2       8427     TIP3     OH2      OT      -0.834000       15.9994           0
     25280 W2       8427     TIP3     H1       HT       0.417000       1.00800           0
     25281 W2       8427     TIP3     H2       HT       0.417000       1.00800           0
     25282 W2       8428     TIP3     OH2      OT      -0.834000       15.9994           0
     25283 W2       8428     TIP3     H1       HT       0.417000       1.00800           0
     25284 W2       8428     TIP3     H2       HT       0.417000       1.00800           0
     25285 W2       8429     TIP3     OH2      OT      -0.834000       15.9994           0
     25286 W2       8429     TIP3     H1       HT       0.417000       1.00800           0
     25287 W2       8429     TIP3     H2       HT       0.417000       1.00800           0
     25288 W2       8430     TIP3     OH2      OT      -0.834000       15.9994           0
     25289 W2       8430     TIP3     H1       HT       0.417000       1.00800           0
     25290 W2       8430     TIP3     H2       HT       0.417000       1.00800           0
     25291 W2       8431     TIP3     OH2      OT      -0.834000       15.9994           0
     25292 W2       8431     TIP3     H1       HT       0.417000       1.00800           0
     25293 W2       8431     TIP3     H2       HT       0.417000       1.00800           0
     25294 W2       8432     TIP3     OH2      OT      -0.834000       15.9994           0
     25295 W2       8432     TIP3     H1       HT       0.417000       1.00800           0
     25296 W2       8432     TIP3     H2       HT       0.417000       1.00800           0
     25297 W2       8433     TIP3     OH2      OT      -0.834000       15.9994           0
     25298 W2       8433     TIP3     H1       HT       0.417000       1.00800           0
     25299 W2       8433     TIP3     H2       HT       0.417000       1.00800           0
     25300 W2       8434     TIP3     OH2      OT      -0.834000       15.9994           0
     25301 W2       8434     TIP3     H1       HT       0.417000       1.00800           0
     25302 W2       8434     TIP3     H2       HT       0.417000       1.00800           0
     25303 W2       8435     TIP3     OH2      OT      -0.834000       15.9994           0
     25304 W2       8435     TIP3     H1       HT       0.417000       1.00800           0
     25305 W2       8435     TIP3     H2       HT       0.417000       1.00800           0
     25306 W2       8436     TIP3     OH2      OT      -0.834000       15.9994           0
     25307 W2       8436     TIP3     H1       HT       0.417000       1.00800           0
     25308 W2       8436     TIP3     H2       HT       0.417000       1.00800           0
     25309 W2       8437     TIP3     OH2      OT      -0.834000       15.9994           0
     25310 W2       8437     TIP3     H1       HT       0.417000       1.00800           0
     25311 W2       8437     TIP3     H2       HT       0.417000       1.00800           0
     25312 W2       8438     TIP3     OH2      OT      -0.834000       15.9994           0
     25313 W2       8438     TIP3     H1       HT       0.417000       1.00800           0
     25314 W2       8438     TIP3     H2       HT       0.417000       1.00800           0
     25315 W2       8439     TIP3     OH2      OT      -0.834000       15.9994           0
     25316 W2       8439     TIP3     H1       HT       0.417000       1.00800           0
     25317 W2       8439     TIP3     H2       HT       0.417000       1.00800           0
     25318 W2       8440     TIP3     OH2      OT      -0.834000       15.9994           0
     25319 W2       8440     TIP3     H1       HT       0.417000       1.00800           0
     25320 W2       8440     TIP3     H2       HT       0.417000       1.00800           0
     25321 W2       8441     TIP3     OH2      OT      -0.834000       15.9994           0
     25322 W2       8441     TIP3     H1       HT       0.417000       1.00800           0
     25323 W2       8441     TIP3     H2       HT       0.417000       1.00800           0
     25324 W2       8442     TIP3     OH2      OT      -0.834000       15.9994           0
     25325 W2       8442     TIP3     H1       HT       0.417000       1.00800           0
     25326 W2       8442     TIP3     H2       HT       0.417000       1.00800           0
     25327 W2       8443     TIP3     OH2      OT      -0.834000       15.9994           0
     25328 W2       8443     TIP3     H1       HT       0.417000       1.00800           0
     25329 W2       8443     TIP3     H2       HT       0.417000       1.00800           0
     25330 W2       8444     TIP3     OH2      OT      -0.834000       15.9994           0
     25331 W2       8444     TIP3     H1       HT       0.417000       1.00800           0
     25332 W2       8444     TIP3     H2       HT       0.417000       1.00800           0
     25333 W2       8445     TIP3     OH2      OT      -0.834000       15.9994           0
     25334 W2       8445     TIP3     H1       HT       0.417000       1.00800           0
     25335 W2       8445     TIP3     H2       HT       0.417000       1.00800           0
     25336 W2       8446     TIP3     OH2      OT      -0.834000       15.9994           0
     25337 W2       8446     TIP3     H1       HT       0.417000       1.00800           0
     25338 W2       8446     TIP3     H2       HT       0.417000       1.00800           0
     25339 W2       8447     TIP3     OH2      OT      -0.834000       15.9994           0
     25340 W2       8447     TIP3     H1       HT       0.417000       1.00800           0
     25341 W2       8447     TIP3     H2       HT       0.417000       1.00800           0
     25342 W2       8448     TIP3     OH2      OT      -0.834000       15.9994           0
     25343 W2       8448     TIP3     H1       HT       0.417000       1.00800           0
     25344 W2       8448     TIP3     H2       HT       0.417000       1.00800           0
     25345 W2       8449     TIP3     OH2      OT      -0.834000       15.9994           0
     25346 W2       8449     TIP3     H1       HT       0.417000       1.00800           0
     25347 W2       8449     TIP3     H2       HT       0.417000       1.00800           0
     25348 W2       8450     TIP3     OH2      OT      -0.834000       15.9994           0
     25349 W2       8450     TIP3     H1       HT       0.417000       1.00800           0
     25350 W2       8450     TIP3     H2       HT       0.417000       1.00800           0
     25351 W2       8451     TIP3     OH2      OT      -0.834000       15.9994           0
     25352 W2       8451     TIP3     H1       HT       0.417000       1.00800           0
     25353 W2       8451     TIP3     H2       HT       0.417000       1.00800           0
     25354 W2       8452     TIP3     OH2      OT      -0.834000       15.9994           0
     25355 W2       8452     TIP3     H1       HT       0.417000       1.00800           0
     25356 W2       8452     TIP3     H2       HT       0.417000       1.00800           0
     25357 W2       8453     TIP3     OH2      OT      -0.834000       15.9994           0
     25358 W2       8453     TIP3     H1       HT       0.417000       1.00800           0
     25359 W2       8453     TIP3     H2       HT       0.417000       1.00800           0
     25360 W2       8454     TIP3     OH2      OT      -0.834000       15.9994           0
     25361 W2       8454     TIP3     H1       HT       0.417000       1.00800           0
     25362 W2       8454     TIP3     H2       HT       0.417000       1.00800           0
     25363 W2       8455     TIP3     OH2      OT      -0.834000       15.9994           0
     25364 W2       8455     TIP3     H1       HT       0.417000       1.00800           0
     25365 W2       8455     TIP3     H2       HT       0.417000       1.00800           0
     25366 W2       8456     TIP3     OH2      OT      -0.834000       15.9994           0
     25367 W2       8456     TIP3     H1       HT       0.417000       1.00800           0
     25368 W2       8456     TIP3     H2       HT       0.417000       1.00800           0
     25369 W2       8457     TIP3     OH2      OT      -0.834000       15.9994           0
     25370 W2       8457     TIP3     H1       HT       0.417000       1.00800           0
     25371 W2       8457     TIP3     H2       HT       0.417000       1.00800           0
     25372 W2       8458     TIP3     OH2      OT      -0.834000       15.9994           0
     25373 W2       8458     TIP3     H1       HT       0.417000       1.00800           0
     25374 W2       8458     TIP3     H2       HT       0.417000       1.00800           0
     25375 W2       8459     TIP3     OH2      OT      -0.834000       15.9994           0
     25376 W2       8459     TIP3     H1       HT       0.417000       1.00800           0
     25377 W2       8459     TIP3     H2       HT       0.417000       1.00800           0
     25378 W2       8460     TIP3     OH2      OT      -0.834000       15.9994           0
     25379 W2       8460     TIP3     H1       HT       0.417000       1.00800           0
     25380 W2       8460     TIP3     H2       HT       0.417000       1.00800           0
     25381 W2       8461     TIP3     OH2      OT      -0.834000       15.9994           0
     25382 W2       8461     TIP3     H1       HT       0.417000       1.00800           0
     25383 W2       8461     TIP3     H2       HT       0.417000       1.00800           0
     25384 W2       8462     TIP3     OH2      OT      -0.834000       15.9994           0
     25385 W2       8462     TIP3     H1       HT       0.417000       1.00800           0
     25386 W2       8462     TIP3     H2       HT       0.417000       1.00800           0
     25387 W2       8463     TIP3     OH2      OT      -0.834000       15.9994           0
     25388 W2       8463     TIP3     H1       HT       0.417000       1.00800           0
     25389 W2       8463     TIP3     H2       HT       0.417000       1.00800           0
     25390 W2       8464     TIP3     OH2      OT      -0.834000       15.9994           0
     25391 W2       8464     TIP3     H1       HT       0.417000       1.00800           0
     25392 W2       8464     TIP3     H2       HT       0.417000       1.00800           0
     25393 W2       8465     TIP3     OH2      OT      -0.834000       15.9994           0
     25394 W2       8465     TIP3     H1       HT       0.417000       1.00800           0
     25395 W2       8465     TIP3     H2       HT       0.417000       1.00800           0
     25396 W2       8466     TIP3     OH2      OT      -0.834000       15.9994           0
     25397 W2       8466     TIP3     H1       HT       0.417000       1.00800           0
     25398 W2       8466     TIP3     H2       HT       0.417000       1.00800           0
     25399 W2       8467     TIP3     OH2      OT      -0.834000       15.9994           0
     25400 W2       8467     TIP3     H1       HT       0.417000       1.00800           0
     25401 W2       8467     TIP3     H2       HT       0.417000       1.00800           0
     25402 W2       8468     TIP3     OH2      OT      -0.834000       15.9994           0
     25403 W2       8468     TIP3     H1       HT       0.417000       1.00800           0
     25404 W2       8468     TIP3     H2       HT       0.417000       1.00800           0
     25405 W2       8469     TIP3     OH2      OT      -0.834000       15.9994           0
     25406 W2       8469     TIP3     H1       HT       0.417000       1.00800           0
     25407 W2       8469     TIP3     H2       HT       0.417000       1.00800           0
     25408 W2       8470     TIP3     OH2      OT      -0.834000       15.9994           0
     25409 W2       8470     TIP3     H1       HT       0.417000       1.00800           0
     25410 W2       8470     TIP3     H2       HT       0.417000       1.00800           0
     25411 W2       8471     TIP3     OH2      OT      -0.834000       15.9994           0
     25412 W2       8471     TIP3     H1       HT       0.417000       1.00800           0
     25413 W2       8471     TIP3     H2       HT       0.417000       1.00800           0
     25414 W2       8472     TIP3     OH2      OT      -0.834000       15.9994           0
     25415 W2       8472     TIP3     H1       HT       0.417000       1.00800           0
     25416 W2       8472     TIP3     H2       HT       0.417000       1.00800           0
     25417 W2       8473     TIP3     OH2      OT      -0.834000       15.9994           0
     25418 W2       8473     TIP3     H1       HT       0.417000       1.00800           0
     25419 W2       8473     TIP3     H2       HT       0.417000       1.00800           0
     25420 W2       8474     TIP3     OH2      OT      -0.834000       15.9994           0
     25421 W2       8474     TIP3     H1       HT       0.417000       1.00800           0
     25422 W2       8474     TIP3     H2       HT       0.417000       1.00800           0
     25423 W2       8475     TIP3     OH2      OT      -0.834000       15.9994           0
     25424 W2       8475     TIP3     H1       HT       0.417000       1.00800           0
     25425 W2       8475     TIP3     H2       HT       0.417000       1.00800           0
     25426 W2       8476     TIP3     OH2      OT      -0.834000       15.9994           0
     25427 W2       8476     TIP3     H1       HT       0.417000       1.00800           0
     25428 W2       8476     TIP3     H2       HT       0.417000       1.00800           0
     25429 W2       8477     TIP3     OH2      OT      -0.834000       15.9994           0
     25430 W2       8477     TIP3     H1       HT       0.417000       1.00800           0
     25431 W2       8477     TIP3     H2       HT       0.417000       1.00800           0
     25432 W2       8478     TIP3     OH2      OT      -0.834000       15.9994           0
     25433 W2       8478     TIP3     H1       HT       0.417000       1.00800           0
     25434 W2       8478     TIP3     H2       HT       0.417000       1.00800           0
     25435 W2       8479     TIP3     OH2      OT      -0.834000       15.9994           0
     25436 W2       8479     TIP3     H1       HT       0.417000       1.00800           0
     25437 W2       8479     TIP3     H2       HT       0.417000       1.00800           0
     25438 W2       8480     TIP3     OH2      OT      -0.834000       15.9994           0
     25439 W2       8480     TIP3     H1       HT       0.417000       1.00800           0
     25440 W2       8480     TIP3     H2       HT       0.417000       1.00800           0
     25441 W2       8481     TIP3     OH2      OT      -0.834000       15.9994           0
     25442 W2       8481     TIP3     H1       HT       0.417000       1.00800           0
     25443 W2       8481     TIP3     H2       HT       0.417000       1.00800           0
     25444 W2       8482     TIP3     OH2      OT      -0.834000       15.9994           0
     25445 W2       8482     TIP3     H1       HT       0.417000       1.00800           0
     25446 W2       8482     TIP3     H2       HT       0.417000       1.00800           0
     25447 W2       8483     TIP3     OH2      OT      -0.834000       15.9994           0
     25448 W2       8483     TIP3     H1       HT       0.417000       1.00800           0
     25449 W2       8483     TIP3     H2       HT       0.417000       1.00800           0
     25450 W2       8484     TIP3     OH2      OT      -0.834000       15.9994           0
     25451 W2       8484     TIP3     H1       HT       0.417000       1.00800           0
     25452 W2       8484     TIP3     H2       HT       0.417000       1.00800           0
     25453 W2       8485     TIP3     OH2      OT      -0.834000       15.9994           0
     25454 W2       8485     TIP3     H1       HT       0.417000       1.00800           0
     25455 W2       8485     TIP3     H2       HT       0.417000       1.00800           0
     25456 W2       8486     TIP3     OH2      OT      -0.834000       15.9994           0
     25457 W2       8486     TIP3     H1       HT       0.417000       1.00800           0
     25458 W2       8486     TIP3     H2       HT       0.417000       1.00800           0
     25459 W2       8487     TIP3     OH2      OT      -0.834000       15.9994           0
     25460 W2       8487     TIP3     H1       HT       0.417000       1.00800           0
     25461 W2       8487     TIP3     H2       HT       0.417000       1.00800           0
     25462 W2       8488     TIP3     OH2      OT      -0.834000       15.9994           0
     25463 W2       8488     TIP3     H1       HT       0.417000       1.00800           0
     25464 W2       8488     TIP3     H2       HT       0.417000       1.00800           0
     25465 W2       8489     TIP3     OH2      OT      -0.834000       15.9994           0
     25466 W2       8489     TIP3     H1       HT       0.417000       1.00800           0
     25467 W2       8489     TIP3     H2       HT       0.417000       1.00800           0
     25468 W2       8490     TIP3     OH2      OT      -0.834000       15.9994           0
     25469 W2       8490     TIP3     H1       HT       0.417000       1.00800           0
     25470 W2       8490     TIP3     H2       HT       0.417000       1.00800           0
     25471 W2       8491     TIP3     OH2      OT      -0.834000       15.9994           0
     25472 W2       8491     TIP3     H1       HT       0.417000       1.00800           0
     25473 W2       8491     TIP3     H2       HT       0.417000       1.00800           0
     25474 W2       8492     TIP3     OH2      OT      -0.834000       15.9994           0
     25475 W2       8492     TIP3     H1       HT       0.417000       1.00800           0
     25476 W2       8492     TIP3     H2       HT       0.417000       1.00800           0
     25477 W2       8493     TIP3     OH2      OT      -0.834000       15.9994           0
     25478 W2       8493     TIP3     H1       HT       0.417000       1.00800           0
     25479 W2       8493     TIP3     H2       HT       0.417000       1.00800           0
     25480 W2       8494     TIP3     OH2      OT      -0.834000       15.9994           0
     25481 W2       8494     TIP3     H1       HT       0.417000       1.00800           0
     25482 W2       8494     TIP3     H2       HT       0.417000       1.00800           0
     25483 W2       8495     TIP3     OH2      OT      -0.834000       15.9994           0
     25484 W2       8495     TIP3     H1       HT       0.417000       1.00800           0
     25485 W2       8495     TIP3     H2       HT       0.417000       1.00800           0
     25486 W2       8496     TIP3     OH2      OT      -0.834000       15.9994           0
     25487 W2       8496     TIP3     H1       HT       0.417000       1.00800           0
     25488 W2       8496     TIP3     H2       HT       0.417000       1.00800           0
     25489 W2       8497     TIP3     OH2      OT      -0.834000       15.9994           0
     25490 W2       8497     TIP3     H1       HT       0.417000       1.00800           0
     25491 W2       8497     TIP3     H2       HT       0.417000       1.00800           0
     25492 W2       8498     TIP3     OH2      OT      -0.834000       15.9994           0
     25493 W2       8498     TIP3     H1       HT       0.417000       1.00800           0
     25494 W2       8498     TIP3     H2       HT       0.417000       1.00800           0
     25495 W2       8499     TIP3     OH2      OT      -0.834000       15.9994           0
     25496 W2       8499     TIP3     H1       HT       0.417000       1.00800           0
     25497 W2       8499     TIP3     H2       HT       0.417000       1.00800           0
     25498 W2       8500     TIP3     OH2      OT      -0.834000       15.9994           0
     25499 W2       8500     TIP3     H1       HT       0.417000       1.00800           0
     25500 W2       8500     TIP3     H2       HT       0.417000       1.00800           0
     25501 W2       8501     TIP3     OH2      OT      -0.834000       15.9994           0
     25502 W2       8501     TIP3     H1       HT       0.417000       1.00800           0
     25503 W2       8501     TIP3     H2       HT       0.417000       1.00800           0
     25504 W2       8502     TIP3     OH2      OT      -0.834000       15.9994           0
     25505 W2       8502     TIP3     H1       HT       0.417000       1.00800           0
     25506 W2       8502     TIP3     H2       HT       0.417000       1.00800           0
     25507 W2       8503     TIP3     OH2      OT      -0.834000       15.9994           0
     25508 W2       8503     TIP3     H1       HT       0.417000       1.00800           0
     25509 W2       8503     TIP3     H2       HT       0.417000       1.00800           0
     25510 W2       8504     TIP3     OH2      OT      -0.834000       15.9994           0
     25511 W2       8504     TIP3     H1       HT       0.417000       1.00800           0
     25512 W2       8504     TIP3     H2       HT       0.417000       1.00800           0
     25513 W2       8505     TIP3     OH2      OT      -0.834000       15.9994           0
     25514 W2       8505     TIP3     H1       HT       0.417000       1.00800           0
     25515 W2       8505     TIP3     H2       HT       0.417000       1.00800           0
     25516 W2       8506     TIP3     OH2      OT      -0.834000       15.9994           0
     25517 W2       8506     TIP3     H1       HT       0.417000       1.00800           0
     25518 W2       8506     TIP3     H2       HT       0.417000       1.00800           0
     25519 W2       8507     TIP3     OH2      OT      -0.834000       15.9994           0
     25520 W2       8507     TIP3     H1       HT       0.417000       1.00800           0
     25521 W2       8507     TIP3     H2       HT       0.417000       1.00800           0
     25522 W2       8508     TIP3     OH2      OT      -0.834000       15.9994           0
     25523 W2       8508     TIP3     H1       HT       0.417000       1.00800           0
     25524 W2       8508     TIP3     H2       HT       0.417000       1.00800           0
     25525 W2       8509     TIP3     OH2      OT      -0.834000       15.9994           0
     25526 W2       8509     TIP3     H1       HT       0.417000       1.00800           0
     25527 W2       8509     TIP3     H2       HT       0.417000       1.00800           0
     25528 W2       8510     TIP3     OH2      OT      -0.834000       15.9994           0
     25529 W2       8510     TIP3     H1       HT       0.417000       1.00800           0
     25530 W2       8510     TIP3     H2       HT       0.417000       1.00800           0
     25531 W2       8511     TIP3     OH2      OT      -0.834000       15.9994           0
     25532 W2       8511     TIP3     H1       HT       0.417000       1.00800           0
     25533 W2       8511     TIP3     H2       HT       0.417000       1.00800           0
     25534 W2       8512     TIP3     OH2      OT      -0.834000       15.9994           0
     25535 W2       8512     TIP3     H1       HT       0.417000       1.00800           0
     25536 W2       8512     TIP3     H2       HT       0.417000       1.00800           0
     25537 W2       8513     TIP3     OH2      OT      -0.834000       15.9994           0
     25538 W2       8513     TIP3     H1       HT       0.417000       1.00800           0
     25539 W2       8513     TIP3     H2       HT       0.417000       1.00800           0
     25540 W2       8514     TIP3     OH2      OT      -0.834000       15.9994           0
     25541 W2       8514     TIP3     H1       HT       0.417000       1.00800           0
     25542 W2       8514     TIP3     H2       HT       0.417000       1.00800           0
     25543 W2       8515     TIP3     OH2      OT      -0.834000       15.9994           0
     25544 W2       8515     TIP3     H1       HT       0.417000       1.00800           0
     25545 W2       8515     TIP3     H2       HT       0.417000       1.00800           0
     25546 W2       8516     TIP3     OH2      OT      -0.834000       15.9994           0
     25547 W2       8516     TIP3     H1       HT       0.417000       1.00800           0
     25548 W2       8516     TIP3     H2       HT       0.417000       1.00800           0
     25549 W2       8517     TIP3     OH2      OT      -0.834000       15.9994           0
     25550 W2       8517     TIP3     H1       HT       0.417000       1.00800           0
     25551 W2       8517     TIP3     H2       HT       0.417000       1.00800           0
     25552 W2       8518     TIP3     OH2      OT      -0.834000       15.9994           0
     25553 W2       8518     TIP3     H1       HT       0.417000       1.00800           0
     25554 W2       8518     TIP3     H2       HT       0.417000       1.00800           0
     25555 W2       8519     TIP3     OH2      OT      -0.834000       15.9994           0
     25556 W2       8519     TIP3     H1       HT       0.417000       1.00800           0
     25557 W2       8519     TIP3     H2       HT       0.417000       1.00800           0
     25558 W2       8520     TIP3     OH2      OT      -0.834000       15.9994           0
     25559 W2       8520     TIP3     H1       HT       0.417000       1.00800           0
     25560 W2       8520     TIP3     H2       HT       0.417000       1.00800           0
     25561 W2       8521     TIP3     OH2      OT      -0.834000       15.9994           0
     25562 W2       8521     TIP3     H1       HT       0.417000       1.00800           0
     25563 W2       8521     TIP3     H2       HT       0.417000       1.00800           0
     25564 W2       8522     TIP3     OH2      OT      -0.834000       15.9994           0
     25565 W2       8522     TIP3     H1       HT       0.417000       1.00800           0
     25566 W2       8522     TIP3     H2       HT       0.417000       1.00800           0
     25567 W2       8523     TIP3     OH2      OT      -0.834000       15.9994           0
     25568 W2       8523     TIP3     H1       HT       0.417000       1.00800           0
     25569 W2       8523     TIP3     H2       HT       0.417000       1.00800           0
     25570 W2       8524     TIP3     OH2      OT      -0.834000       15.9994           0
     25571 W2       8524     TIP3     H1       HT       0.417000       1.00800           0
     25572 W2       8524     TIP3     H2       HT       0.417000       1.00800           0
     25573 W2       8525     TIP3     OH2      OT      -0.834000       15.9994           0
     25574 W2       8525     TIP3     H1       HT       0.417000       1.00800           0
     25575 W2       8525     TIP3     H2       HT       0.417000       1.00800           0
     25576 W2       8526     TIP3     OH2      OT      -0.834000       15.9994           0
     25577 W2       8526     TIP3     H1       HT       0.417000       1.00800           0
     25578 W2       8526     TIP3     H2       HT       0.417000       1.00800           0
     25579 W2       8527     TIP3     OH2      OT      -0.834000       15.9994           0
     25580 W2       8527     TIP3     H1       HT       0.417000       1.00800           0
     25581 W2       8527     TIP3     H2       HT       0.417000       1.00800           0
     25582 W2       8528     TIP3     OH2      OT      -0.834000       15.9994           0
     25583 W2       8528     TIP3     H1       HT       0.417000       1.00800           0
     25584 W2       8528     TIP3     H2       HT       0.417000       1.00800           0
     25585 W2       8529     TIP3     OH2      OT      -0.834000       15.9994           0
     25586 W2       8529     TIP3     H1       HT       0.417000       1.00800           0
     25587 W2       8529     TIP3     H2       HT       0.417000       1.00800           0
     25588 W2       8530     TIP3     OH2      OT      -0.834000       15.9994           0
     25589 W2       8530     TIP3     H1       HT       0.417000       1.00800           0
     25590 W2       8530     TIP3     H2       HT       0.417000       1.00800           0
     25591 W2       8531     TIP3     OH2      OT      -0.834000       15.9994           0
     25592 W2       8531     TIP3     H1       HT       0.417000       1.00800           0
     25593 W2       8531     TIP3     H2       HT       0.417000       1.00800           0
     25594 W2       8532     TIP3     OH2      OT      -0.834000       15.9994           0
     25595 W2       8532     TIP3     H1       HT       0.417000       1.00800           0
     25596 W2       8532     TIP3     H2       HT       0.417000       1.00800           0
     25597 W2       8533     TIP3     OH2      OT      -0.834000       15.9994           0
     25598 W2       8533     TIP3     H1       HT       0.417000       1.00800           0
     25599 W2       8533     TIP3     H2       HT       0.417000       1.00800           0
     25600 W2       8534     TIP3     OH2      OT      -0.834000       15.9994           0
     25601 W2       8534     TIP3     H1       HT       0.417000       1.00800           0
     25602 W2       8534     TIP3     H2       HT       0.417000       1.00800           0
     25603 W2       8535     TIP3     OH2      OT      -0.834000       15.9994           0
     25604 W2       8535     TIP3     H1       HT       0.417000       1.00800           0
     25605 W2       8535     TIP3     H2       HT       0.417000       1.00800           0
     25606 W2       8536     TIP3     OH2      OT      -0.834000       15.9994           0
     25607 W2       8536     TIP3     H1       HT       0.417000       1.00800           0
     25608 W2       8536     TIP3     H2       HT       0.417000       1.00800           0
     25609 W2       8537     TIP3     OH2      OT      -0.834000       15.9994           0
     25610 W2       8537     TIP3     H1       HT       0.417000       1.00800           0
     25611 W2       8537     TIP3     H2       HT       0.417000       1.00800           0
     25612 W2       8538     TIP3     OH2      OT      -0.834000       15.9994           0
     25613 W2       8538     TIP3     H1       HT       0.417000       1.00800           0
     25614 W2       8538     TIP3     H2       HT       0.417000       1.00800           0
     25615 W2       8539     TIP3     OH2      OT      -0.834000       15.9994           0
     25616 W2       8539     TIP3     H1       HT       0.417000       1.00800           0
     25617 W2       8539     TIP3     H2       HT       0.417000       1.00800           0
     25618 W2       8540     TIP3     OH2      OT      -0.834000       15.9994           0
     25619 W2       8540     TIP3     H1       HT       0.417000       1.00800           0
     25620 W2       8540     TIP3     H2       HT       0.417000       1.00800           0
     25621 W2       8541     TIP3     OH2      OT      -0.834000       15.9994           0
     25622 W2       8541     TIP3     H1       HT       0.417000       1.00800           0
     25623 W2       8541     TIP3     H2       HT       0.417000       1.00800           0
     25624 W2       8542     TIP3     OH2      OT      -0.834000       15.9994           0
     25625 W2       8542     TIP3     H1       HT       0.417000       1.00800           0
     25626 W2       8542     TIP3     H2       HT       0.417000       1.00800           0
     25627 W2       8543     TIP3     OH2      OT      -0.834000       15.9994           0
     25628 W2       8543     TIP3     H1       HT       0.417000       1.00800           0
     25629 W2       8543     TIP3     H2       HT       0.417000       1.00800           0
     25630 W2       8544     TIP3     OH2      OT      -0.834000       15.9994           0
     25631 W2       8544     TIP3     H1       HT       0.417000       1.00800           0
     25632 W2       8544     TIP3     H2       HT       0.417000       1.00800           0
     25633 W2       8545     TIP3     OH2      OT      -0.834000       15.9994           0
     25634 W2       8545     TIP3     H1       HT       0.417000       1.00800           0
     25635 W2       8545     TIP3     H2       HT       0.417000       1.00800           0
     25636 W2       8546     TIP3     OH2      OT      -0.834000       15.9994           0
     25637 W2       8546     TIP3     H1       HT       0.417000       1.00800           0
     25638 W2       8546     TIP3     H2       HT       0.417000       1.00800           0
     25639 W2       8547     TIP3     OH2      OT      -0.834000       15.9994           0
     25640 W2       8547     TIP3     H1       HT       0.417000       1.00800           0
     25641 W2       8547     TIP3     H2       HT       0.417000       1.00800           0
     25642 W2       8548     TIP3     OH2      OT      -0.834000       15.9994           0
     25643 W2       8548     TIP3     H1       HT       0.417000       1.00800           0
     25644 W2       8548     TIP3     H2       HT       0.417000       1.00800           0
     25645 W2       8549     TIP3     OH2      OT      -0.834000       15.9994           0
     25646 W2       8549     TIP3     H1       HT       0.417000       1.00800           0
     25647 W2       8549     TIP3     H2       HT       0.417000       1.00800           0
     25648 W2       8550     TIP3     OH2      OT      -0.834000       15.9994           0
     25649 W2       8550     TIP3     H1       HT       0.417000       1.00800           0
     25650 W2       8550     TIP3     H2       HT       0.417000       1.00800           0
     25651 W2       8551     TIP3     OH2      OT      -0.834000       15.9994           0
     25652 W2       8551     TIP3     H1       HT       0.417000       1.00800           0
     25653 W2       8551     TIP3     H2       HT       0.417000       1.00800           0
     25654 W2       8552     TIP3     OH2      OT      -0.834000       15.9994           0
     25655 W2       8552     TIP3     H1       HT       0.417000       1.00800           0
     25656 W2       8552     TIP3     H2       HT       0.417000       1.00800           0
     25657 W2       8553     TIP3     OH2      OT      -0.834000       15.9994           0
     25658 W2       8553     TIP3     H1       HT       0.417000       1.00800           0
     25659 W2       8553     TIP3     H2       HT       0.417000       1.00800           0
     25660 W2       8554     TIP3     OH2      OT      -0.834000       15.9994           0
     25661 W2       8554     TIP3     H1       HT       0.417000       1.00800           0
     25662 W2       8554     TIP3     H2       HT       0.417000       1.00800           0
     25663 W2       8555     TIP3     OH2      OT      -0.834000       15.9994           0
     25664 W2       8555     TIP3     H1       HT       0.417000       1.00800           0
     25665 W2       8555     TIP3     H2       HT       0.417000       1.00800           0
     25666 W2       8556     TIP3     OH2      OT      -0.834000       15.9994           0
     25667 W2       8556     TIP3     H1       HT       0.417000       1.00800           0
     25668 W2       8556     TIP3     H2       HT       0.417000       1.00800           0
     25669 W2       8557     TIP3     OH2      OT      -0.834000       15.9994           0
     25670 W2       8557     TIP3     H1       HT       0.417000       1.00800           0
     25671 W2       8557     TIP3     H2       HT       0.417000       1.00800           0
     25672 W2       8558     TIP3     OH2      OT      -0.834000       15.9994           0
     25673 W2       8558     TIP3     H1       HT       0.417000       1.00800           0
     25674 W2       8558     TIP3     H2       HT       0.417000       1.00800           0
     25675 W2       8559     TIP3     OH2      OT      -0.834000       15.9994           0
     25676 W2       8559     TIP3     H1       HT       0.417000       1.00800           0
     25677 W2       8559     TIP3     H2       HT       0.417000       1.00800           0
     25678 W2       8560     TIP3     OH2      OT      -0.834000       15.9994           0
     25679 W2       8560     TIP3     H1       HT       0.417000       1.00800           0
     25680 W2       8560     TIP3     H2       HT       0.417000       1.00800           0
     25681 W2       8561     TIP3     OH2      OT      -0.834000       15.9994           0
     25682 W2       8561     TIP3     H1       HT       0.417000       1.00800           0
     25683 W2       8561     TIP3     H2       HT       0.417000       1.00800           0
     25684 W2       8562     TIP3     OH2      OT      -0.834000       15.9994           0
     25685 W2       8562     TIP3     H1       HT       0.417000       1.00800           0
     25686 W2       8562     TIP3     H2       HT       0.417000       1.00800           0
     25687 W2       8563     TIP3     OH2      OT      -0.834000       15.9994           0
     25688 W2       8563     TIP3     H1       HT       0.417000       1.00800           0
     25689 W2       8563     TIP3     H2       HT       0.417000       1.00800           0
     25690 W2       8564     TIP3     OH2      OT      -0.834000       15.9994           0
     25691 W2       8564     TIP3     H1       HT       0.417000       1.00800           0
     25692 W2       8564     TIP3     H2       HT       0.417000       1.00800           0
     25693 W2       8565     TIP3     OH2      OT      -0.834000       15.9994           0
     25694 W2       8565     TIP3     H1       HT       0.417000       1.00800           0
     25695 W2       8565     TIP3     H2       HT       0.417000       1.00800           0
     25696 W2       8566     TIP3     OH2      OT      -0.834000       15.9994           0
     25697 W2       8566     TIP3     H1       HT       0.417000       1.00800           0
     25698 W2       8566     TIP3     H2       HT       0.417000       1.00800           0
     25699 W2       8567     TIP3     OH2      OT      -0.834000       15.9994           0
     25700 W2       8567     TIP3     H1       HT       0.417000       1.00800           0
     25701 W2       8567     TIP3     H2       HT       0.417000       1.00800           0
     25702 W2       8568     TIP3     OH2      OT      -0.834000       15.9994           0
     25703 W2       8568     TIP3     H1       HT       0.417000       1.00800           0
     25704 W2       8568     TIP3     H2       HT       0.417000       1.00800           0
     25705 W2       8569     TIP3     OH2      OT      -0.834000       15.9994           0
     25706 W2       8569     TIP3     H1       HT       0.417000       1.00800           0
     25707 W2       8569     TIP3     H2       HT       0.417000       1.00800           0
     25708 W2       8570     TIP3     OH2      OT      -0.834000       15.9994           0
     25709 W2       8570     TIP3     H1       HT       0.417000       1.00800           0
     25710 W2       8570     TIP3     H2       HT       0.417000       1.00800           0
     25711 W2       8571     TIP3     OH2      OT      -0.834000       15.9994           0
     25712 W2       8571     TIP3     H1       HT       0.417000       1.00800           0
     25713 W2       8571     TIP3     H2       HT       0.417000       1.00800           0
     25714 W2       8572     TIP3     OH2      OT      -0.834000       15.9994           0
     25715 W2       8572     TIP3     H1       HT       0.417000       1.00800           0
     25716 W2       8572     TIP3     H2       HT       0.417000       1.00800           0
     25717 W2       8573     TIP3     OH2      OT      -0.834000       15.9994           0
     25718 W2       8573     TIP3     H1       HT       0.417000       1.00800           0
     25719 W2       8573     TIP3     H2       HT       0.417000       1.00800           0
     25720 W2       8574     TIP3     OH2      OT      -0.834000       15.9994           0
     25721 W2       8574     TIP3     H1       HT       0.417000       1.00800           0
     25722 W2       8574     TIP3     H2       HT       0.417000       1.00800           0
     25723 W2       8575     TIP3     OH2      OT      -0.834000       15.9994           0
     25724 W2       8575     TIP3     H1       HT       0.417000       1.00800           0
     25725 W2       8575     TIP3     H2       HT       0.417000       1.00800           0
     25726 W2       8576     TIP3     OH2      OT      -0.834000       15.9994           0
     25727 W2       8576     TIP3     H1       HT       0.417000       1.00800           0
     25728 W2       8576     TIP3     H2       HT       0.417000       1.00800           0
     25729 W2       8577     TIP3     OH2      OT      -0.834000       15.9994           0
     25730 W2       8577     TIP3     H1       HT       0.417000       1.00800           0
     25731 W2       8577     TIP3     H2       HT       0.417000       1.00800           0
     25732 W2       8578     TIP3     OH2      OT      -0.834000       15.9994           0
     25733 W2       8578     TIP3     H1       HT       0.417000       1.00800           0
     25734 W2       8578     TIP3     H2       HT       0.417000       1.00800           0
     25735 W2       8579     TIP3     OH2      OT      -0.834000       15.9994           0
     25736 W2       8579     TIP3     H1       HT       0.417000       1.00800           0
     25737 W2       8579     TIP3     H2       HT       0.417000       1.00800           0
     25738 W2       8580     TIP3     OH2      OT      -0.834000       15.9994           0
     25739 W2       8580     TIP3     H1       HT       0.417000       1.00800           0
     25740 W2       8580     TIP3     H2       HT       0.417000       1.00800           0
     25741 W2       8581     TIP3     OH2      OT      -0.834000       15.9994           0
     25742 W2       8581     TIP3     H1       HT       0.417000       1.00800           0
     25743 W2       8581     TIP3     H2       HT       0.417000       1.00800           0
     25744 W2       8582     TIP3     OH2      OT      -0.834000       15.9994           0
     25745 W2       8582     TIP3     H1       HT       0.417000       1.00800           0
     25746 W2       8582     TIP3     H2       HT       0.417000       1.00800           0
     25747 W2       8583     TIP3     OH2      OT      -0.834000       15.9994           0
     25748 W2       8583     TIP3     H1       HT       0.417000       1.00800           0
     25749 W2       8583     TIP3     H2       HT       0.417000       1.00800           0
     25750 W2       8584     TIP3     OH2      OT      -0.834000       15.9994           0
     25751 W2       8584     TIP3     H1       HT       0.417000       1.00800           0
     25752 W2       8584     TIP3     H2       HT       0.417000       1.00800           0
     25753 W2       8585     TIP3     OH2      OT      -0.834000       15.9994           0
     25754 W2       8585     TIP3     H1       HT       0.417000       1.00800           0
     25755 W2       8585     TIP3     H2       HT       0.417000       1.00800           0
     25756 W2       8586     TIP3     OH2      OT      -0.834000       15.9994           0
     25757 W2       8586     TIP3     H1       HT       0.417000       1.00800           0
     25758 W2       8586     TIP3     H2       HT       0.417000       1.00800           0
     25759 W2       8587     TIP3     OH2      OT      -0.834000       15.9994           0
     25760 W2       8587     TIP3     H1       HT       0.417000       1.00800           0
     25761 W2       8587     TIP3     H2       HT       0.417000       1.00800           0
     25762 W2       8588     TIP3     OH2      OT      -0.834000       15.9994           0
     25763 W2       8588     TIP3     H1       HT       0.417000       1.00800           0
     25764 W2       8588     TIP3     H2       HT       0.417000       1.00800           0
     25765 W2       8589     TIP3     OH2      OT      -0.834000       15.9994           0
     25766 W2       8589     TIP3     H1       HT       0.417000       1.00800           0
     25767 W2       8589     TIP3     H2       HT       0.417000       1.00800           0
     25768 W2       8590     TIP3     OH2      OT      -0.834000       15.9994           0
     25769 W2       8590     TIP3     H1       HT       0.417000       1.00800           0
     25770 W2       8590     TIP3     H2       HT       0.417000       1.00800           0
     25771 W2       8591     TIP3     OH2      OT      -0.834000       15.9994           0
     25772 W2       8591     TIP3     H1       HT       0.417000       1.00800           0
     25773 W2       8591     TIP3     H2       HT       0.417000       1.00800           0
     25774 W2       8592     TIP3     OH2      OT      -0.834000       15.9994           0
     25775 W2       8592     TIP3     H1       HT       0.417000       1.00800           0
     25776 W2       8592     TIP3     H2       HT       0.417000       1.00800           0
     25777 W2       8593     TIP3     OH2      OT      -0.834000       15.9994           0
     25778 W2       8593     TIP3     H1       HT       0.417000       1.00800           0
     25779 W2       8593     TIP3     H2       HT       0.417000       1.00800           0
     25780 W2       8594     TIP3     OH2      OT      -0.834000       15.9994           0
     25781 W2       8594     TIP3     H1       HT       0.417000       1.00800           0
     25782 W2       8594     TIP3     H2       HT       0.417000       1.00800           0
     25783 W2       8595     TIP3     OH2      OT      -0.834000       15.9994           0
     25784 W2       8595     TIP3     H1       HT       0.417000       1.00800           0
     25785 W2       8595     TIP3     H2       HT       0.417000       1.00800           0
     25786 W2       8596     TIP3     OH2      OT      -0.834000       15.9994           0
     25787 W2       8596     TIP3     H1       HT       0.417000       1.00800           0
     25788 W2       8596     TIP3     H2       HT       0.417000       1.00800           0
     25789 W2       8597     TIP3     OH2      OT      -0.834000       15.9994           0
     25790 W2       8597     TIP3     H1       HT       0.417000       1.00800           0
     25791 W2       8597     TIP3     H2       HT       0.417000       1.00800           0
     25792 W2       8598     TIP3     OH2      OT      -0.834000       15.9994           0
     25793 W2       8598     TIP3     H1       HT       0.417000       1.00800           0
     25794 W2       8598     TIP3     H2       HT       0.417000       1.00800           0
     25795 W2       8599     TIP3     OH2      OT      -0.834000       15.9994           0
     25796 W2       8599     TIP3     H1       HT       0.417000       1.00800           0
     25797 W2       8599     TIP3     H2       HT       0.417000       1.00800           0
     25798 W2       8600     TIP3     OH2      OT      -0.834000       15.9994           0
     25799 W2       8600     TIP3     H1       HT       0.417000       1.00800           0
     25800 W2       8600     TIP3     H2       HT       0.417000       1.00800           0
     25801 W2       8601     TIP3     OH2      OT      -0.834000       15.9994           0
     25802 W2       8601     TIP3     H1       HT       0.417000       1.00800           0
     25803 W2       8601     TIP3     H2       HT       0.417000       1.00800           0
     25804 W2       8602     TIP3     OH2      OT      -0.834000       15.9994           0
     25805 W2       8602     TIP3     H1       HT       0.417000       1.00800           0
     25806 W2       8602     TIP3     H2       HT       0.417000       1.00800           0
     25807 W2       8603     TIP3     OH2      OT      -0.834000       15.9994           0
     25808 W2       8603     TIP3     H1       HT       0.417000       1.00800           0
     25809 W2       8603     TIP3     H2       HT       0.417000       1.00800           0
     25810 W2       8604     TIP3     OH2      OT      -0.834000       15.9994           0
     25811 W2       8604     TIP3     H1       HT       0.417000       1.00800           0
     25812 W2       8604     TIP3     H2       HT       0.417000       1.00800           0
     25813 W2       8605     TIP3     OH2      OT      -0.834000       15.9994           0
     25814 W2       8605     TIP3     H1       HT       0.417000       1.00800           0
     25815 W2       8605     TIP3     H2       HT       0.417000       1.00800           0
     25816 W2       8606     TIP3     OH2      OT      -0.834000       15.9994           0
     25817 W2       8606     TIP3     H1       HT       0.417000       1.00800           0
     25818 W2       8606     TIP3     H2       HT       0.417000       1.00800           0
     25819 W2       8607     TIP3     OH2      OT      -0.834000       15.9994           0
     25820 W2       8607     TIP3     H1       HT       0.417000       1.00800           0
     25821 W2       8607     TIP3     H2       HT       0.417000       1.00800           0
     25822 W2       8608     TIP3     OH2      OT      -0.834000       15.9994           0
     25823 W2       8608     TIP3     H1       HT       0.417000       1.00800           0
     25824 W2       8608     TIP3     H2       HT       0.417000       1.00800           0
     25825 W2       8609     TIP3     OH2      OT      -0.834000       15.9994           0
     25826 W2       8609     TIP3     H1       HT       0.417000       1.00800           0
     25827 W2       8609     TIP3     H2       HT       0.417000       1.00800           0
     25828 W2       8610     TIP3     OH2      OT      -0.834000       15.9994           0
     25829 W2       8610     TIP3     H1       HT       0.417000       1.00800           0
     25830 W2       8610     TIP3     H2       HT       0.417000       1.00800           0
     25831 W2       8611     TIP3     OH2      OT      -0.834000       15.9994           0
     25832 W2       8611     TIP3     H1       HT       0.417000       1.00800           0
     25833 W2       8611     TIP3     H2       HT       0.417000       1.00800           0
     25834 W2       8612     TIP3     OH2      OT      -0.834000       15.9994           0
     25835 W2       8612     TIP3     H1       HT       0.417000       1.00800           0
     25836 W2       8612     TIP3     H2       HT       0.417000       1.00800           0
     25837 W2       8613     TIP3     OH2      OT      -0.834000       15.9994           0
     25838 W2       8613     TIP3     H1       HT       0.417000       1.00800           0
     25839 W2       8613     TIP3     H2       HT       0.417000       1.00800           0
     25840 W2       8614     TIP3     OH2      OT      -0.834000       15.9994           0
     25841 W2       8614     TIP3     H1       HT       0.417000       1.00800           0
     25842 W2       8614     TIP3     H2       HT       0.417000       1.00800           0
     25843 W2       8615     TIP3     OH2      OT      -0.834000       15.9994           0
     25844 W2       8615     TIP3     H1       HT       0.417000       1.00800           0
     25845 W2       8615     TIP3     H2       HT       0.417000       1.00800           0
     25846 W2       8616     TIP3     OH2      OT      -0.834000       15.9994           0
     25847 W2       8616     TIP3     H1       HT       0.417000       1.00800           0
     25848 W2       8616     TIP3     H2       HT       0.417000       1.00800           0
     25849 W2       8617     TIP3     OH2      OT      -0.834000       15.9994           0
     25850 W2       8617     TIP3     H1       HT       0.417000       1.00800           0
     25851 W2       8617     TIP3     H2       HT       0.417000       1.00800           0
     25852 W2       8618     TIP3     OH2      OT      -0.834000       15.9994           0
     25853 W2       8618     TIP3     H1       HT       0.417000       1.00800           0
     25854 W2       8618     TIP3     H2       HT       0.417000       1.00800           0
     25855 W2       8619     TIP3     OH2      OT      -0.834000       15.9994           0
     25856 W2       8619     TIP3     H1       HT       0.417000       1.00800           0
     25857 W2       8619     TIP3     H2       HT       0.417000       1.00800           0
     25858 W2       8620     TIP3     OH2      OT      -0.834000       15.9994           0
     25859 W2       8620     TIP3     H1       HT       0.417000       1.00800           0
     25860 W2       8620     TIP3     H2       HT       0.417000       1.00800           0
     25861 W2       8621     TIP3     OH2      OT      -0.834000       15.9994           0
     25862 W2       8621     TIP3     H1       HT       0.417000       1.00800           0
     25863 W2       8621     TIP3     H2       HT       0.417000       1.00800           0
     25864 W2       8622     TIP3     OH2      OT      -0.834000       15.9994           0
     25865 W2       8622     TIP3     H1       HT       0.417000       1.00800           0
     25866 W2       8622     TIP3     H2       HT       0.417000       1.00800           0
     25867 W2       8623     TIP3     OH2      OT      -0.834000       15.9994           0
     25868 W2       8623     TIP3     H1       HT       0.417000       1.00800           0
     25869 W2       8623     TIP3     H2       HT       0.417000       1.00800           0
     25870 W2       8624     TIP3     OH2      OT      -0.834000       15.9994           0
     25871 W2       8624     TIP3     H1       HT       0.417000       1.00800           0
     25872 W2       8624     TIP3     H2       HT       0.417000       1.00800           0
     25873 W2       8625     TIP3     OH2      OT      -0.834000       15.9994           0
     25874 W2       8625     TIP3     H1       HT       0.417000       1.00800           0
     25875 W2       8625     TIP3     H2       HT       0.417000       1.00800           0
     25876 W2       8626     TIP3     OH2      OT      -0.834000       15.9994           0
     25877 W2       8626     TIP3     H1       HT       0.417000       1.00800           0
     25878 W2       8626     TIP3     H2       HT       0.417000       1.00800           0
     25879 W2       8627     TIP3     OH2      OT      -0.834000       15.9994           0
     25880 W2       8627     TIP3     H1       HT       0.417000       1.00800           0
     25881 W2       8627     TIP3     H2       HT       0.417000       1.00800           0
     25882 W2       8628     TIP3     OH2      OT      -0.834000       15.9994           0
     25883 W2       8628     TIP3     H1       HT       0.417000       1.00800           0
     25884 W2       8628     TIP3     H2       HT       0.417000       1.00800           0
     25885 W2       8629     TIP3     OH2      OT      -0.834000       15.9994           0
     25886 W2       8629     TIP3     H1       HT       0.417000       1.00800           0
     25887 W2       8629     TIP3     H2       HT       0.417000       1.00800           0
     25888 W2       8630     TIP3     OH2      OT      -0.834000       15.9994           0
     25889 W2       8630     TIP3     H1       HT       0.417000       1.00800           0
     25890 W2       8630     TIP3     H2       HT       0.417000       1.00800           0
     25891 W2       8631     TIP3     OH2      OT      -0.834000       15.9994           0
     25892 W2       8631     TIP3     H1       HT       0.417000       1.00800           0
     25893 W2       8631     TIP3     H2       HT       0.417000       1.00800           0
     25894 W2       8632     TIP3     OH2      OT      -0.834000       15.9994           0
     25895 W2       8632     TIP3     H1       HT       0.417000       1.00800           0
     25896 W2       8632     TIP3     H2       HT       0.417000       1.00800           0
     25897 W2       8633     TIP3     OH2      OT      -0.834000       15.9994           0
     25898 W2       8633     TIP3     H1       HT       0.417000       1.00800           0
     25899 W2       8633     TIP3     H2       HT       0.417000       1.00800           0
     25900 W2       8634     TIP3     OH2      OT      -0.834000       15.9994           0
     25901 W2       8634     TIP3     H1       HT       0.417000       1.00800           0
     25902 W2       8634     TIP3     H2       HT       0.417000       1.00800           0
     25903 W2       8635     TIP3     OH2      OT      -0.834000       15.9994           0
     25904 W2       8635     TIP3     H1       HT       0.417000       1.00800           0
     25905 W2       8635     TIP3     H2       HT       0.417000       1.00800           0
     25906 W2       8636     TIP3     OH2      OT      -0.834000       15.9994           0
     25907 W2       8636     TIP3     H1       HT       0.417000       1.00800           0
     25908 W2       8636     TIP3     H2       HT       0.417000       1.00800           0
     25909 W2       8637     TIP3     OH2      OT      -0.834000       15.9994           0
     25910 W2       8637     TIP3     H1       HT       0.417000       1.00800           0
     25911 W2       8637     TIP3     H2       HT       0.417000       1.00800           0
     25912 W2       8638     TIP3     OH2      OT      -0.834000       15.9994           0
     25913 W2       8638     TIP3     H1       HT       0.417000       1.00800           0
     25914 W2       8638     TIP3     H2       HT       0.417000       1.00800           0
     25915 W2       8639     TIP3     OH2      OT      -0.834000       15.9994           0
     25916 W2       8639     TIP3     H1       HT       0.417000       1.00800           0
     25917 W2       8639     TIP3     H2       HT       0.417000       1.00800           0
     25918 W2       8640     TIP3     OH2      OT      -0.834000       15.9994           0
     25919 W2       8640     TIP3     H1       HT       0.417000       1.00800           0
     25920 W2       8640     TIP3     H2       HT       0.417000       1.00800           0
     25921 W2       8641     TIP3     OH2      OT      -0.834000       15.9994           0
     25922 W2       8641     TIP3     H1       HT       0.417000       1.00800           0
     25923 W2       8641     TIP3     H2       HT       0.417000       1.00800           0
     25924 W2       8642     TIP3     OH2      OT      -0.834000       15.9994           0
     25925 W2       8642     TIP3     H1       HT       0.417000       1.00800           0
     25926 W2       8642     TIP3     H2       HT       0.417000       1.00800           0
     25927 W2       8643     TIP3     OH2      OT      -0.834000       15.9994           0
     25928 W2       8643     TIP3     H1       HT       0.417000       1.00800           0
     25929 W2       8643     TIP3     H2       HT       0.417000       1.00800           0
     25930 W2       8644     TIP3     OH2      OT      -0.834000       15.9994           0
     25931 W2       8644     TIP3     H1       HT       0.417000       1.00800           0
     25932 W2       8644     TIP3     H2       HT       0.417000       1.00800           0
     25933 W2       8645     TIP3     OH2      OT      -0.834000       15.9994           0
     25934 W2       8645     TIP3     H1       HT       0.417000       1.00800           0
     25935 W2       8645     TIP3     H2       HT       0.417000       1.00800           0
     25936 W2       8646     TIP3     OH2      OT      -0.834000       15.9994           0
     25937 W2       8646     TIP3     H1       HT       0.417000       1.00800           0
     25938 W2       8646     TIP3     H2       HT       0.417000       1.00800           0
     25939 W2       8647     TIP3     OH2      OT      -0.834000       15.9994           0
     25940 W2       8647     TIP3     H1       HT       0.417000       1.00800           0
     25941 W2       8647     TIP3     H2       HT       0.417000       1.00800           0
     25942 W2       8648     TIP3     OH2      OT      -0.834000       15.9994           0
     25943 W2       8648     TIP3     H1       HT       0.417000       1.00800           0
     25944 W2       8648     TIP3     H2       HT       0.417000       1.00800           0
     25945 W2       8649     TIP3     OH2      OT      -0.834000       15.9994           0
     25946 W2       8649     TIP3     H1       HT       0.417000       1.00800           0
     25947 W2       8649     TIP3     H2       HT       0.417000       1.00800           0
     25948 W2       8650     TIP3     OH2      OT      -0.834000       15.9994           0
     25949 W2       8650     TIP3     H1       HT       0.417000       1.00800           0
     25950 W2       8650     TIP3     H2       HT       0.417000       1.00800           0
     25951 W2       8651     TIP3     OH2      OT      -0.834000       15.9994           0
     25952 W2       8651     TIP3     H1       HT       0.417000       1.00800           0
     25953 W2       8651     TIP3     H2       HT       0.417000       1.00800           0
     25954 W2       8652     TIP3     OH2      OT      -0.834000       15.9994           0
     25955 W2       8652     TIP3     H1       HT       0.417000       1.00800           0
     25956 W2       8652     TIP3     H2       HT       0.417000       1.00800           0
     25957 W2       8653     TIP3     OH2      OT      -0.834000       15.9994           0
     25958 W2       8653     TIP3     H1       HT       0.417000       1.00800           0
     25959 W2       8653     TIP3     H2       HT       0.417000       1.00800           0
     25960 W2       8654     TIP3     OH2      OT      -0.834000       15.9994           0
     25961 W2       8654     TIP3     H1       HT       0.417000       1.00800           0
     25962 W2       8654     TIP3     H2       HT       0.417000       1.00800           0
     25963 W2       8655     TIP3     OH2      OT      -0.834000       15.9994           0
     25964 W2       8655     TIP3     H1       HT       0.417000       1.00800           0
     25965 W2       8655     TIP3     H2       HT       0.417000       1.00800           0
     25966 W2       8656     TIP3     OH2      OT      -0.834000       15.9994           0
     25967 W2       8656     TIP3     H1       HT       0.417000       1.00800           0
     25968 W2       8656     TIP3     H2       HT       0.417000       1.00800           0
     25969 W2       8657     TIP3     OH2      OT      -0.834000       15.9994           0
     25970 W2       8657     TIP3     H1       HT       0.417000       1.00800           0
     25971 W2       8657     TIP3     H2       HT       0.417000       1.00800           0
     25972 W2       8658     TIP3     OH2      OT      -0.834000       15.9994           0
     25973 W2       8658     TIP3     H1       HT       0.417000       1.00800           0
     25974 W2       8658     TIP3     H2       HT       0.417000       1.00800           0
     25975 W2       8659     TIP3     OH2      OT      -0.834000       15.9994           0
     25976 W2       8659     TIP3     H1       HT       0.417000       1.00800           0
     25977 W2       8659     TIP3     H2       HT       0.417000       1.00800           0
     25978 W2       8660     TIP3     OH2      OT      -0.834000       15.9994           0
     25979 W2       8660     TIP3     H1       HT       0.417000       1.00800           0
     25980 W2       8660     TIP3     H2       HT       0.417000       1.00800           0
     25981 W2       8661     TIP3     OH2      OT      -0.834000       15.9994           0
     25982 W2       8661     TIP3     H1       HT       0.417000       1.00800           0
     25983 W2       8661     TIP3     H2       HT       0.417000       1.00800           0
     25984 W2       8662     TIP3     OH2      OT      -0.834000       15.9994           0
     25985 W2       8662     TIP3     H1       HT       0.417000       1.00800           0
     25986 W2       8662     TIP3     H2       HT       0.417000       1.00800           0
     25987 W2       8663     TIP3     OH2      OT      -0.834000       15.9994           0
     25988 W2       8663     TIP3     H1       HT       0.417000       1.00800           0
     25989 W2       8663     TIP3     H2       HT       0.417000       1.00800           0
     25990 W2       8664     TIP3     OH2      OT      -0.834000       15.9994           0
     25991 W2       8664     TIP3     H1       HT       0.417000       1.00800           0
     25992 W2       8664     TIP3     H2       HT       0.417000       1.00800           0
     25993 W2       8665     TIP3     OH2      OT      -0.834000       15.9994           0
     25994 W2       8665     TIP3     H1       HT       0.417000       1.00800           0
     25995 W2       8665     TIP3     H2       HT       0.417000       1.00800           0
     25996 W2       8666     TIP3     OH2      OT      -0.834000       15.9994           0
     25997 W2       8666     TIP3     H1       HT       0.417000       1.00800           0
     25998 W2       8666     TIP3     H2       HT       0.417000       1.00800           0
     25999 W2       8667     TIP3     OH2      OT      -0.834000       15.9994           0
     26000 W2       8667     TIP3     H1       HT       0.417000       1.00800           0
     26001 W2       8667     TIP3     H2       HT       0.417000       1.00800           0
     26002 W2       8668     TIP3     OH2      OT      -0.834000       15.9994           0
     26003 W2       8668     TIP3     H1       HT       0.417000       1.00800           0
     26004 W2       8668     TIP3     H2       HT       0.417000       1.00800           0
     26005 W2       8669     TIP3     OH2      OT      -0.834000       15.9994           0
     26006 W2       8669     TIP3     H1       HT       0.417000       1.00800           0
     26007 W2       8669     TIP3     H2       HT       0.417000       1.00800           0
     26008 W2       8670     TIP3     OH2      OT      -0.834000       15.9994           0
     26009 W2       8670     TIP3     H1       HT       0.417000       1.00800           0
     26010 W2       8670     TIP3     H2       HT       0.417000       1.00800           0
     26011 W2       8671     TIP3     OH2      OT      -0.834000       15.9994           0
     26012 W2       8671     TIP3     H1       HT       0.417000       1.00800           0
     26013 W2       8671     TIP3     H2       HT       0.417000       1.00800           0
     26014 W2       8672     TIP3     OH2      OT      -0.834000       15.9994           0
     26015 W2       8672     TIP3     H1       HT       0.417000       1.00800           0
     26016 W2       8672     TIP3     H2       HT       0.417000       1.00800           0
     26017 W2       8673     TIP3     OH2      OT      -0.834000       15.9994           0
     26018 W2       8673     TIP3     H1       HT       0.417000       1.00800           0
     26019 W2       8673     TIP3     H2       HT       0.417000       1.00800           0
     26020 W2       8674     TIP3     OH2      OT      -0.834000       15.9994           0
     26021 W2       8674     TIP3     H1       HT       0.417000       1.00800           0
     26022 W2       8674     TIP3     H2       HT       0.417000       1.00800           0
     26023 W2       8675     TIP3     OH2      OT      -0.834000       15.9994           0
     26024 W2       8675     TIP3     H1       HT       0.417000       1.00800           0
     26025 W2       8675     TIP3     H2       HT       0.417000       1.00800           0
     26026 W2       8676     TIP3     OH2      OT      -0.834000       15.9994           0
     26027 W2       8676     TIP3     H1       HT       0.417000       1.00800           0
     26028 W2       8676     TIP3     H2       HT       0.417000       1.00800           0
     26029 W2       8677     TIP3     OH2      OT      -0.834000       15.9994           0
     26030 W2       8677     TIP3     H1       HT       0.417000       1.00800           0
     26031 W2       8677     TIP3     H2       HT       0.417000       1.00800           0
     26032 W2       8678     TIP3     OH2      OT      -0.834000       15.9994           0
     26033 W2       8678     TIP3     H1       HT       0.417000       1.00800           0
     26034 W2       8678     TIP3     H2       HT       0.417000       1.00800           0
     26035 W2       8679     TIP3     OH2      OT      -0.834000       15.9994           0
     26036 W2       8679     TIP3     H1       HT       0.417000       1.00800           0
     26037 W2       8679     TIP3     H2       HT       0.417000       1.00800           0
     26038 W2       8680     TIP3     OH2      OT      -0.834000       15.9994           0
     26039 W2       8680     TIP3     H1       HT       0.417000       1.00800           0
     26040 W2       8680     TIP3     H2       HT       0.417000       1.00800           0
     26041 W2       8681     TIP3     OH2      OT      -0.834000       15.9994           0
     26042 W2       8681     TIP3     H1       HT       0.417000       1.00800           0
     26043 W2       8681     TIP3     H2       HT       0.417000       1.00800           0
     26044 W2       8682     TIP3     OH2      OT      -0.834000       15.9994           0
     26045 W2       8682     TIP3     H1       HT       0.417000       1.00800           0
     26046 W2       8682     TIP3     H2       HT       0.417000       1.00800           0
     26047 W2       8683     TIP3     OH2      OT      -0.834000       15.9994           0
     26048 W2       8683     TIP3     H1       HT       0.417000       1.00800           0
     26049 W2       8683     TIP3     H2       HT       0.417000       1.00800           0
     26050 W2       8684     TIP3     OH2      OT      -0.834000       15.9994           0
     26051 W2       8684     TIP3     H1       HT       0.417000       1.00800           0
     26052 W2       8684     TIP3     H2       HT       0.417000       1.00800           0
     26053 W2       8685     TIP3     OH2      OT      -0.834000       15.9994           0
     26054 W2       8685     TIP3     H1       HT       0.417000       1.00800           0
     26055 W2       8685     TIP3     H2       HT       0.417000       1.00800           0
     26056 W2       8686     TIP3     OH2      OT      -0.834000       15.9994           0
     26057 W2       8686     TIP3     H1       HT       0.417000       1.00800           0
     26058 W2       8686     TIP3     H2       HT       0.417000       1.00800           0
     26059 W2       8687     TIP3     OH2      OT      -0.834000       15.9994           0
     26060 W2       8687     TIP3     H1       HT       0.417000       1.00800           0
     26061 W2       8687     TIP3     H2       HT       0.417000       1.00800           0
     26062 W2       8688     TIP3     OH2      OT      -0.834000       15.9994           0
     26063 W2       8688     TIP3     H1       HT       0.417000       1.00800           0
     26064 W2       8688     TIP3     H2       HT       0.417000       1.00800           0
     26065 W2       8689     TIP3     OH2      OT      -0.834000       15.9994           0
     26066 W2       8689     TIP3     H1       HT       0.417000       1.00800           0
     26067 W2       8689     TIP3     H2       HT       0.417000       1.00800           0
     26068 W2       8690     TIP3     OH2      OT      -0.834000       15.9994           0
     26069 W2       8690     TIP3     H1       HT       0.417000       1.00800           0
     26070 W2       8690     TIP3     H2       HT       0.417000       1.00800           0
     26071 W2       8691     TIP3     OH2      OT      -0.834000       15.9994           0
     26072 W2       8691     TIP3     H1       HT       0.417000       1.00800           0
     26073 W2       8691     TIP3     H2       HT       0.417000       1.00800           0
     26074 W2       8692     TIP3     OH2      OT      -0.834000       15.9994           0
     26075 W2       8692     TIP3     H1       HT       0.417000       1.00800           0
     26076 W2       8692     TIP3     H2       HT       0.417000       1.00800           0
     26077 W2       8693     TIP3     OH2      OT      -0.834000       15.9994           0
     26078 W2       8693     TIP3     H1       HT       0.417000       1.00800           0
     26079 W2       8693     TIP3     H2       HT       0.417000       1.00800           0
     26080 W2       8694     TIP3     OH2      OT      -0.834000       15.9994           0
     26081 W2       8694     TIP3     H1       HT       0.417000       1.00800           0
     26082 W2       8694     TIP3     H2       HT       0.417000       1.00800           0
     26083 W2       8695     TIP3     OH2      OT      -0.834000       15.9994           0
     26084 W2       8695     TIP3     H1       HT       0.417000       1.00800           0
     26085 W2       8695     TIP3     H2       HT       0.417000       1.00800           0
     26086 W2       8696     TIP3     OH2      OT      -0.834000       15.9994           0
     26087 W2       8696     TIP3     H1       HT       0.417000       1.00800           0
     26088 W2       8696     TIP3     H2       HT       0.417000       1.00800           0
     26089 W2       8697     TIP3     OH2      OT      -0.834000       15.9994           0
     26090 W2       8697     TIP3     H1       HT       0.417000       1.00800           0
     26091 W2       8697     TIP3     H2       HT       0.417000       1.00800           0
     26092 W2       8698     TIP3     OH2      OT      -0.834000       15.9994           0
     26093 W2       8698     TIP3     H1       HT       0.417000       1.00800           0
     26094 W2       8698     TIP3     H2       HT       0.417000       1.00800           0
     26095 W2       8699     TIP3     OH2      OT      -0.834000       15.9994           0
     26096 W2       8699     TIP3     H1       HT       0.417000       1.00800           0
     26097 W2       8699     TIP3     H2       HT       0.417000       1.00800           0
     26098 W2       8700     TIP3     OH2      OT      -0.834000       15.9994           0
     26099 W2       8700     TIP3     H1       HT       0.417000       1.00800           0
     26100 W2       8700     TIP3     H2       HT       0.417000       1.00800           0
     26101 W2       8701     TIP3     OH2      OT      -0.834000       15.9994           0
     26102 W2       8701     TIP3     H1       HT       0.417000       1.00800           0
     26103 W2       8701     TIP3     H2       HT       0.417000       1.00800           0
     26104 W2       8702     TIP3     OH2      OT      -0.834000       15.9994           0
     26105 W2       8702     TIP3     H1       HT       0.417000       1.00800           0
     26106 W2       8702     TIP3     H2       HT       0.417000       1.00800           0
     26107 W2       8703     TIP3     OH2      OT      -0.834000       15.9994           0
     26108 W2       8703     TIP3     H1       HT       0.417000       1.00800           0
     26109 W2       8703     TIP3     H2       HT       0.417000       1.00800           0
     26110 W2       8704     TIP3     OH2      OT      -0.834000       15.9994           0
     26111 W2       8704     TIP3     H1       HT       0.417000       1.00800           0
     26112 W2       8704     TIP3     H2       HT       0.417000       1.00800           0
     26113 W2       8705     TIP3     OH2      OT      -0.834000       15.9994           0
     26114 W2       8705     TIP3     H1       HT       0.417000       1.00800           0
     26115 W2       8705     TIP3     H2       HT       0.417000       1.00800           0
     26116 W2       8706     TIP3     OH2      OT      -0.834000       15.9994           0
     26117 W2       8706     TIP3     H1       HT       0.417000       1.00800           0
     26118 W2       8706     TIP3     H2       HT       0.417000       1.00800           0
     26119 W2       8707     TIP3     OH2      OT      -0.834000       15.9994           0
     26120 W2       8707     TIP3     H1       HT       0.417000       1.00800           0
     26121 W2       8707     TIP3     H2       HT       0.417000       1.00800           0
     26122 W2       8708     TIP3     OH2      OT      -0.834000       15.9994           0
     26123 W2       8708     TIP3     H1       HT       0.417000       1.00800           0
     26124 W2       8708     TIP3     H2       HT       0.417000       1.00800           0
     26125 W2       8709     TIP3     OH2      OT      -0.834000       15.9994           0
     26126 W2       8709     TIP3     H1       HT       0.417000       1.00800           0
     26127 W2       8709     TIP3     H2       HT       0.417000       1.00800           0
     26128 W2       8710     TIP3     OH2      OT      -0.834000       15.9994           0
     26129 W2       8710     TIP3     H1       HT       0.417000       1.00800           0
     26130 W2       8710     TIP3     H2       HT       0.417000       1.00800           0
     26131 W2       8711     TIP3     OH2      OT      -0.834000       15.9994           0
     26132 W2       8711     TIP3     H1       HT       0.417000       1.00800           0
     26133 W2       8711     TIP3     H2       HT       0.417000       1.00800           0
     26134 W2       8712     TIP3     OH2      OT      -0.834000       15.9994           0
     26135 W2       8712     TIP3     H1       HT       0.417000       1.00800           0
     26136 W2       8712     TIP3     H2       HT       0.417000       1.00800           0
     26137 W2       8713     TIP3     OH2      OT      -0.834000       15.9994           0
     26138 W2       8713     TIP3     H1       HT       0.417000       1.00800           0
     26139 W2       8713     TIP3     H2       HT       0.417000       1.00800           0
     26140 W2       8714     TIP3     OH2      OT      -0.834000       15.9994           0
     26141 W2       8714     TIP3     H1       HT       0.417000       1.00800           0
     26142 W2       8714     TIP3     H2       HT       0.417000       1.00800           0
     26143 W2       8715     TIP3     OH2      OT      -0.834000       15.9994           0
     26144 W2       8715     TIP3     H1       HT       0.417000       1.00800           0
     26145 W2       8715     TIP3     H2       HT       0.417000       1.00800           0
     26146 W2       8716     TIP3     OH2      OT      -0.834000       15.9994           0
     26147 W2       8716     TIP3     H1       HT       0.417000       1.00800           0
     26148 W2       8716     TIP3     H2       HT       0.417000       1.00800           0
     26149 W2       8717     TIP3     OH2      OT      -0.834000       15.9994           0
     26150 W2       8717     TIP3     H1       HT       0.417000       1.00800           0
     26151 W2       8717     TIP3     H2       HT       0.417000       1.00800           0
     26152 W2       8718     TIP3     OH2      OT      -0.834000       15.9994           0
     26153 W2       8718     TIP3     H1       HT       0.417000       1.00800           0
     26154 W2       8718     TIP3     H2       HT       0.417000       1.00800           0
     26155 W2       8719     TIP3     OH2      OT      -0.834000       15.9994           0
     26156 W2       8719     TIP3     H1       HT       0.417000       1.00800           0
     26157 W2       8719     TIP3     H2       HT       0.417000       1.00800           0
     26158 W2       8720     TIP3     OH2      OT      -0.834000       15.9994           0
     26159 W2       8720     TIP3     H1       HT       0.417000       1.00800           0
     26160 W2       8720     TIP3     H2       HT       0.417000       1.00800           0
     26161 W2       8721     TIP3     OH2      OT      -0.834000       15.9994           0
     26162 W2       8721     TIP3     H1       HT       0.417000       1.00800           0
     26163 W2       8721     TIP3     H2       HT       0.417000       1.00800           0
     26164 W2       8722     TIP3     OH2      OT      -0.834000       15.9994           0
     26165 W2       8722     TIP3     H1       HT       0.417000       1.00800           0
     26166 W2       8722     TIP3     H2       HT       0.417000       1.00800           0
     26167 W2       8723     TIP3     OH2      OT      -0.834000       15.9994           0
     26168 W2       8723     TIP3     H1       HT       0.417000       1.00800           0
     26169 W2       8723     TIP3     H2       HT       0.417000       1.00800           0
     26170 W2       8724     TIP3     OH2      OT      -0.834000       15.9994           0
     26171 W2       8724     TIP3     H1       HT       0.417000       1.00800           0
     26172 W2       8724     TIP3     H2       HT       0.417000       1.00800           0
     26173 W2       8725     TIP3     OH2      OT      -0.834000       15.9994           0
     26174 W2       8725     TIP3     H1       HT       0.417000       1.00800           0
     26175 W2       8725     TIP3     H2       HT       0.417000       1.00800           0
     26176 W2       8726     TIP3     OH2      OT      -0.834000       15.9994           0
     26177 W2       8726     TIP3     H1       HT       0.417000       1.00800           0
     26178 W2       8726     TIP3     H2       HT       0.417000       1.00800           0
     26179 W2       8727     TIP3     OH2      OT      -0.834000       15.9994           0
     26180 W2       8727     TIP3     H1       HT       0.417000       1.00800           0
     26181 W2       8727     TIP3     H2       HT       0.417000       1.00800           0
     26182 W2       8728     TIP3     OH2      OT      -0.834000       15.9994           0
     26183 W2       8728     TIP3     H1       HT       0.417000       1.00800           0
     26184 W2       8728     TIP3     H2       HT       0.417000       1.00800           0
     26185 W2       8729     TIP3     OH2      OT      -0.834000       15.9994           0
     26186 W2       8729     TIP3     H1       HT       0.417000       1.00800           0
     26187 W2       8729     TIP3     H2       HT       0.417000       1.00800           0
     26188 W2       8730     TIP3     OH2      OT      -0.834000       15.9994           0
     26189 W2       8730     TIP3     H1       HT       0.417000       1.00800           0
     26190 W2       8730     TIP3     H2       HT       0.417000       1.00800           0
     26191 W2       8731     TIP3     OH2      OT      -0.834000       15.9994           0
     26192 W2       8731     TIP3     H1       HT       0.417000       1.00800           0
     26193 W2       8731     TIP3     H2       HT       0.417000       1.00800           0
     26194 W2       8732     TIP3     OH2      OT      -0.834000       15.9994           0
     26195 W2       8732     TIP3     H1       HT       0.417000       1.00800           0
     26196 W2       8732     TIP3     H2       HT       0.417000       1.00800           0
     26197 W2       8733     TIP3     OH2      OT      -0.834000       15.9994           0
     26198 W2       8733     TIP3     H1       HT       0.417000       1.00800           0
     26199 W2       8733     TIP3     H2       HT       0.417000       1.00800           0
     26200 W2       8734     TIP3     OH2      OT      -0.834000       15.9994           0
     26201 W2       8734     TIP3     H1       HT       0.417000       1.00800           0
     26202 W2       8734     TIP3     H2       HT       0.417000       1.00800           0
     26203 W2       8735     TIP3     OH2      OT      -0.834000       15.9994           0
     26204 W2       8735     TIP3     H1       HT       0.417000       1.00800           0
     26205 W2       8735     TIP3     H2       HT       0.417000       1.00800           0
     26206 W2       8736     TIP3     OH2      OT      -0.834000       15.9994           0
     26207 W2       8736     TIP3     H1       HT       0.417000       1.00800           0
     26208 W2       8736     TIP3     H2       HT       0.417000       1.00800           0
     26209 W2       8737     TIP3     OH2      OT      -0.834000       15.9994           0
     26210 W2       8737     TIP3     H1       HT       0.417000       1.00800           0
     26211 W2       8737     TIP3     H2       HT       0.417000       1.00800           0
     26212 W2       8738     TIP3     OH2      OT      -0.834000       15.9994           0
     26213 W2       8738     TIP3     H1       HT       0.417000       1.00800           0
     26214 W2       8738     TIP3     H2       HT       0.417000       1.00800           0
     26215 W2       8739     TIP3     OH2      OT      -0.834000       15.9994           0
     26216 W2       8739     TIP3     H1       HT       0.417000       1.00800           0
     26217 W2       8739     TIP3     H2       HT       0.417000       1.00800           0
     26218 W2       8740     TIP3     OH2      OT      -0.834000       15.9994           0
     26219 W2       8740     TIP3     H1       HT       0.417000       1.00800           0
     26220 W2       8740     TIP3     H2       HT       0.417000       1.00800           0
     26221 W2       8741     TIP3     OH2      OT      -0.834000       15.9994           0
     26222 W2       8741     TIP3     H1       HT       0.417000       1.00800           0
     26223 W2       8741     TIP3     H2       HT       0.417000       1.00800           0
     26224 W2       8742     TIP3     OH2      OT      -0.834000       15.9994           0
     26225 W2       8742     TIP3     H1       HT       0.417000       1.00800           0
     26226 W2       8742     TIP3     H2       HT       0.417000       1.00800           0
     26227 W2       8743     TIP3     OH2      OT      -0.834000       15.9994           0
     26228 W2       8743     TIP3     H1       HT       0.417000       1.00800           0
     26229 W2       8743     TIP3     H2       HT       0.417000       1.00800           0
     26230 W2       8744     TIP3     OH2      OT      -0.834000       15.9994           0
     26231 W2       8744     TIP3     H1       HT       0.417000       1.00800           0
     26232 W2       8744     TIP3     H2       HT       0.417000       1.00800           0
     26233 W2       8745     TIP3     OH2      OT      -0.834000       15.9994           0
     26234 W2       8745     TIP3     H1       HT       0.417000       1.00800           0
     26235 W2       8745     TIP3     H2       HT       0.417000       1.00800           0
     26236 W2       8746     TIP3     OH2      OT      -0.834000       15.9994           0
     26237 W2       8746     TIP3     H1       HT       0.417000       1.00800           0
     26238 W2       8746     TIP3     H2       HT       0.417000       1.00800           0
     26239 W2       8747     TIP3     OH2      OT      -0.834000       15.9994           0
     26240 W2       8747     TIP3     H1       HT       0.417000       1.00800           0
     26241 W2       8747     TIP3     H2       HT       0.417000       1.00800           0
     26242 W2       8748     TIP3     OH2      OT      -0.834000       15.9994           0
     26243 W2       8748     TIP3     H1       HT       0.417000       1.00800           0
     26244 W2       8748     TIP3     H2       HT       0.417000       1.00800           0
     26245 W2       8749     TIP3     OH2      OT      -0.834000       15.9994           0
     26246 W2       8749     TIP3     H1       HT       0.417000       1.00800           0
     26247 W2       8749     TIP3     H2       HT       0.417000       1.00800           0
     26248 W2       8750     TIP3     OH2      OT      -0.834000       15.9994           0
     26249 W2       8750     TIP3     H1       HT       0.417000       1.00800           0
     26250 W2       8750     TIP3     H2       HT       0.417000       1.00800           0
     26251 W2       8751     TIP3     OH2      OT      -0.834000       15.9994           0
     26252 W2       8751     TIP3     H1       HT       0.417000       1.00800           0
     26253 W2       8751     TIP3     H2       HT       0.417000       1.00800           0
     26254 W2       8752     TIP3     OH2      OT      -0.834000       15.9994           0
     26255 W2       8752     TIP3     H1       HT       0.417000       1.00800           0
     26256 W2       8752     TIP3     H2       HT       0.417000       1.00800           0
     26257 W2       8753     TIP3     OH2      OT      -0.834000       15.9994           0
     26258 W2       8753     TIP3     H1       HT       0.417000       1.00800           0
     26259 W2       8753     TIP3     H2       HT       0.417000       1.00800           0
     26260 W2       8754     TIP3     OH2      OT      -0.834000       15.9994           0
     26261 W2       8754     TIP3     H1       HT       0.417000       1.00800           0
     26262 W2       8754     TIP3     H2       HT       0.417000       1.00800           0
     26263 W2       8755     TIP3     OH2      OT      -0.834000       15.9994           0
     26264 W2       8755     TIP3     H1       HT       0.417000       1.00800           0
     26265 W2       8755     TIP3     H2       HT       0.417000       1.00800           0
     26266 W2       8756     TIP3     OH2      OT      -0.834000       15.9994           0
     26267 W2       8756     TIP3     H1       HT       0.417000       1.00800           0
     26268 W2       8756     TIP3     H2       HT       0.417000       1.00800           0
     26269 W2       8757     TIP3     OH2      OT      -0.834000       15.9994           0
     26270 W2       8757     TIP3     H1       HT       0.417000       1.00800           0
     26271 W2       8757     TIP3     H2       HT       0.417000       1.00800           0
     26272 W2       8758     TIP3     OH2      OT      -0.834000       15.9994           0
     26273 W2       8758     TIP3     H1       HT       0.417000       1.00800           0
     26274 W2       8758     TIP3     H2       HT       0.417000       1.00800           0
     26275 W2       8759     TIP3     OH2      OT      -0.834000       15.9994           0
     26276 W2       8759     TIP3     H1       HT       0.417000       1.00800           0
     26277 W2       8759     TIP3     H2       HT       0.417000       1.00800           0
     26278 W2       8760     TIP3     OH2      OT      -0.834000       15.9994           0
     26279 W2       8760     TIP3     H1       HT       0.417000       1.00800           0
     26280 W2       8760     TIP3     H2       HT       0.417000       1.00800           0
     26281 W2       8761     TIP3     OH2      OT      -0.834000       15.9994           0
     26282 W2       8761     TIP3     H1       HT       0.417000       1.00800           0
     26283 W2       8761     TIP3     H2       HT       0.417000       1.00800           0
     26284 W2       8762     TIP3     OH2      OT      -0.834000       15.9994           0
     26285 W2       8762     TIP3     H1       HT       0.417000       1.00800           0
     26286 W2       8762     TIP3     H2       HT       0.417000       1.00800           0
     26287 W2       8763     TIP3     OH2      OT      -0.834000       15.9994           0
     26288 W2       8763     TIP3     H1       HT       0.417000       1.00800           0
     26289 W2       8763     TIP3     H2       HT       0.417000       1.00800           0
     26290 W2       8764     TIP3     OH2      OT      -0.834000       15.9994           0
     26291 W2       8764     TIP3     H1       HT       0.417000       1.00800           0
     26292 W2       8764     TIP3     H2       HT       0.417000       1.00800           0
     26293 W2       8765     TIP3     OH2      OT      -0.834000       15.9994           0
     26294 W2       8765     TIP3     H1       HT       0.417000       1.00800           0
     26295 W2       8765     TIP3     H2       HT       0.417000       1.00800           0
     26296 W2       8766     TIP3     OH2      OT      -0.834000       15.9994           0
     26297 W2       8766     TIP3     H1       HT       0.417000       1.00800           0
     26298 W2       8766     TIP3     H2       HT       0.417000       1.00800           0
     26299 W2       8767     TIP3     OH2      OT      -0.834000       15.9994           0
     26300 W2       8767     TIP3     H1       HT       0.417000       1.00800           0
     26301 W2       8767     TIP3     H2       HT       0.417000       1.00800           0
     26302 W2       8768     TIP3     OH2      OT      -0.834000       15.9994           0
     26303 W2       8768     TIP3     H1       HT       0.417000       1.00800           0
     26304 W2       8768     TIP3     H2       HT       0.417000       1.00800           0
     26305 W2       8769     TIP3     OH2      OT      -0.834000       15.9994           0
     26306 W2       8769     TIP3     H1       HT       0.417000       1.00800           0
     26307 W2       8769     TIP3     H2       HT       0.417000       1.00800           0
     26308 W2       8770     TIP3     OH2      OT      -0.834000       15.9994           0
     26309 W2       8770     TIP3     H1       HT       0.417000       1.00800           0
     26310 W2       8770     TIP3     H2       HT       0.417000       1.00800           0
     26311 W2       8771     TIP3     OH2      OT      -0.834000       15.9994           0
     26312 W2       8771     TIP3     H1       HT       0.417000       1.00800           0
     26313 W2       8771     TIP3     H2       HT       0.417000       1.00800           0
     26314 W2       8772     TIP3     OH2      OT      -0.834000       15.9994           0
     26315 W2       8772     TIP3     H1       HT       0.417000       1.00800           0
     26316 W2       8772     TIP3     H2       HT       0.417000       1.00800           0
     26317 W2       8773     TIP3     OH2      OT      -0.834000       15.9994           0
     26318 W2       8773     TIP3     H1       HT       0.417000       1.00800           0
     26319 W2       8773     TIP3     H2       HT       0.417000       1.00800           0
     26320 W2       8774     TIP3     OH2      OT      -0.834000       15.9994           0
     26321 W2       8774     TIP3     H1       HT       0.417000       1.00800           0
     26322 W2       8774     TIP3     H2       HT       0.417000       1.00800           0
     26323 W2       8775     TIP3     OH2      OT      -0.834000       15.9994           0
     26324 W2       8775     TIP3     H1       HT       0.417000       1.00800           0
     26325 W2       8775     TIP3     H2       HT       0.417000       1.00800           0
     26326 W2       8776     TIP3     OH2      OT      -0.834000       15.9994           0
     26327 W2       8776     TIP3     H1       HT       0.417000       1.00800           0
     26328 W2       8776     TIP3     H2       HT       0.417000       1.00800           0
     26329 W2       8777     TIP3     OH2      OT      -0.834000       15.9994           0
     26330 W2       8777     TIP3     H1       HT       0.417000       1.00800           0
     26331 W2       8777     TIP3     H2       HT       0.417000       1.00800           0
     26332 W2       8778     TIP3     OH2      OT      -0.834000       15.9994           0
     26333 W2       8778     TIP3     H1       HT       0.417000       1.00800           0
     26334 W2       8778     TIP3     H2       HT       0.417000       1.00800           0
     26335 W2       8779     TIP3     OH2      OT      -0.834000       15.9994           0
     26336 W2       8779     TIP3     H1       HT       0.417000       1.00800           0
     26337 W2       8779     TIP3     H2       HT       0.417000       1.00800           0
     26338 W2       8780     TIP3     OH2      OT      -0.834000       15.9994           0
     26339 W2       8780     TIP3     H1       HT       0.417000       1.00800           0
     26340 W2       8780     TIP3     H2       HT       0.417000       1.00800           0
     26341 W2       8781     TIP3     OH2      OT      -0.834000       15.9994           0
     26342 W2       8781     TIP3     H1       HT       0.417000       1.00800           0
     26343 W2       8781     TIP3     H2       HT       0.417000       1.00800           0
     26344 W2       8782     TIP3     OH2      OT      -0.834000       15.9994           0
     26345 W2       8782     TIP3     H1       HT       0.417000       1.00800           0
     26346 W2       8782     TIP3     H2       HT       0.417000       1.00800           0
     26347 W2       8783     TIP3     OH2      OT      -0.834000       15.9994           0
     26348 W2       8783     TIP3     H1       HT       0.417000       1.00800           0
     26349 W2       8783     TIP3     H2       HT       0.417000       1.00800           0
     26350 W2       8784     TIP3     OH2      OT      -0.834000       15.9994           0
     26351 W2       8784     TIP3     H1       HT       0.417000       1.00800           0
     26352 W2       8784     TIP3     H2       HT       0.417000       1.00800           0
     26353 W2       8785     TIP3     OH2      OT      -0.834000       15.9994           0
     26354 W2       8785     TIP3     H1       HT       0.417000       1.00800           0
     26355 W2       8785     TIP3     H2       HT       0.417000       1.00800           0
     26356 W2       8786     TIP3     OH2      OT      -0.834000       15.9994           0
     26357 W2       8786     TIP3     H1       HT       0.417000       1.00800           0
     26358 W2       8786     TIP3     H2       HT       0.417000       1.00800           0
     26359 W2       8787     TIP3     OH2      OT      -0.834000       15.9994           0
     26360 W2       8787     TIP3     H1       HT       0.417000       1.00800           0
     26361 W2       8787     TIP3     H2       HT       0.417000       1.00800           0
     26362 W2       8788     TIP3     OH2      OT      -0.834000       15.9994           0
     26363 W2       8788     TIP3     H1       HT       0.417000       1.00800           0
     26364 W2       8788     TIP3     H2       HT       0.417000       1.00800           0
     26365 W2       8789     TIP3     OH2      OT      -0.834000       15.9994           0
     26366 W2       8789     TIP3     H1       HT       0.417000       1.00800           0
     26367 W2       8789     TIP3     H2       HT       0.417000       1.00800           0
     26368 W2       8790     TIP3     OH2      OT      -0.834000       15.9994           0
     26369 W2       8790     TIP3     H1       HT       0.417000       1.00800           0
     26370 W2       8790     TIP3     H2       HT       0.417000       1.00800           0
     26371 W2       8791     TIP3     OH2      OT      -0.834000       15.9994           0
     26372 W2       8791     TIP3     H1       HT       0.417000       1.00800           0
     26373 W2       8791     TIP3     H2       HT       0.417000       1.00800           0
     26374 W2       8792     TIP3     OH2      OT      -0.834000       15.9994           0
     26375 W2       8792     TIP3     H1       HT       0.417000       1.00800           0
     26376 W2       8792     TIP3     H2       HT       0.417000       1.00800           0
     26377 W2       8793     TIP3     OH2      OT      -0.834000       15.9994           0
     26378 W2       8793     TIP3     H1       HT       0.417000       1.00800           0
     26379 W2       8793     TIP3     H2       HT       0.417000       1.00800           0
     26380 W2       8794     TIP3     OH2      OT      -0.834000       15.9994           0
     26381 W2       8794     TIP3     H1       HT       0.417000       1.00800           0
     26382 W2       8794     TIP3     H2       HT       0.417000       1.00800           0
     26383 W2       8795     TIP3     OH2      OT      -0.834000       15.9994           0
     26384 W2       8795     TIP3     H1       HT       0.417000       1.00800           0
     26385 W2       8795     TIP3     H2       HT       0.417000       1.00800           0
     26386 W2       8796     TIP3     OH2      OT      -0.834000       15.9994           0
     26387 W2       8796     TIP3     H1       HT       0.417000       1.00800           0
     26388 W2       8796     TIP3     H2       HT       0.417000       1.00800           0
     26389 W2       8797     TIP3     OH2      OT      -0.834000       15.9994           0
     26390 W2       8797     TIP3     H1       HT       0.417000       1.00800           0
     26391 W2       8797     TIP3     H2       HT       0.417000       1.00800           0
     26392 W2       8798     TIP3     OH2      OT      -0.834000       15.9994           0
     26393 W2       8798     TIP3     H1       HT       0.417000       1.00800           0
     26394 W2       8798     TIP3     H2       HT       0.417000       1.00800           0
     26395 W2       8799     TIP3     OH2      OT      -0.834000       15.9994           0
     26396 W2       8799     TIP3     H1       HT       0.417000       1.00800           0
     26397 W2       8799     TIP3     H2       HT       0.417000       1.00800           0
     26398 W2       8800     TIP3     OH2      OT      -0.834000       15.9994           0
     26399 W2       8800     TIP3     H1       HT       0.417000       1.00800           0
     26400 W2       8800     TIP3     H2       HT       0.417000       1.00800           0
     26401 W2       8801     TIP3     OH2      OT      -0.834000       15.9994           0
     26402 W2       8801     TIP3     H1       HT       0.417000       1.00800           0
     26403 W2       8801     TIP3     H2       HT       0.417000       1.00800           0
     26404 W2       8802     TIP3     OH2      OT      -0.834000       15.9994           0
     26405 W2       8802     TIP3     H1       HT       0.417000       1.00800           0
     26406 W2       8802     TIP3     H2       HT       0.417000       1.00800           0
     26407 W2       8803     TIP3     OH2      OT      -0.834000       15.9994           0
     26408 W2       8803     TIP3     H1       HT       0.417000       1.00800           0
     26409 W2       8803     TIP3     H2       HT       0.417000       1.00800           0
     26410 W2       8804     TIP3     OH2      OT      -0.834000       15.9994           0
     26411 W2       8804     TIP3     H1       HT       0.417000       1.00800           0
     26412 W2       8804     TIP3     H2       HT       0.417000       1.00800           0
     26413 W2       8805     TIP3     OH2      OT      -0.834000       15.9994           0
     26414 W2       8805     TIP3     H1       HT       0.417000       1.00800           0
     26415 W2       8805     TIP3     H2       HT       0.417000       1.00800           0
     26416 W2       8806     TIP3     OH2      OT      -0.834000       15.9994           0
     26417 W2       8806     TIP3     H1       HT       0.417000       1.00800           0
     26418 W2       8806     TIP3     H2       HT       0.417000       1.00800           0
     26419 W2       8807     TIP3     OH2      OT      -0.834000       15.9994           0
     26420 W2       8807     TIP3     H1       HT       0.417000       1.00800           0
     26421 W2       8807     TIP3     H2       HT       0.417000       1.00800           0
     26422 W2       8808     TIP3     OH2      OT      -0.834000       15.9994           0
     26423 W2       8808     TIP3     H1       HT       0.417000       1.00800           0
     26424 W2       8808     TIP3     H2       HT       0.417000       1.00800           0
     26425 W2       8809     TIP3     OH2      OT      -0.834000       15.9994           0
     26426 W2       8809     TIP3     H1       HT       0.417000       1.00800           0
     26427 W2       8809     TIP3     H2       HT       0.417000       1.00800           0
     26428 W2       8810     TIP3     OH2      OT      -0.834000       15.9994           0
     26429 W2       8810     TIP3     H1       HT       0.417000       1.00800           0
     26430 W2       8810     TIP3     H2       HT       0.417000       1.00800           0
     26431 W2       8811     TIP3     OH2      OT      -0.834000       15.9994           0
     26432 W2       8811     TIP3     H1       HT       0.417000       1.00800           0
     26433 W2       8811     TIP3     H2       HT       0.417000       1.00800           0
     26434 W2       8812     TIP3     OH2      OT      -0.834000       15.9994           0
     26435 W2       8812     TIP3     H1       HT       0.417000       1.00800           0
     26436 W2       8812     TIP3     H2       HT       0.417000       1.00800           0
     26437 W2       8813     TIP3     OH2      OT      -0.834000       15.9994           0
     26438 W2       8813     TIP3     H1       HT       0.417000       1.00800           0
     26439 W2       8813     TIP3     H2       HT       0.417000       1.00800           0
     26440 W2       8814     TIP3     OH2      OT      -0.834000       15.9994           0
     26441 W2       8814     TIP3     H1       HT       0.417000       1.00800           0
     26442 W2       8814     TIP3     H2       HT       0.417000       1.00800           0
     26443 W2       8815     TIP3     OH2      OT      -0.834000       15.9994           0
     26444 W2       8815     TIP3     H1       HT       0.417000       1.00800           0
     26445 W2       8815     TIP3     H2       HT       0.417000       1.00800           0
     26446 W2       8816     TIP3     OH2      OT      -0.834000       15.9994           0
     26447 W2       8816     TIP3     H1       HT       0.417000       1.00800           0
     26448 W2       8816     TIP3     H2       HT       0.417000       1.00800           0
     26449 W2       8817     TIP3     OH2      OT      -0.834000       15.9994           0
     26450 W2       8817     TIP3     H1       HT       0.417000       1.00800           0
     26451 W2       8817     TIP3     H2       HT       0.417000       1.00800           0
     26452 W2       8818     TIP3     OH2      OT      -0.834000       15.9994           0
     26453 W2       8818     TIP3     H1       HT       0.417000       1.00800           0
     26454 W2       8818     TIP3     H2       HT       0.417000       1.00800           0
     26455 W2       8819     TIP3     OH2      OT      -0.834000       15.9994           0
     26456 W2       8819     TIP3     H1       HT       0.417000       1.00800           0
     26457 W2       8819     TIP3     H2       HT       0.417000       1.00800           0
     26458 W2       8820     TIP3     OH2      OT      -0.834000       15.9994           0
     26459 W2       8820     TIP3     H1       HT       0.417000       1.00800           0
     26460 W2       8820     TIP3     H2       HT       0.417000       1.00800           0
     26461 W2       8821     TIP3     OH2      OT      -0.834000       15.9994           0
     26462 W2       8821     TIP3     H1       HT       0.417000       1.00800           0
     26463 W2       8821     TIP3     H2       HT       0.417000       1.00800           0
     26464 W2       8822     TIP3     OH2      OT      -0.834000       15.9994           0
     26465 W2       8822     TIP3     H1       HT       0.417000       1.00800           0
     26466 W2       8822     TIP3     H2       HT       0.417000       1.00800           0
     26467 W2       8823     TIP3     OH2      OT      -0.834000       15.9994           0
     26468 W2       8823     TIP3     H1       HT       0.417000       1.00800           0
     26469 W2       8823     TIP3     H2       HT       0.417000       1.00800           0
     26470 W2       8824     TIP3     OH2      OT      -0.834000       15.9994           0
     26471 W2       8824     TIP3     H1       HT       0.417000       1.00800           0
     26472 W2       8824     TIP3     H2       HT       0.417000       1.00800           0
     26473 W2       8825     TIP3     OH2      OT      -0.834000       15.9994           0
     26474 W2       8825     TIP3     H1       HT       0.417000       1.00800           0
     26475 W2       8825     TIP3     H2       HT       0.417000       1.00800           0
     26476 W2       8826     TIP3     OH2      OT      -0.834000       15.9994           0
     26477 W2       8826     TIP3     H1       HT       0.417000       1.00800           0
     26478 W2       8826     TIP3     H2       HT       0.417000       1.00800           0
     26479 W2       8827     TIP3     OH2      OT      -0.834000       15.9994           0
     26480 W2       8827     TIP3     H1       HT       0.417000       1.00800           0
     26481 W2       8827     TIP3     H2       HT       0.417000       1.00800           0
     26482 W2       8828     TIP3     OH2      OT      -0.834000       15.9994           0
     26483 W2       8828     TIP3     H1       HT       0.417000       1.00800           0
     26484 W2       8828     TIP3     H2       HT       0.417000       1.00800           0
     26485 W2       8829     TIP3     OH2      OT      -0.834000       15.9994           0
     26486 W2       8829     TIP3     H1       HT       0.417000       1.00800           0
     26487 W2       8829     TIP3     H2       HT       0.417000       1.00800           0
     26488 W2       8830     TIP3     OH2      OT      -0.834000       15.9994           0
     26489 W2       8830     TIP3     H1       HT       0.417000       1.00800           0
     26490 W2       8830     TIP3     H2       HT       0.417000       1.00800           0
     26491 W2       8831     TIP3     OH2      OT      -0.834000       15.9994           0
     26492 W2       8831     TIP3     H1       HT       0.417000       1.00800           0
     26493 W2       8831     TIP3     H2       HT       0.417000       1.00800           0
     26494 W2       8832     TIP3     OH2      OT      -0.834000       15.9994           0
     26495 W2       8832     TIP3     H1       HT       0.417000       1.00800           0
     26496 W2       8832     TIP3     H2       HT       0.417000       1.00800           0
     26497 W2       8833     TIP3     OH2      OT      -0.834000       15.9994           0
     26498 W2       8833     TIP3     H1       HT       0.417000       1.00800           0
     26499 W2       8833     TIP3     H2       HT       0.417000       1.00800           0
     26500 W2       8834     TIP3     OH2      OT      -0.834000       15.9994           0
     26501 W2       8834     TIP3     H1       HT       0.417000       1.00800           0
     26502 W2       8834     TIP3     H2       HT       0.417000       1.00800           0
     26503 W2       8835     TIP3     OH2      OT      -0.834000       15.9994           0
     26504 W2       8835     TIP3     H1       HT       0.417000       1.00800           0
     26505 W2       8835     TIP3     H2       HT       0.417000       1.00800           0
     26506 W2       8836     TIP3     OH2      OT      -0.834000       15.9994           0
     26507 W2       8836     TIP3     H1       HT       0.417000       1.00800           0
     26508 W2       8836     TIP3     H2       HT       0.417000       1.00800           0
     26509 W2       8837     TIP3     OH2      OT      -0.834000       15.9994           0
     26510 W2       8837     TIP3     H1       HT       0.417000       1.00800           0
     26511 W2       8837     TIP3     H2       HT       0.417000       1.00800           0
     26512 W2       8838     TIP3     OH2      OT      -0.834000       15.9994           0
     26513 W2       8838     TIP3     H1       HT       0.417000       1.00800           0
     26514 W2       8838     TIP3     H2       HT       0.417000       1.00800           0
     26515 W2       8839     TIP3     OH2      OT      -0.834000       15.9994           0
     26516 W2       8839     TIP3     H1       HT       0.417000       1.00800           0
     26517 W2       8839     TIP3     H2       HT       0.417000       1.00800           0
     26518 W2       8840     TIP3     OH2      OT      -0.834000       15.9994           0
     26519 W2       8840     TIP3     H1       HT       0.417000       1.00800           0
     26520 W2       8840     TIP3     H2       HT       0.417000       1.00800           0
     26521 W2       8841     TIP3     OH2      OT      -0.834000       15.9994           0
     26522 W2       8841     TIP3     H1       HT       0.417000       1.00800           0
     26523 W2       8841     TIP3     H2       HT       0.417000       1.00800           0
     26524 W2       8842     TIP3     OH2      OT      -0.834000       15.9994           0
     26525 W2       8842     TIP3     H1       HT       0.417000       1.00800           0
     26526 W2       8842     TIP3     H2       HT       0.417000       1.00800           0
     26527 W2       8843     TIP3     OH2      OT      -0.834000       15.9994           0
     26528 W2       8843     TIP3     H1       HT       0.417000       1.00800           0
     26529 W2       8843     TIP3     H2       HT       0.417000       1.00800           0
     26530 W2       8844     TIP3     OH2      OT      -0.834000       15.9994           0
     26531 W2       8844     TIP3     H1       HT       0.417000       1.00800           0
     26532 W2       8844     TIP3     H2       HT       0.417000       1.00800           0
     26533 W2       8845     TIP3     OH2      OT      -0.834000       15.9994           0
     26534 W2       8845     TIP3     H1       HT       0.417000       1.00800           0
     26535 W2       8845     TIP3     H2       HT       0.417000       1.00800           0
     26536 W2       8846     TIP3     OH2      OT      -0.834000       15.9994           0
     26537 W2       8846     TIP3     H1       HT       0.417000       1.00800           0
     26538 W2       8846     TIP3     H2       HT       0.417000       1.00800           0
     26539 W2       8847     TIP3     OH2      OT      -0.834000       15.9994           0
     26540 W2       8847     TIP3     H1       HT       0.417000       1.00800           0
     26541 W2       8847     TIP3     H2       HT       0.417000       1.00800           0
     26542 W2       8848     TIP3     OH2      OT      -0.834000       15.9994           0
     26543 W2       8848     TIP3     H1       HT       0.417000       1.00800           0
     26544 W2       8848     TIP3     H2       HT       0.417000       1.00800           0
     26545 W2       8849     TIP3     OH2      OT      -0.834000       15.9994           0
     26546 W2       8849     TIP3     H1       HT       0.417000       1.00800           0
     26547 W2       8849     TIP3     H2       HT       0.417000       1.00800           0
     26548 W2       8850     TIP3     OH2      OT      -0.834000       15.9994           0
     26549 W2       8850     TIP3     H1       HT       0.417000       1.00800           0
     26550 W2       8850     TIP3     H2       HT       0.417000       1.00800           0
     26551 W2       8851     TIP3     OH2      OT      -0.834000       15.9994           0
     26552 W2       8851     TIP3     H1       HT       0.417000       1.00800           0
     26553 W2       8851     TIP3     H2       HT       0.417000       1.00800           0
     26554 W2       8852     TIP3     OH2      OT      -0.834000       15.9994           0
     26555 W2       8852     TIP3     H1       HT       0.417000       1.00800           0
     26556 W2       8852     TIP3     H2       HT       0.417000       1.00800           0
     26557 W2       8853     TIP3     OH2      OT      -0.834000       15.9994           0
     26558 W2       8853     TIP3     H1       HT       0.417000       1.00800           0
     26559 W2       8853     TIP3     H2       HT       0.417000       1.00800           0
     26560 W2       8854     TIP3     OH2      OT      -0.834000       15.9994           0
     26561 W2       8854     TIP3     H1       HT       0.417000       1.00800           0
     26562 W2       8854     TIP3     H2       HT       0.417000       1.00800           0
     26563 W2       8855     TIP3     OH2      OT      -0.834000       15.9994           0
     26564 W2       8855     TIP3     H1       HT       0.417000       1.00800           0
     26565 W2       8855     TIP3     H2       HT       0.417000       1.00800           0
     26566 W2       8856     TIP3     OH2      OT      -0.834000       15.9994           0
     26567 W2       8856     TIP3     H1       HT       0.417000       1.00800           0
     26568 W2       8856     TIP3     H2       HT       0.417000       1.00800           0
     26569 W2       8857     TIP3     OH2      OT      -0.834000       15.9994           0
     26570 W2       8857     TIP3     H1       HT       0.417000       1.00800           0
     26571 W2       8857     TIP3     H2       HT       0.417000       1.00800           0
     26572 W2       8858     TIP3     OH2      OT      -0.834000       15.9994           0
     26573 W2       8858     TIP3     H1       HT       0.417000       1.00800           0
     26574 W2       8858     TIP3     H2       HT       0.417000       1.00800           0
     26575 W2       8859     TIP3     OH2      OT      -0.834000       15.9994           0
     26576 W2       8859     TIP3     H1       HT       0.417000       1.00800           0
     26577 W2       8859     TIP3     H2       HT       0.417000       1.00800           0
     26578 W2       8860     TIP3     OH2      OT      -0.834000       15.9994           0
     26579 W2       8860     TIP3     H1       HT       0.417000       1.00800           0
     26580 W2       8860     TIP3     H2       HT       0.417000       1.00800           0
     26581 W2       8861     TIP3     OH2      OT      -0.834000       15.9994           0
     26582 W2       8861     TIP3     H1       HT       0.417000       1.00800           0
     26583 W2       8861     TIP3     H2       HT       0.417000       1.00800           0
     26584 W2       8862     TIP3     OH2      OT      -0.834000       15.9994           0
     26585 W2       8862     TIP3     H1       HT       0.417000       1.00800           0
     26586 W2       8862     TIP3     H2       HT       0.417000       1.00800           0
     26587 W2       8863     TIP3     OH2      OT      -0.834000       15.9994           0
     26588 W2       8863     TIP3     H1       HT       0.417000       1.00800           0
     26589 W2       8863     TIP3     H2       HT       0.417000       1.00800           0
     26590 W2       8864     TIP3     OH2      OT      -0.834000       15.9994           0
     26591 W2       8864     TIP3     H1       HT       0.417000       1.00800           0
     26592 W2       8864     TIP3     H2       HT       0.417000       1.00800           0
     26593 W2       8865     TIP3     OH2      OT      -0.834000       15.9994           0
     26594 W2       8865     TIP3     H1       HT       0.417000       1.00800           0
     26595 W2       8865     TIP3     H2       HT       0.417000       1.00800           0
     26596 W2       8866     TIP3     OH2      OT      -0.834000       15.9994           0
     26597 W2       8866     TIP3     H1       HT       0.417000       1.00800           0
     26598 W2       8866     TIP3     H2       HT       0.417000       1.00800           0
     26599 W2       8867     TIP3     OH2      OT      -0.834000       15.9994           0
     26600 W2       8867     TIP3     H1       HT       0.417000       1.00800           0
     26601 W2       8867     TIP3     H2       HT       0.417000       1.00800           0
     26602 W2       8868     TIP3     OH2      OT      -0.834000       15.9994           0
     26603 W2       8868     TIP3     H1       HT       0.417000       1.00800           0
     26604 W2       8868     TIP3     H2       HT       0.417000       1.00800           0
     26605 W2       8869     TIP3     OH2      OT      -0.834000       15.9994           0
     26606 W2       8869     TIP3     H1       HT       0.417000       1.00800           0
     26607 W2       8869     TIP3     H2       HT       0.417000       1.00800           0
     26608 W2       8870     TIP3     OH2      OT      -0.834000       15.9994           0
     26609 W2       8870     TIP3     H1       HT       0.417000       1.00800           0
     26610 W2       8870     TIP3     H2       HT       0.417000       1.00800           0
     26611 W2       8871     TIP3     OH2      OT      -0.834000       15.9994           0
     26612 W2       8871     TIP3     H1       HT       0.417000       1.00800           0
     26613 W2       8871     TIP3     H2       HT       0.417000       1.00800           0
     26614 W2       8872     TIP3     OH2      OT      -0.834000       15.9994           0
     26615 W2       8872     TIP3     H1       HT       0.417000       1.00800           0
     26616 W2       8872     TIP3     H2       HT       0.417000       1.00800           0
     26617 W2       8873     TIP3     OH2      OT      -0.834000       15.9994           0
     26618 W2       8873     TIP3     H1       HT       0.417000       1.00800           0
     26619 W2       8873     TIP3     H2       HT       0.417000       1.00800           0
     26620 W2       8874     TIP3     OH2      OT      -0.834000       15.9994           0
     26621 W2       8874     TIP3     H1       HT       0.417000       1.00800           0
     26622 W2       8874     TIP3     H2       HT       0.417000       1.00800           0
     26623 W2       8875     TIP3     OH2      OT      -0.834000       15.9994           0
     26624 W2       8875     TIP3     H1       HT       0.417000       1.00800           0
     26625 W2       8875     TIP3     H2       HT       0.417000       1.00800           0
     26626 W2       8876     TIP3     OH2      OT      -0.834000       15.9994           0
     26627 W2       8876     TIP3     H1       HT       0.417000       1.00800           0
     26628 W2       8876     TIP3     H2       HT       0.417000       1.00800           0
     26629 W2       8877     TIP3     OH2      OT      -0.834000       15.9994           0
     26630 W2       8877     TIP3     H1       HT       0.417000       1.00800           0
     26631 W2       8877     TIP3     H2       HT       0.417000       1.00800           0
     26632 W2       8878     TIP3     OH2      OT      -0.834000       15.9994           0
     26633 W2       8878     TIP3     H1       HT       0.417000       1.00800           0
     26634 W2       8878     TIP3     H2       HT       0.417000       1.00800           0
     26635 W2       8879     TIP3     OH2      OT      -0.834000       15.9994           0
     26636 W2       8879     TIP3     H1       HT       0.417000       1.00800           0
     26637 W2       8879     TIP3     H2       HT       0.417000       1.00800           0
     26638 W2       8880     TIP3     OH2      OT      -0.834000       15.9994           0
     26639 W2       8880     TIP3     H1       HT       0.417000       1.00800           0
     26640 W2       8880     TIP3     H2       HT       0.417000       1.00800           0
     26641 W2       8881     TIP3     OH2      OT      -0.834000       15.9994           0
     26642 W2       8881     TIP3     H1       HT       0.417000       1.00800           0
     26643 W2       8881     TIP3     H2       HT       0.417000       1.00800           0
     26644 W2       8882     TIP3     OH2      OT      -0.834000       15.9994           0
     26645 W2       8882     TIP3     H1       HT       0.417000       1.00800           0
     26646 W2       8882     TIP3     H2       HT       0.417000       1.00800           0
     26647 W2       8883     TIP3     OH2      OT      -0.834000       15.9994           0
     26648 W2       8883     TIP3     H1       HT       0.417000       1.00800           0
     26649 W2       8883     TIP3     H2       HT       0.417000       1.00800           0
     26650 W2       8884     TIP3     OH2      OT      -0.834000       15.9994           0
     26651 W2       8884     TIP3     H1       HT       0.417000       1.00800           0
     26652 W2       8884     TIP3     H2       HT       0.417000       1.00800           0
     26653 W2       8885     TIP3     OH2      OT      -0.834000       15.9994           0
     26654 W2       8885     TIP3     H1       HT       0.417000       1.00800           0
     26655 W2       8885     TIP3     H2       HT       0.417000       1.00800           0
     26656 W2       8886     TIP3     OH2      OT      -0.834000       15.9994           0
     26657 W2       8886     TIP3     H1       HT       0.417000       1.00800           0
     26658 W2       8886     TIP3     H2       HT       0.417000       1.00800           0
     26659 W2       8887     TIP3     OH2      OT      -0.834000       15.9994           0
     26660 W2       8887     TIP3     H1       HT       0.417000       1.00800           0
     26661 W2       8887     TIP3     H2       HT       0.417000       1.00800           0
     26662 W2       8888     TIP3     OH2      OT      -0.834000       15.9994           0
     26663 W2       8888     TIP3     H1       HT       0.417000       1.00800           0
     26664 W2       8888     TIP3     H2       HT       0.417000       1.00800           0
     26665 W2       8889     TIP3     OH2      OT      -0.834000       15.9994           0
     26666 W2       8889     TIP3     H1       HT       0.417000       1.00800           0
     26667 W2       8889     TIP3     H2       HT       0.417000       1.00800           0
     26668 W2       8890     TIP3     OH2      OT      -0.834000       15.9994           0
     26669 W2       8890     TIP3     H1       HT       0.417000       1.00800           0
     26670 W2       8890     TIP3     H2       HT       0.417000       1.00800           0
     26671 W2       8891     TIP3     OH2      OT      -0.834000       15.9994           0
     26672 W2       8891     TIP3     H1       HT       0.417000       1.00800           0
     26673 W2       8891     TIP3     H2       HT       0.417000       1.00800           0
     26674 W2       8892     TIP3     OH2      OT      -0.834000       15.9994           0
     26675 W2       8892     TIP3     H1       HT       0.417000       1.00800           0
     26676 W2       8892     TIP3     H2       HT       0.417000       1.00800           0
     26677 W2       8893     TIP3     OH2      OT      -0.834000       15.9994           0
     26678 W2       8893     TIP3     H1       HT       0.417000       1.00800           0
     26679 W2       8893     TIP3     H2       HT       0.417000       1.00800           0
     26680 W2       8894     TIP3     OH2      OT      -0.834000       15.9994           0
     26681 W2       8894     TIP3     H1       HT       0.417000       1.00800           0
     26682 W2       8894     TIP3     H2       HT       0.417000       1.00800           0
     26683 W2       8895     TIP3     OH2      OT      -0.834000       15.9994           0
     26684 W2       8895     TIP3     H1       HT       0.417000       1.00800           0
     26685 W2       8895     TIP3     H2       HT       0.417000       1.00800           0
     26686 W2       8896     TIP3     OH2      OT      -0.834000       15.9994           0
     26687 W2       8896     TIP3     H1       HT       0.417000       1.00800           0
     26688 W2       8896     TIP3     H2       HT       0.417000       1.00800           0
     26689 W2       8897     TIP3     OH2      OT      -0.834000       15.9994           0
     26690 W2       8897     TIP3     H1       HT       0.417000       1.00800           0
     26691 W2       8897     TIP3     H2       HT       0.417000       1.00800           0
     26692 W2       8898     TIP3     OH2      OT      -0.834000       15.9994           0
     26693 W2       8898     TIP3     H1       HT       0.417000       1.00800           0
     26694 W2       8898     TIP3     H2       HT       0.417000       1.00800           0
     26695 W2       8899     TIP3     OH2      OT      -0.834000       15.9994           0
     26696 W2       8899     TIP3     H1       HT       0.417000       1.00800           0
     26697 W2       8899     TIP3     H2       HT       0.417000       1.00800           0
     26698 W2       8900     TIP3     OH2      OT      -0.834000       15.9994           0
     26699 W2       8900     TIP3     H1       HT       0.417000       1.00800           0
     26700 W2       8900     TIP3     H2       HT       0.417000       1.00800           0
     26701 W2       8901     TIP3     OH2      OT      -0.834000       15.9994           0
     26702 W2       8901     TIP3     H1       HT       0.417000       1.00800           0
     26703 W2       8901     TIP3     H2       HT       0.417000       1.00800           0
     26704 W2       8902     TIP3     OH2      OT      -0.834000       15.9994           0
     26705 W2       8902     TIP3     H1       HT       0.417000       1.00800           0
     26706 W2       8902     TIP3     H2       HT       0.417000       1.00800           0
     26707 W2       8903     TIP3     OH2      OT      -0.834000       15.9994           0
     26708 W2       8903     TIP3     H1       HT       0.417000       1.00800           0
     26709 W2       8903     TIP3     H2       HT       0.417000       1.00800           0
     26710 W2       8904     TIP3     OH2      OT      -0.834000       15.9994           0
     26711 W2       8904     TIP3     H1       HT       0.417000       1.00800           0
     26712 W2       8904     TIP3     H2       HT       0.417000       1.00800           0
     26713 W2       8905     TIP3     OH2      OT      -0.834000       15.9994           0
     26714 W2       8905     TIP3     H1       HT       0.417000       1.00800           0
     26715 W2       8905     TIP3     H2       HT       0.417000       1.00800           0
     26716 W2       8906     TIP3     OH2      OT      -0.834000       15.9994           0
     26717 W2       8906     TIP3     H1       HT       0.417000       1.00800           0
     26718 W2       8906     TIP3     H2       HT       0.417000       1.00800           0
     26719 W2       8907     TIP3     OH2      OT      -0.834000       15.9994           0
     26720 W2       8907     TIP3     H1       HT       0.417000       1.00800           0
     26721 W2       8907     TIP3     H2       HT       0.417000       1.00800           0
     26722 W2       8908     TIP3     OH2      OT      -0.834000       15.9994           0
     26723 W2       8908     TIP3     H1       HT       0.417000       1.00800           0
     26724 W2       8908     TIP3     H2       HT       0.417000       1.00800           0
     26725 W2       8909     TIP3     OH2      OT      -0.834000       15.9994           0
     26726 W2       8909     TIP3     H1       HT       0.417000       1.00800           0
     26727 W2       8909     TIP3     H2       HT       0.417000       1.00800           0
     26728 W2       8910     TIP3     OH2      OT      -0.834000       15.9994           0
     26729 W2       8910     TIP3     H1       HT       0.417000       1.00800           0
     26730 W2       8910     TIP3     H2       HT       0.417000       1.00800           0
     26731 W2       8911     TIP3     OH2      OT      -0.834000       15.9994           0
     26732 W2       8911     TIP3     H1       HT       0.417000       1.00800           0
     26733 W2       8911     TIP3     H2       HT       0.417000       1.00800           0
     26734 W2       8912     TIP3     OH2      OT      -0.834000       15.9994           0
     26735 W2       8912     TIP3     H1       HT       0.417000       1.00800           0
     26736 W2       8912     TIP3     H2       HT       0.417000       1.00800           0
     26737 W2       8913     TIP3     OH2      OT      -0.834000       15.9994           0
     26738 W2       8913     TIP3     H1       HT       0.417000       1.00800           0
     26739 W2       8913     TIP3     H2       HT       0.417000       1.00800           0
     26740 W2       8914     TIP3     OH2      OT      -0.834000       15.9994           0
     26741 W2       8914     TIP3     H1       HT       0.417000       1.00800           0
     26742 W2       8914     TIP3     H2       HT       0.417000       1.00800           0
     26743 W2       8915     TIP3     OH2      OT      -0.834000       15.9994           0
     26744 W2       8915     TIP3     H1       HT       0.417000       1.00800           0
     26745 W2       8915     TIP3     H2       HT       0.417000       1.00800           0
     26746 W2       8916     TIP3     OH2      OT      -0.834000       15.9994           0
     26747 W2       8916     TIP3     H1       HT       0.417000       1.00800           0
     26748 W2       8916     TIP3     H2       HT       0.417000       1.00800           0
     26749 W2       8917     TIP3     OH2      OT      -0.834000       15.9994           0
     26750 W2       8917     TIP3     H1       HT       0.417000       1.00800           0
     26751 W2       8917     TIP3     H2       HT       0.417000       1.00800           0
     26752 W2       8918     TIP3     OH2      OT      -0.834000       15.9994           0
     26753 W2       8918     TIP3     H1       HT       0.417000       1.00800           0
     26754 W2       8918     TIP3     H2       HT       0.417000       1.00800           0
     26755 W2       8919     TIP3     OH2      OT      -0.834000       15.9994           0
     26756 W2       8919     TIP3     H1       HT       0.417000       1.00800           0
     26757 W2       8919     TIP3     H2       HT       0.417000       1.00800           0
     26758 W2       8920     TIP3     OH2      OT      -0.834000       15.9994           0
     26759 W2       8920     TIP3     H1       HT       0.417000       1.00800           0
     26760 W2       8920     TIP3     H2       HT       0.417000       1.00800           0
     26761 W2       8921     TIP3     OH2      OT      -0.834000       15.9994           0
     26762 W2       8921     TIP3     H1       HT       0.417000       1.00800           0
     26763 W2       8921     TIP3     H2       HT       0.417000       1.00800           0
     26764 W2       8922     TIP3     OH2      OT      -0.834000       15.9994           0
     26765 W2       8922     TIP3     H1       HT       0.417000       1.00800           0
     26766 W2       8922     TIP3     H2       HT       0.417000       1.00800           0
     26767 W2       8923     TIP3     OH2      OT      -0.834000       15.9994           0
     26768 W2       8923     TIP3     H1       HT       0.417000       1.00800           0
     26769 W2       8923     TIP3     H2       HT       0.417000       1.00800           0
     26770 W2       8924     TIP3     OH2      OT      -0.834000       15.9994           0
     26771 W2       8924     TIP3     H1       HT       0.417000       1.00800           0
     26772 W2       8924     TIP3     H2       HT       0.417000       1.00800           0
     26773 W2       8925     TIP3     OH2      OT      -0.834000       15.9994           0
     26774 W2       8925     TIP3     H1       HT       0.417000       1.00800           0
     26775 W2       8925     TIP3     H2       HT       0.417000       1.00800           0
     26776 W2       8926     TIP3     OH2      OT      -0.834000       15.9994           0
     26777 W2       8926     TIP3     H1       HT       0.417000       1.00800           0
     26778 W2       8926     TIP3     H2       HT       0.417000       1.00800           0
     26779 W2       8927     TIP3     OH2      OT      -0.834000       15.9994           0
     26780 W2       8927     TIP3     H1       HT       0.417000       1.00800           0
     26781 W2       8927     TIP3     H2       HT       0.417000       1.00800           0
     26782 W2       8928     TIP3     OH2      OT      -0.834000       15.9994           0
     26783 W2       8928     TIP3     H1       HT       0.417000       1.00800           0
     26784 W2       8928     TIP3     H2       HT       0.417000       1.00800           0
     26785 W2       8929     TIP3     OH2      OT      -0.834000       15.9994           0
     26786 W2       8929     TIP3     H1       HT       0.417000       1.00800           0
     26787 W2       8929     TIP3     H2       HT       0.417000       1.00800           0
     26788 W2       8930     TIP3     OH2      OT      -0.834000       15.9994           0
     26789 W2       8930     TIP3     H1       HT       0.417000       1.00800           0
     26790 W2       8930     TIP3     H2       HT       0.417000       1.00800           0
     26791 W2       8931     TIP3     OH2      OT      -0.834000       15.9994           0
     26792 W2       8931     TIP3     H1       HT       0.417000       1.00800           0
     26793 W2       8931     TIP3     H2       HT       0.417000       1.00800           0
     26794 W2       8932     TIP3     OH2      OT      -0.834000       15.9994           0
     26795 W2       8932     TIP3     H1       HT       0.417000       1.00800           0
     26796 W2       8932     TIP3     H2       HT       0.417000       1.00800           0
     26797 W2       8933     TIP3     OH2      OT      -0.834000       15.9994           0
     26798 W2       8933     TIP3     H1       HT       0.417000       1.00800           0
     26799 W2       8933     TIP3     H2       HT       0.417000       1.00800           0
     26800 W2       8934     TIP3     OH2      OT      -0.834000       15.9994           0
     26801 W2       8934     TIP3     H1       HT       0.417000       1.00800           0
     26802 W2       8934     TIP3     H2       HT       0.417000       1.00800           0
     26803 W2       8935     TIP3     OH2      OT      -0.834000       15.9994           0
     26804 W2       8935     TIP3     H1       HT       0.417000       1.00800           0
     26805 W2       8935     TIP3     H2       HT       0.417000       1.00800           0
     26806 W2       8936     TIP3     OH2      OT      -0.834000       15.9994           0
     26807 W2       8936     TIP3     H1       HT       0.417000       1.00800           0
     26808 W2       8936     TIP3     H2       HT       0.417000       1.00800           0
     26809 W2       8937     TIP3     OH2      OT      -0.834000       15.9994           0
     26810 W2       8937     TIP3     H1       HT       0.417000       1.00800           0
     26811 W2       8937     TIP3     H2       HT       0.417000       1.00800           0
     26812 W2       8938     TIP3     OH2      OT      -0.834000       15.9994           0
     26813 W2       8938     TIP3     H1       HT       0.417000       1.00800           0
     26814 W2       8938     TIP3     H2       HT       0.417000       1.00800           0
     26815 W2       8939     TIP3     OH2      OT      -0.834000       15.9994           0
     26816 W2       8939     TIP3     H1       HT       0.417000       1.00800           0
     26817 W2       8939     TIP3     H2       HT       0.417000       1.00800           0
     26818 W2       8940     TIP3     OH2      OT      -0.834000       15.9994           0
     26819 W2       8940     TIP3     H1       HT       0.417000       1.00800           0
     26820 W2       8940     TIP3     H2       HT       0.417000       1.00800           0
     26821 W2       8941     TIP3     OH2      OT      -0.834000       15.9994           0
     26822 W2       8941     TIP3     H1       HT       0.417000       1.00800           0
     26823 W2       8941     TIP3     H2       HT       0.417000       1.00800           0
     26824 W2       8942     TIP3     OH2      OT      -0.834000       15.9994           0
     26825 W2       8942     TIP3     H1       HT       0.417000       1.00800           0
     26826 W2       8942     TIP3     H2       HT       0.417000       1.00800           0
     26827 W2       8943     TIP3     OH2      OT      -0.834000       15.9994           0
     26828 W2       8943     TIP3     H1       HT       0.417000       1.00800           0
     26829 W2       8943     TIP3     H2       HT       0.417000       1.00800           0
     26830 W2       8944     TIP3     OH2      OT      -0.834000       15.9994           0
     26831 W2       8944     TIP3     H1       HT       0.417000       1.00800           0
     26832 W2       8944     TIP3     H2       HT       0.417000       1.00800           0
     26833 W2       8945     TIP3     OH2      OT      -0.834000       15.9994           0
     26834 W2       8945     TIP3     H1       HT       0.417000       1.00800           0
     26835 W2       8945     TIP3     H2       HT       0.417000       1.00800           0
     26836 W2       8946     TIP3     OH2      OT      -0.834000       15.9994           0
     26837 W2       8946     TIP3     H1       HT       0.417000       1.00800           0
     26838 W2       8946     TIP3     H2       HT       0.417000       1.00800           0
     26839 W2       8947     TIP3     OH2      OT      -0.834000       15.9994           0
     26840 W2       8947     TIP3     H1       HT       0.417000       1.00800           0
     26841 W2       8947     TIP3     H2       HT       0.417000       1.00800           0
     26842 W2       8948     TIP3     OH2      OT      -0.834000       15.9994           0
     26843 W2       8948     TIP3     H1       HT       0.417000       1.00800           0
     26844 W2       8948     TIP3     H2       HT       0.417000       1.00800           0
     26845 W2       8949     TIP3     OH2      OT      -0.834000       15.9994           0
     26846 W2       8949     TIP3     H1       HT       0.417000       1.00800           0
     26847 W2       8949     TIP3     H2       HT       0.417000       1.00800           0
     26848 W2       8950     TIP3     OH2      OT      -0.834000       15.9994           0
     26849 W2       8950     TIP3     H1       HT       0.417000       1.00800           0
     26850 W2       8950     TIP3     H2       HT       0.417000       1.00800           0
     26851 W2       8951     TIP3     OH2      OT      -0.834000       15.9994           0
     26852 W2       8951     TIP3     H1       HT       0.417000       1.00800           0
     26853 W2       8951     TIP3     H2       HT       0.417000       1.00800           0
     26854 W2       8952     TIP3     OH2      OT      -0.834000       15.9994           0
     26855 W2       8952     TIP3     H1       HT       0.417000       1.00800           0
     26856 W2       8952     TIP3     H2       HT       0.417000       1.00800           0
     26857 W2       8953     TIP3     OH2      OT      -0.834000       15.9994           0
     26858 W2       8953     TIP3     H1       HT       0.417000       1.00800           0
     26859 W2       8953     TIP3     H2       HT       0.417000       1.00800           0
     26860 W2       8954     TIP3     OH2      OT      -0.834000       15.9994           0
     26861 W2       8954     TIP3     H1       HT       0.417000       1.00800           0
     26862 W2       8954     TIP3     H2       HT       0.417000       1.00800           0
     26863 W2       8955     TIP3     OH2      OT      -0.834000       15.9994           0
     26864 W2       8955     TIP3     H1       HT       0.417000       1.00800           0
     26865 W2       8955     TIP3     H2       HT       0.417000       1.00800           0
     26866 W2       8956     TIP3     OH2      OT      -0.834000       15.9994           0
     26867 W2       8956     TIP3     H1       HT       0.417000       1.00800           0
     26868 W2       8956     TIP3     H2       HT       0.417000       1.00800           0
     26869 W2       8957     TIP3     OH2      OT      -0.834000       15.9994           0
     26870 W2       8957     TIP3     H1       HT       0.417000       1.00800           0
     26871 W2       8957     TIP3     H2       HT       0.417000       1.00800           0
     26872 W2       8958     TIP3     OH2      OT      -0.834000       15.9994           0
     26873 W2       8958     TIP3     H1       HT       0.417000       1.00800           0
     26874 W2       8958     TIP3     H2       HT       0.417000       1.00800           0
     26875 W2       8959     TIP3     OH2      OT      -0.834000       15.9994           0
     26876 W2       8959     TIP3     H1       HT       0.417000       1.00800           0
     26877 W2       8959     TIP3     H2       HT       0.417000       1.00800           0
     26878 W2       8960     TIP3     OH2      OT      -0.834000       15.9994           0
     26879 W2       8960     TIP3     H1       HT       0.417000       1.00800           0
     26880 W2       8960     TIP3     H2       HT       0.417000       1.00800           0
     26881 W2       8961     TIP3     OH2      OT      -0.834000       15.9994           0
     26882 W2       8961     TIP3     H1       HT       0.417000       1.00800           0
     26883 W2       8961     TIP3     H2       HT       0.417000       1.00800           0
     26884 W2       8962     TIP3     OH2      OT      -0.834000       15.9994           0
     26885 W2       8962     TIP3     H1       HT       0.417000       1.00800           0
     26886 W2       8962     TIP3     H2       HT       0.417000       1.00800           0
     26887 W2       8963     TIP3     OH2      OT      -0.834000       15.9994           0
     26888 W2       8963     TIP3     H1       HT       0.417000       1.00800           0
     26889 W2       8963     TIP3     H2       HT       0.417000       1.00800           0
     26890 W2       8964     TIP3     OH2      OT      -0.834000       15.9994           0
     26891 W2       8964     TIP3     H1       HT       0.417000       1.00800           0
     26892 W2       8964     TIP3     H2       HT       0.417000       1.00800           0
     26893 W2       8965     TIP3     OH2      OT      -0.834000       15.9994           0
     26894 W2       8965     TIP3     H1       HT       0.417000       1.00800           0
     26895 W2       8965     TIP3     H2       HT       0.417000       1.00800           0
     26896 W2       8966     TIP3     OH2      OT      -0.834000       15.9994           0
     26897 W2       8966     TIP3     H1       HT       0.417000       1.00800           0
     26898 W2       8966     TIP3     H2       HT       0.417000       1.00800           0
     26899 W2       8967     TIP3     OH2      OT      -0.834000       15.9994           0
     26900 W2       8967     TIP3     H1       HT       0.417000       1.00800           0
     26901 W2       8967     TIP3     H2       HT       0.417000       1.00800           0
     26902 W2       8968     TIP3     OH2      OT      -0.834000       15.9994           0
     26903 W2       8968     TIP3     H1       HT       0.417000       1.00800           0
     26904 W2       8968     TIP3     H2       HT       0.417000       1.00800           0
     26905 W2       8969     TIP3     OH2      OT      -0.834000       15.9994           0
     26906 W2       8969     TIP3     H1       HT       0.417000       1.00800           0
     26907 W2       8969     TIP3     H2       HT       0.417000       1.00800           0
     26908 W2       8970     TIP3     OH2      OT      -0.834000       15.9994           0
     26909 W2       8970     TIP3     H1       HT       0.417000       1.00800           0
     26910 W2       8970     TIP3     H2       HT       0.417000       1.00800           0
     26911 W2       8971     TIP3     OH2      OT      -0.834000       15.9994           0
     26912 W2       8971     TIP3     H1       HT       0.417000       1.00800           0
     26913 W2       8971     TIP3     H2       HT       0.417000       1.00800           0
     26914 W2       8972     TIP3     OH2      OT      -0.834000       15.9994           0
     26915 W2       8972     TIP3     H1       HT       0.417000       1.00800           0
     26916 W2       8972     TIP3     H2       HT       0.417000       1.00800           0
     26917 W2       8973     TIP3     OH2      OT      -0.834000       15.9994           0
     26918 W2       8973     TIP3     H1       HT       0.417000       1.00800           0
     26919 W2       8973     TIP3     H2       HT       0.417000       1.00800           0
     26920 W2       8974     TIP3     OH2      OT      -0.834000       15.9994           0
     26921 W2       8974     TIP3     H1       HT       0.417000       1.00800           0
     26922 W2       8974     TIP3     H2       HT       0.417000       1.00800           0
     26923 W2       8975     TIP3     OH2      OT      -0.834000       15.9994           0
     26924 W2       8975     TIP3     H1       HT       0.417000       1.00800           0
     26925 W2       8975     TIP3     H2       HT       0.417000       1.00800           0
     26926 W2       8976     TIP3     OH2      OT      -0.834000       15.9994           0
     26927 W2       8976     TIP3     H1       HT       0.417000       1.00800           0
     26928 W2       8976     TIP3     H2       HT       0.417000       1.00800           0
     26929 W2       8977     TIP3     OH2      OT      -0.834000       15.9994           0
     26930 W2       8977     TIP3     H1       HT       0.417000       1.00800           0
     26931 W2       8977     TIP3     H2       HT       0.417000       1.00800           0
     26932 W2       8978     TIP3     OH2      OT      -0.834000       15.9994           0
     26933 W2       8978     TIP3     H1       HT       0.417000       1.00800           0
     26934 W2       8978     TIP3     H2       HT       0.417000       1.00800           0
     26935 W2       8979     TIP3     OH2      OT      -0.834000       15.9994           0
     26936 W2       8979     TIP3     H1       HT       0.417000       1.00800           0
     26937 W2       8979     TIP3     H2       HT       0.417000       1.00800           0
     26938 W2       8980     TIP3     OH2      OT      -0.834000       15.9994           0
     26939 W2       8980     TIP3     H1       HT       0.417000       1.00800           0
     26940 W2       8980     TIP3     H2       HT       0.417000       1.00800           0
     26941 W2       8981     TIP3     OH2      OT      -0.834000       15.9994           0
     26942 W2       8981     TIP3     H1       HT       0.417000       1.00800           0
     26943 W2       8981     TIP3     H2       HT       0.417000       1.00800           0
     26944 W2       8982     TIP3     OH2      OT      -0.834000       15.9994           0
     26945 W2       8982     TIP3     H1       HT       0.417000       1.00800           0
     26946 W2       8982     TIP3     H2       HT       0.417000       1.00800           0
     26947 W2       8983     TIP3     OH2      OT      -0.834000       15.9994           0
     26948 W2       8983     TIP3     H1       HT       0.417000       1.00800           0
     26949 W2       8983     TIP3     H2       HT       0.417000       1.00800           0
     26950 W2       8984     TIP3     OH2      OT      -0.834000       15.9994           0
     26951 W2       8984     TIP3     H1       HT       0.417000       1.00800           0
     26952 W2       8984     TIP3     H2       HT       0.417000       1.00800           0
     26953 W2       8985     TIP3     OH2      OT      -0.834000       15.9994           0
     26954 W2       8985     TIP3     H1       HT       0.417000       1.00800           0
     26955 W2       8985     TIP3     H2       HT       0.417000       1.00800           0
     26956 W2       8986     TIP3     OH2      OT      -0.834000       15.9994           0
     26957 W2       8986     TIP3     H1       HT       0.417000       1.00800           0
     26958 W2       8986     TIP3     H2       HT       0.417000       1.00800           0
     26959 W2       8987     TIP3     OH2      OT      -0.834000       15.9994           0
     26960 W2       8987     TIP3     H1       HT       0.417000       1.00800           0
     26961 W2       8987     TIP3     H2       HT       0.417000       1.00800           0
     26962 W2       8988     TIP3     OH2      OT      -0.834000       15.9994           0
     26963 W2       8988     TIP3     H1       HT       0.417000       1.00800           0
     26964 W2       8988     TIP3     H2       HT       0.417000       1.00800           0
     26965 W2       8989     TIP3     OH2      OT      -0.834000       15.9994           0
     26966 W2       8989     TIP3     H1       HT       0.417000       1.00800           0
     26967 W2       8989     TIP3     H2       HT       0.417000       1.00800           0
     26968 W2       8990     TIP3     OH2      OT      -0.834000       15.9994           0
     26969 W2       8990     TIP3     H1       HT       0.417000       1.00800           0
     26970 W2       8990     TIP3     H2       HT       0.417000       1.00800           0
     26971 W2       8991     TIP3     OH2      OT      -0.834000       15.9994           0
     26972 W2       8991     TIP3     H1       HT       0.417000       1.00800           0
     26973 W2       8991     TIP3     H2       HT       0.417000       1.00800           0
     26974 W2       8992     TIP3     OH2      OT      -0.834000       15.9994           0
     26975 W2       8992     TIP3     H1       HT       0.417000       1.00800           0
     26976 W2       8992     TIP3     H2       HT       0.417000       1.00800           0
     26977 W2       8993     TIP3     OH2      OT      -0.834000       15.9994           0
     26978 W2       8993     TIP3     H1       HT       0.417000       1.00800           0
     26979 W2       8993     TIP3     H2       HT       0.417000       1.00800           0
     26980 W2       8994     TIP3     OH2      OT      -0.834000       15.9994           0
     26981 W2       8994     TIP3     H1       HT       0.417000       1.00800           0
     26982 W2       8994     TIP3     H2       HT       0.417000       1.00800           0
     26983 W2       8995     TIP3     OH2      OT      -0.834000       15.9994           0
     26984 W2       8995     TIP3     H1       HT       0.417000       1.00800           0
     26985 W2       8995     TIP3     H2       HT       0.417000       1.00800           0
     26986 W2       8996     TIP3     OH2      OT      -0.834000       15.9994           0
     26987 W2       8996     TIP3     H1       HT       0.417000       1.00800           0
     26988 W2       8996     TIP3     H2       HT       0.417000       1.00800           0
     26989 W2       8997     TIP3     OH2      OT      -0.834000       15.9994           0
     26990 W2       8997     TIP3     H1       HT       0.417000       1.00800           0
     26991 W2       8997     TIP3     H2       HT       0.417000       1.00800           0
     26992 W2       8998     TIP3     OH2      OT      -0.834000       15.9994           0
     26993 W2       8998     TIP3     H1       HT       0.417000       1.00800           0
     26994 W2       8998     TIP3     H2       HT       0.417000       1.00800           0
     26995 W2       8999     TIP3     OH2      OT      -0.834000       15.9994           0
     26996 W2       8999     TIP3     H1       HT       0.417000       1.00800           0
     26997 W2       8999     TIP3     H2       HT       0.417000       1.00800           0
     26998 W2       9000     TIP3     OH2      OT      -0.834000       15.9994           0
     26999 W2       9000     TIP3     H1       HT       0.417000       1.00800           0
     27000 W2       9000     TIP3     H2       HT       0.417000       1.00800           0
     27001 W2       9001     TIP3     OH2      OT      -0.834000       15.9994           0
     27002 W2       9001     TIP3     H1       HT       0.417000       1.00800           0
     27003 W2       9001     TIP3     H2       HT       0.417000       1.00800           0
     27004 W2       9002     TIP3     OH2      OT      -0.834000       15.9994           0
     27005 W2       9002     TIP3     H1       HT       0.417000       1.00800           0
     27006 W2       9002     TIP3     H2       HT       0.417000       1.00800           0
     27007 W2       9003     TIP3     OH2      OT      -0.834000       15.9994           0
     27008 W2       9003     TIP3     H1       HT       0.417000       1.00800           0
     27009 W2       9003     TIP3     H2       HT       0.417000       1.00800           0
     27010 W2       9004     TIP3     OH2      OT      -0.834000       15.9994           0
     27011 W2       9004     TIP3     H1       HT       0.417000       1.00800           0
     27012 W2       9004     TIP3     H2       HT       0.417000       1.00800           0
     27013 W2       9005     TIP3     OH2      OT      -0.834000       15.9994           0
     27014 W2       9005     TIP3     H1       HT       0.417000       1.00800           0
     27015 W2       9005     TIP3     H2       HT       0.417000       1.00800           0
     27016 W2       9006     TIP3     OH2      OT      -0.834000       15.9994           0
     27017 W2       9006     TIP3     H1       HT       0.417000       1.00800           0
     27018 W2       9006     TIP3     H2       HT       0.417000       1.00800           0
     27019 W2       9007     TIP3     OH2      OT      -0.834000       15.9994           0
     27020 W2       9007     TIP3     H1       HT       0.417000       1.00800           0
     27021 W2       9007     TIP3     H2       HT       0.417000       1.00800           0
     27022 W2       9008     TIP3     OH2      OT      -0.834000       15.9994           0
     27023 W2       9008     TIP3     H1       HT       0.417000       1.00800           0
     27024 W2       9008     TIP3     H2       HT       0.417000       1.00800           0
     27025 W2       9009     TIP3     OH2      OT      -0.834000       15.9994           0
     27026 W2       9009     TIP3     H1       HT       0.417000       1.00800           0
     27027 W2       9009     TIP3     H2       HT       0.417000       1.00800           0
     27028 W2       9010     TIP3     OH2      OT      -0.834000       15.9994           0
     27029 W2       9010     TIP3     H1       HT       0.417000       1.00800           0
     27030 W2       9010     TIP3     H2       HT       0.417000       1.00800           0
     27031 W2       9011     TIP3     OH2      OT      -0.834000       15.9994           0
     27032 W2       9011     TIP3     H1       HT       0.417000       1.00800           0
     27033 W2       9011     TIP3     H2       HT       0.417000       1.00800           0
     27034 W2       9012     TIP3     OH2      OT      -0.834000       15.9994           0
     27035 W2       9012     TIP3     H1       HT       0.417000       1.00800           0
     27036 W2       9012     TIP3     H2       HT       0.417000       1.00800           0
     27037 W2       9013     TIP3     OH2      OT      -0.834000       15.9994           0
     27038 W2       9013     TIP3     H1       HT       0.417000       1.00800           0
     27039 W2       9013     TIP3     H2       HT       0.417000       1.00800           0
     27040 W2       9014     TIP3     OH2      OT      -0.834000       15.9994           0
     27041 W2       9014     TIP3     H1       HT       0.417000       1.00800           0
     27042 W2       9014     TIP3     H2       HT       0.417000       1.00800           0
     27043 W2       9015     TIP3     OH2      OT      -0.834000       15.9994           0
     27044 W2       9015     TIP3     H1       HT       0.417000       1.00800           0
     27045 W2       9015     TIP3     H2       HT       0.417000       1.00800           0
     27046 W2       9016     TIP3     OH2      OT      -0.834000       15.9994           0
     27047 W2       9016     TIP3     H1       HT       0.417000       1.00800           0
     27048 W2       9016     TIP3     H2       HT       0.417000       1.00800           0
     27049 W2       9017     TIP3     OH2      OT      -0.834000       15.9994           0
     27050 W2       9017     TIP3     H1       HT       0.417000       1.00800           0
     27051 W2       9017     TIP3     H2       HT       0.417000       1.00800           0
     27052 W2       9018     TIP3     OH2      OT      -0.834000       15.9994           0
     27053 W2       9018     TIP3     H1       HT       0.417000       1.00800           0
     27054 W2       9018     TIP3     H2       HT       0.417000       1.00800           0
     27055 W2       9019     TIP3     OH2      OT      -0.834000       15.9994           0
     27056 W2       9019     TIP3     H1       HT       0.417000       1.00800           0
     27057 W2       9019     TIP3     H2       HT       0.417000       1.00800           0
     27058 W2       9020     TIP3     OH2      OT      -0.834000       15.9994           0
     27059 W2       9020     TIP3     H1       HT       0.417000       1.00800           0
     27060 W2       9020     TIP3     H2       HT       0.417000       1.00800           0
     27061 W2       9021     TIP3     OH2      OT      -0.834000       15.9994           0
     27062 W2       9021     TIP3     H1       HT       0.417000       1.00800           0
     27063 W2       9021     TIP3     H2       HT       0.417000       1.00800           0
     27064 W2       9022     TIP3     OH2      OT      -0.834000       15.9994           0
     27065 W2       9022     TIP3     H1       HT       0.417000       1.00800           0
     27066 W2       9022     TIP3     H2       HT       0.417000       1.00800           0
     27067 W2       9023     TIP3     OH2      OT      -0.834000       15.9994           0
     27068 W2       9023     TIP3     H1       HT       0.417000       1.00800           0
     27069 W2       9023     TIP3     H2       HT       0.417000       1.00800           0
     27070 W2       9024     TIP3     OH2      OT      -0.834000       15.9994           0
     27071 W2       9024     TIP3     H1       HT       0.417000       1.00800           0
     27072 W2       9024     TIP3     H2       HT       0.417000       1.00800           0
     27073 W2       9025     TIP3     OH2      OT      -0.834000       15.9994           0
     27074 W2       9025     TIP3     H1       HT       0.417000       1.00800           0
     27075 W2       9025     TIP3     H2       HT       0.417000       1.00800           0
     27076 W2       9026     TIP3     OH2      OT      -0.834000       15.9994           0
     27077 W2       9026     TIP3     H1       HT       0.417000       1.00800           0
     27078 W2       9026     TIP3     H2       HT       0.417000       1.00800           0
     27079 W2       9027     TIP3     OH2      OT      -0.834000       15.9994           0
     27080 W2       9027     TIP3     H1       HT       0.417000       1.00800           0
     27081 W2       9027     TIP3     H2       HT       0.417000       1.00800           0
     27082 W2       9028     TIP3     OH2      OT      -0.834000       15.9994           0
     27083 W2       9028     TIP3     H1       HT       0.417000       1.00800           0
     27084 W2       9028     TIP3     H2       HT       0.417000       1.00800           0
     27085 W2       9029     TIP3     OH2      OT      -0.834000       15.9994           0
     27086 W2       9029     TIP3     H1       HT       0.417000       1.00800           0
     27087 W2       9029     TIP3     H2       HT       0.417000       1.00800           0
     27088 W2       9030     TIP3     OH2      OT      -0.834000       15.9994           0
     27089 W2       9030     TIP3     H1       HT       0.417000       1.00800           0
     27090 W2       9030     TIP3     H2       HT       0.417000       1.00800           0
     27091 W2       9031     TIP3     OH2      OT      -0.834000       15.9994           0
     27092 W2       9031     TIP3     H1       HT       0.417000       1.00800           0
     27093 W2       9031     TIP3     H2       HT       0.417000       1.00800           0
     27094 W2       9032     TIP3     OH2      OT      -0.834000       15.9994           0
     27095 W2       9032     TIP3     H1       HT       0.417000       1.00800           0
     27096 W2       9032     TIP3     H2       HT       0.417000       1.00800           0
     27097 W2       9033     TIP3     OH2      OT      -0.834000       15.9994           0
     27098 W2       9033     TIP3     H1       HT       0.417000       1.00800           0
     27099 W2       9033     TIP3     H2       HT       0.417000       1.00800           0
     27100 W2       9034     TIP3     OH2      OT      -0.834000       15.9994           0
     27101 W2       9034     TIP3     H1       HT       0.417000       1.00800           0
     27102 W2       9034     TIP3     H2       HT       0.417000       1.00800           0
     27103 W2       9035     TIP3     OH2      OT      -0.834000       15.9994           0
     27104 W2       9035     TIP3     H1       HT       0.417000       1.00800           0
     27105 W2       9035     TIP3     H2       HT       0.417000       1.00800           0
     27106 W2       9036     TIP3     OH2      OT      -0.834000       15.9994           0
     27107 W2       9036     TIP3     H1       HT       0.417000       1.00800           0
     27108 W2       9036     TIP3     H2       HT       0.417000       1.00800           0
     27109 W2       9037     TIP3     OH2      OT      -0.834000       15.9994           0
     27110 W2       9037     TIP3     H1       HT       0.417000       1.00800           0
     27111 W2       9037     TIP3     H2       HT       0.417000       1.00800           0
     27112 W2       9038     TIP3     OH2      OT      -0.834000       15.9994           0
     27113 W2       9038     TIP3     H1       HT       0.417000       1.00800           0
     27114 W2       9038     TIP3     H2       HT       0.417000       1.00800           0
     27115 W2       9039     TIP3     OH2      OT      -0.834000       15.9994           0
     27116 W2       9039     TIP3     H1       HT       0.417000       1.00800           0
     27117 W2       9039     TIP3     H2       HT       0.417000       1.00800           0
     27118 W2       9040     TIP3     OH2      OT      -0.834000       15.9994           0
     27119 W2       9040     TIP3     H1       HT       0.417000       1.00800           0
     27120 W2       9040     TIP3     H2       HT       0.417000       1.00800           0
     27121 W2       9041     TIP3     OH2      OT      -0.834000       15.9994           0
     27122 W2       9041     TIP3     H1       HT       0.417000       1.00800           0
     27123 W2       9041     TIP3     H2       HT       0.417000       1.00800           0
     27124 W2       9042     TIP3     OH2      OT      -0.834000       15.9994           0
     27125 W2       9042     TIP3     H1       HT       0.417000       1.00800           0
     27126 W2       9042     TIP3     H2       HT       0.417000       1.00800           0
     27127 W2       9043     TIP3     OH2      OT      -0.834000       15.9994           0
     27128 W2       9043     TIP3     H1       HT       0.417000       1.00800           0
     27129 W2       9043     TIP3     H2       HT       0.417000       1.00800           0
     27130 W2       9044     TIP3     OH2      OT      -0.834000       15.9994           0
     27131 W2       9044     TIP3     H1       HT       0.417000       1.00800           0
     27132 W2       9044     TIP3     H2       HT       0.417000       1.00800           0
     27133 W2       9045     TIP3     OH2      OT      -0.834000       15.9994           0
     27134 W2       9045     TIP3     H1       HT       0.417000       1.00800           0
     27135 W2       9045     TIP3     H2       HT       0.417000       1.00800           0
     27136 W2       9046     TIP3     OH2      OT      -0.834000       15.9994           0
     27137 W2       9046     TIP3     H1       HT       0.417000       1.00800           0
     27138 W2       9046     TIP3     H2       HT       0.417000       1.00800           0
     27139 W2       9047     TIP3     OH2      OT      -0.834000       15.9994           0
     27140 W2       9047     TIP3     H1       HT       0.417000       1.00800           0
     27141 W2       9047     TIP3     H2       HT       0.417000       1.00800           0
     27142 W2       9048     TIP3     OH2      OT      -0.834000       15.9994           0
     27143 W2       9048     TIP3     H1       HT       0.417000       1.00800           0
     27144 W2       9048     TIP3     H2       HT       0.417000       1.00800           0
     27145 W2       9049     TIP3     OH2      OT      -0.834000       15.9994           0
     27146 W2       9049     TIP3     H1       HT       0.417000       1.00800           0
     27147 W2       9049     TIP3     H2       HT       0.417000       1.00800           0
     27148 W2       9050     TIP3     OH2      OT      -0.834000       15.9994           0
     27149 W2       9050     TIP3     H1       HT       0.417000       1.00800           0
     27150 W2       9050     TIP3     H2       HT       0.417000       1.00800           0
     27151 W2       9051     TIP3     OH2      OT      -0.834000       15.9994           0
     27152 W2       9051     TIP3     H1       HT       0.417000       1.00800           0
     27153 W2       9051     TIP3     H2       HT       0.417000       1.00800           0
     27154 W2       9052     TIP3     OH2      OT      -0.834000       15.9994           0
     27155 W2       9052     TIP3     H1       HT       0.417000       1.00800           0
     27156 W2       9052     TIP3     H2       HT       0.417000       1.00800           0
     27157 W2       9053     TIP3     OH2      OT      -0.834000       15.9994           0
     27158 W2       9053     TIP3     H1       HT       0.417000       1.00800           0
     27159 W2       9053     TIP3     H2       HT       0.417000       1.00800           0
     27160 W2       9054     TIP3     OH2      OT      -0.834000       15.9994           0
     27161 W2       9054     TIP3     H1       HT       0.417000       1.00800           0
     27162 W2       9054     TIP3     H2       HT       0.417000       1.00800           0
     27163 W2       9055     TIP3     OH2      OT      -0.834000       15.9994           0
     27164 W2       9055     TIP3     H1       HT       0.417000       1.00800           0
     27165 W2       9055     TIP3     H2       HT       0.417000       1.00800           0
     27166 W2       9056     TIP3     OH2      OT      -0.834000       15.9994           0
     27167 W2       9056     TIP3     H1       HT       0.417000       1.00800           0
     27168 W2       9056     TIP3     H2       HT       0.417000       1.00800           0
     27169 W2       9057     TIP3     OH2      OT      -0.834000       15.9994           0
     27170 W2       9057     TIP3     H1       HT       0.417000       1.00800           0
     27171 W2       9057     TIP3     H2       HT       0.417000       1.00800           0
     27172 W2       9058     TIP3     OH2      OT      -0.834000       15.9994           0
     27173 W2       9058     TIP3     H1       HT       0.417000       1.00800           0
     27174 W2       9058     TIP3     H2       HT       0.417000       1.00800           0
     27175 W2       9059     TIP3     OH2      OT      -0.834000       15.9994           0
     27176 W2       9059     TIP3     H1       HT       0.417000       1.00800           0
     27177 W2       9059     TIP3     H2       HT       0.417000       1.00800           0
     27178 W2       9060     TIP3     OH2      OT      -0.834000       15.9994           0
     27179 W2       9060     TIP3     H1       HT       0.417000       1.00800           0
     27180 W2       9060     TIP3     H2       HT       0.417000       1.00800           0
     27181 W2       9061     TIP3     OH2      OT      -0.834000       15.9994           0
     27182 W2       9061     TIP3     H1       HT       0.417000       1.00800           0
     27183 W2       9061     TIP3     H2       HT       0.417000       1.00800           0
     27184 W2       9062     TIP3     OH2      OT      -0.834000       15.9994           0
     27185 W2       9062     TIP3     H1       HT       0.417000       1.00800           0
     27186 W2       9062     TIP3     H2       HT       0.417000       1.00800           0
     27187 W2       9063     TIP3     OH2      OT      -0.834000       15.9994           0
     27188 W2       9063     TIP3     H1       HT       0.417000       1.00800           0
     27189 W2       9063     TIP3     H2       HT       0.417000       1.00800           0
     27190 W2       9064     TIP3     OH2      OT      -0.834000       15.9994           0
     27191 W2       9064     TIP3     H1       HT       0.417000       1.00800           0
     27192 W2       9064     TIP3     H2       HT       0.417000       1.00800           0
     27193 W2       9065     TIP3     OH2      OT      -0.834000       15.9994           0
     27194 W2       9065     TIP3     H1       HT       0.417000       1.00800           0
     27195 W2       9065     TIP3     H2       HT       0.417000       1.00800           0
     27196 W2       9066     TIP3     OH2      OT      -0.834000       15.9994           0
     27197 W2       9066     TIP3     H1       HT       0.417000       1.00800           0
     27198 W2       9066     TIP3     H2       HT       0.417000       1.00800           0
     27199 W2       9067     TIP3     OH2      OT      -0.834000       15.9994           0
     27200 W2       9067     TIP3     H1       HT       0.417000       1.00800           0
     27201 W2       9067     TIP3     H2       HT       0.417000       1.00800           0
     27202 W2       9068     TIP3     OH2      OT      -0.834000       15.9994           0
     27203 W2       9068     TIP3     H1       HT       0.417000       1.00800           0
     27204 W2       9068     TIP3     H2       HT       0.417000       1.00800           0
     27205 W2       9069     TIP3     OH2      OT      -0.834000       15.9994           0
     27206 W2       9069     TIP3     H1       HT       0.417000       1.00800           0
     27207 W2       9069     TIP3     H2       HT       0.417000       1.00800           0
     27208 W2       9070     TIP3     OH2      OT      -0.834000       15.9994           0
     27209 W2       9070     TIP3     H1       HT       0.417000       1.00800           0
     27210 W2       9070     TIP3     H2       HT       0.417000       1.00800           0
     27211 W2       9071     TIP3     OH2      OT      -0.834000       15.9994           0
     27212 W2       9071     TIP3     H1       HT       0.417000       1.00800           0
     27213 W2       9071     TIP3     H2       HT       0.417000       1.00800           0
     27214 W2       9072     TIP3     OH2      OT      -0.834000       15.9994           0
     27215 W2       9072     TIP3     H1       HT       0.417000       1.00800           0
     27216 W2       9072     TIP3     H2       HT       0.417000       1.00800           0
     27217 W2       9073     TIP3     OH2      OT      -0.834000       15.9994           0
     27218 W2       9073     TIP3     H1       HT       0.417000       1.00800           0
     27219 W2       9073     TIP3     H2       HT       0.417000       1.00800           0
     27220 W2       9074     TIP3     OH2      OT      -0.834000       15.9994           0
     27221 W2       9074     TIP3     H1       HT       0.417000       1.00800           0
     27222 W2       9074     TIP3     H2       HT       0.417000       1.00800           0
     27223 W2       9075     TIP3     OH2      OT      -0.834000       15.9994           0
     27224 W2       9075     TIP3     H1       HT       0.417000       1.00800           0
     27225 W2       9075     TIP3     H2       HT       0.417000       1.00800           0
     27226 W2       9076     TIP3     OH2      OT      -0.834000       15.9994           0
     27227 W2       9076     TIP3     H1       HT       0.417000       1.00800           0
     27228 W2       9076     TIP3     H2       HT       0.417000       1.00800           0
     27229 W2       9077     TIP3     OH2      OT      -0.834000       15.9994           0
     27230 W2       9077     TIP3     H1       HT       0.417000       1.00800           0
     27231 W2       9077     TIP3     H2       HT       0.417000       1.00800           0
     27232 W2       9078     TIP3     OH2      OT      -0.834000       15.9994           0
     27233 W2       9078     TIP3     H1       HT       0.417000       1.00800           0
     27234 W2       9078     TIP3     H2       HT       0.417000       1.00800           0
     27235 W2       9079     TIP3     OH2      OT      -0.834000       15.9994           0
     27236 W2       9079     TIP3     H1       HT       0.417000       1.00800           0
     27237 W2       9079     TIP3     H2       HT       0.417000       1.00800           0
     27238 W2       9080     TIP3     OH2      OT      -0.834000       15.9994           0
     27239 W2       9080     TIP3     H1       HT       0.417000       1.00800           0
     27240 W2       9080     TIP3     H2       HT       0.417000       1.00800           0
     27241 W2       9081     TIP3     OH2      OT      -0.834000       15.9994           0
     27242 W2       9081     TIP3     H1       HT       0.417000       1.00800           0
     27243 W2       9081     TIP3     H2       HT       0.417000       1.00800           0
     27244 W2       9082     TIP3     OH2      OT      -0.834000       15.9994           0
     27245 W2       9082     TIP3     H1       HT       0.417000       1.00800           0
     27246 W2       9082     TIP3     H2       HT       0.417000       1.00800           0
     27247 W2       9083     TIP3     OH2      OT      -0.834000       15.9994           0
     27248 W2       9083     TIP3     H1       HT       0.417000       1.00800           0
     27249 W2       9083     TIP3     H2       HT       0.417000       1.00800           0
     27250 W2       9084     TIP3     OH2      OT      -0.834000       15.9994           0
     27251 W2       9084     TIP3     H1       HT       0.417000       1.00800           0
     27252 W2       9084     TIP3     H2       HT       0.417000       1.00800           0
     27253 W2       9085     TIP3     OH2      OT      -0.834000       15.9994           0
     27254 W2       9085     TIP3     H1       HT       0.417000       1.00800           0
     27255 W2       9085     TIP3     H2       HT       0.417000       1.00800           0
     27256 W2       9086     TIP3     OH2      OT      -0.834000       15.9994           0
     27257 W2       9086     TIP3     H1       HT       0.417000       1.00800           0
     27258 W2       9086     TIP3     H2       HT       0.417000       1.00800           0
     27259 W2       9087     TIP3     OH2      OT      -0.834000       15.9994           0
     27260 W2       9087     TIP3     H1       HT       0.417000       1.00800           0
     27261 W2       9087     TIP3     H2       HT       0.417000       1.00800           0
     27262 W2       9088     TIP3     OH2      OT      -0.834000       15.9994           0
     27263 W2       9088     TIP3     H1       HT       0.417000       1.00800           0
     27264 W2       9088     TIP3     H2       HT       0.417000       1.00800           0
     27265 W2       9089     TIP3     OH2      OT      -0.834000       15.9994           0
     27266 W2       9089     TIP3     H1       HT       0.417000       1.00800           0
     27267 W2       9089     TIP3     H2       HT       0.417000       1.00800           0
     27268 W2       9090     TIP3     OH2      OT      -0.834000       15.9994           0
     27269 W2       9090     TIP3     H1       HT       0.417000       1.00800           0
     27270 W2       9090     TIP3     H2       HT       0.417000       1.00800           0
     27271 W2       9091     TIP3     OH2      OT      -0.834000       15.9994           0
     27272 W2       9091     TIP3     H1       HT       0.417000       1.00800           0
     27273 W2       9091     TIP3     H2       HT       0.417000       1.00800           0
     27274 W2       9092     TIP3     OH2      OT      -0.834000       15.9994           0
     27275 W2       9092     TIP3     H1       HT       0.417000       1.00800           0
     27276 W2       9092     TIP3     H2       HT       0.417000       1.00800           0
     27277 W2       9093     TIP3     OH2      OT      -0.834000       15.9994           0
     27278 W2       9093     TIP3     H1       HT       0.417000       1.00800           0
     27279 W2       9093     TIP3     H2       HT       0.417000       1.00800           0
     27280 W2       9094     TIP3     OH2      OT      -0.834000       15.9994           0
     27281 W2       9094     TIP3     H1       HT       0.417000       1.00800           0
     27282 W2       9094     TIP3     H2       HT       0.417000       1.00800           0
     27283 W2       9095     TIP3     OH2      OT      -0.834000       15.9994           0
     27284 W2       9095     TIP3     H1       HT       0.417000       1.00800           0
     27285 W2       9095     TIP3     H2       HT       0.417000       1.00800           0
     27286 W2       9096     TIP3     OH2      OT      -0.834000       15.9994           0
     27287 W2       9096     TIP3     H1       HT       0.417000       1.00800           0
     27288 W2       9096     TIP3     H2       HT       0.417000       1.00800           0
     27289 W2       9097     TIP3     OH2      OT      -0.834000       15.9994           0
     27290 W2       9097     TIP3     H1       HT       0.417000       1.00800           0
     27291 W2       9097     TIP3     H2       HT       0.417000       1.00800           0
     27292 W2       9098     TIP3     OH2      OT      -0.834000       15.9994           0
     27293 W2       9098     TIP3     H1       HT       0.417000       1.00800           0
     27294 W2       9098     TIP3     H2       HT       0.417000       1.00800           0
     27295 W2       9099     TIP3     OH2      OT      -0.834000       15.9994           0
     27296 W2       9099     TIP3     H1       HT       0.417000       1.00800           0
     27297 W2       9099     TIP3     H2       HT       0.417000       1.00800           0
     27298 W2       9100     TIP3     OH2      OT      -0.834000       15.9994           0
     27299 W2       9100     TIP3     H1       HT       0.417000       1.00800           0
     27300 W2       9100     TIP3     H2       HT       0.417000       1.00800           0
     27301 W2       9101     TIP3     OH2      OT      -0.834000       15.9994           0
     27302 W2       9101     TIP3     H1       HT       0.417000       1.00800           0
     27303 W2       9101     TIP3     H2       HT       0.417000       1.00800           0
     27304 W2       9102     TIP3     OH2      OT      -0.834000       15.9994           0
     27305 W2       9102     TIP3     H1       HT       0.417000       1.00800           0
     27306 W2       9102     TIP3     H2       HT       0.417000       1.00800           0
     27307 W2       9103     TIP3     OH2      OT      -0.834000       15.9994           0
     27308 W2       9103     TIP3     H1       HT       0.417000       1.00800           0
     27309 W2       9103     TIP3     H2       HT       0.417000       1.00800           0
     27310 W2       9104     TIP3     OH2      OT      -0.834000       15.9994           0
     27311 W2       9104     TIP3     H1       HT       0.417000       1.00800           0
     27312 W2       9104     TIP3     H2       HT       0.417000       1.00800           0
     27313 W2       9105     TIP3     OH2      OT      -0.834000       15.9994           0
     27314 W2       9105     TIP3     H1       HT       0.417000       1.00800           0
     27315 W2       9105     TIP3     H2       HT       0.417000       1.00800           0
     27316 W2       9106     TIP3     OH2      OT      -0.834000       15.9994           0
     27317 W2       9106     TIP3     H1       HT       0.417000       1.00800           0
     27318 W2       9106     TIP3     H2       HT       0.417000       1.00800           0
     27319 W2       9107     TIP3     OH2      OT      -0.834000       15.9994           0
     27320 W2       9107     TIP3     H1       HT       0.417000       1.00800           0
     27321 W2       9107     TIP3     H2       HT       0.417000       1.00800           0
     27322 W2       9108     TIP3     OH2      OT      -0.834000       15.9994           0
     27323 W2       9108     TIP3     H1       HT       0.417000       1.00800           0
     27324 W2       9108     TIP3     H2       HT       0.417000       1.00800           0
     27325 W2       9109     TIP3     OH2      OT      -0.834000       15.9994           0
     27326 W2       9109     TIP3     H1       HT       0.417000       1.00800           0
     27327 W2       9109     TIP3     H2       HT       0.417000       1.00800           0
     27328 W2       9110     TIP3     OH2      OT      -0.834000       15.9994           0
     27329 W2       9110     TIP3     H1       HT       0.417000       1.00800           0
     27330 W2       9110     TIP3     H2       HT       0.417000       1.00800           0
     27331 W2       9111     TIP3     OH2      OT      -0.834000       15.9994           0
     27332 W2       9111     TIP3     H1       HT       0.417000       1.00800           0
     27333 W2       9111     TIP3     H2       HT       0.417000       1.00800           0
     27334 W2       9112     TIP3     OH2      OT      -0.834000       15.9994           0
     27335 W2       9112     TIP3     H1       HT       0.417000       1.00800           0
     27336 W2       9112     TIP3     H2       HT       0.417000       1.00800           0
     27337 W2       9113     TIP3     OH2      OT      -0.834000       15.9994           0
     27338 W2       9113     TIP3     H1       HT       0.417000       1.00800           0
     27339 W2       9113     TIP3     H2       HT       0.417000       1.00800           0
     27340 W2       9114     TIP3     OH2      OT      -0.834000       15.9994           0
     27341 W2       9114     TIP3     H1       HT       0.417000       1.00800           0
     27342 W2       9114     TIP3     H2       HT       0.417000       1.00800           0
     27343 W2       9115     TIP3     OH2      OT      -0.834000       15.9994           0
     27344 W2       9115     TIP3     H1       HT       0.417000       1.00800           0
     27345 W2       9115     TIP3     H2       HT       0.417000       1.00800           0
     27346 W2       9116     TIP3     OH2      OT      -0.834000       15.9994           0
     27347 W2       9116     TIP3     H1       HT       0.417000       1.00800           0
     27348 W2       9116     TIP3     H2       HT       0.417000       1.00800           0
     27349 W2       9117     TIP3     OH2      OT      -0.834000       15.9994           0
     27350 W2       9117     TIP3     H1       HT       0.417000       1.00800           0
     27351 W2       9117     TIP3     H2       HT       0.417000       1.00800           0
     27352 W2       9118     TIP3     OH2      OT      -0.834000       15.9994           0
     27353 W2       9118     TIP3     H1       HT       0.417000       1.00800           0
     27354 W2       9118     TIP3     H2       HT       0.417000       1.00800           0
     27355 W2       9119     TIP3     OH2      OT      -0.834000       15.9994           0
     27356 W2       9119     TIP3     H1       HT       0.417000       1.00800           0
     27357 W2       9119     TIP3     H2       HT       0.417000       1.00800           0
     27358 W2       9120     TIP3     OH2      OT      -0.834000       15.9994           0
     27359 W2       9120     TIP3     H1       HT       0.417000       1.00800           0
     27360 W2       9120     TIP3     H2       HT       0.417000       1.00800           0
     27361 W2       9121     TIP3     OH2      OT      -0.834000       15.9994           0
     27362 W2       9121     TIP3     H1       HT       0.417000       1.00800           0
     27363 W2       9121     TIP3     H2       HT       0.417000       1.00800           0
     27364 W2       9122     TIP3     OH2      OT      -0.834000       15.9994           0
     27365 W2       9122     TIP3     H1       HT       0.417000       1.00800           0
     27366 W2       9122     TIP3     H2       HT       0.417000       1.00800           0
     27367 W2       9123     TIP3     OH2      OT      -0.834000       15.9994           0
     27368 W2       9123     TIP3     H1       HT       0.417000       1.00800           0
     27369 W2       9123     TIP3     H2       HT       0.417000       1.00800           0
     27370 W2       9124     TIP3     OH2      OT      -0.834000       15.9994           0
     27371 W2       9124     TIP3     H1       HT       0.417000       1.00800           0
     27372 W2       9124     TIP3     H2       HT       0.417000       1.00800           0
     27373 W2       9125     TIP3     OH2      OT      -0.834000       15.9994           0
     27374 W2       9125     TIP3     H1       HT       0.417000       1.00800           0
     27375 W2       9125     TIP3     H2       HT       0.417000       1.00800           0
     27376 W2       9126     TIP3     OH2      OT      -0.834000       15.9994           0
     27377 W2       9126     TIP3     H1       HT       0.417000       1.00800           0
     27378 W2       9126     TIP3     H2       HT       0.417000       1.00800           0
     27379 W2       9127     TIP3     OH2      OT      -0.834000       15.9994           0
     27380 W2       9127     TIP3     H1       HT       0.417000       1.00800           0
     27381 W2       9127     TIP3     H2       HT       0.417000       1.00800           0
     27382 W2       9128     TIP3     OH2      OT      -0.834000       15.9994           0
     27383 W2       9128     TIP3     H1       HT       0.417000       1.00800           0
     27384 W2       9128     TIP3     H2       HT       0.417000       1.00800           0
     27385 W2       9129     TIP3     OH2      OT      -0.834000       15.9994           0
     27386 W2       9129     TIP3     H1       HT       0.417000       1.00800           0
     27387 W2       9129     TIP3     H2       HT       0.417000       1.00800           0
     27388 W2       9130     TIP3     OH2      OT      -0.834000       15.9994           0
     27389 W2       9130     TIP3     H1       HT       0.417000       1.00800           0
     27390 W2       9130     TIP3     H2       HT       0.417000       1.00800           0
     27391 W2       9131     TIP3     OH2      OT      -0.834000       15.9994           0
     27392 W2       9131     TIP3     H1       HT       0.417000       1.00800           0
     27393 W2       9131     TIP3     H2       HT       0.417000       1.00800           0
     27394 W2       9132     TIP3     OH2      OT      -0.834000       15.9994           0
     27395 W2       9132     TIP3     H1       HT       0.417000       1.00800           0
     27396 W2       9132     TIP3     H2       HT       0.417000       1.00800           0
     27397 W2       9133     TIP3     OH2      OT      -0.834000       15.9994           0
     27398 W2       9133     TIP3     H1       HT       0.417000       1.00800           0
     27399 W2       9133     TIP3     H2       HT       0.417000       1.00800           0
     27400 W2       9134     TIP3     OH2      OT      -0.834000       15.9994           0
     27401 W2       9134     TIP3     H1       HT       0.417000       1.00800           0
     27402 W2       9134     TIP3     H2       HT       0.417000       1.00800           0
     27403 W2       9135     TIP3     OH2      OT      -0.834000       15.9994           0
     27404 W2       9135     TIP3     H1       HT       0.417000       1.00800           0
     27405 W2       9135     TIP3     H2       HT       0.417000       1.00800           0
     27406 W2       9136     TIP3     OH2      OT      -0.834000       15.9994           0
     27407 W2       9136     TIP3     H1       HT       0.417000       1.00800           0
     27408 W2       9136     TIP3     H2       HT       0.417000       1.00800           0
     27409 W2       9137     TIP3     OH2      OT      -0.834000       15.9994           0
     27410 W2       9137     TIP3     H1       HT       0.417000       1.00800           0
     27411 W2       9137     TIP3     H2       HT       0.417000       1.00800           0
     27412 W2       9138     TIP3     OH2      OT      -0.834000       15.9994           0
     27413 W2       9138     TIP3     H1       HT       0.417000       1.00800           0
     27414 W2       9138     TIP3     H2       HT       0.417000       1.00800           0
     27415 W2       9139     TIP3     OH2      OT      -0.834000       15.9994           0
     27416 W2       9139     TIP3     H1       HT       0.417000       1.00800           0
     27417 W2       9139     TIP3     H2       HT       0.417000       1.00800           0
     27418 W2       9140     TIP3     OH2      OT      -0.834000       15.9994           0
     27419 W2       9140     TIP3     H1       HT       0.417000       1.00800           0
     27420 W2       9140     TIP3     H2       HT       0.417000       1.00800           0
     27421 W2       9141     TIP3     OH2      OT      -0.834000       15.9994           0
     27422 W2       9141     TIP3     H1       HT       0.417000       1.00800           0
     27423 W2       9141     TIP3     H2       HT       0.417000       1.00800           0
     27424 W2       9142     TIP3     OH2      OT      -0.834000       15.9994           0
     27425 W2       9142     TIP3     H1       HT       0.417000       1.00800           0
     27426 W2       9142     TIP3     H2       HT       0.417000       1.00800           0
     27427 W2       9143     TIP3     OH2      OT      -0.834000       15.9994           0
     27428 W2       9143     TIP3     H1       HT       0.417000       1.00800           0
     27429 W2       9143     TIP3     H2       HT       0.417000       1.00800           0
     27430 W2       9144     TIP3     OH2      OT      -0.834000       15.9994           0
     27431 W2       9144     TIP3     H1       HT       0.417000       1.00800           0
     27432 W2       9144     TIP3     H2       HT       0.417000       1.00800           0
     27433 W2       9145     TIP3     OH2      OT      -0.834000       15.9994           0
     27434 W2       9145     TIP3     H1       HT       0.417000       1.00800           0
     27435 W2       9145     TIP3     H2       HT       0.417000       1.00800           0
     27436 W2       9146     TIP3     OH2      OT      -0.834000       15.9994           0
     27437 W2       9146     TIP3     H1       HT       0.417000       1.00800           0
     27438 W2       9146     TIP3     H2       HT       0.417000       1.00800           0
     27439 W2       9147     TIP3     OH2      OT      -0.834000       15.9994           0
     27440 W2       9147     TIP3     H1       HT       0.417000       1.00800           0
     27441 W2       9147     TIP3     H2       HT       0.417000       1.00800           0
     27442 W2       9148     TIP3     OH2      OT      -0.834000       15.9994           0
     27443 W2       9148     TIP3     H1       HT       0.417000       1.00800           0
     27444 W2       9148     TIP3     H2       HT       0.417000       1.00800           0
     27445 W2       9149     TIP3     OH2      OT      -0.834000       15.9994           0
     27446 W2       9149     TIP3     H1       HT       0.417000       1.00800           0
     27447 W2       9149     TIP3     H2       HT       0.417000       1.00800           0
     27448 W2       9150     TIP3     OH2      OT      -0.834000       15.9994           0
     27449 W2       9150     TIP3     H1       HT       0.417000       1.00800           0
     27450 W2       9150     TIP3     H2       HT       0.417000       1.00800           0
     27451 W2       9151     TIP3     OH2      OT      -0.834000       15.9994           0
     27452 W2       9151     TIP3     H1       HT       0.417000       1.00800           0
     27453 W2       9151     TIP3     H2       HT       0.417000       1.00800           0
     27454 W2       9152     TIP3     OH2      OT      -0.834000       15.9994           0
     27455 W2       9152     TIP3     H1       HT       0.417000       1.00800           0
     27456 W2       9152     TIP3     H2       HT       0.417000       1.00800           0
     27457 W2       9153     TIP3     OH2      OT      -0.834000       15.9994           0
     27458 W2       9153     TIP3     H1       HT       0.417000       1.00800           0
     27459 W2       9153     TIP3     H2       HT       0.417000       1.00800           0
     27460 W2       9154     TIP3     OH2      OT      -0.834000       15.9994           0
     27461 W2       9154     TIP3     H1       HT       0.417000       1.00800           0
     27462 W2       9154     TIP3     H2       HT       0.417000       1.00800           0
     27463 W2       9155     TIP3     OH2      OT      -0.834000       15.9994           0
     27464 W2       9155     TIP3     H1       HT       0.417000       1.00800           0
     27465 W2       9155     TIP3     H2       HT       0.417000       1.00800           0
     27466 W2       9156     TIP3     OH2      OT      -0.834000       15.9994           0
     27467 W2       9156     TIP3     H1       HT       0.417000       1.00800           0
     27468 W2       9156     TIP3     H2       HT       0.417000       1.00800           0
     27469 W2       9157     TIP3     OH2      OT      -0.834000       15.9994           0
     27470 W2       9157     TIP3     H1       HT       0.417000       1.00800           0
     27471 W2       9157     TIP3     H2       HT       0.417000       1.00800           0
     27472 W2       9158     TIP3     OH2      OT      -0.834000       15.9994           0
     27473 W2       9158     TIP3     H1       HT       0.417000       1.00800           0
     27474 W2       9158     TIP3     H2       HT       0.417000       1.00800           0
     27475 W2       9159     TIP3     OH2      OT      -0.834000       15.9994           0
     27476 W2       9159     TIP3     H1       HT       0.417000       1.00800           0
     27477 W2       9159     TIP3     H2       HT       0.417000       1.00800           0
     27478 W2       9160     TIP3     OH2      OT      -0.834000       15.9994           0
     27479 W2       9160     TIP3     H1       HT       0.417000       1.00800           0
     27480 W2       9160     TIP3     H2       HT       0.417000       1.00800           0
     27481 W2       9161     TIP3     OH2      OT      -0.834000       15.9994           0
     27482 W2       9161     TIP3     H1       HT       0.417000       1.00800           0
     27483 W2       9161     TIP3     H2       HT       0.417000       1.00800           0
     27484 W2       9162     TIP3     OH2      OT      -0.834000       15.9994           0
     27485 W2       9162     TIP3     H1       HT       0.417000       1.00800           0
     27486 W2       9162     TIP3     H2       HT       0.417000       1.00800           0
     27487 W2       9163     TIP3     OH2      OT      -0.834000       15.9994           0
     27488 W2       9163     TIP3     H1       HT       0.417000       1.00800           0
     27489 W2       9163     TIP3     H2       HT       0.417000       1.00800           0
     27490 W2       9164     TIP3     OH2      OT      -0.834000       15.9994           0
     27491 W2       9164     TIP3     H1       HT       0.417000       1.00800           0
     27492 W2       9164     TIP3     H2       HT       0.417000       1.00800           0
     27493 W2       9165     TIP3     OH2      OT      -0.834000       15.9994           0
     27494 W2       9165     TIP3     H1       HT       0.417000       1.00800           0
     27495 W2       9165     TIP3     H2       HT       0.417000       1.00800           0
     27496 W2       9166     TIP3     OH2      OT      -0.834000       15.9994           0
     27497 W2       9166     TIP3     H1       HT       0.417000       1.00800           0
     27498 W2       9166     TIP3     H2       HT       0.417000       1.00800           0
     27499 W2       9167     TIP3     OH2      OT      -0.834000       15.9994           0
     27500 W2       9167     TIP3     H1       HT       0.417000       1.00800           0
     27501 W2       9167     TIP3     H2       HT       0.417000       1.00800           0
     27502 W2       9168     TIP3     OH2      OT      -0.834000       15.9994           0
     27503 W2       9168     TIP3     H1       HT       0.417000       1.00800           0
     27504 W2       9168     TIP3     H2       HT       0.417000       1.00800           0
     27505 W2       9169     TIP3     OH2      OT      -0.834000       15.9994           0
     27506 W2       9169     TIP3     H1       HT       0.417000       1.00800           0
     27507 W2       9169     TIP3     H2       HT       0.417000       1.00800           0
     27508 W2       9170     TIP3     OH2      OT      -0.834000       15.9994           0
     27509 W2       9170     TIP3     H1       HT       0.417000       1.00800           0
     27510 W2       9170     TIP3     H2       HT       0.417000       1.00800           0
     27511 W2       9171     TIP3     OH2      OT      -0.834000       15.9994           0
     27512 W2       9171     TIP3     H1       HT       0.417000       1.00800           0
     27513 W2       9171     TIP3     H2       HT       0.417000       1.00800           0
     27514 W2       9172     TIP3     OH2      OT      -0.834000       15.9994           0
     27515 W2       9172     TIP3     H1       HT       0.417000       1.00800           0
     27516 W2       9172     TIP3     H2       HT       0.417000       1.00800           0
     27517 W2       9173     TIP3     OH2      OT      -0.834000       15.9994           0
     27518 W2       9173     TIP3     H1       HT       0.417000       1.00800           0
     27519 W2       9173     TIP3     H2       HT       0.417000       1.00800           0
     27520 W2       9174     TIP3     OH2      OT      -0.834000       15.9994           0
     27521 W2       9174     TIP3     H1       HT       0.417000       1.00800           0
     27522 W2       9174     TIP3     H2       HT       0.417000       1.00800           0
     27523 W2       9175     TIP3     OH2      OT      -0.834000       15.9994           0
     27524 W2       9175     TIP3     H1       HT       0.417000       1.00800           0
     27525 W2       9175     TIP3     H2       HT       0.417000       1.00800           0
     27526 W2       9176     TIP3     OH2      OT      -0.834000       15.9994           0
     27527 W2       9176     TIP3     H1       HT       0.417000       1.00800           0
     27528 W2       9176     TIP3     H2       HT       0.417000       1.00800           0
     27529 W2       9177     TIP3     OH2      OT      -0.834000       15.9994           0
     27530 W2       9177     TIP3     H1       HT       0.417000       1.00800           0
     27531 W2       9177     TIP3     H2       HT       0.417000       1.00800           0
     27532 W2       9178     TIP3     OH2      OT      -0.834000       15.9994           0
     27533 W2       9178     TIP3     H1       HT       0.417000       1.00800           0
     27534 W2       9178     TIP3     H2       HT       0.417000       1.00800           0
     27535 W2       9179     TIP3     OH2      OT      -0.834000       15.9994           0
     27536 W2       9179     TIP3     H1       HT       0.417000       1.00800           0
     27537 W2       9179     TIP3     H2       HT       0.417000       1.00800           0
     27538 W2       9180     TIP3     OH2      OT      -0.834000       15.9994           0
     27539 W2       9180     TIP3     H1       HT       0.417000       1.00800           0
     27540 W2       9180     TIP3     H2       HT       0.417000       1.00800           0
     27541 W2       9181     TIP3     OH2      OT      -0.834000       15.9994           0
     27542 W2       9181     TIP3     H1       HT       0.417000       1.00800           0
     27543 W2       9181     TIP3     H2       HT       0.417000       1.00800           0
     27544 W2       9182     TIP3     OH2      OT      -0.834000       15.9994           0
     27545 W2       9182     TIP3     H1       HT       0.417000       1.00800           0
     27546 W2       9182     TIP3     H2       HT       0.417000       1.00800           0
     27547 W2       9183     TIP3     OH2      OT      -0.834000       15.9994           0
     27548 W2       9183     TIP3     H1       HT       0.417000       1.00800           0
     27549 W2       9183     TIP3     H2       HT       0.417000       1.00800           0
     27550 W2       9184     TIP3     OH2      OT      -0.834000       15.9994           0
     27551 W2       9184     TIP3     H1       HT       0.417000       1.00800           0
     27552 W2       9184     TIP3     H2       HT       0.417000       1.00800           0
     27553 W2       9185     TIP3     OH2      OT      -0.834000       15.9994           0
     27554 W2       9185     TIP3     H1       HT       0.417000       1.00800           0
     27555 W2       9185     TIP3     H2       HT       0.417000       1.00800           0
     27556 W2       9186     TIP3     OH2      OT      -0.834000       15.9994           0
     27557 W2       9186     TIP3     H1       HT       0.417000       1.00800           0
     27558 W2       9186     TIP3     H2       HT       0.417000       1.00800           0
     27559 W2       9187     TIP3     OH2      OT      -0.834000       15.9994           0
     27560 W2       9187     TIP3     H1       HT       0.417000       1.00800           0
     27561 W2       9187     TIP3     H2       HT       0.417000       1.00800           0
     27562 W2       9188     TIP3     OH2      OT      -0.834000       15.9994           0
     27563 W2       9188     TIP3     H1       HT       0.417000       1.00800           0
     27564 W2       9188     TIP3     H2       HT       0.417000       1.00800           0
     27565 W2       9189     TIP3     OH2      OT      -0.834000       15.9994           0
     27566 W2       9189     TIP3     H1       HT       0.417000       1.00800           0
     27567 W2       9189     TIP3     H2       HT       0.417000       1.00800           0
     27568 W2       9190     TIP3     OH2      OT      -0.834000       15.9994           0
     27569 W2       9190     TIP3     H1       HT       0.417000       1.00800           0
     27570 W2       9190     TIP3     H2       HT       0.417000       1.00800           0
     27571 W2       9191     TIP3     OH2      OT      -0.834000       15.9994           0
     27572 W2       9191     TIP3     H1       HT       0.417000       1.00800           0
     27573 W2       9191     TIP3     H2       HT       0.417000       1.00800           0
     27574 W2       9192     TIP3     OH2      OT      -0.834000       15.9994           0
     27575 W2       9192     TIP3     H1       HT       0.417000       1.00800           0
     27576 W2       9192     TIP3     H2       HT       0.417000       1.00800           0
     27577 W2       9193     TIP3     OH2      OT      -0.834000       15.9994           0
     27578 W2       9193     TIP3     H1       HT       0.417000       1.00800           0
     27579 W2       9193     TIP3     H2       HT       0.417000       1.00800           0
     27580 W2       9194     TIP3     OH2      OT      -0.834000       15.9994           0
     27581 W2       9194     TIP3     H1       HT       0.417000       1.00800           0
     27582 W2       9194     TIP3     H2       HT       0.417000       1.00800           0
     27583 W2       9195     TIP3     OH2      OT      -0.834000       15.9994           0
     27584 W2       9195     TIP3     H1       HT       0.417000       1.00800           0
     27585 W2       9195     TIP3     H2       HT       0.417000       1.00800           0
     27586 W2       9196     TIP3     OH2      OT      -0.834000       15.9994           0
     27587 W2       9196     TIP3     H1       HT       0.417000       1.00800           0
     27588 W2       9196     TIP3     H2       HT       0.417000       1.00800           0
     27589 W2       9197     TIP3     OH2      OT      -0.834000       15.9994           0
     27590 W2       9197     TIP3     H1       HT       0.417000       1.00800           0
     27591 W2       9197     TIP3     H2       HT       0.417000       1.00800           0
     27592 W2       9198     TIP3     OH2      OT      -0.834000       15.9994           0
     27593 W2       9198     TIP3     H1       HT       0.417000       1.00800           0
     27594 W2       9198     TIP3     H2       HT       0.417000       1.00800           0
     27595 W2       9199     TIP3     OH2      OT      -0.834000       15.9994           0
     27596 W2       9199     TIP3     H1       HT       0.417000       1.00800           0
     27597 W2       9199     TIP3     H2       HT       0.417000       1.00800           0
     27598 W2       9200     TIP3     OH2      OT      -0.834000       15.9994           0
     27599 W2       9200     TIP3     H1       HT       0.417000       1.00800           0
     27600 W2       9200     TIP3     H2       HT       0.417000       1.00800           0
     27601 W2       9201     TIP3     OH2      OT      -0.834000       15.9994           0
     27602 W2       9201     TIP3     H1       HT       0.417000       1.00800           0
     27603 W2       9201     TIP3     H2       HT       0.417000       1.00800           0
     27604 W2       9202     TIP3     OH2      OT      -0.834000       15.9994           0
     27605 W2       9202     TIP3     H1       HT       0.417000       1.00800           0
     27606 W2       9202     TIP3     H2       HT       0.417000       1.00800           0
     27607 W2       9203     TIP3     OH2      OT      -0.834000       15.9994           0
     27608 W2       9203     TIP3     H1       HT       0.417000       1.00800           0
     27609 W2       9203     TIP3     H2       HT       0.417000       1.00800           0
     27610 W2       9204     TIP3     OH2      OT      -0.834000       15.9994           0
     27611 W2       9204     TIP3     H1       HT       0.417000       1.00800           0
     27612 W2       9204     TIP3     H2       HT       0.417000       1.00800           0
     27613 W2       9205     TIP3     OH2      OT      -0.834000       15.9994           0
     27614 W2       9205     TIP3     H1       HT       0.417000       1.00800           0
     27615 W2       9205     TIP3     H2       HT       0.417000       1.00800           0
     27616 W2       9206     TIP3     OH2      OT      -0.834000       15.9994           0
     27617 W2       9206     TIP3     H1       HT       0.417000       1.00800           0
     27618 W2       9206     TIP3     H2       HT       0.417000       1.00800           0
     27619 W2       9207     TIP3     OH2      OT      -0.834000       15.9994           0
     27620 W2       9207     TIP3     H1       HT       0.417000       1.00800           0
     27621 W2       9207     TIP3     H2       HT       0.417000       1.00800           0
     27622 W2       9208     TIP3     OH2      OT      -0.834000       15.9994           0
     27623 W2       9208     TIP3     H1       HT       0.417000       1.00800           0
     27624 W2       9208     TIP3     H2       HT       0.417000       1.00800           0
     27625 W2       9209     TIP3     OH2      OT      -0.834000       15.9994           0
     27626 W2       9209     TIP3     H1       HT       0.417000       1.00800           0
     27627 W2       9209     TIP3     H2       HT       0.417000       1.00800           0
     27628 W2       9210     TIP3     OH2      OT      -0.834000       15.9994           0
     27629 W2       9210     TIP3     H1       HT       0.417000       1.00800           0
     27630 W2       9210     TIP3     H2       HT       0.417000       1.00800           0
     27631 W2       9211     TIP3     OH2      OT      -0.834000       15.9994           0
     27632 W2       9211     TIP3     H1       HT       0.417000       1.00800           0
     27633 W2       9211     TIP3     H2       HT       0.417000       1.00800           0
     27634 W2       9212     TIP3     OH2      OT      -0.834000       15.9994           0
     27635 W2       9212     TIP3     H1       HT       0.417000       1.00800           0
     27636 W2       9212     TIP3     H2       HT       0.417000       1.00800           0
     27637 W2       9213     TIP3     OH2      OT      -0.834000       15.9994           0
     27638 W2       9213     TIP3     H1       HT       0.417000       1.00800           0
     27639 W2       9213     TIP3     H2       HT       0.417000       1.00800           0
     27640 W2       9214     TIP3     OH2      OT      -0.834000       15.9994           0
     27641 W2       9214     TIP3     H1       HT       0.417000       1.00800           0
     27642 W2       9214     TIP3     H2       HT       0.417000       1.00800           0
     27643 W2       9215     TIP3     OH2      OT      -0.834000       15.9994           0
     27644 W2       9215     TIP3     H1       HT       0.417000       1.00800           0
     27645 W2       9215     TIP3     H2       HT       0.417000       1.00800           0
     27646 W2       9216     TIP3     OH2      OT      -0.834000       15.9994           0
     27647 W2       9216     TIP3     H1       HT       0.417000       1.00800           0
     27648 W2       9216     TIP3     H2       HT       0.417000       1.00800           0
     27649 W2       9217     TIP3     OH2      OT      -0.834000       15.9994           0
     27650 W2       9217     TIP3     H1       HT       0.417000       1.00800           0
     27651 W2       9217     TIP3     H2       HT       0.417000       1.00800           0
     27652 W2       9218     TIP3     OH2      OT      -0.834000       15.9994           0
     27653 W2       9218     TIP3     H1       HT       0.417000       1.00800           0
     27654 W2       9218     TIP3     H2       HT       0.417000       1.00800           0
     27655 W2       9219     TIP3     OH2      OT      -0.834000       15.9994           0
     27656 W2       9219     TIP3     H1       HT       0.417000       1.00800           0
     27657 W2       9219     TIP3     H2       HT       0.417000       1.00800           0
     27658 W2       9220     TIP3     OH2      OT      -0.834000       15.9994           0
     27659 W2       9220     TIP3     H1       HT       0.417000       1.00800           0
     27660 W2       9220     TIP3     H2       HT       0.417000       1.00800           0
     27661 W2       9221     TIP3     OH2      OT      -0.834000       15.9994           0
     27662 W2       9221     TIP3     H1       HT       0.417000       1.00800           0
     27663 W2       9221     TIP3     H2       HT       0.417000       1.00800           0
     27664 W2       9222     TIP3     OH2      OT      -0.834000       15.9994           0
     27665 W2       9222     TIP3     H1       HT       0.417000       1.00800           0
     27666 W2       9222     TIP3     H2       HT       0.417000       1.00800           0
     27667 W2       9223     TIP3     OH2      OT      -0.834000       15.9994           0
     27668 W2       9223     TIP3     H1       HT       0.417000       1.00800           0
     27669 W2       9223     TIP3     H2       HT       0.417000       1.00800           0
     27670 W2       9224     TIP3     OH2      OT      -0.834000       15.9994           0
     27671 W2       9224     TIP3     H1       HT       0.417000       1.00800           0
     27672 W2       9224     TIP3     H2       HT       0.417000       1.00800           0
     27673 W2       9225     TIP3     OH2      OT      -0.834000       15.9994           0
     27674 W2       9225     TIP3     H1       HT       0.417000       1.00800           0
     27675 W2       9225     TIP3     H2       HT       0.417000       1.00800           0
     27676 W2       9226     TIP3     OH2      OT      -0.834000       15.9994           0
     27677 W2       9226     TIP3     H1       HT       0.417000       1.00800           0
     27678 W2       9226     TIP3     H2       HT       0.417000       1.00800           0
     27679 W2       9227     TIP3     OH2      OT      -0.834000       15.9994           0
     27680 W2       9227     TIP3     H1       HT       0.417000       1.00800           0
     27681 W2       9227     TIP3     H2       HT       0.417000       1.00800           0
     27682 W2       9228     TIP3     OH2      OT      -0.834000       15.9994           0
     27683 W2       9228     TIP3     H1       HT       0.417000       1.00800           0
     27684 W2       9228     TIP3     H2       HT       0.417000       1.00800           0
     27685 W2       9229     TIP3     OH2      OT      -0.834000       15.9994           0
     27686 W2       9229     TIP3     H1       HT       0.417000       1.00800           0
     27687 W2       9229     TIP3     H2       HT       0.417000       1.00800           0
     27688 W2       9230     TIP3     OH2      OT      -0.834000       15.9994           0
     27689 W2       9230     TIP3     H1       HT       0.417000       1.00800           0
     27690 W2       9230     TIP3     H2       HT       0.417000       1.00800           0
     27691 W2       9231     TIP3     OH2      OT      -0.834000       15.9994           0
     27692 W2       9231     TIP3     H1       HT       0.417000       1.00800           0
     27693 W2       9231     TIP3     H2       HT       0.417000       1.00800           0
     27694 W2       9232     TIP3     OH2      OT      -0.834000       15.9994           0
     27695 W2       9232     TIP3     H1       HT       0.417000       1.00800           0
     27696 W2       9232     TIP3     H2       HT       0.417000       1.00800           0
     27697 W2       9233     TIP3     OH2      OT      -0.834000       15.9994           0
     27698 W2       9233     TIP3     H1       HT       0.417000       1.00800           0
     27699 W2       9233     TIP3     H2       HT       0.417000       1.00800           0
     27700 W2       9234     TIP3     OH2      OT      -0.834000       15.9994           0
     27701 W2       9234     TIP3     H1       HT       0.417000       1.00800           0
     27702 W2       9234     TIP3     H2       HT       0.417000       1.00800           0
     27703 W2       9235     TIP3     OH2      OT      -0.834000       15.9994           0
     27704 W2       9235     TIP3     H1       HT       0.417000       1.00800           0
     27705 W2       9235     TIP3     H2       HT       0.417000       1.00800           0
     27706 W2       9236     TIP3     OH2      OT      -0.834000       15.9994           0
     27707 W2       9236     TIP3     H1       HT       0.417000       1.00800           0
     27708 W2       9236     TIP3     H2       HT       0.417000       1.00800           0
     27709 W2       9237     TIP3     OH2      OT      -0.834000       15.9994           0
     27710 W2       9237     TIP3     H1       HT       0.417000       1.00800           0
     27711 W2       9237     TIP3     H2       HT       0.417000       1.00800           0
     27712 W2       9238     TIP3     OH2      OT      -0.834000       15.9994           0
     27713 W2       9238     TIP3     H1       HT       0.417000       1.00800           0
     27714 W2       9238     TIP3     H2       HT       0.417000       1.00800           0
     27715 W2       9239     TIP3     OH2      OT      -0.834000       15.9994           0
     27716 W2       9239     TIP3     H1       HT       0.417000       1.00800           0
     27717 W2       9239     TIP3     H2       HT       0.417000       1.00800           0
     27718 W2       9240     TIP3     OH2      OT      -0.834000       15.9994           0
     27719 W2       9240     TIP3     H1       HT       0.417000       1.00800           0
     27720 W2       9240     TIP3     H2       HT       0.417000       1.00800           0
     27721 W2       9241     TIP3     OH2      OT      -0.834000       15.9994           0
     27722 W2       9241     TIP3     H1       HT       0.417000       1.00800           0
     27723 W2       9241     TIP3     H2       HT       0.417000       1.00800           0
     27724 W2       9242     TIP3     OH2      OT      -0.834000       15.9994           0
     27725 W2       9242     TIP3     H1       HT       0.417000       1.00800           0
     27726 W2       9242     TIP3     H2       HT       0.417000       1.00800           0
     27727 W2       9243     TIP3     OH2      OT      -0.834000       15.9994           0
     27728 W2       9243     TIP3     H1       HT       0.417000       1.00800           0
     27729 W2       9243     TIP3     H2       HT       0.417000       1.00800           0
     27730 W2       9244     TIP3     OH2      OT      -0.834000       15.9994           0
     27731 W2       9244     TIP3     H1       HT       0.417000       1.00800           0
     27732 W2       9244     TIP3     H2       HT       0.417000       1.00800           0
     27733 W2       9245     TIP3     OH2      OT      -0.834000       15.9994           0
     27734 W2       9245     TIP3     H1       HT       0.417000       1.00800           0
     27735 W2       9245     TIP3     H2       HT       0.417000       1.00800           0
     27736 W2       9246     TIP3     OH2      OT      -0.834000       15.9994           0
     27737 W2       9246     TIP3     H1       HT       0.417000       1.00800           0
     27738 W2       9246     TIP3     H2       HT       0.417000       1.00800           0
     27739 W2       9247     TIP3     OH2      OT      -0.834000       15.9994           0
     27740 W2       9247     TIP3     H1       HT       0.417000       1.00800           0
     27741 W2       9247     TIP3     H2       HT       0.417000       1.00800           0
     27742 W2       9248     TIP3     OH2      OT      -0.834000       15.9994           0
     27743 W2       9248     TIP3     H1       HT       0.417000       1.00800           0
     27744 W2       9248     TIP3     H2       HT       0.417000       1.00800           0
     27745 W2       9249     TIP3     OH2      OT      -0.834000       15.9994           0
     27746 W2       9249     TIP3     H1       HT       0.417000       1.00800           0
     27747 W2       9249     TIP3     H2       HT       0.417000       1.00800           0
     27748 W2       9250     TIP3     OH2      OT      -0.834000       15.9994           0
     27749 W2       9250     TIP3     H1       HT       0.417000       1.00800           0
     27750 W2       9250     TIP3     H2       HT       0.417000       1.00800           0
     27751 W2       9251     TIP3     OH2      OT      -0.834000       15.9994           0
     27752 W2       9251     TIP3     H1       HT       0.417000       1.00800           0
     27753 W2       9251     TIP3     H2       HT       0.417000       1.00800           0
     27754 W2       9252     TIP3     OH2      OT      -0.834000       15.9994           0
     27755 W2       9252     TIP3     H1       HT       0.417000       1.00800           0
     27756 W2       9252     TIP3     H2       HT       0.417000       1.00800           0
     27757 W2       9253     TIP3     OH2      OT      -0.834000       15.9994           0
     27758 W2       9253     TIP3     H1       HT       0.417000       1.00800           0
     27759 W2       9253     TIP3     H2       HT       0.417000       1.00800           0
     27760 W2       9254     TIP3     OH2      OT      -0.834000       15.9994           0
     27761 W2       9254     TIP3     H1       HT       0.417000       1.00800           0
     27762 W2       9254     TIP3     H2       HT       0.417000       1.00800           0
     27763 W2       9255     TIP3     OH2      OT      -0.834000       15.9994           0
     27764 W2       9255     TIP3     H1       HT       0.417000       1.00800           0
     27765 W2       9255     TIP3     H2       HT       0.417000       1.00800           0
     27766 W2       9256     TIP3     OH2      OT      -0.834000       15.9994           0
     27767 W2       9256     TIP3     H1       HT       0.417000       1.00800           0
     27768 W2       9256     TIP3     H2       HT       0.417000       1.00800           0
     27769 W2       9257     TIP3     OH2      OT      -0.834000       15.9994           0
     27770 W2       9257     TIP3     H1       HT       0.417000       1.00800           0
     27771 W2       9257     TIP3     H2       HT       0.417000       1.00800           0
     27772 W2       9258     TIP3     OH2      OT      -0.834000       15.9994           0
     27773 W2       9258     TIP3     H1       HT       0.417000       1.00800           0
     27774 W2       9258     TIP3     H2       HT       0.417000       1.00800           0
     27775 W2       9259     TIP3     OH2      OT      -0.834000       15.9994           0
     27776 W2       9259     TIP3     H1       HT       0.417000       1.00800           0
     27777 W2       9259     TIP3     H2       HT       0.417000       1.00800           0
     27778 W2       9260     TIP3     OH2      OT      -0.834000       15.9994           0
     27779 W2       9260     TIP3     H1       HT       0.417000       1.00800           0
     27780 W2       9260     TIP3     H2       HT       0.417000       1.00800           0
     27781 W2       9261     TIP3     OH2      OT      -0.834000       15.9994           0
     27782 W2       9261     TIP3     H1       HT       0.417000       1.00800           0
     27783 W2       9261     TIP3     H2       HT       0.417000       1.00800           0
     27784 W2       9262     TIP3     OH2      OT      -0.834000       15.9994           0
     27785 W2       9262     TIP3     H1       HT       0.417000       1.00800           0
     27786 W2       9262     TIP3     H2       HT       0.417000       1.00800           0
     27787 W2       9263     TIP3     OH2      OT      -0.834000       15.9994           0
     27788 W2       9263     TIP3     H1       HT       0.417000       1.00800           0
     27789 W2       9263     TIP3     H2       HT       0.417000       1.00800           0
     27790 W2       9264     TIP3     OH2      OT      -0.834000       15.9994           0
     27791 W2       9264     TIP3     H1       HT       0.417000       1.00800           0
     27792 W2       9264     TIP3     H2       HT       0.417000       1.00800           0
     27793 W2       9265     TIP3     OH2      OT      -0.834000       15.9994           0
     27794 W2       9265     TIP3     H1       HT       0.417000       1.00800           0
     27795 W2       9265     TIP3     H2       HT       0.417000       1.00800           0
     27796 W2       9266     TIP3     OH2      OT      -0.834000       15.9994           0
     27797 W2       9266     TIP3     H1       HT       0.417000       1.00800           0
     27798 W2       9266     TIP3     H2       HT       0.417000       1.00800           0
     27799 W2       9267     TIP3     OH2      OT      -0.834000       15.9994           0
     27800 W2       9267     TIP3     H1       HT       0.417000       1.00800           0
     27801 W2       9267     TIP3     H2       HT       0.417000       1.00800           0
     27802 W2       9268     TIP3     OH2      OT      -0.834000       15.9994           0
     27803 W2       9268     TIP3     H1       HT       0.417000       1.00800           0
     27804 W2       9268     TIP3     H2       HT       0.417000       1.00800           0
     27805 W2       9269     TIP3     OH2      OT      -0.834000       15.9994           0
     27806 W2       9269     TIP3     H1       HT       0.417000       1.00800           0
     27807 W2       9269     TIP3     H2       HT       0.417000       1.00800           0
     27808 W2       9270     TIP3     OH2      OT      -0.834000       15.9994           0
     27809 W2       9270     TIP3     H1       HT       0.417000       1.00800           0
     27810 W2       9270     TIP3     H2       HT       0.417000       1.00800           0
     27811 W2       9271     TIP3     OH2      OT      -0.834000       15.9994           0
     27812 W2       9271     TIP3     H1       HT       0.417000       1.00800           0
     27813 W2       9271     TIP3     H2       HT       0.417000       1.00800           0
     27814 W2       9272     TIP3     OH2      OT      -0.834000       15.9994           0
     27815 W2       9272     TIP3     H1       HT       0.417000       1.00800           0
     27816 W2       9272     TIP3     H2       HT       0.417000       1.00800           0
     27817 W2       9273     TIP3     OH2      OT      -0.834000       15.9994           0
     27818 W2       9273     TIP3     H1       HT       0.417000       1.00800           0
     27819 W2       9273     TIP3     H2       HT       0.417000       1.00800           0
     27820 W2       9274     TIP3     OH2      OT      -0.834000       15.9994           0
     27821 W2       9274     TIP3     H1       HT       0.417000       1.00800           0
     27822 W2       9274     TIP3     H2       HT       0.417000       1.00800           0
     27823 W2       9275     TIP3     OH2      OT      -0.834000       15.9994           0
     27824 W2       9275     TIP3     H1       HT       0.417000       1.00800           0
     27825 W2       9275     TIP3     H2       HT       0.417000       1.00800           0
     27826 W2       9276     TIP3     OH2      OT      -0.834000       15.9994           0
     27827 W2       9276     TIP3     H1       HT       0.417000       1.00800           0
     27828 W2       9276     TIP3     H2       HT       0.417000       1.00800           0
     27829 W2       9277     TIP3     OH2      OT      -0.834000       15.9994           0
     27830 W2       9277     TIP3     H1       HT       0.417000       1.00800           0
     27831 W2       9277     TIP3     H2       HT       0.417000       1.00800           0
     27832 W2       9278     TIP3     OH2      OT      -0.834000       15.9994           0
     27833 W2       9278     TIP3     H1       HT       0.417000       1.00800           0
     27834 W2       9278     TIP3     H2       HT       0.417000       1.00800           0
     27835 W2       9279     TIP3     OH2      OT      -0.834000       15.9994           0
     27836 W2       9279     TIP3     H1       HT       0.417000       1.00800           0
     27837 W2       9279     TIP3     H2       HT       0.417000       1.00800           0
     27838 W2       9280     TIP3     OH2      OT      -0.834000       15.9994           0
     27839 W2       9280     TIP3     H1       HT       0.417000       1.00800           0
     27840 W2       9280     TIP3     H2       HT       0.417000       1.00800           0
     27841 W2       9281     TIP3     OH2      OT      -0.834000       15.9994           0
     27842 W2       9281     TIP3     H1       HT       0.417000       1.00800           0
     27843 W2       9281     TIP3     H2       HT       0.417000       1.00800           0
     27844 W2       9282     TIP3     OH2      OT      -0.834000       15.9994           0
     27845 W2       9282     TIP3     H1       HT       0.417000       1.00800           0
     27846 W2       9282     TIP3     H2       HT       0.417000       1.00800           0
     27847 W2       9283     TIP3     OH2      OT      -0.834000       15.9994           0
     27848 W2       9283     TIP3     H1       HT       0.417000       1.00800           0
     27849 W2       9283     TIP3     H2       HT       0.417000       1.00800           0
     27850 W2       9284     TIP3     OH2      OT      -0.834000       15.9994           0
     27851 W2       9284     TIP3     H1       HT       0.417000       1.00800           0
     27852 W2       9284     TIP3     H2       HT       0.417000       1.00800           0
     27853 W2       9285     TIP3     OH2      OT      -0.834000       15.9994           0
     27854 W2       9285     TIP3     H1       HT       0.417000       1.00800           0
     27855 W2       9285     TIP3     H2       HT       0.417000       1.00800           0
     27856 W2       9286     TIP3     OH2      OT      -0.834000       15.9994           0
     27857 W2       9286     TIP3     H1       HT       0.417000       1.00800           0
     27858 W2       9286     TIP3     H2       HT       0.417000       1.00800           0
     27859 W2       9287     TIP3     OH2      OT      -0.834000       15.9994           0
     27860 W2       9287     TIP3     H1       HT       0.417000       1.00800           0
     27861 W2       9287     TIP3     H2       HT       0.417000       1.00800           0
     27862 W2       9288     TIP3     OH2      OT      -0.834000       15.9994           0
     27863 W2       9288     TIP3     H1       HT       0.417000       1.00800           0
     27864 W2       9288     TIP3     H2       HT       0.417000       1.00800           0
     27865 W2       9289     TIP3     OH2      OT      -0.834000       15.9994           0
     27866 W2       9289     TIP3     H1       HT       0.417000       1.00800           0
     27867 W2       9289     TIP3     H2       HT       0.417000       1.00800           0
     27868 W2       9290     TIP3     OH2      OT      -0.834000       15.9994           0
     27869 W2       9290     TIP3     H1       HT       0.417000       1.00800           0
     27870 W2       9290     TIP3     H2       HT       0.417000       1.00800           0
     27871 W2       9291     TIP3     OH2      OT      -0.834000       15.9994           0
     27872 W2       9291     TIP3     H1       HT       0.417000       1.00800           0
     27873 W2       9291     TIP3     H2       HT       0.417000       1.00800           0
     27874 W2       9292     TIP3     OH2      OT      -0.834000       15.9994           0
     27875 W2       9292     TIP3     H1       HT       0.417000       1.00800           0
     27876 W2       9292     TIP3     H2       HT       0.417000       1.00800           0
     27877 W2       9293     TIP3     OH2      OT      -0.834000       15.9994           0
     27878 W2       9293     TIP3     H1       HT       0.417000       1.00800           0
     27879 W2       9293     TIP3     H2       HT       0.417000       1.00800           0
     27880 W2       9294     TIP3     OH2      OT      -0.834000       15.9994           0
     27881 W2       9294     TIP3     H1       HT       0.417000       1.00800           0
     27882 W2       9294     TIP3     H2       HT       0.417000       1.00800           0
     27883 W2       9295     TIP3     OH2      OT      -0.834000       15.9994           0
     27884 W2       9295     TIP3     H1       HT       0.417000       1.00800           0
     27885 W2       9295     TIP3     H2       HT       0.417000       1.00800           0
     27886 W2       9296     TIP3     OH2      OT      -0.834000       15.9994           0
     27887 W2       9296     TIP3     H1       HT       0.417000       1.00800           0
     27888 W2       9296     TIP3     H2       HT       0.417000       1.00800           0
     27889 W2       9297     TIP3     OH2      OT      -0.834000       15.9994           0
     27890 W2       9297     TIP3     H1       HT       0.417000       1.00800           0
     27891 W2       9297     TIP3     H2       HT       0.417000       1.00800           0
     27892 W2       9298     TIP3     OH2      OT      -0.834000       15.9994           0
     27893 W2       9298     TIP3     H1       HT       0.417000       1.00800           0
     27894 W2       9298     TIP3     H2       HT       0.417000       1.00800           0
     27895 W2       9299     TIP3     OH2      OT      -0.834000       15.9994           0
     27896 W2       9299     TIP3     H1       HT       0.417000       1.00800           0
     27897 W2       9299     TIP3     H2       HT       0.417000       1.00800           0
     27898 W2       9300     TIP3     OH2      OT      -0.834000       15.9994           0
     27899 W2       9300     TIP3     H1       HT       0.417000       1.00800           0
     27900 W2       9300     TIP3     H2       HT       0.417000       1.00800           0
     27901 W2       9301     TIP3     OH2      OT      -0.834000       15.9994           0
     27902 W2       9301     TIP3     H1       HT       0.417000       1.00800           0
     27903 W2       9301     TIP3     H2       HT       0.417000       1.00800           0
     27904 W2       9302     TIP3     OH2      OT      -0.834000       15.9994           0
     27905 W2       9302     TIP3     H1       HT       0.417000       1.00800           0
     27906 W2       9302     TIP3     H2       HT       0.417000       1.00800           0
     27907 W2       9303     TIP3     OH2      OT      -0.834000       15.9994           0
     27908 W2       9303     TIP3     H1       HT       0.417000       1.00800           0
     27909 W2       9303     TIP3     H2       HT       0.417000       1.00800           0
     27910 W2       9304     TIP3     OH2      OT      -0.834000       15.9994           0
     27911 W2       9304     TIP3     H1       HT       0.417000       1.00800           0
     27912 W2       9304     TIP3     H2       HT       0.417000       1.00800           0
     27913 W2       9305     TIP3     OH2      OT      -0.834000       15.9994           0
     27914 W2       9305     TIP3     H1       HT       0.417000       1.00800           0
     27915 W2       9305     TIP3     H2       HT       0.417000       1.00800           0
     27916 W2       9306     TIP3     OH2      OT      -0.834000       15.9994           0
     27917 W2       9306     TIP3     H1       HT       0.417000       1.00800           0
     27918 W2       9306     TIP3     H2       HT       0.417000       1.00800           0
     27919 W2       9307     TIP3     OH2      OT      -0.834000       15.9994           0
     27920 W2       9307     TIP3     H1       HT       0.417000       1.00800           0
     27921 W2       9307     TIP3     H2       HT       0.417000       1.00800           0
     27922 W2       9308     TIP3     OH2      OT      -0.834000       15.9994           0
     27923 W2       9308     TIP3     H1       HT       0.417000       1.00800           0
     27924 W2       9308     TIP3     H2       HT       0.417000       1.00800           0
     27925 W2       9309     TIP3     OH2      OT      -0.834000       15.9994           0
     27926 W2       9309     TIP3     H1       HT       0.417000       1.00800           0
     27927 W2       9309     TIP3     H2       HT       0.417000       1.00800           0
     27928 W2       9310     TIP3     OH2      OT      -0.834000       15.9994           0
     27929 W2       9310     TIP3     H1       HT       0.417000       1.00800           0
     27930 W2       9310     TIP3     H2       HT       0.417000       1.00800           0
     27931 W2       9311     TIP3     OH2      OT      -0.834000       15.9994           0
     27932 W2       9311     TIP3     H1       HT       0.417000       1.00800           0
     27933 W2       9311     TIP3     H2       HT       0.417000       1.00800           0
     27934 W2       9312     TIP3     OH2      OT      -0.834000       15.9994           0
     27935 W2       9312     TIP3     H1       HT       0.417000       1.00800           0
     27936 W2       9312     TIP3     H2       HT       0.417000       1.00800           0
     27937 W2       9313     TIP3     OH2      OT      -0.834000       15.9994           0
     27938 W2       9313     TIP3     H1       HT       0.417000       1.00800           0
     27939 W2       9313     TIP3     H2       HT       0.417000       1.00800           0
     27940 W2       9314     TIP3     OH2      OT      -0.834000       15.9994           0
     27941 W2       9314     TIP3     H1       HT       0.417000       1.00800           0
     27942 W2       9314     TIP3     H2       HT       0.417000       1.00800           0
     27943 W2       9315     TIP3     OH2      OT      -0.834000       15.9994           0
     27944 W2       9315     TIP3     H1       HT       0.417000       1.00800           0
     27945 W2       9315     TIP3     H2       HT       0.417000       1.00800           0
     27946 W2       9316     TIP3     OH2      OT      -0.834000       15.9994           0
     27947 W2       9316     TIP3     H1       HT       0.417000       1.00800           0
     27948 W2       9316     TIP3     H2       HT       0.417000       1.00800           0
     27949 W2       9317     TIP3     OH2      OT      -0.834000       15.9994           0
     27950 W2       9317     TIP3     H1       HT       0.417000       1.00800           0
     27951 W2       9317     TIP3     H2       HT       0.417000       1.00800           0
     27952 W2       9318     TIP3     OH2      OT      -0.834000       15.9994           0
     27953 W2       9318     TIP3     H1       HT       0.417000       1.00800           0
     27954 W2       9318     TIP3     H2       HT       0.417000       1.00800           0
     27955 W2       9319     TIP3     OH2      OT      -0.834000       15.9994           0
     27956 W2       9319     TIP3     H1       HT       0.417000       1.00800           0
     27957 W2       9319     TIP3     H2       HT       0.417000       1.00800           0
     27958 W2       9320     TIP3     OH2      OT      -0.834000       15.9994           0
     27959 W2       9320     TIP3     H1       HT       0.417000       1.00800           0
     27960 W2       9320     TIP3     H2       HT       0.417000       1.00800           0
     27961 W2       9321     TIP3     OH2      OT      -0.834000       15.9994           0
     27962 W2       9321     TIP3     H1       HT       0.417000       1.00800           0
     27963 W2       9321     TIP3     H2       HT       0.417000       1.00800           0
     27964 W2       9322     TIP3     OH2      OT      -0.834000       15.9994           0
     27965 W2       9322     TIP3     H1       HT       0.417000       1.00800           0
     27966 W2       9322     TIP3     H2       HT       0.417000       1.00800           0
     27967 W2       9323     TIP3     OH2      OT      -0.834000       15.9994           0
     27968 W2       9323     TIP3     H1       HT       0.417000       1.00800           0
     27969 W2       9323     TIP3     H2       HT       0.417000       1.00800           0
     27970 W2       9324     TIP3     OH2      OT      -0.834000       15.9994           0
     27971 W2       9324     TIP3     H1       HT       0.417000       1.00800           0
     27972 W2       9324     TIP3     H2       HT       0.417000       1.00800           0
     27973 W2       9325     TIP3     OH2      OT      -0.834000       15.9994           0
     27974 W2       9325     TIP3     H1       HT       0.417000       1.00800           0
     27975 W2       9325     TIP3     H2       HT       0.417000       1.00800           0
     27976 W2       9326     TIP3     OH2      OT      -0.834000       15.9994           0
     27977 W2       9326     TIP3     H1       HT       0.417000       1.00800           0
     27978 W2       9326     TIP3     H2       HT       0.417000       1.00800           0
     27979 W2       9327     TIP3     OH2      OT      -0.834000       15.9994           0
     27980 W2       9327     TIP3     H1       HT       0.417000       1.00800           0
     27981 W2       9327     TIP3     H2       HT       0.417000       1.00800           0
     27982 W2       9328     TIP3     OH2      OT      -0.834000       15.9994           0
     27983 W2       9328     TIP3     H1       HT       0.417000       1.00800           0
     27984 W2       9328     TIP3     H2       HT       0.417000       1.00800           0
     27985 W2       9329     TIP3     OH2      OT      -0.834000       15.9994           0
     27986 W2       9329     TIP3     H1       HT       0.417000       1.00800           0
     27987 W2       9329     TIP3     H2       HT       0.417000       1.00800           0
     27988 W2       9330     TIP3     OH2      OT      -0.834000       15.9994           0
     27989 W2       9330     TIP3     H1       HT       0.417000       1.00800           0
     27990 W2       9330     TIP3     H2       HT       0.417000       1.00800           0
     27991 W2       9331     TIP3     OH2      OT      -0.834000       15.9994           0
     27992 W2       9331     TIP3     H1       HT       0.417000       1.00800           0
     27993 W2       9331     TIP3     H2       HT       0.417000       1.00800           0
     27994 W2       9332     TIP3     OH2      OT      -0.834000       15.9994           0
     27995 W2       9332     TIP3     H1       HT       0.417000       1.00800           0
     27996 W2       9332     TIP3     H2       HT       0.417000       1.00800           0
     27997 W2       9333     TIP3     OH2      OT      -0.834000       15.9994           0
     27998 W2       9333     TIP3     H1       HT       0.417000       1.00800           0
     27999 W2       9333     TIP3     H2       HT       0.417000       1.00800           0
     28000 W2       9334     TIP3     OH2      OT      -0.834000       15.9994           0
     28001 W2       9334     TIP3     H1       HT       0.417000       1.00800           0
     28002 W2       9334     TIP3     H2       HT       0.417000       1.00800           0
     28003 W2       9335     TIP3     OH2      OT      -0.834000       15.9994           0
     28004 W2       9335     TIP3     H1       HT       0.417000       1.00800           0
     28005 W2       9335     TIP3     H2       HT       0.417000       1.00800           0
     28006 W2       9336     TIP3     OH2      OT      -0.834000       15.9994           0
     28007 W2       9336     TIP3     H1       HT       0.417000       1.00800           0
     28008 W2       9336     TIP3     H2       HT       0.417000       1.00800           0
     28009 W2       9337     TIP3     OH2      OT      -0.834000       15.9994           0
     28010 W2       9337     TIP3     H1       HT       0.417000       1.00800           0
     28011 W2       9337     TIP3     H2       HT       0.417000       1.00800           0
     28012 W2       9338     TIP3     OH2      OT      -0.834000       15.9994           0
     28013 W2       9338     TIP3     H1       HT       0.417000       1.00800           0
     28014 W2       9338     TIP3     H2       HT       0.417000       1.00800           0
     28015 W2       9339     TIP3     OH2      OT      -0.834000       15.9994           0
     28016 W2       9339     TIP3     H1       HT       0.417000       1.00800           0
     28017 W2       9339     TIP3     H2       HT       0.417000       1.00800           0
     28018 W2       9340     TIP3     OH2      OT      -0.834000       15.9994           0
     28019 W2       9340     TIP3     H1       HT       0.417000       1.00800           0
     28020 W2       9340     TIP3     H2       HT       0.417000       1.00800           0
     28021 W2       9341     TIP3     OH2      OT      -0.834000       15.9994           0
     28022 W2       9341     TIP3     H1       HT       0.417000       1.00800           0
     28023 W2       9341     TIP3     H2       HT       0.417000       1.00800           0
     28024 W2       9342     TIP3     OH2      OT      -0.834000       15.9994           0
     28025 W2       9342     TIP3     H1       HT       0.417000       1.00800           0
     28026 W2       9342     TIP3     H2       HT       0.417000       1.00800           0
     28027 W2       9343     TIP3     OH2      OT      -0.834000       15.9994           0
     28028 W2       9343     TIP3     H1       HT       0.417000       1.00800           0
     28029 W2       9343     TIP3     H2       HT       0.417000       1.00800           0
     28030 W2       9344     TIP3     OH2      OT      -0.834000       15.9994           0
     28031 W2       9344     TIP3     H1       HT       0.417000       1.00800           0
     28032 W2       9344     TIP3     H2       HT       0.417000       1.00800           0
     28033 W2       9345     TIP3     OH2      OT      -0.834000       15.9994           0
     28034 W2       9345     TIP3     H1       HT       0.417000       1.00800           0
     28035 W2       9345     TIP3     H2       HT       0.417000       1.00800           0
     28036 W2       9346     TIP3     OH2      OT      -0.834000       15.9994           0
     28037 W2       9346     TIP3     H1       HT       0.417000       1.00800           0
     28038 W2       9346     TIP3     H2       HT       0.417000       1.00800           0
     28039 W2       9347     TIP3     OH2      OT      -0.834000       15.9994           0
     28040 W2       9347     TIP3     H1       HT       0.417000       1.00800           0
     28041 W2       9347     TIP3     H2       HT       0.417000       1.00800           0
     28042 W2       9348     TIP3     OH2      OT      -0.834000       15.9994           0
     28043 W2       9348     TIP3     H1       HT       0.417000       1.00800           0
     28044 W2       9348     TIP3     H2       HT       0.417000       1.00800           0
     28045 W2       9349     TIP3     OH2      OT      -0.834000       15.9994           0
     28046 W2       9349     TIP3     H1       HT       0.417000       1.00800           0
     28047 W2       9349     TIP3     H2       HT       0.417000       1.00800           0
     28048 W2       9350     TIP3     OH2      OT      -0.834000       15.9994           0
     28049 W2       9350     TIP3     H1       HT       0.417000       1.00800           0
     28050 W2       9350     TIP3     H2       HT       0.417000       1.00800           0
     28051 W2       9351     TIP3     OH2      OT      -0.834000       15.9994           0
     28052 W2       9351     TIP3     H1       HT       0.417000       1.00800           0
     28053 W2       9351     TIP3     H2       HT       0.417000       1.00800           0
     28054 W2       9352     TIP3     OH2      OT      -0.834000       15.9994           0
     28055 W2       9352     TIP3     H1       HT       0.417000       1.00800           0
     28056 W2       9352     TIP3     H2       HT       0.417000       1.00800           0
     28057 W2       9353     TIP3     OH2      OT      -0.834000       15.9994           0
     28058 W2       9353     TIP3     H1       HT       0.417000       1.00800           0
     28059 W2       9353     TIP3     H2       HT       0.417000       1.00800           0
     28060 W2       9354     TIP3     OH2      OT      -0.834000       15.9994           0
     28061 W2       9354     TIP3     H1       HT       0.417000       1.00800           0
     28062 W2       9354     TIP3     H2       HT       0.417000       1.00800           0
     28063 W2       9355     TIP3     OH2      OT      -0.834000       15.9994           0
     28064 W2       9355     TIP3     H1       HT       0.417000       1.00800           0
     28065 W2       9355     TIP3     H2       HT       0.417000       1.00800           0
     28066 W2       9356     TIP3     OH2      OT      -0.834000       15.9994           0
     28067 W2       9356     TIP3     H1       HT       0.417000       1.00800           0
     28068 W2       9356     TIP3     H2       HT       0.417000       1.00800           0
     28069 W2       9357     TIP3     OH2      OT      -0.834000       15.9994           0
     28070 W2       9357     TIP3     H1       HT       0.417000       1.00800           0
     28071 W2       9357     TIP3     H2       HT       0.417000       1.00800           0
     28072 W2       9358     TIP3     OH2      OT      -0.834000       15.9994           0
     28073 W2       9358     TIP3     H1       HT       0.417000       1.00800           0
     28074 W2       9358     TIP3     H2       HT       0.417000       1.00800           0
     28075 W2       9359     TIP3     OH2      OT      -0.834000       15.9994           0
     28076 W2       9359     TIP3     H1       HT       0.417000       1.00800           0
     28077 W2       9359     TIP3     H2       HT       0.417000       1.00800           0
     28078 W2       9360     TIP3     OH2      OT      -0.834000       15.9994           0
     28079 W2       9360     TIP3     H1       HT       0.417000       1.00800           0
     28080 W2       9360     TIP3     H2       HT       0.417000       1.00800           0
     28081 W2       9361     TIP3     OH2      OT      -0.834000       15.9994           0
     28082 W2       9361     TIP3     H1       HT       0.417000       1.00800           0
     28083 W2       9361     TIP3     H2       HT       0.417000       1.00800           0
     28084 W2       9362     TIP3     OH2      OT      -0.834000       15.9994           0
     28085 W2       9362     TIP3     H1       HT       0.417000       1.00800           0
     28086 W2       9362     TIP3     H2       HT       0.417000       1.00800           0
     28087 W2       9363     TIP3     OH2      OT      -0.834000       15.9994           0
     28088 W2       9363     TIP3     H1       HT       0.417000       1.00800           0
     28089 W2       9363     TIP3     H2       HT       0.417000       1.00800           0
     28090 W2       9364     TIP3     OH2      OT      -0.834000       15.9994           0
     28091 W2       9364     TIP3     H1       HT       0.417000       1.00800           0
     28092 W2       9364     TIP3     H2       HT       0.417000       1.00800           0
     28093 W2       9365     TIP3     OH2      OT      -0.834000       15.9994           0
     28094 W2       9365     TIP3     H1       HT       0.417000       1.00800           0
     28095 W2       9365     TIP3     H2       HT       0.417000       1.00800           0
     28096 W2       9366     TIP3     OH2      OT      -0.834000       15.9994           0
     28097 W2       9366     TIP3     H1       HT       0.417000       1.00800           0
     28098 W2       9366     TIP3     H2       HT       0.417000       1.00800           0
     28099 W2       9367     TIP3     OH2      OT      -0.834000       15.9994           0
     28100 W2       9367     TIP3     H1       HT       0.417000       1.00800           0
     28101 W2       9367     TIP3     H2       HT       0.417000       1.00800           0
     28102 W2       9368     TIP3     OH2      OT      -0.834000       15.9994           0
     28103 W2       9368     TIP3     H1       HT       0.417000       1.00800           0
     28104 W2       9368     TIP3     H2       HT       0.417000       1.00800           0
     28105 W2       9369     TIP3     OH2      OT      -0.834000       15.9994           0
     28106 W2       9369     TIP3     H1       HT       0.417000       1.00800           0
     28107 W2       9369     TIP3     H2       HT       0.417000       1.00800           0
     28108 W2       9370     TIP3     OH2      OT      -0.834000       15.9994           0
     28109 W2       9370     TIP3     H1       HT       0.417000       1.00800           0
     28110 W2       9370     TIP3     H2       HT       0.417000       1.00800           0
     28111 W2       9371     TIP3     OH2      OT      -0.834000       15.9994           0
     28112 W2       9371     TIP3     H1       HT       0.417000       1.00800           0
     28113 W2       9371     TIP3     H2       HT       0.417000       1.00800           0
     28114 W2       9372     TIP3     OH2      OT      -0.834000       15.9994           0
     28115 W2       9372     TIP3     H1       HT       0.417000       1.00800           0
     28116 W2       9372     TIP3     H2       HT       0.417000       1.00800           0
     28117 W2       9373     TIP3     OH2      OT      -0.834000       15.9994           0
     28118 W2       9373     TIP3     H1       HT       0.417000       1.00800           0
     28119 W2       9373     TIP3     H2       HT       0.417000       1.00800           0
     28120 W2       9374     TIP3     OH2      OT      -0.834000       15.9994           0
     28121 W2       9374     TIP3     H1       HT       0.417000       1.00800           0
     28122 W2       9374     TIP3     H2       HT       0.417000       1.00800           0
     28123 W2       9375     TIP3     OH2      OT      -0.834000       15.9994           0
     28124 W2       9375     TIP3     H1       HT       0.417000       1.00800           0
     28125 W2       9375     TIP3     H2       HT       0.417000       1.00800           0
     28126 W2       9376     TIP3     OH2      OT      -0.834000       15.9994           0
     28127 W2       9376     TIP3     H1       HT       0.417000       1.00800           0
     28128 W2       9376     TIP3     H2       HT       0.417000       1.00800           0
     28129 W2       9377     TIP3     OH2      OT      -0.834000       15.9994           0
     28130 W2       9377     TIP3     H1       HT       0.417000       1.00800           0
     28131 W2       9377     TIP3     H2       HT       0.417000       1.00800           0
     28132 W2       9378     TIP3     OH2      OT      -0.834000       15.9994           0
     28133 W2       9378     TIP3     H1       HT       0.417000       1.00800           0
     28134 W2       9378     TIP3     H2       HT       0.417000       1.00800           0
     28135 W2       9379     TIP3     OH2      OT      -0.834000       15.9994           0
     28136 W2       9379     TIP3     H1       HT       0.417000       1.00800           0
     28137 W2       9379     TIP3     H2       HT       0.417000       1.00800           0
     28138 W2       9380     TIP3     OH2      OT      -0.834000       15.9994           0
     28139 W2       9380     TIP3     H1       HT       0.417000       1.00800           0
     28140 W2       9380     TIP3     H2       HT       0.417000       1.00800           0
     28141 W2       9381     TIP3     OH2      OT      -0.834000       15.9994           0
     28142 W2       9381     TIP3     H1       HT       0.417000       1.00800           0
     28143 W2       9381     TIP3     H2       HT       0.417000       1.00800           0
     28144 W2       9382     TIP3     OH2      OT      -0.834000       15.9994           0
     28145 W2       9382     TIP3     H1       HT       0.417000       1.00800           0
     28146 W2       9382     TIP3     H2       HT       0.417000       1.00800           0
     28147 W2       9383     TIP3     OH2      OT      -0.834000       15.9994           0
     28148 W2       9383     TIP3     H1       HT       0.417000       1.00800           0
     28149 W2       9383     TIP3     H2       HT       0.417000       1.00800           0
     28150 W2       9384     TIP3     OH2      OT      -0.834000       15.9994           0
     28151 W2       9384     TIP3     H1       HT       0.417000       1.00800           0
     28152 W2       9384     TIP3     H2       HT       0.417000       1.00800           0
     28153 W2       9385     TIP3     OH2      OT      -0.834000       15.9994           0
     28154 W2       9385     TIP3     H1       HT       0.417000       1.00800           0
     28155 W2       9385     TIP3     H2       HT       0.417000       1.00800           0
     28156 W2       9386     TIP3     OH2      OT      -0.834000       15.9994           0
     28157 W2       9386     TIP3     H1       HT       0.417000       1.00800           0
     28158 W2       9386     TIP3     H2       HT       0.417000       1.00800           0
     28159 W2       9387     TIP3     OH2      OT      -0.834000       15.9994           0
     28160 W2       9387     TIP3     H1       HT       0.417000       1.00800           0
     28161 W2       9387     TIP3     H2       HT       0.417000       1.00800           0
     28162 W2       9388     TIP3     OH2      OT      -0.834000       15.9994           0
     28163 W2       9388     TIP3     H1       HT       0.417000       1.00800           0
     28164 W2       9388     TIP3     H2       HT       0.417000       1.00800           0
     28165 W2       9389     TIP3     OH2      OT      -0.834000       15.9994           0
     28166 W2       9389     TIP3     H1       HT       0.417000       1.00800           0
     28167 W2       9389     TIP3     H2       HT       0.417000       1.00800           0
     28168 W2       9390     TIP3     OH2      OT      -0.834000       15.9994           0
     28169 W2       9390     TIP3     H1       HT       0.417000       1.00800           0
     28170 W2       9390     TIP3     H2       HT       0.417000       1.00800           0
     28171 W2       9391     TIP3     OH2      OT      -0.834000       15.9994           0
     28172 W2       9391     TIP3     H1       HT       0.417000       1.00800           0
     28173 W2       9391     TIP3     H2       HT       0.417000       1.00800           0
     28174 W2       9392     TIP3     OH2      OT      -0.834000       15.9994           0
     28175 W2       9392     TIP3     H1       HT       0.417000       1.00800           0
     28176 W2       9392     TIP3     H2       HT       0.417000       1.00800           0
     28177 W2       9393     TIP3     OH2      OT      -0.834000       15.9994           0
     28178 W2       9393     TIP3     H1       HT       0.417000       1.00800           0
     28179 W2       9393     TIP3     H2       HT       0.417000       1.00800           0
     28180 W2       9394     TIP3     OH2      OT      -0.834000       15.9994           0
     28181 W2       9394     TIP3     H1       HT       0.417000       1.00800           0
     28182 W2       9394     TIP3     H2       HT       0.417000       1.00800           0
     28183 W2       9395     TIP3     OH2      OT      -0.834000       15.9994           0
     28184 W2       9395     TIP3     H1       HT       0.417000       1.00800           0
     28185 W2       9395     TIP3     H2       HT       0.417000       1.00800           0
     28186 W2       9396     TIP3     OH2      OT      -0.834000       15.9994           0
     28187 W2       9396     TIP3     H1       HT       0.417000       1.00800           0
     28188 W2       9396     TIP3     H2       HT       0.417000       1.00800           0
     28189 W2       9397     TIP3     OH2      OT      -0.834000       15.9994           0
     28190 W2       9397     TIP3     H1       HT       0.417000       1.00800           0
     28191 W2       9397     TIP3     H2       HT       0.417000       1.00800           0
     28192 W2       9398     TIP3     OH2      OT      -0.834000       15.9994           0
     28193 W2       9398     TIP3     H1       HT       0.417000       1.00800           0
     28194 W2       9398     TIP3     H2       HT       0.417000       1.00800           0
     28195 W2       9399     TIP3     OH2      OT      -0.834000       15.9994           0
     28196 W2       9399     TIP3     H1       HT       0.417000       1.00800           0
     28197 W2       9399     TIP3     H2       HT       0.417000       1.00800           0
     28198 W2       9400     TIP3     OH2      OT      -0.834000       15.9994           0
     28199 W2       9400     TIP3     H1       HT       0.417000       1.00800           0
     28200 W2       9400     TIP3     H2       HT       0.417000       1.00800           0
     28201 W2       9401     TIP3     OH2      OT      -0.834000       15.9994           0
     28202 W2       9401     TIP3     H1       HT       0.417000       1.00800           0
     28203 W2       9401     TIP3     H2       HT       0.417000       1.00800           0
     28204 W2       9402     TIP3     OH2      OT      -0.834000       15.9994           0
     28205 W2       9402     TIP3     H1       HT       0.417000       1.00800           0
     28206 W2       9402     TIP3     H2       HT       0.417000       1.00800           0
     28207 W2       9403     TIP3     OH2      OT      -0.834000       15.9994           0
     28208 W2       9403     TIP3     H1       HT       0.417000       1.00800           0
     28209 W2       9403     TIP3     H2       HT       0.417000       1.00800           0
     28210 W2       9404     TIP3     OH2      OT      -0.834000       15.9994           0
     28211 W2       9404     TIP3     H1       HT       0.417000       1.00800           0
     28212 W2       9404     TIP3     H2       HT       0.417000       1.00800           0
     28213 W2       9405     TIP3     OH2      OT      -0.834000       15.9994           0
     28214 W2       9405     TIP3     H1       HT       0.417000       1.00800           0
     28215 W2       9405     TIP3     H2       HT       0.417000       1.00800           0
     28216 W2       9406     TIP3     OH2      OT      -0.834000       15.9994           0
     28217 W2       9406     TIP3     H1       HT       0.417000       1.00800           0
     28218 W2       9406     TIP3     H2       HT       0.417000       1.00800           0
     28219 W2       9407     TIP3     OH2      OT      -0.834000       15.9994           0
     28220 W2       9407     TIP3     H1       HT       0.417000       1.00800           0
     28221 W2       9407     TIP3     H2       HT       0.417000       1.00800           0
     28222 W2       9408     TIP3     OH2      OT      -0.834000       15.9994           0
     28223 W2       9408     TIP3     H1       HT       0.417000       1.00800           0
     28224 W2       9408     TIP3     H2       HT       0.417000       1.00800           0
     28225 W2       9409     TIP3     OH2      OT      -0.834000       15.9994           0
     28226 W2       9409     TIP3     H1       HT       0.417000       1.00800           0
     28227 W2       9409     TIP3     H2       HT       0.417000       1.00800           0
     28228 W2       9410     TIP3     OH2      OT      -0.834000       15.9994           0
     28229 W2       9410     TIP3     H1       HT       0.417000       1.00800           0
     28230 W2       9410     TIP3     H2       HT       0.417000       1.00800           0
     28231 W2       9411     TIP3     OH2      OT      -0.834000       15.9994           0
     28232 W2       9411     TIP3     H1       HT       0.417000       1.00800           0
     28233 W2       9411     TIP3     H2       HT       0.417000       1.00800           0
     28234 W2       9412     TIP3     OH2      OT      -0.834000       15.9994           0
     28235 W2       9412     TIP3     H1       HT       0.417000       1.00800           0
     28236 W2       9412     TIP3     H2       HT       0.417000       1.00800           0
     28237 W2       9413     TIP3     OH2      OT      -0.834000       15.9994           0
     28238 W2       9413     TIP3     H1       HT       0.417000       1.00800           0
     28239 W2       9413     TIP3     H2       HT       0.417000       1.00800           0
     28240 W2       9414     TIP3     OH2      OT      -0.834000       15.9994           0
     28241 W2       9414     TIP3     H1       HT       0.417000       1.00800           0
     28242 W2       9414     TIP3     H2       HT       0.417000       1.00800           0
     28243 W2       9415     TIP3     OH2      OT      -0.834000       15.9994           0
     28244 W2       9415     TIP3     H1       HT       0.417000       1.00800           0
     28245 W2       9415     TIP3     H2       HT       0.417000       1.00800           0
     28246 W2       9416     TIP3     OH2      OT      -0.834000       15.9994           0
     28247 W2       9416     TIP3     H1       HT       0.417000       1.00800           0
     28248 W2       9416     TIP3     H2       HT       0.417000       1.00800           0
     28249 W2       9417     TIP3     OH2      OT      -0.834000       15.9994           0
     28250 W2       9417     TIP3     H1       HT       0.417000       1.00800           0
     28251 W2       9417     TIP3     H2       HT       0.417000       1.00800           0
     28252 W2       9418     TIP3     OH2      OT      -0.834000       15.9994           0
     28253 W2       9418     TIP3     H1       HT       0.417000       1.00800           0
     28254 W2       9418     TIP3     H2       HT       0.417000       1.00800           0
     28255 W2       9419     TIP3     OH2      OT      -0.834000       15.9994           0
     28256 W2       9419     TIP3     H1       HT       0.417000       1.00800           0
     28257 W2       9419     TIP3     H2       HT       0.417000       1.00800           0
     28258 W2       9420     TIP3     OH2      OT      -0.834000       15.9994           0
     28259 W2       9420     TIP3     H1       HT       0.417000       1.00800           0
     28260 W2       9420     TIP3     H2       HT       0.417000       1.00800           0
     28261 W2       9421     TIP3     OH2      OT      -0.834000       15.9994           0
     28262 W2       9421     TIP3     H1       HT       0.417000       1.00800           0
     28263 W2       9421     TIP3     H2       HT       0.417000       1.00800           0
     28264 W2       9422     TIP3     OH2      OT      -0.834000       15.9994           0
     28265 W2       9422     TIP3     H1       HT       0.417000       1.00800           0
     28266 W2       9422     TIP3     H2       HT       0.417000       1.00800           0
     28267 W2       9423     TIP3     OH2      OT      -0.834000       15.9994           0
     28268 W2       9423     TIP3     H1       HT       0.417000       1.00800           0
     28269 W2       9423     TIP3     H2       HT       0.417000       1.00800           0
     28270 W2       9424     TIP3     OH2      OT      -0.834000       15.9994           0
     28271 W2       9424     TIP3     H1       HT       0.417000       1.00800           0
     28272 W2       9424     TIP3     H2       HT       0.417000       1.00800           0
     28273 W2       9425     TIP3     OH2      OT      -0.834000       15.9994           0
     28274 W2       9425     TIP3     H1       HT       0.417000       1.00800           0
     28275 W2       9425     TIP3     H2       HT       0.417000       1.00800           0
     28276 W2       9426     TIP3     OH2      OT      -0.834000       15.9994           0
     28277 W2       9426     TIP3     H1       HT       0.417000       1.00800           0
     28278 W2       9426     TIP3     H2       HT       0.417000       1.00800           0
     28279 W2       9427     TIP3     OH2      OT      -0.834000       15.9994           0
     28280 W2       9427     TIP3     H1       HT       0.417000       1.00800           0
     28281 W2       9427     TIP3     H2       HT       0.417000       1.00800           0
     28282 W2       9428     TIP3     OH2      OT      -0.834000       15.9994           0
     28283 W2       9428     TIP3     H1       HT       0.417000       1.00800           0
     28284 W2       9428     TIP3     H2       HT       0.417000       1.00800           0
     28285 W2       9429     TIP3     OH2      OT      -0.834000       15.9994           0
     28286 W2       9429     TIP3     H1       HT       0.417000       1.00800           0
     28287 W2       9429     TIP3     H2       HT       0.417000       1.00800           0
     28288 W2       9430     TIP3     OH2      OT      -0.834000       15.9994           0
     28289 W2       9430     TIP3     H1       HT       0.417000       1.00800           0
     28290 W2       9430     TIP3     H2       HT       0.417000       1.00800           0
     28291 W2       9431     TIP3     OH2      OT      -0.834000       15.9994           0
     28292 W2       9431     TIP3     H1       HT       0.417000       1.00800           0
     28293 W2       9431     TIP3     H2       HT       0.417000       1.00800           0
     28294 W2       9432     TIP3     OH2      OT      -0.834000       15.9994           0
     28295 W2       9432     TIP3     H1       HT       0.417000       1.00800           0
     28296 W2       9432     TIP3     H2       HT       0.417000       1.00800           0
     28297 W2       9433     TIP3     OH2      OT      -0.834000       15.9994           0
     28298 W2       9433     TIP3     H1       HT       0.417000       1.00800           0
     28299 W2       9433     TIP3     H2       HT       0.417000       1.00800           0
     28300 W2       9434     TIP3     OH2      OT      -0.834000       15.9994           0
     28301 W2       9434     TIP3     H1       HT       0.417000       1.00800           0
     28302 W2       9434     TIP3     H2       HT       0.417000       1.00800           0
     28303 W2       9435     TIP3     OH2      OT      -0.834000       15.9994           0
     28304 W2       9435     TIP3     H1       HT       0.417000       1.00800           0
     28305 W2       9435     TIP3     H2       HT       0.417000       1.00800           0
     28306 W2       9436     TIP3     OH2      OT      -0.834000       15.9994           0
     28307 W2       9436     TIP3     H1       HT       0.417000       1.00800           0
     28308 W2       9436     TIP3     H2       HT       0.417000       1.00800           0
     28309 W2       9437     TIP3     OH2      OT      -0.834000       15.9994           0
     28310 W2       9437     TIP3     H1       HT       0.417000       1.00800           0
     28311 W2       9437     TIP3     H2       HT       0.417000       1.00800           0
     28312 W2       9438     TIP3     OH2      OT      -0.834000       15.9994           0
     28313 W2       9438     TIP3     H1       HT       0.417000       1.00800           0
     28314 W2       9438     TIP3     H2       HT       0.417000       1.00800           0
     28315 W2       9439     TIP3     OH2      OT      -0.834000       15.9994           0
     28316 W2       9439     TIP3     H1       HT       0.417000       1.00800           0
     28317 W2       9439     TIP3     H2       HT       0.417000       1.00800           0
     28318 W2       9440     TIP3     OH2      OT      -0.834000       15.9994           0
     28319 W2       9440     TIP3     H1       HT       0.417000       1.00800           0
     28320 W2       9440     TIP3     H2       HT       0.417000       1.00800           0
     28321 W2       9441     TIP3     OH2      OT      -0.834000       15.9994           0
     28322 W2       9441     TIP3     H1       HT       0.417000       1.00800           0
     28323 W2       9441     TIP3     H2       HT       0.417000       1.00800           0
     28324 W2       9442     TIP3     OH2      OT      -0.834000       15.9994           0
     28325 W2       9442     TIP3     H1       HT       0.417000       1.00800           0
     28326 W2       9442     TIP3     H2       HT       0.417000       1.00800           0
     28327 W2       9443     TIP3     OH2      OT      -0.834000       15.9994           0
     28328 W2       9443     TIP3     H1       HT       0.417000       1.00800           0
     28329 W2       9443     TIP3     H2       HT       0.417000       1.00800           0
     28330 W2       9444     TIP3     OH2      OT      -0.834000       15.9994           0
     28331 W2       9444     TIP3     H1       HT       0.417000       1.00800           0
     28332 W2       9444     TIP3     H2       HT       0.417000       1.00800           0
     28333 W2       9445     TIP3     OH2      OT      -0.834000       15.9994           0
     28334 W2       9445     TIP3     H1       HT       0.417000       1.00800           0
     28335 W2       9445     TIP3     H2       HT       0.417000       1.00800           0
     28336 W2       9446     TIP3     OH2      OT      -0.834000       15.9994           0
     28337 W2       9446     TIP3     H1       HT       0.417000       1.00800           0
     28338 W2       9446     TIP3     H2       HT       0.417000       1.00800           0
     28339 W2       9447     TIP3     OH2      OT      -0.834000       15.9994           0
     28340 W2       9447     TIP3     H1       HT       0.417000       1.00800           0
     28341 W2       9447     TIP3     H2       HT       0.417000       1.00800           0
     28342 W2       9448     TIP3     OH2      OT      -0.834000       15.9994           0
     28343 W2       9448     TIP3     H1       HT       0.417000       1.00800           0
     28344 W2       9448     TIP3     H2       HT       0.417000       1.00800           0
     28345 W2       9449     TIP3     OH2      OT      -0.834000       15.9994           0
     28346 W2       9449     TIP3     H1       HT       0.417000       1.00800           0
     28347 W2       9449     TIP3     H2       HT       0.417000       1.00800           0
     28348 W2       9450     TIP3     OH2      OT      -0.834000       15.9994           0
     28349 W2       9450     TIP3     H1       HT       0.417000       1.00800           0
     28350 W2       9450     TIP3     H2       HT       0.417000       1.00800           0
     28351 W2       9451     TIP3     OH2      OT      -0.834000       15.9994           0
     28352 W2       9451     TIP3     H1       HT       0.417000       1.00800           0
     28353 W2       9451     TIP3     H2       HT       0.417000       1.00800           0
     28354 W2       9452     TIP3     OH2      OT      -0.834000       15.9994           0
     28355 W2       9452     TIP3     H1       HT       0.417000       1.00800           0
     28356 W2       9452     TIP3     H2       HT       0.417000       1.00800           0
     28357 W2       9453     TIP3     OH2      OT      -0.834000       15.9994           0
     28358 W2       9453     TIP3     H1       HT       0.417000       1.00800           0
     28359 W2       9453     TIP3     H2       HT       0.417000       1.00800           0
     28360 W2       9454     TIP3     OH2      OT      -0.834000       15.9994           0
     28361 W2       9454     TIP3     H1       HT       0.417000       1.00800           0
     28362 W2       9454     TIP3     H2       HT       0.417000       1.00800           0
     28363 W2       9455     TIP3     OH2      OT      -0.834000       15.9994           0
     28364 W2       9455     TIP3     H1       HT       0.417000       1.00800           0
     28365 W2       9455     TIP3     H2       HT       0.417000       1.00800           0
     28366 W2       9456     TIP3     OH2      OT      -0.834000       15.9994           0
     28367 W2       9456     TIP3     H1       HT       0.417000       1.00800           0
     28368 W2       9456     TIP3     H2       HT       0.417000       1.00800           0
     28369 W2       9457     TIP3     OH2      OT      -0.834000       15.9994           0
     28370 W2       9457     TIP3     H1       HT       0.417000       1.00800           0
     28371 W2       9457     TIP3     H2       HT       0.417000       1.00800           0
     28372 W2       9458     TIP3     OH2      OT      -0.834000       15.9994           0
     28373 W2       9458     TIP3     H1       HT       0.417000       1.00800           0
     28374 W2       9458     TIP3     H2       HT       0.417000       1.00800           0
     28375 W2       9459     TIP3     OH2      OT      -0.834000       15.9994           0
     28376 W2       9459     TIP3     H1       HT       0.417000       1.00800           0
     28377 W2       9459     TIP3     H2       HT       0.417000       1.00800           0
     28378 W2       9460     TIP3     OH2      OT      -0.834000       15.9994           0
     28379 W2       9460     TIP3     H1       HT       0.417000       1.00800           0
     28380 W2       9460     TIP3     H2       HT       0.417000       1.00800           0
     28381 W2       9461     TIP3     OH2      OT      -0.834000       15.9994           0
     28382 W2       9461     TIP3     H1       HT       0.417000       1.00800           0
     28383 W2       9461     TIP3     H2       HT       0.417000       1.00800           0
     28384 W2       9462     TIP3     OH2      OT      -0.834000       15.9994           0
     28385 W2       9462     TIP3     H1       HT       0.417000       1.00800           0
     28386 W2       9462     TIP3     H2       HT       0.417000       1.00800           0
     28387 W2       9463     TIP3     OH2      OT      -0.834000       15.9994           0
     28388 W2       9463     TIP3     H1       HT       0.417000       1.00800           0
     28389 W2       9463     TIP3     H2       HT       0.417000       1.00800           0
     28390 W2       9464     TIP3     OH2      OT      -0.834000       15.9994           0
     28391 W2       9464     TIP3     H1       HT       0.417000       1.00800           0
     28392 W2       9464     TIP3     H2       HT       0.417000       1.00800           0
     28393 W2       9465     TIP3     OH2      OT      -0.834000       15.9994           0
     28394 W2       9465     TIP3     H1       HT       0.417000       1.00800           0
     28395 W2       9465     TIP3     H2       HT       0.417000       1.00800           0
     28396 W2       9466     TIP3     OH2      OT      -0.834000       15.9994           0
     28397 W2       9466     TIP3     H1       HT       0.417000       1.00800           0
     28398 W2       9466     TIP3     H2       HT       0.417000       1.00800           0
     28399 W2       9467     TIP3     OH2      OT      -0.834000       15.9994           0
     28400 W2       9467     TIP3     H1       HT       0.417000       1.00800           0
     28401 W2       9467     TIP3     H2       HT       0.417000       1.00800           0
     28402 W2       9468     TIP3     OH2      OT      -0.834000       15.9994           0
     28403 W2       9468     TIP3     H1       HT       0.417000       1.00800           0
     28404 W2       9468     TIP3     H2       HT       0.417000       1.00800           0
     28405 W2       9469     TIP3     OH2      OT      -0.834000       15.9994           0
     28406 W2       9469     TIP3     H1       HT       0.417000       1.00800           0
     28407 W2       9469     TIP3     H2       HT       0.417000       1.00800           0
     28408 W2       9470     TIP3     OH2      OT      -0.834000       15.9994           0
     28409 W2       9470     TIP3     H1       HT       0.417000       1.00800           0
     28410 W2       9470     TIP3     H2       HT       0.417000       1.00800           0
     28411 W2       9471     TIP3     OH2      OT      -0.834000       15.9994           0
     28412 W2       9471     TIP3     H1       HT       0.417000       1.00800           0
     28413 W2       9471     TIP3     H2       HT       0.417000       1.00800           0
     28414 W2       9472     TIP3     OH2      OT      -0.834000       15.9994           0
     28415 W2       9472     TIP3     H1       HT       0.417000       1.00800           0
     28416 W2       9472     TIP3     H2       HT       0.417000       1.00800           0
     28417 W2       9473     TIP3     OH2      OT      -0.834000       15.9994           0
     28418 W2       9473     TIP3     H1       HT       0.417000       1.00800           0
     28419 W2       9473     TIP3     H2       HT       0.417000       1.00800           0
     28420 W2       9474     TIP3     OH2      OT      -0.834000       15.9994           0
     28421 W2       9474     TIP3     H1       HT       0.417000       1.00800           0
     28422 W2       9474     TIP3     H2       HT       0.417000       1.00800           0
     28423 W2       9475     TIP3     OH2      OT      -0.834000       15.9994           0
     28424 W2       9475     TIP3     H1       HT       0.417000       1.00800           0
     28425 W2       9475     TIP3     H2       HT       0.417000       1.00800           0
     28426 W2       9476     TIP3     OH2      OT      -0.834000       15.9994           0
     28427 W2       9476     TIP3     H1       HT       0.417000       1.00800           0
     28428 W2       9476     TIP3     H2       HT       0.417000       1.00800           0
     28429 W2       9477     TIP3     OH2      OT      -0.834000       15.9994           0
     28430 W2       9477     TIP3     H1       HT       0.417000       1.00800           0
     28431 W2       9477     TIP3     H2       HT       0.417000       1.00800           0
     28432 W2       9478     TIP3     OH2      OT      -0.834000       15.9994           0
     28433 W2       9478     TIP3     H1       HT       0.417000       1.00800           0
     28434 W2       9478     TIP3     H2       HT       0.417000       1.00800           0
     28435 W2       9479     TIP3     OH2      OT      -0.834000       15.9994           0
     28436 W2       9479     TIP3     H1       HT       0.417000       1.00800           0
     28437 W2       9479     TIP3     H2       HT       0.417000       1.00800           0
     28438 W2       9480     TIP3     OH2      OT      -0.834000       15.9994           0
     28439 W2       9480     TIP3     H1       HT       0.417000       1.00800           0
     28440 W2       9480     TIP3     H2       HT       0.417000       1.00800           0
     28441 W2       9481     TIP3     OH2      OT      -0.834000       15.9994           0
     28442 W2       9481     TIP3     H1       HT       0.417000       1.00800           0
     28443 W2       9481     TIP3     H2       HT       0.417000       1.00800           0
     28444 W2       9482     TIP3     OH2      OT      -0.834000       15.9994           0
     28445 W2       9482     TIP3     H1       HT       0.417000       1.00800           0
     28446 W2       9482     TIP3     H2       HT       0.417000       1.00800           0
     28447 W2       9483     TIP3     OH2      OT      -0.834000       15.9994           0
     28448 W2       9483     TIP3     H1       HT       0.417000       1.00800           0
     28449 W2       9483     TIP3     H2       HT       0.417000       1.00800           0
     28450 W2       9484     TIP3     OH2      OT      -0.834000       15.9994           0
     28451 W2       9484     TIP3     H1       HT       0.417000       1.00800           0
     28452 W2       9484     TIP3     H2       HT       0.417000       1.00800           0
     28453 W2       9485     TIP3     OH2      OT      -0.834000       15.9994           0
     28454 W2       9485     TIP3     H1       HT       0.417000       1.00800           0
     28455 W2       9485     TIP3     H2       HT       0.417000       1.00800           0
     28456 W2       9486     TIP3     OH2      OT      -0.834000       15.9994           0
     28457 W2       9486     TIP3     H1       HT       0.417000       1.00800           0
     28458 W2       9486     TIP3     H2       HT       0.417000       1.00800           0
     28459 W2       9487     TIP3     OH2      OT      -0.834000       15.9994           0
     28460 W2       9487     TIP3     H1       HT       0.417000       1.00800           0
     28461 W2       9487     TIP3     H2       HT       0.417000       1.00800           0
     28462 W2       9488     TIP3     OH2      OT      -0.834000       15.9994           0
     28463 W2       9488     TIP3     H1       HT       0.417000       1.00800           0
     28464 W2       9488     TIP3     H2       HT       0.417000       1.00800           0
     28465 W2       9489     TIP3     OH2      OT      -0.834000       15.9994           0
     28466 W2       9489     TIP3     H1       HT       0.417000       1.00800           0
     28467 W2       9489     TIP3     H2       HT       0.417000       1.00800           0
     28468 W2       9490     TIP3     OH2      OT      -0.834000       15.9994           0
     28469 W2       9490     TIP3     H1       HT       0.417000       1.00800           0
     28470 W2       9490     TIP3     H2       HT       0.417000       1.00800           0
     28471 W2       9491     TIP3     OH2      OT      -0.834000       15.9994           0
     28472 W2       9491     TIP3     H1       HT       0.417000       1.00800           0
     28473 W2       9491     TIP3     H2       HT       0.417000       1.00800           0
     28474 W2       9492     TIP3     OH2      OT      -0.834000       15.9994           0
     28475 W2       9492     TIP3     H1       HT       0.417000       1.00800           0
     28476 W2       9492     TIP3     H2       HT       0.417000       1.00800           0
     28477 W2       9493     TIP3     OH2      OT      -0.834000       15.9994           0
     28478 W2       9493     TIP3     H1       HT       0.417000       1.00800           0
     28479 W2       9493     TIP3     H2       HT       0.417000       1.00800           0
     28480 W2       9494     TIP3     OH2      OT      -0.834000       15.9994           0
     28481 W2       9494     TIP3     H1       HT       0.417000       1.00800           0
     28482 W2       9494     TIP3     H2       HT       0.417000       1.00800           0
     28483 W2       9495     TIP3     OH2      OT      -0.834000       15.9994           0
     28484 W2       9495     TIP3     H1       HT       0.417000       1.00800           0
     28485 W2       9495     TIP3     H2       HT       0.417000       1.00800           0
     28486 W2       9496     TIP3     OH2      OT      -0.834000       15.9994           0
     28487 W2       9496     TIP3     H1       HT       0.417000       1.00800           0
     28488 W2       9496     TIP3     H2       HT       0.417000       1.00800           0
     28489 W2       9497     TIP3     OH2      OT      -0.834000       15.9994           0
     28490 W2       9497     TIP3     H1       HT       0.417000       1.00800           0
     28491 W2       9497     TIP3     H2       HT       0.417000       1.00800           0
     28492 W2       9498     TIP3     OH2      OT      -0.834000       15.9994           0
     28493 W2       9498     TIP3     H1       HT       0.417000       1.00800           0
     28494 W2       9498     TIP3     H2       HT       0.417000       1.00800           0
     28495 W2       9499     TIP3     OH2      OT      -0.834000       15.9994           0
     28496 W2       9499     TIP3     H1       HT       0.417000       1.00800           0
     28497 W2       9499     TIP3     H2       HT       0.417000       1.00800           0
     28498 W2       9500     TIP3     OH2      OT      -0.834000       15.9994           0
     28499 W2       9500     TIP3     H1       HT       0.417000       1.00800           0
     28500 W2       9500     TIP3     H2       HT       0.417000       1.00800           0
     28501 W2       9501     TIP3     OH2      OT      -0.834000       15.9994           0
     28502 W2       9501     TIP3     H1       HT       0.417000       1.00800           0
     28503 W2       9501     TIP3     H2       HT       0.417000       1.00800           0
     28504 W2       9502     TIP3     OH2      OT      -0.834000       15.9994           0
     28505 W2       9502     TIP3     H1       HT       0.417000       1.00800           0
     28506 W2       9502     TIP3     H2       HT       0.417000       1.00800           0
     28507 W2       9503     TIP3     OH2      OT      -0.834000       15.9994           0
     28508 W2       9503     TIP3     H1       HT       0.417000       1.00800           0
     28509 W2       9503     TIP3     H2       HT       0.417000       1.00800           0
     28510 W2       9504     TIP3     OH2      OT      -0.834000       15.9994           0
     28511 W2       9504     TIP3     H1       HT       0.417000       1.00800           0
     28512 W2       9504     TIP3     H2       HT       0.417000       1.00800           0
     28513 W2       9505     TIP3     OH2      OT      -0.834000       15.9994           0
     28514 W2       9505     TIP3     H1       HT       0.417000       1.00800           0
     28515 W2       9505     TIP3     H2       HT       0.417000       1.00800           0
     28516 W2       9506     TIP3     OH2      OT      -0.834000       15.9994           0
     28517 W2       9506     TIP3     H1       HT       0.417000       1.00800           0
     28518 W2       9506     TIP3     H2       HT       0.417000       1.00800           0
     28519 W2       9507     TIP3     OH2      OT      -0.834000       15.9994           0
     28520 W2       9507     TIP3     H1       HT       0.417000       1.00800           0
     28521 W2       9507     TIP3     H2       HT       0.417000       1.00800           0
     28522 W2       9508     TIP3     OH2      OT      -0.834000       15.9994           0
     28523 W2       9508     TIP3     H1       HT       0.417000       1.00800           0
     28524 W2       9508     TIP3     H2       HT       0.417000       1.00800           0
     28525 W2       9509     TIP3     OH2      OT      -0.834000       15.9994           0
     28526 W2       9509     TIP3     H1       HT       0.417000       1.00800           0
     28527 W2       9509     TIP3     H2       HT       0.417000       1.00800           0
     28528 W2       9510     TIP3     OH2      OT      -0.834000       15.9994           0
     28529 W2       9510     TIP3     H1       HT       0.417000       1.00800           0
     28530 W2       9510     TIP3     H2       HT       0.417000       1.00800           0
     28531 W2       9511     TIP3     OH2      OT      -0.834000       15.9994           0
     28532 W2       9511     TIP3     H1       HT       0.417000       1.00800           0
     28533 W2       9511     TIP3     H2       HT       0.417000       1.00800           0
     28534 W2       9512     TIP3     OH2      OT      -0.834000       15.9994           0
     28535 W2       9512     TIP3     H1       HT       0.417000       1.00800           0
     28536 W2       9512     TIP3     H2       HT       0.417000       1.00800           0
     28537 W2       9513     TIP3     OH2      OT      -0.834000       15.9994           0
     28538 W2       9513     TIP3     H1       HT       0.417000       1.00800           0
     28539 W2       9513     TIP3     H2       HT       0.417000       1.00800           0
     28540 W2       9514     TIP3     OH2      OT      -0.834000       15.9994           0
     28541 W2       9514     TIP3     H1       HT       0.417000       1.00800           0
     28542 W2       9514     TIP3     H2       HT       0.417000       1.00800           0
     28543 W2       9515     TIP3     OH2      OT      -0.834000       15.9994           0
     28544 W2       9515     TIP3     H1       HT       0.417000       1.00800           0
     28545 W2       9515     TIP3     H2       HT       0.417000       1.00800           0
     28546 W2       9516     TIP3     OH2      OT      -0.834000       15.9994           0
     28547 W2       9516     TIP3     H1       HT       0.417000       1.00800           0
     28548 W2       9516     TIP3     H2       HT       0.417000       1.00800           0
     28549 W2       9517     TIP3     OH2      OT      -0.834000       15.9994           0
     28550 W2       9517     TIP3     H1       HT       0.417000       1.00800           0
     28551 W2       9517     TIP3     H2       HT       0.417000       1.00800           0
     28552 W2       9518     TIP3     OH2      OT      -0.834000       15.9994           0
     28553 W2       9518     TIP3     H1       HT       0.417000       1.00800           0
     28554 W2       9518     TIP3     H2       HT       0.417000       1.00800           0
     28555 W2       9519     TIP3     OH2      OT      -0.834000       15.9994           0
     28556 W2       9519     TIP3     H1       HT       0.417000       1.00800           0
     28557 W2       9519     TIP3     H2       HT       0.417000       1.00800           0
     28558 W2       9520     TIP3     OH2      OT      -0.834000       15.9994           0
     28559 W2       9520     TIP3     H1       HT       0.417000       1.00800           0
     28560 W2       9520     TIP3     H2       HT       0.417000       1.00800           0
     28561 W2       9521     TIP3     OH2      OT      -0.834000       15.9994           0
     28562 W2       9521     TIP3     H1       HT       0.417000       1.00800           0
     28563 W2       9521     TIP3     H2       HT       0.417000       1.00800           0
     28564 W2       9522     TIP3     OH2      OT      -0.834000       15.9994           0
     28565 W2       9522     TIP3     H1       HT       0.417000       1.00800           0
     28566 W2       9522     TIP3     H2       HT       0.417000       1.00800           0
     28567 W2       9523     TIP3     OH2      OT      -0.834000       15.9994           0
     28568 W2       9523     TIP3     H1       HT       0.417000       1.00800           0
     28569 W2       9523     TIP3     H2       HT       0.417000       1.00800           0
     28570 W2       9524     TIP3     OH2      OT      -0.834000       15.9994           0
     28571 W2       9524     TIP3     H1       HT       0.417000       1.00800           0
     28572 W2       9524     TIP3     H2       HT       0.417000       1.00800           0
     28573 W2       9525     TIP3     OH2      OT      -0.834000       15.9994           0
     28574 W2       9525     TIP3     H1       HT       0.417000       1.00800           0
     28575 W2       9525     TIP3     H2       HT       0.417000       1.00800           0
     28576 W2       9526     TIP3     OH2      OT      -0.834000       15.9994           0
     28577 W2       9526     TIP3     H1       HT       0.417000       1.00800           0
     28578 W2       9526     TIP3     H2       HT       0.417000       1.00800           0
     28579 W2       9527     TIP3     OH2      OT      -0.834000       15.9994           0
     28580 W2       9527     TIP3     H1       HT       0.417000       1.00800           0
     28581 W2       9527     TIP3     H2       HT       0.417000       1.00800           0
     28582 W2       9528     TIP3     OH2      OT      -0.834000       15.9994           0
     28583 W2       9528     TIP3     H1       HT       0.417000       1.00800           0
     28584 W2       9528     TIP3     H2       HT       0.417000       1.00800           0
     28585 W2       9529     TIP3     OH2      OT      -0.834000       15.9994           0
     28586 W2       9529     TIP3     H1       HT       0.417000       1.00800           0
     28587 W2       9529     TIP3     H2       HT       0.417000       1.00800           0
     28588 W2       9530     TIP3     OH2      OT      -0.834000       15.9994           0
     28589 W2       9530     TIP3     H1       HT       0.417000       1.00800           0
     28590 W2       9530     TIP3     H2       HT       0.417000       1.00800           0
     28591 W2       9531     TIP3     OH2      OT      -0.834000       15.9994           0
     28592 W2       9531     TIP3     H1       HT       0.417000       1.00800           0
     28593 W2       9531     TIP3     H2       HT       0.417000       1.00800           0
     28594 W2       9532     TIP3     OH2      OT      -0.834000       15.9994           0
     28595 W2       9532     TIP3     H1       HT       0.417000       1.00800           0
     28596 W2       9532     TIP3     H2       HT       0.417000       1.00800           0
     28597 W2       9533     TIP3     OH2      OT      -0.834000       15.9994           0
     28598 W2       9533     TIP3     H1       HT       0.417000       1.00800           0
     28599 W2       9533     TIP3     H2       HT       0.417000       1.00800           0
     28600 W2       9534     TIP3     OH2      OT      -0.834000       15.9994           0
     28601 W2       9534     TIP3     H1       HT       0.417000       1.00800           0
     28602 W2       9534     TIP3     H2       HT       0.417000       1.00800           0
     28603 W2       9535     TIP3     OH2      OT      -0.834000       15.9994           0
     28604 W2       9535     TIP3     H1       HT       0.417000       1.00800           0
     28605 W2       9535     TIP3     H2       HT       0.417000       1.00800           0
     28606 W2       9536     TIP3     OH2      OT      -0.834000       15.9994           0
     28607 W2       9536     TIP3     H1       HT       0.417000       1.00800           0
     28608 W2       9536     TIP3     H2       HT       0.417000       1.00800           0
     28609 W2       9537     TIP3     OH2      OT      -0.834000       15.9994           0
     28610 W2       9537     TIP3     H1       HT       0.417000       1.00800           0
     28611 W2       9537     TIP3     H2       HT       0.417000       1.00800           0
     28612 W2       9538     TIP3     OH2      OT      -0.834000       15.9994           0
     28613 W2       9538     TIP3     H1       HT       0.417000       1.00800           0
     28614 W2       9538     TIP3     H2       HT       0.417000       1.00800           0
     28615 W2       9539     TIP3     OH2      OT      -0.834000       15.9994           0
     28616 W2       9539     TIP3     H1       HT       0.417000       1.00800           0
     28617 W2       9539     TIP3     H2       HT       0.417000       1.00800           0
     28618 W2       9540     TIP3     OH2      OT      -0.834000       15.9994           0
     28619 W2       9540     TIP3     H1       HT       0.417000       1.00800           0
     28620 W2       9540     TIP3     H2       HT       0.417000       1.00800           0
     28621 W2       9541     TIP3     OH2      OT      -0.834000       15.9994           0
     28622 W2       9541     TIP3     H1       HT       0.417000       1.00800           0
     28623 W2       9541     TIP3     H2       HT       0.417000       1.00800           0
     28624 W2       9542     TIP3     OH2      OT      -0.834000       15.9994           0
     28625 W2       9542     TIP3     H1       HT       0.417000       1.00800           0
     28626 W2       9542     TIP3     H2       HT       0.417000       1.00800           0
     28627 W2       9543     TIP3     OH2      OT      -0.834000       15.9994           0
     28628 W2       9543     TIP3     H1       HT       0.417000       1.00800           0
     28629 W2       9543     TIP3     H2       HT       0.417000       1.00800           0
     28630 W2       9544     TIP3     OH2      OT      -0.834000       15.9994           0
     28631 W2       9544     TIP3     H1       HT       0.417000       1.00800           0
     28632 W2       9544     TIP3     H2       HT       0.417000       1.00800           0
     28633 W2       9545     TIP3     OH2      OT      -0.834000       15.9994           0
     28634 W2       9545     TIP3     H1       HT       0.417000       1.00800           0
     28635 W2       9545     TIP3     H2       HT       0.417000       1.00800           0
     28636 W2       9546     TIP3     OH2      OT      -0.834000       15.9994           0
     28637 W2       9546     TIP3     H1       HT       0.417000       1.00800           0
     28638 W2       9546     TIP3     H2       HT       0.417000       1.00800           0
     28639 W2       9547     TIP3     OH2      OT      -0.834000       15.9994           0
     28640 W2       9547     TIP3     H1       HT       0.417000       1.00800           0
     28641 W2       9547     TIP3     H2       HT       0.417000       1.00800           0
     28642 W2       9548     TIP3     OH2      OT      -0.834000       15.9994           0
     28643 W2       9548     TIP3     H1       HT       0.417000       1.00800           0
     28644 W2       9548     TIP3     H2       HT       0.417000       1.00800           0
     28645 W2       9549     TIP3     OH2      OT      -0.834000       15.9994           0
     28646 W2       9549     TIP3     H1       HT       0.417000       1.00800           0
     28647 W2       9549     TIP3     H2       HT       0.417000       1.00800           0
     28648 W2       9550     TIP3     OH2      OT      -0.834000       15.9994           0
     28649 W2       9550     TIP3     H1       HT       0.417000       1.00800           0
     28650 W2       9550     TIP3     H2       HT       0.417000       1.00800           0
     28651 W2       9551     TIP3     OH2      OT      -0.834000       15.9994           0
     28652 W2       9551     TIP3     H1       HT       0.417000       1.00800           0
     28653 W2       9551     TIP3     H2       HT       0.417000       1.00800           0
     28654 W2       9552     TIP3     OH2      OT      -0.834000       15.9994           0
     28655 W2       9552     TIP3     H1       HT       0.417000       1.00800           0
     28656 W2       9552     TIP3     H2       HT       0.417000       1.00800           0
     28657 W2       9553     TIP3     OH2      OT      -0.834000       15.9994           0
     28658 W2       9553     TIP3     H1       HT       0.417000       1.00800           0
     28659 W2       9553     TIP3     H2       HT       0.417000       1.00800           0
     28660 W2       9554     TIP3     OH2      OT      -0.834000       15.9994           0
     28661 W2       9554     TIP3     H1       HT       0.417000       1.00800           0
     28662 W2       9554     TIP3     H2       HT       0.417000       1.00800           0
     28663 W2       9555     TIP3     OH2      OT      -0.834000       15.9994           0
     28664 W2       9555     TIP3     H1       HT       0.417000       1.00800           0
     28665 W2       9555     TIP3     H2       HT       0.417000       1.00800           0
     28666 W2       9556     TIP3     OH2      OT      -0.834000       15.9994           0
     28667 W2       9556     TIP3     H1       HT       0.417000       1.00800           0
     28668 W2       9556     TIP3     H2       HT       0.417000       1.00800           0
     28669 W2       9557     TIP3     OH2      OT      -0.834000       15.9994           0
     28670 W2       9557     TIP3     H1       HT       0.417000       1.00800           0
     28671 W2       9557     TIP3     H2       HT       0.417000       1.00800           0
     28672 W2       9558     TIP3     OH2      OT      -0.834000       15.9994           0
     28673 W2       9558     TIP3     H1       HT       0.417000       1.00800           0
     28674 W2       9558     TIP3     H2       HT       0.417000       1.00800           0
     28675 W2       9559     TIP3     OH2      OT      -0.834000       15.9994           0
     28676 W2       9559     TIP3     H1       HT       0.417000       1.00800           0
     28677 W2       9559     TIP3     H2       HT       0.417000       1.00800           0
     28678 W2       9560     TIP3     OH2      OT      -0.834000       15.9994           0
     28679 W2       9560     TIP3     H1       HT       0.417000       1.00800           0
     28680 W2       9560     TIP3     H2       HT       0.417000       1.00800           0
     28681 W2       9561     TIP3     OH2      OT      -0.834000       15.9994           0
     28682 W2       9561     TIP3     H1       HT       0.417000       1.00800           0
     28683 W2       9561     TIP3     H2       HT       0.417000       1.00800           0
     28684 W2       9562     TIP3     OH2      OT      -0.834000       15.9994           0
     28685 W2       9562     TIP3     H1       HT       0.417000       1.00800           0
     28686 W2       9562     TIP3     H2       HT       0.417000       1.00800           0
     28687 W2       9563     TIP3     OH2      OT      -0.834000       15.9994           0
     28688 W2       9563     TIP3     H1       HT       0.417000       1.00800           0
     28689 W2       9563     TIP3     H2       HT       0.417000       1.00800           0
     28690 W2       9564     TIP3     OH2      OT      -0.834000       15.9994           0
     28691 W2       9564     TIP3     H1       HT       0.417000       1.00800           0
     28692 W2       9564     TIP3     H2       HT       0.417000       1.00800           0
     28693 W2       9565     TIP3     OH2      OT      -0.834000       15.9994           0
     28694 W2       9565     TIP3     H1       HT       0.417000       1.00800           0
     28695 W2       9565     TIP3     H2       HT       0.417000       1.00800           0
     28696 W2       9566     TIP3     OH2      OT      -0.834000       15.9994           0
     28697 W2       9566     TIP3     H1       HT       0.417000       1.00800           0
     28698 W2       9566     TIP3     H2       HT       0.417000       1.00800           0
     28699 W2       9567     TIP3     OH2      OT      -0.834000       15.9994           0
     28700 W2       9567     TIP3     H1       HT       0.417000       1.00800           0
     28701 W2       9567     TIP3     H2       HT       0.417000       1.00800           0
     28702 W2       9568     TIP3     OH2      OT      -0.834000       15.9994           0
     28703 W2       9568     TIP3     H1       HT       0.417000       1.00800           0
     28704 W2       9568     TIP3     H2       HT       0.417000       1.00800           0
     28705 W2       9569     TIP3     OH2      OT      -0.834000       15.9994           0
     28706 W2       9569     TIP3     H1       HT       0.417000       1.00800           0
     28707 W2       9569     TIP3     H2       HT       0.417000       1.00800           0
     28708 W2       9570     TIP3     OH2      OT      -0.834000       15.9994           0
     28709 W2       9570     TIP3     H1       HT       0.417000       1.00800           0
     28710 W2       9570     TIP3     H2       HT       0.417000       1.00800           0
     28711 W2       9571     TIP3     OH2      OT      -0.834000       15.9994           0
     28712 W2       9571     TIP3     H1       HT       0.417000       1.00800           0
     28713 W2       9571     TIP3     H2       HT       0.417000       1.00800           0
     28714 W2       9572     TIP3     OH2      OT      -0.834000       15.9994           0
     28715 W2       9572     TIP3     H1       HT       0.417000       1.00800           0
     28716 W2       9572     TIP3     H2       HT       0.417000       1.00800           0
     28717 W2       9573     TIP3     OH2      OT      -0.834000       15.9994           0
     28718 W2       9573     TIP3     H1       HT       0.417000       1.00800           0
     28719 W2       9573     TIP3     H2       HT       0.417000       1.00800           0
     28720 W2       9574     TIP3     OH2      OT      -0.834000       15.9994           0
     28721 W2       9574     TIP3     H1       HT       0.417000       1.00800           0
     28722 W2       9574     TIP3     H2       HT       0.417000       1.00800           0
     28723 W2       9575     TIP3     OH2      OT      -0.834000       15.9994           0
     28724 W2       9575     TIP3     H1       HT       0.417000       1.00800           0
     28725 W2       9575     TIP3     H2       HT       0.417000       1.00800           0
     28726 W2       9576     TIP3     OH2      OT      -0.834000       15.9994           0
     28727 W2       9576     TIP3     H1       HT       0.417000       1.00800           0
     28728 W2       9576     TIP3     H2       HT       0.417000       1.00800           0
     28729 W2       9577     TIP3     OH2      OT      -0.834000       15.9994           0
     28730 W2       9577     TIP3     H1       HT       0.417000       1.00800           0
     28731 W2       9577     TIP3     H2       HT       0.417000       1.00800           0
     28732 W2       9578     TIP3     OH2      OT      -0.834000       15.9994           0
     28733 W2       9578     TIP3     H1       HT       0.417000       1.00800           0
     28734 W2       9578     TIP3     H2       HT       0.417000       1.00800           0
     28735 W2       9579     TIP3     OH2      OT      -0.834000       15.9994           0
     28736 W2       9579     TIP3     H1       HT       0.417000       1.00800           0
     28737 W2       9579     TIP3     H2       HT       0.417000       1.00800           0
     28738 W2       9580     TIP3     OH2      OT      -0.834000       15.9994           0
     28739 W2       9580     TIP3     H1       HT       0.417000       1.00800           0
     28740 W2       9580     TIP3     H2       HT       0.417000       1.00800           0
     28741 W2       9581     TIP3     OH2      OT      -0.834000       15.9994           0
     28742 W2       9581     TIP3     H1       HT       0.417000       1.00800           0
     28743 W2       9581     TIP3     H2       HT       0.417000       1.00800           0
     28744 W2       9582     TIP3     OH2      OT      -0.834000       15.9994           0
     28745 W2       9582     TIP3     H1       HT       0.417000       1.00800           0
     28746 W2       9582     TIP3     H2       HT       0.417000       1.00800           0
     28747 W2       9583     TIP3     OH2      OT      -0.834000       15.9994           0
     28748 W2       9583     TIP3     H1       HT       0.417000       1.00800           0
     28749 W2       9583     TIP3     H2       HT       0.417000       1.00800           0
     28750 W2       9584     TIP3     OH2      OT      -0.834000       15.9994           0
     28751 W2       9584     TIP3     H1       HT       0.417000       1.00800           0
     28752 W2       9584     TIP3     H2       HT       0.417000       1.00800           0
     28753 W2       9585     TIP3     OH2      OT      -0.834000       15.9994           0
     28754 W2       9585     TIP3     H1       HT       0.417000       1.00800           0
     28755 W2       9585     TIP3     H2       HT       0.417000       1.00800           0
     28756 W2       9586     TIP3     OH2      OT      -0.834000       15.9994           0
     28757 W2       9586     TIP3     H1       HT       0.417000       1.00800           0
     28758 W2       9586     TIP3     H2       HT       0.417000       1.00800           0
     28759 W2       9587     TIP3     OH2      OT      -0.834000       15.9994           0
     28760 W2       9587     TIP3     H1       HT       0.417000       1.00800           0
     28761 W2       9587     TIP3     H2       HT       0.417000       1.00800           0
     28762 W2       9588     TIP3     OH2      OT      -0.834000       15.9994           0
     28763 W2       9588     TIP3     H1       HT       0.417000       1.00800           0
     28764 W2       9588     TIP3     H2       HT       0.417000       1.00800           0
     28765 W2       9589     TIP3     OH2      OT      -0.834000       15.9994           0
     28766 W2       9589     TIP3     H1       HT       0.417000       1.00800           0
     28767 W2       9589     TIP3     H2       HT       0.417000       1.00800           0
     28768 W2       9590     TIP3     OH2      OT      -0.834000       15.9994           0
     28769 W2       9590     TIP3     H1       HT       0.417000       1.00800           0
     28770 W2       9590     TIP3     H2       HT       0.417000       1.00800           0
     28771 W2       9591     TIP3     OH2      OT      -0.834000       15.9994           0
     28772 W2       9591     TIP3     H1       HT       0.417000       1.00800           0
     28773 W2       9591     TIP3     H2       HT       0.417000       1.00800           0
     28774 W2       9592     TIP3     OH2      OT      -0.834000       15.9994           0
     28775 W2       9592     TIP3     H1       HT       0.417000       1.00800           0
     28776 W2       9592     TIP3     H2       HT       0.417000       1.00800           0
     28777 W2       9593     TIP3     OH2      OT      -0.834000       15.9994           0
     28778 W2       9593     TIP3     H1       HT       0.417000       1.00800           0
     28779 W2       9593     TIP3     H2       HT       0.417000       1.00800           0
     28780 W2       9594     TIP3     OH2      OT      -0.834000       15.9994           0
     28781 W2       9594     TIP3     H1       HT       0.417000       1.00800           0
     28782 W2       9594     TIP3     H2       HT       0.417000       1.00800           0
     28783 W2       9595     TIP3     OH2      OT      -0.834000       15.9994           0
     28784 W2       9595     TIP3     H1       HT       0.417000       1.00800           0
     28785 W2       9595     TIP3     H2       HT       0.417000       1.00800           0
     28786 W2       9596     TIP3     OH2      OT      -0.834000       15.9994           0
     28787 W2       9596     TIP3     H1       HT       0.417000       1.00800           0
     28788 W2       9596     TIP3     H2       HT       0.417000       1.00800           0
     28789 W2       9597     TIP3     OH2      OT      -0.834000       15.9994           0
     28790 W2       9597     TIP3     H1       HT       0.417000       1.00800           0
     28791 W2       9597     TIP3     H2       HT       0.417000       1.00800           0
     28792 W2       9598     TIP3     OH2      OT      -0.834000       15.9994           0
     28793 W2       9598     TIP3     H1       HT       0.417000       1.00800           0
     28794 W2       9598     TIP3     H2       HT       0.417000       1.00800           0
     28795 W2       9599     TIP3     OH2      OT      -0.834000       15.9994           0
     28796 W2       9599     TIP3     H1       HT       0.417000       1.00800           0
     28797 W2       9599     TIP3     H2       HT       0.417000       1.00800           0
     28798 W2       9600     TIP3     OH2      OT      -0.834000       15.9994           0
     28799 W2       9600     TIP3     H1       HT       0.417000       1.00800           0
     28800 W2       9600     TIP3     H2       HT       0.417000       1.00800           0
     28801 W2       9601     TIP3     OH2      OT      -0.834000       15.9994           0
     28802 W2       9601     TIP3     H1       HT       0.417000       1.00800           0
     28803 W2       9601     TIP3     H2       HT       0.417000       1.00800           0
     28804 W2       9602     TIP3     OH2      OT      -0.834000       15.9994           0
     28805 W2       9602     TIP3     H1       HT       0.417000       1.00800           0
     28806 W2       9602     TIP3     H2       HT       0.417000       1.00800           0
     28807 W2       9603     TIP3     OH2      OT      -0.834000       15.9994           0
     28808 W2       9603     TIP3     H1       HT       0.417000       1.00800           0
     28809 W2       9603     TIP3     H2       HT       0.417000       1.00800           0
     28810 W2       9604     TIP3     OH2      OT      -0.834000       15.9994           0
     28811 W2       9604     TIP3     H1       HT       0.417000       1.00800           0
     28812 W2       9604     TIP3     H2       HT       0.417000       1.00800           0
     28813 W2       9605     TIP3     OH2      OT      -0.834000       15.9994           0
     28814 W2       9605     TIP3     H1       HT       0.417000       1.00800           0
     28815 W2       9605     TIP3     H2       HT       0.417000       1.00800           0
     28816 W2       9606     TIP3     OH2      OT      -0.834000       15.9994           0
     28817 W2       9606     TIP3     H1       HT       0.417000       1.00800           0
     28818 W2       9606     TIP3     H2       HT       0.417000       1.00800           0
     28819 W2       9607     TIP3     OH2      OT      -0.834000       15.9994           0
     28820 W2       9607     TIP3     H1       HT       0.417000       1.00800           0
     28821 W2       9607     TIP3     H2       HT       0.417000       1.00800           0
     28822 W2       9608     TIP3     OH2      OT      -0.834000       15.9994           0
     28823 W2       9608     TIP3     H1       HT       0.417000       1.00800           0
     28824 W2       9608     TIP3     H2       HT       0.417000       1.00800           0
     28825 W2       9609     TIP3     OH2      OT      -0.834000       15.9994           0
     28826 W2       9609     TIP3     H1       HT       0.417000       1.00800           0
     28827 W2       9609     TIP3     H2       HT       0.417000       1.00800           0
     28828 W2       9610     TIP3     OH2      OT      -0.834000       15.9994           0
     28829 W2       9610     TIP3     H1       HT       0.417000       1.00800           0
     28830 W2       9610     TIP3     H2       HT       0.417000       1.00800           0
     28831 W2       9611     TIP3     OH2      OT      -0.834000       15.9994           0
     28832 W2       9611     TIP3     H1       HT       0.417000       1.00800           0
     28833 W2       9611     TIP3     H2       HT       0.417000       1.00800           0
     28834 W2       9612     TIP3     OH2      OT      -0.834000       15.9994           0
     28835 W2       9612     TIP3     H1       HT       0.417000       1.00800           0
     28836 W2       9612     TIP3     H2       HT       0.417000       1.00800           0
     28837 W2       9613     TIP3     OH2      OT      -0.834000       15.9994           0
     28838 W2       9613     TIP3     H1       HT       0.417000       1.00800           0
     28839 W2       9613     TIP3     H2       HT       0.417000       1.00800           0
     28840 W2       9614     TIP3     OH2      OT      -0.834000       15.9994           0
     28841 W2       9614     TIP3     H1       HT       0.417000       1.00800           0
     28842 W2       9614     TIP3     H2       HT       0.417000       1.00800           0
     28843 W2       9615     TIP3     OH2      OT      -0.834000       15.9994           0
     28844 W2       9615     TIP3     H1       HT       0.417000       1.00800           0
     28845 W2       9615     TIP3     H2       HT       0.417000       1.00800           0
     28846 W2       9616     TIP3     OH2      OT      -0.834000       15.9994           0
     28847 W2       9616     TIP3     H1       HT       0.417000       1.00800           0
     28848 W2       9616     TIP3     H2       HT       0.417000       1.00800           0
     28849 W2       9617     TIP3     OH2      OT      -0.834000       15.9994           0
     28850 W2       9617     TIP3     H1       HT       0.417000       1.00800           0
     28851 W2       9617     TIP3     H2       HT       0.417000       1.00800           0
     28852 W2       9618     TIP3     OH2      OT      -0.834000       15.9994           0
     28853 W2       9618     TIP3     H1       HT       0.417000       1.00800           0
     28854 W2       9618     TIP3     H2       HT       0.417000       1.00800           0
     28855 W2       9619     TIP3     OH2      OT      -0.834000       15.9994           0
     28856 W2       9619     TIP3     H1       HT       0.417000       1.00800           0
     28857 W2       9619     TIP3     H2       HT       0.417000       1.00800           0
     28858 W2       9620     TIP3     OH2      OT      -0.834000       15.9994           0
     28859 W2       9620     TIP3     H1       HT       0.417000       1.00800           0
     28860 W2       9620     TIP3     H2       HT       0.417000       1.00800           0
     28861 W2       9621     TIP3     OH2      OT      -0.834000       15.9994           0
     28862 W2       9621     TIP3     H1       HT       0.417000       1.00800           0
     28863 W2       9621     TIP3     H2       HT       0.417000       1.00800           0
     28864 W2       9622     TIP3     OH2      OT      -0.834000       15.9994           0
     28865 W2       9622     TIP3     H1       HT       0.417000       1.00800           0
     28866 W2       9622     TIP3     H2       HT       0.417000       1.00800           0
     28867 W2       9623     TIP3     OH2      OT      -0.834000       15.9994           0
     28868 W2       9623     TIP3     H1       HT       0.417000       1.00800           0
     28869 W2       9623     TIP3     H2       HT       0.417000       1.00800           0
     28870 W2       9624     TIP3     OH2      OT      -0.834000       15.9994           0
     28871 W2       9624     TIP3     H1       HT       0.417000       1.00800           0
     28872 W2       9624     TIP3     H2       HT       0.417000       1.00800           0
     28873 W2       9625     TIP3     OH2      OT      -0.834000       15.9994           0
     28874 W2       9625     TIP3     H1       HT       0.417000       1.00800           0
     28875 W2       9625     TIP3     H2       HT       0.417000       1.00800           0
     28876 W2       9626     TIP3     OH2      OT      -0.834000       15.9994           0
     28877 W2       9626     TIP3     H1       HT       0.417000       1.00800           0
     28878 W2       9626     TIP3     H2       HT       0.417000       1.00800           0
     28879 W2       9627     TIP3     OH2      OT      -0.834000       15.9994           0
     28880 W2       9627     TIP3     H1       HT       0.417000       1.00800           0
     28881 W2       9627     TIP3     H2       HT       0.417000       1.00800           0
     28882 W2       9628     TIP3     OH2      OT      -0.834000       15.9994           0
     28883 W2       9628     TIP3     H1       HT       0.417000       1.00800           0
     28884 W2       9628     TIP3     H2       HT       0.417000       1.00800           0
     28885 W2       9629     TIP3     OH2      OT      -0.834000       15.9994           0
     28886 W2       9629     TIP3     H1       HT       0.417000       1.00800           0
     28887 W2       9629     TIP3     H2       HT       0.417000       1.00800           0
     28888 W2       9630     TIP3     OH2      OT      -0.834000       15.9994           0
     28889 W2       9630     TIP3     H1       HT       0.417000       1.00800           0
     28890 W2       9630     TIP3     H2       HT       0.417000       1.00800           0
     28891 W2       9631     TIP3     OH2      OT      -0.834000       15.9994           0
     28892 W2       9631     TIP3     H1       HT       0.417000       1.00800           0
     28893 W2       9631     TIP3     H2       HT       0.417000       1.00800           0
     28894 W2       9632     TIP3     OH2      OT      -0.834000       15.9994           0
     28895 W2       9632     TIP3     H1       HT       0.417000       1.00800           0
     28896 W2       9632     TIP3     H2       HT       0.417000       1.00800           0
     28897 W2       9633     TIP3     OH2      OT      -0.834000       15.9994           0
     28898 W2       9633     TIP3     H1       HT       0.417000       1.00800           0
     28899 W2       9633     TIP3     H2       HT       0.417000       1.00800           0
     28900 W2       9634     TIP3     OH2      OT      -0.834000       15.9994           0
     28901 W2       9634     TIP3     H1       HT       0.417000       1.00800           0
     28902 W2       9634     TIP3     H2       HT       0.417000       1.00800           0
     28903 W2       9635     TIP3     OH2      OT      -0.834000       15.9994           0
     28904 W2       9635     TIP3     H1       HT       0.417000       1.00800           0
     28905 W2       9635     TIP3     H2       HT       0.417000       1.00800           0
     28906 W2       9636     TIP3     OH2      OT      -0.834000       15.9994           0
     28907 W2       9636     TIP3     H1       HT       0.417000       1.00800           0
     28908 W2       9636     TIP3     H2       HT       0.417000       1.00800           0
     28909 W2       9637     TIP3     OH2      OT      -0.834000       15.9994           0
     28910 W2       9637     TIP3     H1       HT       0.417000       1.00800           0
     28911 W2       9637     TIP3     H2       HT       0.417000       1.00800           0
     28912 W2       9638     TIP3     OH2      OT      -0.834000       15.9994           0
     28913 W2       9638     TIP3     H1       HT       0.417000       1.00800           0
     28914 W2       9638     TIP3     H2       HT       0.417000       1.00800           0
     28915 W2       9639     TIP3     OH2      OT      -0.834000       15.9994           0
     28916 W2       9639     TIP3     H1       HT       0.417000       1.00800           0
     28917 W2       9639     TIP3     H2       HT       0.417000       1.00800           0
     28918 W2       9640     TIP3     OH2      OT      -0.834000       15.9994           0
     28919 W2       9640     TIP3     H1       HT       0.417000       1.00800           0
     28920 W2       9640     TIP3     H2       HT       0.417000       1.00800           0
     28921 W2       9641     TIP3     OH2      OT      -0.834000       15.9994           0
     28922 W2       9641     TIP3     H1       HT       0.417000       1.00800           0
     28923 W2       9641     TIP3     H2       HT       0.417000       1.00800           0
     28924 W2       9642     TIP3     OH2      OT      -0.834000       15.9994           0
     28925 W2       9642     TIP3     H1       HT       0.417000       1.00800           0
     28926 W2       9642     TIP3     H2       HT       0.417000       1.00800           0
     28927 W2       9643     TIP3     OH2      OT      -0.834000       15.9994           0
     28928 W2       9643     TIP3     H1       HT       0.417000       1.00800           0
     28929 W2       9643     TIP3     H2       HT       0.417000       1.00800           0
     28930 W2       9644     TIP3     OH2      OT      -0.834000       15.9994           0
     28931 W2       9644     TIP3     H1       HT       0.417000       1.00800           0
     28932 W2       9644     TIP3     H2       HT       0.417000       1.00800           0
     28933 W2       9645     TIP3     OH2      OT      -0.834000       15.9994           0
     28934 W2       9645     TIP3     H1       HT       0.417000       1.00800           0
     28935 W2       9645     TIP3     H2       HT       0.417000       1.00800           0
     28936 W2       9646     TIP3     OH2      OT      -0.834000       15.9994           0
     28937 W2       9646     TIP3     H1       HT       0.417000       1.00800           0
     28938 W2       9646     TIP3     H2       HT       0.417000       1.00800           0
     28939 W2       9647     TIP3     OH2      OT      -0.834000       15.9994           0
     28940 W2       9647     TIP3     H1       HT       0.417000       1.00800           0
     28941 W2       9647     TIP3     H2       HT       0.417000       1.00800           0
     28942 W2       9648     TIP3     OH2      OT      -0.834000       15.9994           0
     28943 W2       9648     TIP3     H1       HT       0.417000       1.00800           0
     28944 W2       9648     TIP3     H2       HT       0.417000       1.00800           0
     28945 W2       9649     TIP3     OH2      OT      -0.834000       15.9994           0
     28946 W2       9649     TIP3     H1       HT       0.417000       1.00800           0
     28947 W2       9649     TIP3     H2       HT       0.417000       1.00800           0
     28948 W2       9650     TIP3     OH2      OT      -0.834000       15.9994           0
     28949 W2       9650     TIP3     H1       HT       0.417000       1.00800           0
     28950 W2       9650     TIP3     H2       HT       0.417000       1.00800           0
     28951 W2       9651     TIP3     OH2      OT      -0.834000       15.9994           0
     28952 W2       9651     TIP3     H1       HT       0.417000       1.00800           0
     28953 W2       9651     TIP3     H2       HT       0.417000       1.00800           0
     28954 W2       9652     TIP3     OH2      OT      -0.834000       15.9994           0
     28955 W2       9652     TIP3     H1       HT       0.417000       1.00800           0
     28956 W2       9652     TIP3     H2       HT       0.417000       1.00800           0
     28957 W2       9653     TIP3     OH2      OT      -0.834000       15.9994           0
     28958 W2       9653     TIP3     H1       HT       0.417000       1.00800           0
     28959 W2       9653     TIP3     H2       HT       0.417000       1.00800           0
     28960 W2       9654     TIP3     OH2      OT      -0.834000       15.9994           0
     28961 W2       9654     TIP3     H1       HT       0.417000       1.00800           0
     28962 W2       9654     TIP3     H2       HT       0.417000       1.00800           0
     28963 W2       9655     TIP3     OH2      OT      -0.834000       15.9994           0
     28964 W2       9655     TIP3     H1       HT       0.417000       1.00800           0
     28965 W2       9655     TIP3     H2       HT       0.417000       1.00800           0
     28966 W2       9656     TIP3     OH2      OT      -0.834000       15.9994           0
     28967 W2       9656     TIP3     H1       HT       0.417000       1.00800           0
     28968 W2       9656     TIP3     H2       HT       0.417000       1.00800           0
     28969 W2       9657     TIP3     OH2      OT      -0.834000       15.9994           0
     28970 W2       9657     TIP3     H1       HT       0.417000       1.00800           0
     28971 W2       9657     TIP3     H2       HT       0.417000       1.00800           0
     28972 W2       9658     TIP3     OH2      OT      -0.834000       15.9994           0
     28973 W2       9658     TIP3     H1       HT       0.417000       1.00800           0
     28974 W2       9658     TIP3     H2       HT       0.417000       1.00800           0
     28975 W2       9659     TIP3     OH2      OT      -0.834000       15.9994           0
     28976 W2       9659     TIP3     H1       HT       0.417000       1.00800           0
     28977 W2       9659     TIP3     H2       HT       0.417000       1.00800           0
     28978 W2       9660     TIP3     OH2      OT      -0.834000       15.9994           0
     28979 W2       9660     TIP3     H1       HT       0.417000       1.00800           0
     28980 W2       9660     TIP3     H2       HT       0.417000       1.00800           0
     28981 W2       9661     TIP3     OH2      OT      -0.834000       15.9994           0
     28982 W2       9661     TIP3     H1       HT       0.417000       1.00800           0
     28983 W2       9661     TIP3     H2       HT       0.417000       1.00800           0
     28984 W2       9662     TIP3     OH2      OT      -0.834000       15.9994           0
     28985 W2       9662     TIP3     H1       HT       0.417000       1.00800           0
     28986 W2       9662     TIP3     H2       HT       0.417000       1.00800           0
     28987 W2       9663     TIP3     OH2      OT      -0.834000       15.9994           0
     28988 W2       9663     TIP3     H1       HT       0.417000       1.00800           0
     28989 W2       9663     TIP3     H2       HT       0.417000       1.00800           0
     28990 W2       9664     TIP3     OH2      OT      -0.834000       15.9994           0
     28991 W2       9664     TIP3     H1       HT       0.417000       1.00800           0
     28992 W2       9664     TIP3     H2       HT       0.417000       1.00800           0
     28993 W2       9665     TIP3     OH2      OT      -0.834000       15.9994           0
     28994 W2       9665     TIP3     H1       HT       0.417000       1.00800           0
     28995 W2       9665     TIP3     H2       HT       0.417000       1.00800           0
     28996 W2       9666     TIP3     OH2      OT      -0.834000       15.9994           0
     28997 W2       9666     TIP3     H1       HT       0.417000       1.00800           0
     28998 W2       9666     TIP3     H2       HT       0.417000       1.00800           0
     28999 W2       9667     TIP3     OH2      OT      -0.834000       15.9994           0
     29000 W2       9667     TIP3     H1       HT       0.417000       1.00800           0
     29001 W2       9667     TIP3     H2       HT       0.417000       1.00800           0
     29002 W2       9668     TIP3     OH2      OT      -0.834000       15.9994           0
     29003 W2       9668     TIP3     H1       HT       0.417000       1.00800           0
     29004 W2       9668     TIP3     H2       HT       0.417000       1.00800           0
     29005 W2       9669     TIP3     OH2      OT      -0.834000       15.9994           0
     29006 W2       9669     TIP3     H1       HT       0.417000       1.00800           0
     29007 W2       9669     TIP3     H2       HT       0.417000       1.00800           0
     29008 W2       9670     TIP3     OH2      OT      -0.834000       15.9994           0
     29009 W2       9670     TIP3     H1       HT       0.417000       1.00800           0
     29010 W2       9670     TIP3     H2       HT       0.417000       1.00800           0
     29011 W2       9671     TIP3     OH2      OT      -0.834000       15.9994           0
     29012 W2       9671     TIP3     H1       HT       0.417000       1.00800           0
     29013 W2       9671     TIP3     H2       HT       0.417000       1.00800           0
     29014 W2       9672     TIP3     OH2      OT      -0.834000       15.9994           0
     29015 W2       9672     TIP3     H1       HT       0.417000       1.00800           0
     29016 W2       9672     TIP3     H2       HT       0.417000       1.00800           0
     29017 W2       9673     TIP3     OH2      OT      -0.834000       15.9994           0
     29018 W2       9673     TIP3     H1       HT       0.417000       1.00800           0
     29019 W2       9673     TIP3     H2       HT       0.417000       1.00800           0
     29020 W2       9674     TIP3     OH2      OT      -0.834000       15.9994           0
     29021 W2       9674     TIP3     H1       HT       0.417000       1.00800           0
     29022 W2       9674     TIP3     H2       HT       0.417000       1.00800           0
     29023 W2       9675     TIP3     OH2      OT      -0.834000       15.9994           0
     29024 W2       9675     TIP3     H1       HT       0.417000       1.00800           0
     29025 W2       9675     TIP3     H2       HT       0.417000       1.00800           0
     29026 W2       9676     TIP3     OH2      OT      -0.834000       15.9994           0
     29027 W2       9676     TIP3     H1       HT       0.417000       1.00800           0
     29028 W2       9676     TIP3     H2       HT       0.417000       1.00800           0
     29029 W2       9677     TIP3     OH2      OT      -0.834000       15.9994           0
     29030 W2       9677     TIP3     H1       HT       0.417000       1.00800           0
     29031 W2       9677     TIP3     H2       HT       0.417000       1.00800           0
     29032 W2       9678     TIP3     OH2      OT      -0.834000       15.9994           0
     29033 W2       9678     TIP3     H1       HT       0.417000       1.00800           0
     29034 W2       9678     TIP3     H2       HT       0.417000       1.00800           0
     29035 W2       9679     TIP3     OH2      OT      -0.834000       15.9994           0
     29036 W2       9679     TIP3     H1       HT       0.417000       1.00800           0
     29037 W2       9679     TIP3     H2       HT       0.417000       1.00800           0
     29038 W2       9680     TIP3     OH2      OT      -0.834000       15.9994           0
     29039 W2       9680     TIP3     H1       HT       0.417000       1.00800           0
     29040 W2       9680     TIP3     H2       HT       0.417000       1.00800           0
     29041 W2       9681     TIP3     OH2      OT      -0.834000       15.9994           0
     29042 W2       9681     TIP3     H1       HT       0.417000       1.00800           0
     29043 W2       9681     TIP3     H2       HT       0.417000       1.00800           0
     29044 W2       9682     TIP3     OH2      OT      -0.834000       15.9994           0
     29045 W2       9682     TIP3     H1       HT       0.417000       1.00800           0
     29046 W2       9682     TIP3     H2       HT       0.417000       1.00800           0
     29047 W2       9683     TIP3     OH2      OT      -0.834000       15.9994           0
     29048 W2       9683     TIP3     H1       HT       0.417000       1.00800           0
     29049 W2       9683     TIP3     H2       HT       0.417000       1.00800           0
     29050 W2       9684     TIP3     OH2      OT      -0.834000       15.9994           0
     29051 W2       9684     TIP3     H1       HT       0.417000       1.00800           0
     29052 W2       9684     TIP3     H2       HT       0.417000       1.00800           0
     29053 W2       9685     TIP3     OH2      OT      -0.834000       15.9994           0
     29054 W2       9685     TIP3     H1       HT       0.417000       1.00800           0
     29055 W2       9685     TIP3     H2       HT       0.417000       1.00800           0
     29056 W2       9686     TIP3     OH2      OT      -0.834000       15.9994           0
     29057 W2       9686     TIP3     H1       HT       0.417000       1.00800           0
     29058 W2       9686     TIP3     H2       HT       0.417000       1.00800           0
     29059 W2       9687     TIP3     OH2      OT      -0.834000       15.9994           0
     29060 W2       9687     TIP3     H1       HT       0.417000       1.00800           0
     29061 W2       9687     TIP3     H2       HT       0.417000       1.00800           0
     29062 W2       9688     TIP3     OH2      OT      -0.834000       15.9994           0
     29063 W2       9688     TIP3     H1       HT       0.417000       1.00800           0
     29064 W2       9688     TIP3     H2       HT       0.417000       1.00800           0
     29065 W2       9689     TIP3     OH2      OT      -0.834000       15.9994           0
     29066 W2       9689     TIP3     H1       HT       0.417000       1.00800           0
     29067 W2       9689     TIP3     H2       HT       0.417000       1.00800           0
     29068 W2       9690     TIP3     OH2      OT      -0.834000       15.9994           0
     29069 W2       9690     TIP3     H1       HT       0.417000       1.00800           0
     29070 W2       9690     TIP3     H2       HT       0.417000       1.00800           0
     29071 W2       9691     TIP3     OH2      OT      -0.834000       15.9994           0
     29072 W2       9691     TIP3     H1       HT       0.417000       1.00800           0
     29073 W2       9691     TIP3     H2       HT       0.417000       1.00800           0
     29074 W2       9692     TIP3     OH2      OT      -0.834000       15.9994           0
     29075 W2       9692     TIP3     H1       HT       0.417000       1.00800           0
     29076 W2       9692     TIP3     H2       HT       0.417000       1.00800           0
     29077 W2       9693     TIP3     OH2      OT      -0.834000       15.9994           0
     29078 W2       9693     TIP3     H1       HT       0.417000       1.00800           0
     29079 W2       9693     TIP3     H2       HT       0.417000       1.00800           0
     29080 W2       9694     TIP3     OH2      OT      -0.834000       15.9994           0
     29081 W2       9694     TIP3     H1       HT       0.417000       1.00800           0
     29082 W2       9694     TIP3     H2       HT       0.417000       1.00800           0
     29083 W2       9695     TIP3     OH2      OT      -0.834000       15.9994           0
     29084 W2       9695     TIP3     H1       HT       0.417000       1.00800           0
     29085 W2       9695     TIP3     H2       HT       0.417000       1.00800           0
     29086 W2       9696     TIP3     OH2      OT      -0.834000       15.9994           0
     29087 W2       9696     TIP3     H1       HT       0.417000       1.00800           0
     29088 W2       9696     TIP3     H2       HT       0.417000       1.00800           0
     29089 W2       9697     TIP3     OH2      OT      -0.834000       15.9994           0
     29090 W2       9697     TIP3     H1       HT       0.417000       1.00800           0
     29091 W2       9697     TIP3     H2       HT       0.417000       1.00800           0
     29092 W2       9698     TIP3     OH2      OT      -0.834000       15.9994           0
     29093 W2       9698     TIP3     H1       HT       0.417000       1.00800           0
     29094 W2       9698     TIP3     H2       HT       0.417000       1.00800           0
     29095 W2       9699     TIP3     OH2      OT      -0.834000       15.9994           0
     29096 W2       9699     TIP3     H1       HT       0.417000       1.00800           0
     29097 W2       9699     TIP3     H2       HT       0.417000       1.00800           0
     29098 W2       9700     TIP3     OH2      OT      -0.834000       15.9994           0
     29099 W2       9700     TIP3     H1       HT       0.417000       1.00800           0
     29100 W2       9700     TIP3     H2       HT       0.417000       1.00800           0
     29101 W2       9701     TIP3     OH2      OT      -0.834000       15.9994           0
     29102 W2       9701     TIP3     H1       HT       0.417000       1.00800           0
     29103 W2       9701     TIP3     H2       HT       0.417000       1.00800           0
     29104 W2       9702     TIP3     OH2      OT      -0.834000       15.9994           0
     29105 W2       9702     TIP3     H1       HT       0.417000       1.00800           0
     29106 W2       9702     TIP3     H2       HT       0.417000       1.00800           0
     29107 W2       9703     TIP3     OH2      OT      -0.834000       15.9994           0
     29108 W2       9703     TIP3     H1       HT       0.417000       1.00800           0
     29109 W2       9703     TIP3     H2       HT       0.417000       1.00800           0
     29110 W2       9704     TIP3     OH2      OT      -0.834000       15.9994           0
     29111 W2       9704     TIP3     H1       HT       0.417000       1.00800           0
     29112 W2       9704     TIP3     H2       HT       0.417000       1.00800           0
     29113 W2       9705     TIP3     OH2      OT      -0.834000       15.9994           0
     29114 W2       9705     TIP3     H1       HT       0.417000       1.00800           0
     29115 W2       9705     TIP3     H2       HT       0.417000       1.00800           0
     29116 W2       9706     TIP3     OH2      OT      -0.834000       15.9994           0
     29117 W2       9706     TIP3     H1       HT       0.417000       1.00800           0
     29118 W2       9706     TIP3     H2       HT       0.417000       1.00800           0
     29119 W2       9707     TIP3     OH2      OT      -0.834000       15.9994           0
     29120 W2       9707     TIP3     H1       HT       0.417000       1.00800           0
     29121 W2       9707     TIP3     H2       HT       0.417000       1.00800           0
     29122 W2       9708     TIP3     OH2      OT      -0.834000       15.9994           0
     29123 W2       9708     TIP3     H1       HT       0.417000       1.00800           0
     29124 W2       9708     TIP3     H2       HT       0.417000       1.00800           0
     29125 W2       9709     TIP3     OH2      OT      -0.834000       15.9994           0
     29126 W2       9709     TIP3     H1       HT       0.417000       1.00800           0
     29127 W2       9709     TIP3     H2       HT       0.417000       1.00800           0
     29128 W2       9710     TIP3     OH2      OT      -0.834000       15.9994           0
     29129 W2       9710     TIP3     H1       HT       0.417000       1.00800           0
     29130 W2       9710     TIP3     H2       HT       0.417000       1.00800           0
     29131 W2       9711     TIP3     OH2      OT      -0.834000       15.9994           0
     29132 W2       9711     TIP3     H1       HT       0.417000       1.00800           0
     29133 W2       9711     TIP3     H2       HT       0.417000       1.00800           0
     29134 W2       9712     TIP3     OH2      OT      -0.834000       15.9994           0
     29135 W2       9712     TIP3     H1       HT       0.417000       1.00800           0
     29136 W2       9712     TIP3     H2       HT       0.417000       1.00800           0
     29137 W2       9713     TIP3     OH2      OT      -0.834000       15.9994           0
     29138 W2       9713     TIP3     H1       HT       0.417000       1.00800           0
     29139 W2       9713     TIP3     H2       HT       0.417000       1.00800           0
     29140 W2       9714     TIP3     OH2      OT      -0.834000       15.9994           0
     29141 W2       9714     TIP3     H1       HT       0.417000       1.00800           0
     29142 W2       9714     TIP3     H2       HT       0.417000       1.00800           0
     29143 W2       9715     TIP3     OH2      OT      -0.834000       15.9994           0
     29144 W2       9715     TIP3     H1       HT       0.417000       1.00800           0
     29145 W2       9715     TIP3     H2       HT       0.417000       1.00800           0
     29146 W2       9716     TIP3     OH2      OT      -0.834000       15.9994           0
     29147 W2       9716     TIP3     H1       HT       0.417000       1.00800           0
     29148 W2       9716     TIP3     H2       HT       0.417000       1.00800           0
     29149 W2       9717     TIP3     OH2      OT      -0.834000       15.9994           0
     29150 W2       9717     TIP3     H1       HT       0.417000       1.00800           0
     29151 W2       9717     TIP3     H2       HT       0.417000       1.00800           0
     29152 W2       9718     TIP3     OH2      OT      -0.834000       15.9994           0
     29153 W2       9718     TIP3     H1       HT       0.417000       1.00800           0
     29154 W2       9718     TIP3     H2       HT       0.417000       1.00800           0
     29155 W2       9719     TIP3     OH2      OT      -0.834000       15.9994           0
     29156 W2       9719     TIP3     H1       HT       0.417000       1.00800           0
     29157 W2       9719     TIP3     H2       HT       0.417000       1.00800           0
     29158 W2       9720     TIP3     OH2      OT      -0.834000       15.9994           0
     29159 W2       9720     TIP3     H1       HT       0.417000       1.00800           0
     29160 W2       9720     TIP3     H2       HT       0.417000       1.00800           0
     29161 W2       9721     TIP3     OH2      OT      -0.834000       15.9994           0
     29162 W2       9721     TIP3     H1       HT       0.417000       1.00800           0
     29163 W2       9721     TIP3     H2       HT       0.417000       1.00800           0
     29164 W2       9722     TIP3     OH2      OT      -0.834000       15.9994           0
     29165 W2       9722     TIP3     H1       HT       0.417000       1.00800           0
     29166 W2       9722     TIP3     H2       HT       0.417000       1.00800           0
     29167 W2       9723     TIP3     OH2      OT      -0.834000       15.9994           0
     29168 W2       9723     TIP3     H1       HT       0.417000       1.00800           0
     29169 W2       9723     TIP3     H2       HT       0.417000       1.00800           0
     29170 W2       9724     TIP3     OH2      OT      -0.834000       15.9994           0
     29171 W2       9724     TIP3     H1       HT       0.417000       1.00800           0
     29172 W2       9724     TIP3     H2       HT       0.417000       1.00800           0
     29173 W2       9725     TIP3     OH2      OT      -0.834000       15.9994           0
     29174 W2       9725     TIP3     H1       HT       0.417000       1.00800           0
     29175 W2       9725     TIP3     H2       HT       0.417000       1.00800           0
     29176 W2       9726     TIP3     OH2      OT      -0.834000       15.9994           0
     29177 W2       9726     TIP3     H1       HT       0.417000       1.00800           0
     29178 W2       9726     TIP3     H2       HT       0.417000       1.00800           0
     29179 W2       9727     TIP3     OH2      OT      -0.834000       15.9994           0
     29180 W2       9727     TIP3     H1       HT       0.417000       1.00800           0
     29181 W2       9727     TIP3     H2       HT       0.417000       1.00800           0
     29182 W2       9728     TIP3     OH2      OT      -0.834000       15.9994           0
     29183 W2       9728     TIP3     H1       HT       0.417000       1.00800           0
     29184 W2       9728     TIP3     H2       HT       0.417000       1.00800           0
     29185 W2       9729     TIP3     OH2      OT      -0.834000       15.9994           0
     29186 W2       9729     TIP3     H1       HT       0.417000       1.00800           0
     29187 W2       9729     TIP3     H2       HT       0.417000       1.00800           0
     29188 W2       9730     TIP3     OH2      OT      -0.834000       15.9994           0
     29189 W2       9730     TIP3     H1       HT       0.417000       1.00800           0
     29190 W2       9730     TIP3     H2       HT       0.417000       1.00800           0
     29191 W2       9731     TIP3     OH2      OT      -0.834000       15.9994           0
     29192 W2       9731     TIP3     H1       HT       0.417000       1.00800           0
     29193 W2       9731     TIP3     H2       HT       0.417000       1.00800           0
     29194 W2       9732     TIP3     OH2      OT      -0.834000       15.9994           0
     29195 W2       9732     TIP3     H1       HT       0.417000       1.00800           0
     29196 W2       9732     TIP3     H2       HT       0.417000       1.00800           0
     29197 W2       9733     TIP3     OH2      OT      -0.834000       15.9994           0
     29198 W2       9733     TIP3     H1       HT       0.417000       1.00800           0
     29199 W2       9733     TIP3     H2       HT       0.417000       1.00800           0
     29200 W2       9734     TIP3     OH2      OT      -0.834000       15.9994           0
     29201 W2       9734     TIP3     H1       HT       0.417000       1.00800           0
     29202 W2       9734     TIP3     H2       HT       0.417000       1.00800           0
     29203 W2       9735     TIP3     OH2      OT      -0.834000       15.9994           0
     29204 W2       9735     TIP3     H1       HT       0.417000       1.00800           0
     29205 W2       9735     TIP3     H2       HT       0.417000       1.00800           0
     29206 W2       9736     TIP3     OH2      OT      -0.834000       15.9994           0
     29207 W2       9736     TIP3     H1       HT       0.417000       1.00800           0
     29208 W2       9736     TIP3     H2       HT       0.417000       1.00800           0
     29209 W2       9737     TIP3     OH2      OT      -0.834000       15.9994           0
     29210 W2       9737     TIP3     H1       HT       0.417000       1.00800           0
     29211 W2       9737     TIP3     H2       HT       0.417000       1.00800           0
     29212 W2       9738     TIP3     OH2      OT      -0.834000       15.9994           0
     29213 W2       9738     TIP3     H1       HT       0.417000       1.00800           0
     29214 W2       9738     TIP3     H2       HT       0.417000       1.00800           0
     29215 W2       9739     TIP3     OH2      OT      -0.834000       15.9994           0
     29216 W2       9739     TIP3     H1       HT       0.417000       1.00800           0
     29217 W2       9739     TIP3     H2       HT       0.417000       1.00800           0
     29218 W2       9740     TIP3     OH2      OT      -0.834000       15.9994           0
     29219 W2       9740     TIP3     H1       HT       0.417000       1.00800           0
     29220 W2       9740     TIP3     H2       HT       0.417000       1.00800           0
     29221 W2       9741     TIP3     OH2      OT      -0.834000       15.9994           0
     29222 W2       9741     TIP3     H1       HT       0.417000       1.00800           0
     29223 W2       9741     TIP3     H2       HT       0.417000       1.00800           0
     29224 W2       9742     TIP3     OH2      OT      -0.834000       15.9994           0
     29225 W2       9742     TIP3     H1       HT       0.417000       1.00800           0
     29226 W2       9742     TIP3     H2       HT       0.417000       1.00800           0
     29227 W2       9743     TIP3     OH2      OT      -0.834000       15.9994           0
     29228 W2       9743     TIP3     H1       HT       0.417000       1.00800           0
     29229 W2       9743     TIP3     H2       HT       0.417000       1.00800           0
     29230 W2       9744     TIP3     OH2      OT      -0.834000       15.9994           0
     29231 W2       9744     TIP3     H1       HT       0.417000       1.00800           0
     29232 W2       9744     TIP3     H2       HT       0.417000       1.00800           0
     29233 W2       9745     TIP3     OH2      OT      -0.834000       15.9994           0
     29234 W2       9745     TIP3     H1       HT       0.417000       1.00800           0
     29235 W2       9745     TIP3     H2       HT       0.417000       1.00800           0
     29236 W2       9746     TIP3     OH2      OT      -0.834000       15.9994           0
     29237 W2       9746     TIP3     H1       HT       0.417000       1.00800           0
     29238 W2       9746     TIP3     H2       HT       0.417000       1.00800           0
     29239 W2       9747     TIP3     OH2      OT      -0.834000       15.9994           0
     29240 W2       9747     TIP3     H1       HT       0.417000       1.00800           0
     29241 W2       9747     TIP3     H2       HT       0.417000       1.00800           0
     29242 W2       9748     TIP3     OH2      OT      -0.834000       15.9994           0
     29243 W2       9748     TIP3     H1       HT       0.417000       1.00800           0
     29244 W2       9748     TIP3     H2       HT       0.417000       1.00800           0
     29245 W2       9749     TIP3     OH2      OT      -0.834000       15.9994           0
     29246 W2       9749     TIP3     H1       HT       0.417000       1.00800           0
     29247 W2       9749     TIP3     H2       HT       0.417000       1.00800           0
     29248 W2       9750     TIP3     OH2      OT      -0.834000       15.9994           0
     29249 W2       9750     TIP3     H1       HT       0.417000       1.00800           0
     29250 W2       9750     TIP3     H2       HT       0.417000       1.00800           0
     29251 W2       9751     TIP3     OH2      OT      -0.834000       15.9994           0
     29252 W2       9751     TIP3     H1       HT       0.417000       1.00800           0
     29253 W2       9751     TIP3     H2       HT       0.417000       1.00800           0
     29254 W2       9752     TIP3     OH2      OT      -0.834000       15.9994           0
     29255 W2       9752     TIP3     H1       HT       0.417000       1.00800           0
     29256 W2       9752     TIP3     H2       HT       0.417000       1.00800           0
     29257 W2       9753     TIP3     OH2      OT      -0.834000       15.9994           0
     29258 W2       9753     TIP3     H1       HT       0.417000       1.00800           0
     29259 W2       9753     TIP3     H2       HT       0.417000       1.00800           0
     29260 W2       9754     TIP3     OH2      OT      -0.834000       15.9994           0
     29261 W2       9754     TIP3     H1       HT       0.417000       1.00800           0
     29262 W2       9754     TIP3     H2       HT       0.417000       1.00800           0
     29263 W2       9755     TIP3     OH2      OT      -0.834000       15.9994           0
     29264 W2       9755     TIP3     H1       HT       0.417000       1.00800           0
     29265 W2       9755     TIP3     H2       HT       0.417000       1.00800           0
     29266 W2       9756     TIP3     OH2      OT      -0.834000       15.9994           0
     29267 W2       9756     TIP3     H1       HT       0.417000       1.00800           0
     29268 W2       9756     TIP3     H2       HT       0.417000       1.00800           0
     29269 W2       9757     TIP3     OH2      OT      -0.834000       15.9994           0
     29270 W2       9757     TIP3     H1       HT       0.417000       1.00800           0
     29271 W2       9757     TIP3     H2       HT       0.417000       1.00800           0
     29272 W2       9758     TIP3     OH2      OT      -0.834000       15.9994           0
     29273 W2       9758     TIP3     H1       HT       0.417000       1.00800           0
     29274 W2       9758     TIP3     H2       HT       0.417000       1.00800           0
     29275 W2       9759     TIP3     OH2      OT      -0.834000       15.9994           0
     29276 W2       9759     TIP3     H1       HT       0.417000       1.00800           0
     29277 W2       9759     TIP3     H2       HT       0.417000       1.00800           0
     29278 W2       9760     TIP3     OH2      OT      -0.834000       15.9994           0
     29279 W2       9760     TIP3     H1       HT       0.417000       1.00800           0
     29280 W2       9760     TIP3     H2       HT       0.417000       1.00800           0
     29281 W2       9761     TIP3     OH2      OT      -0.834000       15.9994           0
     29282 W2       9761     TIP3     H1       HT       0.417000       1.00800           0
     29283 W2       9761     TIP3     H2       HT       0.417000       1.00800           0
     29284 W2       9762     TIP3     OH2      OT      -0.834000       15.9994           0
     29285 W2       9762     TIP3     H1       HT       0.417000       1.00800           0
     29286 W2       9762     TIP3     H2       HT       0.417000       1.00800           0
     29287 W2       9763     TIP3     OH2      OT      -0.834000       15.9994           0
     29288 W2       9763     TIP3     H1       HT       0.417000       1.00800           0
     29289 W2       9763     TIP3     H2       HT       0.417000       1.00800           0
     29290 W2       9764     TIP3     OH2      OT      -0.834000       15.9994           0
     29291 W2       9764     TIP3     H1       HT       0.417000       1.00800           0
     29292 W2       9764     TIP3     H2       HT       0.417000       1.00800           0
     29293 W2       9765     TIP3     OH2      OT      -0.834000       15.9994           0
     29294 W2       9765     TIP3     H1       HT       0.417000       1.00800           0
     29295 W2       9765     TIP3     H2       HT       0.417000       1.00800           0
     29296 W2       9766     TIP3     OH2      OT      -0.834000       15.9994           0
     29297 W2       9766     TIP3     H1       HT       0.417000       1.00800           0
     29298 W2       9766     TIP3     H2       HT       0.417000       1.00800           0
     29299 W2       9767     TIP3     OH2      OT      -0.834000       15.9994           0
     29300 W2       9767     TIP3     H1       HT       0.417000       1.00800           0
     29301 W2       9767     TIP3     H2       HT       0.417000       1.00800           0
     29302 W2       9768     TIP3     OH2      OT      -0.834000       15.9994           0
     29303 W2       9768     TIP3     H1       HT       0.417000       1.00800           0
     29304 W2       9768     TIP3     H2       HT       0.417000       1.00800           0
     29305 W2       9769     TIP3     OH2      OT      -0.834000       15.9994           0
     29306 W2       9769     TIP3     H1       HT       0.417000       1.00800           0
     29307 W2       9769     TIP3     H2       HT       0.417000       1.00800           0
     29308 W2       9770     TIP3     OH2      OT      -0.834000       15.9994           0
     29309 W2       9770     TIP3     H1       HT       0.417000       1.00800           0
     29310 W2       9770     TIP3     H2       HT       0.417000       1.00800           0
     29311 W2       9771     TIP3     OH2      OT      -0.834000       15.9994           0
     29312 W2       9771     TIP3     H1       HT       0.417000       1.00800           0
     29313 W2       9771     TIP3     H2       HT       0.417000       1.00800           0
     29314 W2       9772     TIP3     OH2      OT      -0.834000       15.9994           0
     29315 W2       9772     TIP3     H1       HT       0.417000       1.00800           0
     29316 W2       9772     TIP3     H2       HT       0.417000       1.00800           0
     29317 W2       9773     TIP3     OH2      OT      -0.834000       15.9994           0
     29318 W2       9773     TIP3     H1       HT       0.417000       1.00800           0
     29319 W2       9773     TIP3     H2       HT       0.417000       1.00800           0
     29320 W2       9774     TIP3     OH2      OT      -0.834000       15.9994           0
     29321 W2       9774     TIP3     H1       HT       0.417000       1.00800           0
     29322 W2       9774     TIP3     H2       HT       0.417000       1.00800           0
     29323 W2       9775     TIP3     OH2      OT      -0.834000       15.9994           0
     29324 W2       9775     TIP3     H1       HT       0.417000       1.00800           0
     29325 W2       9775     TIP3     H2       HT       0.417000       1.00800           0
     29326 W2       9776     TIP3     OH2      OT      -0.834000       15.9994           0
     29327 W2       9776     TIP3     H1       HT       0.417000       1.00800           0
     29328 W2       9776     TIP3     H2       HT       0.417000       1.00800           0
     29329 W2       9777     TIP3     OH2      OT      -0.834000       15.9994           0
     29330 W2       9777     TIP3     H1       HT       0.417000       1.00800           0
     29331 W2       9777     TIP3     H2       HT       0.417000       1.00800           0
     29332 W2       9778     TIP3     OH2      OT      -0.834000       15.9994           0
     29333 W2       9778     TIP3     H1       HT       0.417000       1.00800           0
     29334 W2       9778     TIP3     H2       HT       0.417000       1.00800           0
     29335 W2       9779     TIP3     OH2      OT      -0.834000       15.9994           0
     29336 W2       9779     TIP3     H1       HT       0.417000       1.00800           0
     29337 W2       9779     TIP3     H2       HT       0.417000       1.00800           0
     29338 W2       9780     TIP3     OH2      OT      -0.834000       15.9994           0
     29339 W2       9780     TIP3     H1       HT       0.417000       1.00800           0
     29340 W2       9780     TIP3     H2       HT       0.417000       1.00800           0
     29341 W2       9781     TIP3     OH2      OT      -0.834000       15.9994           0
     29342 W2       9781     TIP3     H1       HT       0.417000       1.00800           0
     29343 W2       9781     TIP3     H2       HT       0.417000       1.00800           0
     29344 W2       9782     TIP3     OH2      OT      -0.834000       15.9994           0
     29345 W2       9782     TIP3     H1       HT       0.417000       1.00800           0
     29346 W2       9782     TIP3     H2       HT       0.417000       1.00800           0
     29347 W2       9783     TIP3     OH2      OT      -0.834000       15.9994           0
     29348 W2       9783     TIP3     H1       HT       0.417000       1.00800           0
     29349 W2       9783     TIP3     H2       HT       0.417000       1.00800           0
     29350 W2       9784     TIP3     OH2      OT      -0.834000       15.9994           0
     29351 W2       9784     TIP3     H1       HT       0.417000       1.00800           0
     29352 W2       9784     TIP3     H2       HT       0.417000       1.00800           0
     29353 W2       9785     TIP3     OH2      OT      -0.834000       15.9994           0
     29354 W2       9785     TIP3     H1       HT       0.417000       1.00800           0
     29355 W2       9785     TIP3     H2       HT       0.417000       1.00800           0
     29356 W2       9786     TIP3     OH2      OT      -0.834000       15.9994           0
     29357 W2       9786     TIP3     H1       HT       0.417000       1.00800           0
     29358 W2       9786     TIP3     H2       HT       0.417000       1.00800           0
     29359 W2       9787     TIP3     OH2      OT      -0.834000       15.9994           0
     29360 W2       9787     TIP3     H1       HT       0.417000       1.00800           0
     29361 W2       9787     TIP3     H2       HT       0.417000       1.00800           0
     29362 W2       9788     TIP3     OH2      OT      -0.834000       15.9994           0
     29363 W2       9788     TIP3     H1       HT       0.417000       1.00800           0
     29364 W2       9788     TIP3     H2       HT       0.417000       1.00800           0
     29365 W2       9789     TIP3     OH2      OT      -0.834000       15.9994           0
     29366 W2       9789     TIP3     H1       HT       0.417000       1.00800           0
     29367 W2       9789     TIP3     H2       HT       0.417000       1.00800           0
     29368 W2       9790     TIP3     OH2      OT      -0.834000       15.9994           0
     29369 W2       9790     TIP3     H1       HT       0.417000       1.00800           0
     29370 W2       9790     TIP3     H2       HT       0.417000       1.00800           0
     29371 W2       9791     TIP3     OH2      OT      -0.834000       15.9994           0
     29372 W2       9791     TIP3     H1       HT       0.417000       1.00800           0
     29373 W2       9791     TIP3     H2       HT       0.417000       1.00800           0
     29374 W2       9792     TIP3     OH2      OT      -0.834000       15.9994           0
     29375 W2       9792     TIP3     H1       HT       0.417000       1.00800           0
     29376 W2       9792     TIP3     H2       HT       0.417000       1.00800           0
     29377 W2       9793     TIP3     OH2      OT      -0.834000       15.9994           0
     29378 W2       9793     TIP3     H1       HT       0.417000       1.00800           0
     29379 W2       9793     TIP3     H2       HT       0.417000       1.00800           0
     29380 W2       9794     TIP3     OH2      OT      -0.834000       15.9994           0
     29381 W2       9794     TIP3     H1       HT       0.417000       1.00800           0
     29382 W2       9794     TIP3     H2       HT       0.417000       1.00800           0
     29383 W2       9795     TIP3     OH2      OT      -0.834000       15.9994           0
     29384 W2       9795     TIP3     H1       HT       0.417000       1.00800           0
     29385 W2       9795     TIP3     H2       HT       0.417000       1.00800           0
     29386 W2       9796     TIP3     OH2      OT      -0.834000       15.9994           0
     29387 W2       9796     TIP3     H1       HT       0.417000       1.00800           0
     29388 W2       9796     TIP3     H2       HT       0.417000       1.00800           0
     29389 W2       9797     TIP3     OH2      OT      -0.834000       15.9994           0
     29390 W2       9797     TIP3     H1       HT       0.417000       1.00800           0
     29391 W2       9797     TIP3     H2       HT       0.417000       1.00800           0
     29392 W2       9798     TIP3     OH2      OT      -0.834000       15.9994           0
     29393 W2       9798     TIP3     H1       HT       0.417000       1.00800           0
     29394 W2       9798     TIP3     H2       HT       0.417000       1.00800           0
     29395 W2       9799     TIP3     OH2      OT      -0.834000       15.9994           0
     29396 W2       9799     TIP3     H1       HT       0.417000       1.00800           0
     29397 W2       9799     TIP3     H2       HT       0.417000       1.00800           0
     29398 W2       9800     TIP3     OH2      OT      -0.834000       15.9994           0
     29399 W2       9800     TIP3     H1       HT       0.417000       1.00800           0
     29400 W2       9800     TIP3     H2       HT       0.417000       1.00800           0
     29401 W2       9801     TIP3     OH2      OT      -0.834000       15.9994           0
     29402 W2       9801     TIP3     H1       HT       0.417000       1.00800           0
     29403 W2       9801     TIP3     H2       HT       0.417000       1.00800           0
     29404 W2       9802     TIP3     OH2      OT      -0.834000       15.9994           0
     29405 W2       9802     TIP3     H1       HT       0.417000       1.00800           0
     29406 W2       9802     TIP3     H2       HT       0.417000       1.00800           0
     29407 W2       9803     TIP3     OH2      OT      -0.834000       15.9994           0
     29408 W2       9803     TIP3     H1       HT       0.417000       1.00800           0
     29409 W2       9803     TIP3     H2       HT       0.417000       1.00800           0
     29410 W2       9804     TIP3     OH2      OT      -0.834000       15.9994           0
     29411 W2       9804     TIP3     H1       HT       0.417000       1.00800           0
     29412 W2       9804     TIP3     H2       HT       0.417000       1.00800           0
     29413 W2       9805     TIP3     OH2      OT      -0.834000       15.9994           0
     29414 W2       9805     TIP3     H1       HT       0.417000       1.00800           0
     29415 W2       9805     TIP3     H2       HT       0.417000       1.00800           0
     29416 W2       9806     TIP3     OH2      OT      -0.834000       15.9994           0
     29417 W2       9806     TIP3     H1       HT       0.417000       1.00800           0
     29418 W2       9806     TIP3     H2       HT       0.417000       1.00800           0
     29419 W2       9807     TIP3     OH2      OT      -0.834000       15.9994           0
     29420 W2       9807     TIP3     H1       HT       0.417000       1.00800           0
     29421 W2       9807     TIP3     H2       HT       0.417000       1.00800           0
     29422 W2       9808     TIP3     OH2      OT      -0.834000       15.9994           0
     29423 W2       9808     TIP3     H1       HT       0.417000       1.00800           0
     29424 W2       9808     TIP3     H2       HT       0.417000       1.00800           0
     29425 W2       9809     TIP3     OH2      OT      -0.834000       15.9994           0
     29426 W2       9809     TIP3     H1       HT       0.417000       1.00800           0
     29427 W2       9809     TIP3     H2       HT       0.417000       1.00800           0
     29428 W2       9810     TIP3     OH2      OT      -0.834000       15.9994           0
     29429 W2       9810     TIP3     H1       HT       0.417000       1.00800           0
     29430 W2       9810     TIP3     H2       HT       0.417000       1.00800           0
     29431 W2       9811     TIP3     OH2      OT      -0.834000       15.9994           0
     29432 W2       9811     TIP3     H1       HT       0.417000       1.00800           0
     29433 W2       9811     TIP3     H2       HT       0.417000       1.00800           0
     29434 W2       9812     TIP3     OH2      OT      -0.834000       15.9994           0
     29435 W2       9812     TIP3     H1       HT       0.417000       1.00800           0
     29436 W2       9812     TIP3     H2       HT       0.417000       1.00800           0
     29437 W2       9813     TIP3     OH2      OT      -0.834000       15.9994           0
     29438 W2       9813     TIP3     H1       HT       0.417000       1.00800           0
     29439 W2       9813     TIP3     H2       HT       0.417000       1.00800           0
     29440 W2       9814     TIP3     OH2      OT      -0.834000       15.9994           0
     29441 W2       9814     TIP3     H1       HT       0.417000       1.00800           0
     29442 W2       9814     TIP3     H2       HT       0.417000       1.00800           0
     29443 W2       9815     TIP3     OH2      OT      -0.834000       15.9994           0
     29444 W2       9815     TIP3     H1       HT       0.417000       1.00800           0
     29445 W2       9815     TIP3     H2       HT       0.417000       1.00800           0
     29446 W2       9816     TIP3     OH2      OT      -0.834000       15.9994           0
     29447 W2       9816     TIP3     H1       HT       0.417000       1.00800           0
     29448 W2       9816     TIP3     H2       HT       0.417000       1.00800           0
     29449 W2       9817     TIP3     OH2      OT      -0.834000       15.9994           0
     29450 W2       9817     TIP3     H1       HT       0.417000       1.00800           0
     29451 W2       9817     TIP3     H2       HT       0.417000       1.00800           0
     29452 W2       9818     TIP3     OH2      OT      -0.834000       15.9994           0
     29453 W2       9818     TIP3     H1       HT       0.417000       1.00800           0
     29454 W2       9818     TIP3     H2       HT       0.417000       1.00800           0
     29455 W2       9819     TIP3     OH2      OT      -0.834000       15.9994           0
     29456 W2       9819     TIP3     H1       HT       0.417000       1.00800           0
     29457 W2       9819     TIP3     H2       HT       0.417000       1.00800           0
     29458 W2       9820     TIP3     OH2      OT      -0.834000       15.9994           0
     29459 W2       9820     TIP3     H1       HT       0.417000       1.00800           0
     29460 W2       9820     TIP3     H2       HT       0.417000       1.00800           0
     29461 W2       9821     TIP3     OH2      OT      -0.834000       15.9994           0
     29462 W2       9821     TIP3     H1       HT       0.417000       1.00800           0
     29463 W2       9821     TIP3     H2       HT       0.417000       1.00800           0
     29464 W2       9822     TIP3     OH2      OT      -0.834000       15.9994           0
     29465 W2       9822     TIP3     H1       HT       0.417000       1.00800           0
     29466 W2       9822     TIP3     H2       HT       0.417000       1.00800           0
     29467 W2       9823     TIP3     OH2      OT      -0.834000       15.9994           0
     29468 W2       9823     TIP3     H1       HT       0.417000       1.00800           0
     29469 W2       9823     TIP3     H2       HT       0.417000       1.00800           0
     29470 W2       9824     TIP3     OH2      OT      -0.834000       15.9994           0
     29471 W2       9824     TIP3     H1       HT       0.417000       1.00800           0
     29472 W2       9824     TIP3     H2       HT       0.417000       1.00800           0
     29473 W2       9825     TIP3     OH2      OT      -0.834000       15.9994           0
     29474 W2       9825     TIP3     H1       HT       0.417000       1.00800           0
     29475 W2       9825     TIP3     H2       HT       0.417000       1.00800           0
     29476 W2       9826     TIP3     OH2      OT      -0.834000       15.9994           0
     29477 W2       9826     TIP3     H1       HT       0.417000       1.00800           0
     29478 W2       9826     TIP3     H2       HT       0.417000       1.00800           0
     29479 W2       9827     TIP3     OH2      OT      -0.834000       15.9994           0
     29480 W2       9827     TIP3     H1       HT       0.417000       1.00800           0
     29481 W2       9827     TIP3     H2       HT       0.417000       1.00800           0
     29482 W2       9828     TIP3     OH2      OT      -0.834000       15.9994           0
     29483 W2       9828     TIP3     H1       HT       0.417000       1.00800           0
     29484 W2       9828     TIP3     H2       HT       0.417000       1.00800           0
     29485 W2       9829     TIP3     OH2      OT      -0.834000       15.9994           0
     29486 W2       9829     TIP3     H1       HT       0.417000       1.00800           0
     29487 W2       9829     TIP3     H2       HT       0.417000       1.00800           0
     29488 W2       9830     TIP3     OH2      OT      -0.834000       15.9994           0
     29489 W2       9830     TIP3     H1       HT       0.417000       1.00800           0
     29490 W2       9830     TIP3     H2       HT       0.417000       1.00800           0
     29491 W2       9831     TIP3     OH2      OT      -0.834000       15.9994           0
     29492 W2       9831     TIP3     H1       HT       0.417000       1.00800           0
     29493 W2       9831     TIP3     H2       HT       0.417000       1.00800           0
     29494 W2       9832     TIP3     OH2      OT      -0.834000       15.9994           0
     29495 W2       9832     TIP3     H1       HT       0.417000       1.00800           0
     29496 W2       9832     TIP3     H2       HT       0.417000       1.00800           0
     29497 W2       9833     TIP3     OH2      OT      -0.834000       15.9994           0
     29498 W2       9833     TIP3     H1       HT       0.417000       1.00800           0
     29499 W2       9833     TIP3     H2       HT       0.417000       1.00800           0
     29500 W2       9834     TIP3     OH2      OT      -0.834000       15.9994           0
     29501 W2       9834     TIP3     H1       HT       0.417000       1.00800           0
     29502 W2       9834     TIP3     H2       HT       0.417000       1.00800           0
     29503 W2       9835     TIP3     OH2      OT      -0.834000       15.9994           0
     29504 W2       9835     TIP3     H1       HT       0.417000       1.00800           0
     29505 W2       9835     TIP3     H2       HT       0.417000       1.00800           0
     29506 W2       9836     TIP3     OH2      OT      -0.834000       15.9994           0
     29507 W2       9836     TIP3     H1       HT       0.417000       1.00800           0
     29508 W2       9836     TIP3     H2       HT       0.417000       1.00800           0
     29509 W2       9837     TIP3     OH2      OT      -0.834000       15.9994           0
     29510 W2       9837     TIP3     H1       HT       0.417000       1.00800           0
     29511 W2       9837     TIP3     H2       HT       0.417000       1.00800           0
     29512 W2       9838     TIP3     OH2      OT      -0.834000       15.9994           0
     29513 W2       9838     TIP3     H1       HT       0.417000       1.00800           0
     29514 W2       9838     TIP3     H2       HT       0.417000       1.00800           0
     29515 W2       9839     TIP3     OH2      OT      -0.834000       15.9994           0
     29516 W2       9839     TIP3     H1       HT       0.417000       1.00800           0
     29517 W2       9839     TIP3     H2       HT       0.417000       1.00800           0
     29518 W2       9840     TIP3     OH2      OT      -0.834000       15.9994           0
     29519 W2       9840     TIP3     H1       HT       0.417000       1.00800           0
     29520 W2       9840     TIP3     H2       HT       0.417000       1.00800           0
     29521 W2       9841     TIP3     OH2      OT      -0.834000       15.9994           0
     29522 W2       9841     TIP3     H1       HT       0.417000       1.00800           0
     29523 W2       9841     TIP3     H2       HT       0.417000       1.00800           0
     29524 W2       9842     TIP3     OH2      OT      -0.834000       15.9994           0
     29525 W2       9842     TIP3     H1       HT       0.417000       1.00800           0
     29526 W2       9842     TIP3     H2       HT       0.417000       1.00800           0
     29527 W2       9843     TIP3     OH2      OT      -0.834000       15.9994           0
     29528 W2       9843     TIP3     H1       HT       0.417000       1.00800           0
     29529 W2       9843     TIP3     H2       HT       0.417000       1.00800           0
     29530 W2       9844     TIP3     OH2      OT      -0.834000       15.9994           0
     29531 W2       9844     TIP3     H1       HT       0.417000       1.00800           0
     29532 W2       9844     TIP3     H2       HT       0.417000       1.00800           0
     29533 W2       9845     TIP3     OH2      OT      -0.834000       15.9994           0
     29534 W2       9845     TIP3     H1       HT       0.417000       1.00800           0
     29535 W2       9845     TIP3     H2       HT       0.417000       1.00800           0
     29536 W2       9846     TIP3     OH2      OT      -0.834000       15.9994           0
     29537 W2       9846     TIP3     H1       HT       0.417000       1.00800           0
     29538 W2       9846     TIP3     H2       HT       0.417000       1.00800           0
     29539 W2       9847     TIP3     OH2      OT      -0.834000       15.9994           0
     29540 W2       9847     TIP3     H1       HT       0.417000       1.00800           0
     29541 W2       9847     TIP3     H2       HT       0.417000       1.00800           0
     29542 W2       9848     TIP3     OH2      OT      -0.834000       15.9994           0
     29543 W2       9848     TIP3     H1       HT       0.417000       1.00800           0
     29544 W2       9848     TIP3     H2       HT       0.417000       1.00800           0
     29545 W2       9849     TIP3     OH2      OT      -0.834000       15.9994           0
     29546 W2       9849     TIP3     H1       HT       0.417000       1.00800           0
     29547 W2       9849     TIP3     H2       HT       0.417000       1.00800           0
     29548 W2       9850     TIP3     OH2      OT      -0.834000       15.9994           0
     29549 W2       9850     TIP3     H1       HT       0.417000       1.00800           0
     29550 W2       9850     TIP3     H2       HT       0.417000       1.00800           0
     29551 W2       9851     TIP3     OH2      OT      -0.834000       15.9994           0
     29552 W2       9851     TIP3     H1       HT       0.417000       1.00800           0
     29553 W2       9851     TIP3     H2       HT       0.417000       1.00800           0
     29554 W2       9852     TIP3     OH2      OT      -0.834000       15.9994           0
     29555 W2       9852     TIP3     H1       HT       0.417000       1.00800           0
     29556 W2       9852     TIP3     H2       HT       0.417000       1.00800           0
     29557 W2       9853     TIP3     OH2      OT      -0.834000       15.9994           0
     29558 W2       9853     TIP3     H1       HT       0.417000       1.00800           0
     29559 W2       9853     TIP3     H2       HT       0.417000       1.00800           0
     29560 W2       9854     TIP3     OH2      OT      -0.834000       15.9994           0
     29561 W2       9854     TIP3     H1       HT       0.417000       1.00800           0
     29562 W2       9854     TIP3     H2       HT       0.417000       1.00800           0
     29563 W2       9855     TIP3     OH2      OT      -0.834000       15.9994           0
     29564 W2       9855     TIP3     H1       HT       0.417000       1.00800           0
     29565 W2       9855     TIP3     H2       HT       0.417000       1.00800           0
     29566 W2       9856     TIP3     OH2      OT      -0.834000       15.9994           0
     29567 W2       9856     TIP3     H1       HT       0.417000       1.00800           0
     29568 W2       9856     TIP3     H2       HT       0.417000       1.00800           0
     29569 W2       9857     TIP3     OH2      OT      -0.834000       15.9994           0
     29570 W2       9857     TIP3     H1       HT       0.417000       1.00800           0
     29571 W2       9857     TIP3     H2       HT       0.417000       1.00800           0
     29572 W2       9858     TIP3     OH2      OT      -0.834000       15.9994           0
     29573 W2       9858     TIP3     H1       HT       0.417000       1.00800           0
     29574 W2       9858     TIP3     H2       HT       0.417000       1.00800           0
     29575 W2       9859     TIP3     OH2      OT      -0.834000       15.9994           0
     29576 W2       9859     TIP3     H1       HT       0.417000       1.00800           0
     29577 W2       9859     TIP3     H2       HT       0.417000       1.00800           0
     29578 W2       9860     TIP3     OH2      OT      -0.834000       15.9994           0
     29579 W2       9860     TIP3     H1       HT       0.417000       1.00800           0
     29580 W2       9860     TIP3     H2       HT       0.417000       1.00800           0
     29581 W2       9861     TIP3     OH2      OT      -0.834000       15.9994           0
     29582 W2       9861     TIP3     H1       HT       0.417000       1.00800           0
     29583 W2       9861     TIP3     H2       HT       0.417000       1.00800           0
     29584 W2       9862     TIP3     OH2      OT      -0.834000       15.9994           0
     29585 W2       9862     TIP3     H1       HT       0.417000       1.00800           0
     29586 W2       9862     TIP3     H2       HT       0.417000       1.00800           0
     29587 W2       9863     TIP3     OH2      OT      -0.834000       15.9994           0
     29588 W2       9863     TIP3     H1       HT       0.417000       1.00800           0
     29589 W2       9863     TIP3     H2       HT       0.417000       1.00800           0
     29590 W2       9864     TIP3     OH2      OT      -0.834000       15.9994           0
     29591 W2       9864     TIP3     H1       HT       0.417000       1.00800           0
     29592 W2       9864     TIP3     H2       HT       0.417000       1.00800           0
     29593 W2       9865     TIP3     OH2      OT      -0.834000       15.9994           0
     29594 W2       9865     TIP3     H1       HT       0.417000       1.00800           0
     29595 W2       9865     TIP3     H2       HT       0.417000       1.00800           0
     29596 W2       9866     TIP3     OH2      OT      -0.834000       15.9994           0
     29597 W2       9866     TIP3     H1       HT       0.417000       1.00800           0
     29598 W2       9866     TIP3     H2       HT       0.417000       1.00800           0
     29599 W2       9867     TIP3     OH2      OT      -0.834000       15.9994           0
     29600 W2       9867     TIP3     H1       HT       0.417000       1.00800           0
     29601 W2       9867     TIP3     H2       HT       0.417000       1.00800           0
     29602 W2       9868     TIP3     OH2      OT      -0.834000       15.9994           0
     29603 W2       9868     TIP3     H1       HT       0.417000       1.00800           0
     29604 W2       9868     TIP3     H2       HT       0.417000       1.00800           0
     29605 W2       9869     TIP3     OH2      OT      -0.834000       15.9994           0
     29606 W2       9869     TIP3     H1       HT       0.417000       1.00800           0
     29607 W2       9869     TIP3     H2       HT       0.417000       1.00800           0
     29608 W2       9870     TIP3     OH2      OT      -0.834000       15.9994           0
     29609 W2       9870     TIP3     H1       HT       0.417000       1.00800           0
     29610 W2       9870     TIP3     H2       HT       0.417000       1.00800           0
     29611 W2       9871     TIP3     OH2      OT      -0.834000       15.9994           0
     29612 W2       9871     TIP3     H1       HT       0.417000       1.00800           0
     29613 W2       9871     TIP3     H2       HT       0.417000       1.00800           0
     29614 W2       9872     TIP3     OH2      OT      -0.834000       15.9994           0
     29615 W2       9872     TIP3     H1       HT       0.417000       1.00800           0
     29616 W2       9872     TIP3     H2       HT       0.417000       1.00800           0
     29617 W2       9873     TIP3     OH2      OT      -0.834000       15.9994           0
     29618 W2       9873     TIP3     H1       HT       0.417000       1.00800           0
     29619 W2       9873     TIP3     H2       HT       0.417000       1.00800           0
     29620 W2       9874     TIP3     OH2      OT      -0.834000       15.9994           0
     29621 W2       9874     TIP3     H1       HT       0.417000       1.00800           0
     29622 W2       9874     TIP3     H2       HT       0.417000       1.00800           0
     29623 W2       9875     TIP3     OH2      OT      -0.834000       15.9994           0
     29624 W2       9875     TIP3     H1       HT       0.417000       1.00800           0
     29625 W2       9875     TIP3     H2       HT       0.417000       1.00800           0
     29626 W2       9876     TIP3     OH2      OT      -0.834000       15.9994           0
     29627 W2       9876     TIP3     H1       HT       0.417000       1.00800           0
     29628 W2       9876     TIP3     H2       HT       0.417000       1.00800           0
     29629 W2       9877     TIP3     OH2      OT      -0.834000       15.9994           0
     29630 W2       9877     TIP3     H1       HT       0.417000       1.00800           0
     29631 W2       9877     TIP3     H2       HT       0.417000       1.00800           0
     29632 W2       9878     TIP3     OH2      OT      -0.834000       15.9994           0
     29633 W2       9878     TIP3     H1       HT       0.417000       1.00800           0
     29634 W2       9878     TIP3     H2       HT       0.417000       1.00800           0
     29635 W2       9879     TIP3     OH2      OT      -0.834000       15.9994           0
     29636 W2       9879     TIP3     H1       HT       0.417000       1.00800           0
     29637 W2       9879     TIP3     H2       HT       0.417000       1.00800           0
     29638 W2       9880     TIP3     OH2      OT      -0.834000       15.9994           0
     29639 W2       9880     TIP3     H1       HT       0.417000       1.00800           0
     29640 W2       9880     TIP3     H2       HT       0.417000       1.00800           0
     29641 W2       9881     TIP3     OH2      OT      -0.834000       15.9994           0
     29642 W2       9881     TIP3     H1       HT       0.417000       1.00800           0
     29643 W2       9881     TIP3     H2       HT       0.417000       1.00800           0
     29644 W2       9882     TIP3     OH2      OT      -0.834000       15.9994           0
     29645 W2       9882     TIP3     H1       HT       0.417000       1.00800           0
     29646 W2       9882     TIP3     H2       HT       0.417000       1.00800           0
     29647 W2       9883     TIP3     OH2      OT      -0.834000       15.9994           0
     29648 W2       9883     TIP3     H1       HT       0.417000       1.00800           0
     29649 W2       9883     TIP3     H2       HT       0.417000       1.00800           0
     29650 W2       9884     TIP3     OH2      OT      -0.834000       15.9994           0
     29651 W2       9884     TIP3     H1       HT       0.417000       1.00800           0
     29652 W2       9884     TIP3     H2       HT       0.417000       1.00800           0
     29653 W2       9885     TIP3     OH2      OT      -0.834000       15.9994           0
     29654 W2       9885     TIP3     H1       HT       0.417000       1.00800           0
     29655 W2       9885     TIP3     H2       HT       0.417000       1.00800           0
     29656 W2       9886     TIP3     OH2      OT      -0.834000       15.9994           0
     29657 W2       9886     TIP3     H1       HT       0.417000       1.00800           0
     29658 W2       9886     TIP3     H2       HT       0.417000       1.00800           0
     29659 W2       9887     TIP3     OH2      OT      -0.834000       15.9994           0
     29660 W2       9887     TIP3     H1       HT       0.417000       1.00800           0
     29661 W2       9887     TIP3     H2       HT       0.417000       1.00800           0
     29662 W2       9888     TIP3     OH2      OT      -0.834000       15.9994           0
     29663 W2       9888     TIP3     H1       HT       0.417000       1.00800           0
     29664 W2       9888     TIP3     H2       HT       0.417000       1.00800           0
     29665 W2       9889     TIP3     OH2      OT      -0.834000       15.9994           0
     29666 W2       9889     TIP3     H1       HT       0.417000       1.00800           0
     29667 W2       9889     TIP3     H2       HT       0.417000       1.00800           0
     29668 W2       9890     TIP3     OH2      OT      -0.834000       15.9994           0
     29669 W2       9890     TIP3     H1       HT       0.417000       1.00800           0
     29670 W2       9890     TIP3     H2       HT       0.417000       1.00800           0
     29671 W2       9891     TIP3     OH2      OT      -0.834000       15.9994           0
     29672 W2       9891     TIP3     H1       HT       0.417000       1.00800           0
     29673 W2       9891     TIP3     H2       HT       0.417000       1.00800           0
     29674 W2       9892     TIP3     OH2      OT      -0.834000       15.9994           0
     29675 W2       9892     TIP3     H1       HT       0.417000       1.00800           0
     29676 W2       9892     TIP3     H2       HT       0.417000       1.00800           0
     29677 W2       9893     TIP3     OH2      OT      -0.834000       15.9994           0
     29678 W2       9893     TIP3     H1       HT       0.417000       1.00800           0
     29679 W2       9893     TIP3     H2       HT       0.417000       1.00800           0
     29680 W2       9894     TIP3     OH2      OT      -0.834000       15.9994           0
     29681 W2       9894     TIP3     H1       HT       0.417000       1.00800           0
     29682 W2       9894     TIP3     H2       HT       0.417000       1.00800           0
     29683 W2       9895     TIP3     OH2      OT      -0.834000       15.9994           0
     29684 W2       9895     TIP3     H1       HT       0.417000       1.00800           0
     29685 W2       9895     TIP3     H2       HT       0.417000       1.00800           0
     29686 W2       9896     TIP3     OH2      OT      -0.834000       15.9994           0
     29687 W2       9896     TIP3     H1       HT       0.417000       1.00800           0
     29688 W2       9896     TIP3     H2       HT       0.417000       1.00800           0
     29689 W2       9897     TIP3     OH2      OT      -0.834000       15.9994           0
     29690 W2       9897     TIP3     H1       HT       0.417000       1.00800           0
     29691 W2       9897     TIP3     H2       HT       0.417000       1.00800           0
     29692 W2       9898     TIP3     OH2      OT      -0.834000       15.9994           0
     29693 W2       9898     TIP3     H1       HT       0.417000       1.00800           0
     29694 W2       9898     TIP3     H2       HT       0.417000       1.00800           0
     29695 W2       9899     TIP3     OH2      OT      -0.834000       15.9994           0
     29696 W2       9899     TIP3     H1       HT       0.417000       1.00800           0
     29697 W2       9899     TIP3     H2       HT       0.417000       1.00800           0
     29698 W2       9900     TIP3     OH2      OT      -0.834000       15.9994           0
     29699 W2       9900     TIP3     H1       HT       0.417000       1.00800           0
     29700 W2       9900     TIP3     H2       HT       0.417000       1.00800           0
     29701 W2       9901     TIP3     OH2      OT      -0.834000       15.9994           0
     29702 W2       9901     TIP3     H1       HT       0.417000       1.00800           0
     29703 W2       9901     TIP3     H2       HT       0.417000       1.00800           0
     29704 W2       9902     TIP3     OH2      OT      -0.834000       15.9994           0
     29705 W2       9902     TIP3     H1       HT       0.417000       1.00800           0
     29706 W2       9902     TIP3     H2       HT       0.417000       1.00800           0
     29707 W2       9903     TIP3     OH2      OT      -0.834000       15.9994           0
     29708 W2       9903     TIP3     H1       HT       0.417000       1.00800           0
     29709 W2       9903     TIP3     H2       HT       0.417000       1.00800           0
     29710 W2       9904     TIP3     OH2      OT      -0.834000       15.9994           0
     29711 W2       9904     TIP3     H1       HT       0.417000       1.00800           0
     29712 W2       9904     TIP3     H2       HT       0.417000       1.00800           0
     29713 W2       9905     TIP3     OH2      OT      -0.834000       15.9994           0
     29714 W2       9905     TIP3     H1       HT       0.417000       1.00800           0
     29715 W2       9905     TIP3     H2       HT       0.417000       1.00800           0
     29716 W2       9906     TIP3     OH2      OT      -0.834000       15.9994           0
     29717 W2       9906     TIP3     H1       HT       0.417000       1.00800           0
     29718 W2       9906     TIP3     H2       HT       0.417000       1.00800           0
     29719 W2       9907     TIP3     OH2      OT      -0.834000       15.9994           0
     29720 W2       9907     TIP3     H1       HT       0.417000       1.00800           0
     29721 W2       9907     TIP3     H2       HT       0.417000       1.00800           0
     29722 W2       9908     TIP3     OH2      OT      -0.834000       15.9994           0
     29723 W2       9908     TIP3     H1       HT       0.417000       1.00800           0
     29724 W2       9908     TIP3     H2       HT       0.417000       1.00800           0
     29725 W2       9909     TIP3     OH2      OT      -0.834000       15.9994           0
     29726 W2       9909     TIP3     H1       HT       0.417000       1.00800           0
     29727 W2       9909     TIP3     H2       HT       0.417000       1.00800           0
     29728 W2       9910     TIP3     OH2      OT      -0.834000       15.9994           0
     29729 W2       9910     TIP3     H1       HT       0.417000       1.00800           0
     29730 W2       9910     TIP3     H2       HT       0.417000       1.00800           0
     29731 W2       9911     TIP3     OH2      OT      -0.834000       15.9994           0
     29732 W2       9911     TIP3     H1       HT       0.417000       1.00800           0
     29733 W2       9911     TIP3     H2       HT       0.417000       1.00800           0
     29734 W2       9912     TIP3     OH2      OT      -0.834000       15.9994           0
     29735 W2       9912     TIP3     H1       HT       0.417000       1.00800           0
     29736 W2       9912     TIP3     H2       HT       0.417000       1.00800           0
     29737 W2       9913     TIP3     OH2      OT      -0.834000       15.9994           0
     29738 W2       9913     TIP3     H1       HT       0.417000       1.00800           0
     29739 W2       9913     TIP3     H2       HT       0.417000       1.00800           0
     29740 W2       9914     TIP3     OH2      OT      -0.834000       15.9994           0
     29741 W2       9914     TIP3     H1       HT       0.417000       1.00800           0
     29742 W2       9914     TIP3     H2       HT       0.417000       1.00800           0
     29743 W2       9915     TIP3     OH2      OT      -0.834000       15.9994           0
     29744 W2       9915     TIP3     H1       HT       0.417000       1.00800           0
     29745 W2       9915     TIP3     H2       HT       0.417000       1.00800           0
     29746 W2       9916     TIP3     OH2      OT      -0.834000       15.9994           0
     29747 W2       9916     TIP3     H1       HT       0.417000       1.00800           0
     29748 W2       9916     TIP3     H2       HT       0.417000       1.00800           0
     29749 W2       9917     TIP3     OH2      OT      -0.834000       15.9994           0
     29750 W2       9917     TIP3     H1       HT       0.417000       1.00800           0
     29751 W2       9917     TIP3     H2       HT       0.417000       1.00800           0
     29752 W2       9918     TIP3     OH2      OT      -0.834000       15.9994           0
     29753 W2       9918     TIP3     H1       HT       0.417000       1.00800           0
     29754 W2       9918     TIP3     H2       HT       0.417000       1.00800           0
     29755 W2       9919     TIP3     OH2      OT      -0.834000       15.9994           0
     29756 W2       9919     TIP3     H1       HT       0.417000       1.00800           0
     29757 W2       9919     TIP3     H2       HT       0.417000       1.00800           0
     29758 W2       9920     TIP3     OH2      OT      -0.834000       15.9994           0
     29759 W2       9920     TIP3     H1       HT       0.417000       1.00800           0
     29760 W2       9920     TIP3     H2       HT       0.417000       1.00800           0
     29761 W2       9921     TIP3     OH2      OT      -0.834000       15.9994           0
     29762 W2       9921     TIP3     H1       HT       0.417000       1.00800           0
     29763 W2       9921     TIP3     H2       HT       0.417000       1.00800           0
     29764 W2       9922     TIP3     OH2      OT      -0.834000       15.9994           0
     29765 W2       9922     TIP3     H1       HT       0.417000       1.00800           0
     29766 W2       9922     TIP3     H2       HT       0.417000       1.00800           0
     29767 W2       9923     TIP3     OH2      OT      -0.834000       15.9994           0
     29768 W2       9923     TIP3     H1       HT       0.417000       1.00800           0
     29769 W2       9923     TIP3     H2       HT       0.417000       1.00800           0
     29770 W2       9924     TIP3     OH2      OT      -0.834000       15.9994           0
     29771 W2       9924     TIP3     H1       HT       0.417000       1.00800           0
     29772 W2       9924     TIP3     H2       HT       0.417000       1.00800           0
     29773 W2       9925     TIP3     OH2      OT      -0.834000       15.9994           0
     29774 W2       9925     TIP3     H1       HT       0.417000       1.00800           0
     29775 W2       9925     TIP3     H2       HT       0.417000       1.00800           0
     29776 W2       9926     TIP3     OH2      OT      -0.834000       15.9994           0
     29777 W2       9926     TIP3     H1       HT       0.417000       1.00800           0
     29778 W2       9926     TIP3     H2       HT       0.417000       1.00800           0
     29779 W2       9927     TIP3     OH2      OT      -0.834000       15.9994           0
     29780 W2       9927     TIP3     H1       HT       0.417000       1.00800           0
     29781 W2       9927     TIP3     H2       HT       0.417000       1.00800           0
     29782 W2       9928     TIP3     OH2      OT      -0.834000       15.9994           0
     29783 W2       9928     TIP3     H1       HT       0.417000       1.00800           0
     29784 W2       9928     TIP3     H2       HT       0.417000       1.00800           0
     29785 W2       9929     TIP3     OH2      OT      -0.834000       15.9994           0
     29786 W2       9929     TIP3     H1       HT       0.417000       1.00800           0
     29787 W2       9929     TIP3     H2       HT       0.417000       1.00800           0
     29788 W2       9930     TIP3     OH2      OT      -0.834000       15.9994           0
     29789 W2       9930     TIP3     H1       HT       0.417000       1.00800           0
     29790 W2       9930     TIP3     H2       HT       0.417000       1.00800           0
     29791 W2       9931     TIP3     OH2      OT      -0.834000       15.9994           0
     29792 W2       9931     TIP3     H1       HT       0.417000       1.00800           0
     29793 W2       9931     TIP3     H2       HT       0.417000       1.00800           0
     29794 W2       9932     TIP3     OH2      OT      -0.834000       15.9994           0
     29795 W2       9932     TIP3     H1       HT       0.417000       1.00800           0
     29796 W2       9932     TIP3     H2       HT       0.417000       1.00800           0
     29797 W2       9933     TIP3     OH2      OT      -0.834000       15.9994           0
     29798 W2       9933     TIP3     H1       HT       0.417000       1.00800           0
     29799 W2       9933     TIP3     H2       HT       0.417000       1.00800           0
     29800 W2       9934     TIP3     OH2      OT      -0.834000       15.9994           0
     29801 W2       9934     TIP3     H1       HT       0.417000       1.00800           0
     29802 W2       9934     TIP3     H2       HT       0.417000       1.00800           0
     29803 W2       9935     TIP3     OH2      OT      -0.834000       15.9994           0
     29804 W2       9935     TIP3     H1       HT       0.417000       1.00800           0
     29805 W2       9935     TIP3     H2       HT       0.417000       1.00800           0
     29806 W2       9936     TIP3     OH2      OT      -0.834000       15.9994           0
     29807 W2       9936     TIP3     H1       HT       0.417000       1.00800           0
     29808 W2       9936     TIP3     H2       HT       0.417000       1.00800           0
     29809 W2       9937     TIP3     OH2      OT      -0.834000       15.9994           0
     29810 W2       9937     TIP3     H1       HT       0.417000       1.00800           0
     29811 W2       9937     TIP3     H2       HT       0.417000       1.00800           0
     29812 W2       9938     TIP3     OH2      OT      -0.834000       15.9994           0
     29813 W2       9938     TIP3     H1       HT       0.417000       1.00800           0
     29814 W2       9938     TIP3     H2       HT       0.417000       1.00800           0
     29815 W2       9939     TIP3     OH2      OT      -0.834000       15.9994           0
     29816 W2       9939     TIP3     H1       HT       0.417000       1.00800           0
     29817 W2       9939     TIP3     H2       HT       0.417000       1.00800           0
     29818 W2       9940     TIP3     OH2      OT      -0.834000       15.9994           0
     29819 W2       9940     TIP3     H1       HT       0.417000       1.00800           0
     29820 W2       9940     TIP3     H2       HT       0.417000       1.00800           0
     29821 W2       9941     TIP3     OH2      OT      -0.834000       15.9994           0
     29822 W2       9941     TIP3     H1       HT       0.417000       1.00800           0
     29823 W2       9941     TIP3     H2       HT       0.417000       1.00800           0
     29824 W2       9942     TIP3     OH2      OT      -0.834000       15.9994           0
     29825 W2       9942     TIP3     H1       HT       0.417000       1.00800           0
     29826 W2       9942     TIP3     H2       HT       0.417000       1.00800           0
     29827 W2       9943     TIP3     OH2      OT      -0.834000       15.9994           0
     29828 W2       9943     TIP3     H1       HT       0.417000       1.00800           0
     29829 W2       9943     TIP3     H2       HT       0.417000       1.00800           0
     29830 W2       9944     TIP3     OH2      OT      -0.834000       15.9994           0
     29831 W2       9944     TIP3     H1       HT       0.417000       1.00800           0
     29832 W2       9944     TIP3     H2       HT       0.417000       1.00800           0
     29833 W2       9945     TIP3     OH2      OT      -0.834000       15.9994           0
     29834 W2       9945     TIP3     H1       HT       0.417000       1.00800           0
     29835 W2       9945     TIP3     H2       HT       0.417000       1.00800           0
     29836 W2       9946     TIP3     OH2      OT      -0.834000       15.9994           0
     29837 W2       9946     TIP3     H1       HT       0.417000       1.00800           0
     29838 W2       9946     TIP3     H2       HT       0.417000       1.00800           0
     29839 W2       9947     TIP3     OH2      OT      -0.834000       15.9994           0
     29840 W2       9947     TIP3     H1       HT       0.417000       1.00800           0
     29841 W2       9947     TIP3     H2       HT       0.417000       1.00800           0
     29842 W2       9948     TIP3     OH2      OT      -0.834000       15.9994           0
     29843 W2       9948     TIP3     H1       HT       0.417000       1.00800           0
     29844 W2       9948     TIP3     H2       HT       0.417000       1.00800           0
     29845 W2       9949     TIP3     OH2      OT      -0.834000       15.9994           0
     29846 W2       9949     TIP3     H1       HT       0.417000       1.00800           0
     29847 W2       9949     TIP3     H2       HT       0.417000       1.00800           0
     29848 W2       9950     TIP3     OH2      OT      -0.834000       15.9994           0
     29849 W2       9950     TIP3     H1       HT       0.417000       1.00800           0
     29850 W2       9950     TIP3     H2       HT       0.417000       1.00800           0
     29851 W2       9951     TIP3     OH2      OT      -0.834000       15.9994           0
     29852 W2       9951     TIP3     H1       HT       0.417000       1.00800           0
     29853 W2       9951     TIP3     H2       HT       0.417000       1.00800           0
     29854 W2       9952     TIP3     OH2      OT      -0.834000       15.9994           0
     29855 W2       9952     TIP3     H1       HT       0.417000       1.00800           0
     29856 W2       9952     TIP3     H2       HT       0.417000       1.00800           0
     29857 W2       9953     TIP3     OH2      OT      -0.834000       15.9994           0
     29858 W2       9953     TIP3     H1       HT       0.417000       1.00800           0
     29859 W2       9953     TIP3     H2       HT       0.417000       1.00800           0
     29860 W2       9954     TIP3     OH2      OT      -0.834000       15.9994           0
     29861 W2       9954     TIP3     H1       HT       0.417000       1.00800           0
     29862 W2       9954     TIP3     H2       HT       0.417000       1.00800           0
     29863 W2       9955     TIP3     OH2      OT      -0.834000       15.9994           0
     29864 W2       9955     TIP3     H1       HT       0.417000       1.00800           0
     29865 W2       9955     TIP3     H2       HT       0.417000       1.00800           0
     29866 W2       9956     TIP3     OH2      OT      -0.834000       15.9994           0
     29867 W2       9956     TIP3     H1       HT       0.417000       1.00800           0
     29868 W2       9956     TIP3     H2       HT       0.417000       1.00800           0
     29869 W2       9957     TIP3     OH2      OT      -0.834000       15.9994           0
     29870 W2       9957     TIP3     H1       HT       0.417000       1.00800           0
     29871 W2       9957     TIP3     H2       HT       0.417000       1.00800           0
     29872 W2       9958     TIP3     OH2      OT      -0.834000       15.9994           0
     29873 W2       9958     TIP3     H1       HT       0.417000       1.00800           0
     29874 W2       9958     TIP3     H2       HT       0.417000       1.00800           0
     29875 W2       9959     TIP3     OH2      OT      -0.834000       15.9994           0
     29876 W2       9959     TIP3     H1       HT       0.417000       1.00800           0
     29877 W2       9959     TIP3     H2       HT       0.417000       1.00800           0
     29878 W2       9960     TIP3     OH2      OT      -0.834000       15.9994           0
     29879 W2       9960     TIP3     H1       HT       0.417000       1.00800           0
     29880 W2       9960     TIP3     H2       HT       0.417000       1.00800           0
     29881 W2       9961     TIP3     OH2      OT      -0.834000       15.9994           0
     29882 W2       9961     TIP3     H1       HT       0.417000       1.00800           0
     29883 W2       9961     TIP3     H2       HT       0.417000       1.00800           0
     29884 W2       9962     TIP3     OH2      OT      -0.834000       15.9994           0
     29885 W2       9962     TIP3     H1       HT       0.417000       1.00800           0
     29886 W2       9962     TIP3     H2       HT       0.417000       1.00800           0
     29887 W2       9963     TIP3     OH2      OT      -0.834000       15.9994           0
     29888 W2       9963     TIP3     H1       HT       0.417000       1.00800           0
     29889 W2       9963     TIP3     H2       HT       0.417000       1.00800           0
     29890 W2       9964     TIP3     OH2      OT      -0.834000       15.9994           0
     29891 W2       9964     TIP3     H1       HT       0.417000       1.00800           0
     29892 W2       9964     TIP3     H2       HT       0.417000       1.00800           0
     29893 W2       9965     TIP3     OH2      OT      -0.834000       15.9994           0
     29894 W2       9965     TIP3     H1       HT       0.417000       1.00800           0
     29895 W2       9965     TIP3     H2       HT       0.417000       1.00800           0
     29896 W2       9966     TIP3     OH2      OT      -0.834000       15.9994           0
     29897 W2       9966     TIP3     H1       HT       0.417000       1.00800           0
     29898 W2       9966     TIP3     H2       HT       0.417000       1.00800           0
     29899 W2       9967     TIP3     OH2      OT      -0.834000       15.9994           0
     29900 W2       9967     TIP3     H1       HT       0.417000       1.00800           0
     29901 W2       9967     TIP3     H2       HT       0.417000       1.00800           0
     29902 W2       9968     TIP3     OH2      OT      -0.834000       15.9994           0
     29903 W2       9968     TIP3     H1       HT       0.417000       1.00800           0
     29904 W2       9968     TIP3     H2       HT       0.417000       1.00800           0
     29905 W2       9969     TIP3     OH2      OT      -0.834000       15.9994           0
     29906 W2       9969     TIP3     H1       HT       0.417000       1.00800           0
     29907 W2       9969     TIP3     H2       HT       0.417000       1.00800           0
     29908 W2       9970     TIP3     OH2      OT      -0.834000       15.9994           0
     29909 W2       9970     TIP3     H1       HT       0.417000       1.00800           0
     29910 W2       9970     TIP3     H2       HT       0.417000       1.00800           0
     29911 W2       9971     TIP3     OH2      OT      -0.834000       15.9994           0
     29912 W2       9971     TIP3     H1       HT       0.417000       1.00800           0
     29913 W2       9971     TIP3     H2       HT       0.417000       1.00800           0
     29914 W2       9972     TIP3     OH2      OT      -0.834000       15.9994           0
     29915 W2       9972     TIP3     H1       HT       0.417000       1.00800           0
     29916 W2       9972     TIP3     H2       HT       0.417000       1.00800           0
     29917 W2       9973     TIP3     OH2      OT      -0.834000       15.9994           0
     29918 W2       9973     TIP3     H1       HT       0.417000       1.00800           0
     29919 W2       9973     TIP3     H2       HT       0.417000       1.00800           0
     29920 W2       9974     TIP3     OH2      OT      -0.834000       15.9994           0
     29921 W2       9974     TIP3     H1       HT       0.417000       1.00800           0
     29922 W2       9974     TIP3     H2       HT       0.417000       1.00800           0
     29923 W2       9975     TIP3     OH2      OT      -0.834000       15.9994           0
     29924 W2       9975     TIP3     H1       HT       0.417000       1.00800           0
     29925 W2       9975     TIP3     H2       HT       0.417000       1.00800           0
     29926 W2       9976     TIP3     OH2      OT      -0.834000       15.9994           0
     29927 W2       9976     TIP3     H1       HT       0.417000       1.00800           0
     29928 W2       9976     TIP3     H2       HT       0.417000       1.00800           0
     29929 W2       9977     TIP3     OH2      OT      -0.834000       15.9994           0
     29930 W2       9977     TIP3     H1       HT       0.417000       1.00800           0
     29931 W2       9977     TIP3     H2       HT       0.417000       1.00800           0
     29932 W2       9978     TIP3     OH2      OT      -0.834000       15.9994           0
     29933 W2       9978     TIP3     H1       HT       0.417000       1.00800           0
     29934 W2       9978     TIP3     H2       HT       0.417000       1.00800           0
     29935 W2       9979     TIP3     OH2      OT      -0.834000       15.9994           0
     29936 W2       9979     TIP3     H1       HT       0.417000       1.00800           0
     29937 W2       9979     TIP3     H2       HT       0.417000       1.00800           0
     29938 W2       9980     TIP3     OH2      OT      -0.834000       15.9994           0
     29939 W2       9980     TIP3     H1       HT       0.417000       1.00800           0
     29940 W2       9980     TIP3     H2       HT       0.417000       1.00800           0
     29941 W2       9981     TIP3     OH2      OT      -0.834000       15.9994           0
     29942 W2       9981     TIP3     H1       HT       0.417000       1.00800           0
     29943 W2       9981     TIP3     H2       HT       0.417000       1.00800           0
     29944 W2       9982     TIP3     OH2      OT      -0.834000       15.9994           0
     29945 W2       9982     TIP3     H1       HT       0.417000       1.00800           0
     29946 W2       9982     TIP3     H2       HT       0.417000       1.00800           0
     29947 W2       9983     TIP3     OH2      OT      -0.834000       15.9994           0
     29948 W2       9983     TIP3     H1       HT       0.417000       1.00800           0
     29949 W2       9983     TIP3     H2       HT       0.417000       1.00800           0
     29950 W2       9984     TIP3     OH2      OT      -0.834000       15.9994           0
     29951 W2       9984     TIP3     H1       HT       0.417000       1.00800           0
     29952 W2       9984     TIP3     H2       HT       0.417000       1.00800           0
     29953 W2       9985     TIP3     OH2      OT      -0.834000       15.9994           0
     29954 W2       9985     TIP3     H1       HT       0.417000       1.00800           0
     29955 W2       9985     TIP3     H2       HT       0.417000       1.00800           0
     29956 W2       9986     TIP3     OH2      OT      -0.834000       15.9994           0
     29957 W2       9986     TIP3     H1       HT       0.417000       1.00800           0
     29958 W2       9986     TIP3     H2       HT       0.417000       1.00800           0
     29959 W2       9987     TIP3     OH2      OT      -0.834000       15.9994           0
     29960 W2       9987     TIP3     H1       HT       0.417000       1.00800           0
     29961 W2       9987     TIP3     H2       HT       0.417000       1.00800           0
     29962 W2       9988     TIP3     OH2      OT      -0.834000       15.9994           0
     29963 W2       9988     TIP3     H1       HT       0.417000       1.00800           0
     29964 W2       9988     TIP3     H2       HT       0.417000       1.00800           0
     29965 W2       9989     TIP3     OH2      OT      -0.834000       15.9994           0
     29966 W2       9989     TIP3     H1       HT       0.417000       1.00800           0
     29967 W2       9989     TIP3     H2       HT       0.417000       1.00800           0
     29968 W2       9990     TIP3     OH2      OT      -0.834000       15.9994           0
     29969 W2       9990     TIP3     H1       HT       0.417000       1.00800           0
     29970 W2       9990     TIP3     H2       HT       0.417000       1.00800           0
     29971 W2       9991     TIP3     OH2      OT      -0.834000       15.9994           0
     29972 W2       9991     TIP3     H1       HT       0.417000       1.00800           0
     29973 W2       9991     TIP3     H2       HT       0.417000       1.00800           0
     29974 W2       9992     TIP3     OH2      OT      -0.834000       15.9994           0
     29975 W2       9992     TIP3     H1       HT       0.417000       1.00800           0
     29976 W2       9992     TIP3     H2       HT       0.417000       1.00800           0
     29977 W2       9993     TIP3     OH2      OT      -0.834000       15.9994           0
     29978 W2       9993     TIP3     H1       HT       0.417000       1.00800           0
     29979 W2       9993     TIP3     H2       HT       0.417000       1.00800           0
     29980 W2       9994     TIP3     OH2      OT      -0.834000       15.9994           0
     29981 W2       9994     TIP3     H1       HT       0.417000       1.00800           0
     29982 W2       9994     TIP3     H2       HT       0.417000       1.00800           0
     29983 W2       9995     TIP3     OH2      OT      -0.834000       15.9994           0
     29984 W2       9995     TIP3     H1       HT       0.417000       1.00800           0
     29985 W2       9995     TIP3     H2       HT       0.417000       1.00800           0
     29986 W2       9996     TIP3     OH2      OT      -0.834000       15.9994           0
     29987 W2       9996     TIP3     H1       HT       0.417000       1.00800           0
     29988 W2       9996     TIP3     H2       HT       0.417000       1.00800           0
     29989 W2       9997     TIP3     OH2      OT      -0.834000       15.9994           0
     29990 W2       9997     TIP3     H1       HT       0.417000       1.00800           0
     29991 W2       9997     TIP3     H2       HT       0.417000       1.00800           0
     29992 W2       9998     TIP3     OH2      OT      -0.834000       15.9994           0
     29993 W2       9998     TIP3     H1       HT       0.417000       1.00800           0
     29994 W2       9998     TIP3     H2       HT       0.417000       1.00800           0
     29995 W2       9999     TIP3     OH2      OT      -0.834000       15.9994           0
     29996 W2       9999     TIP3     H1       HT       0.417000       1.00800           0
     29997 W2       9999     TIP3     H2       HT       0.417000       1.00800           0
     29998 W2       10000    TIP3     OH2      OT      -0.834000       15.9994           0
     29999 W2       10000    TIP3     H1       HT       0.417000       1.00800           0
     30000 W2       10000    TIP3     H2       HT       0.417000       1.00800           0
     30001 W2       10001    TIP3     OH2      OT      -0.834000       15.9994           0
     30002 W2       10001    TIP3     H1       HT       0.417000       1.00800           0
     30003 W2       10001    TIP3     H2       HT       0.417000       1.00800           0
     30004 W2       10002    TIP3     OH2      OT      -0.834000       15.9994           0
     30005 W2       10002    TIP3     H1       HT       0.417000       1.00800           0
     30006 W2       10002    TIP3     H2       HT       0.417000       1.00800           0
     30007 W2       10003    TIP3     OH2      OT      -0.834000       15.9994           0
     30008 W2       10003    TIP3     H1       HT       0.417000       1.00800           0
     30009 W2       10003    TIP3     H2       HT       0.417000       1.00800           0
     30010 W2       10004    TIP3     OH2      OT      -0.834000       15.9994           0
     30011 W2       10004    TIP3     H1       HT       0.417000       1.00800           0
     30012 W2       10004    TIP3     H2       HT       0.417000       1.00800           0
     30013 W2       10005    TIP3     OH2      OT      -0.834000       15.9994           0
     30014 W2       10005    TIP3     H1       HT       0.417000       1.00800           0
     30015 W2       10005    TIP3     H2       HT       0.417000       1.00800           0
     30016 W2       10006    TIP3     OH2      OT      -0.834000       15.9994           0
     30017 W2       10006    TIP3     H1       HT       0.417000       1.00800           0
     30018 W2       10006    TIP3     H2       HT       0.417000       1.00800           0
     30019 W2       10007    TIP3     OH2      OT      -0.834000       15.9994           0
     30020 W2       10007    TIP3     H1       HT       0.417000       1.00800           0
     30021 W2       10007    TIP3     H2       HT       0.417000       1.00800           0
     30022 W2       10008    TIP3     OH2      OT      -0.834000       15.9994           0
     30023 W2       10008    TIP3     H1       HT       0.417000       1.00800           0
     30024 W2       10008    TIP3     H2       HT       0.417000       1.00800           0
     30025 W2       10009    TIP3     OH2      OT      -0.834000       15.9994           0
     30026 W2       10009    TIP3     H1       HT       0.417000       1.00800           0
     30027 W2       10009    TIP3     H2       HT       0.417000       1.00800           0
     30028 W2       10010    TIP3     OH2      OT      -0.834000       15.9994           0
     30029 W2       10010    TIP3     H1       HT       0.417000       1.00800           0
     30030 W2       10010    TIP3     H2       HT       0.417000       1.00800           0
     30031 W2       10011    TIP3     OH2      OT      -0.834000       15.9994           0
     30032 W2       10011    TIP3     H1       HT       0.417000       1.00800           0
     30033 W2       10011    TIP3     H2       HT       0.417000       1.00800           0
     30034 W2       10012    TIP3     OH2      OT      -0.834000       15.9994           0
     30035 W2       10012    TIP3     H1       HT       0.417000       1.00800           0
     30036 W2       10012    TIP3     H2       HT       0.417000       1.00800           0
     30037 W2       10013    TIP3     OH2      OT      -0.834000       15.9994           0
     30038 W2       10013    TIP3     H1       HT       0.417000       1.00800           0
     30039 W2       10013    TIP3     H2       HT       0.417000       1.00800           0
     30040 W2       10014    TIP3     OH2      OT      -0.834000       15.9994           0
     30041 W2       10014    TIP3     H1       HT       0.417000       1.00800           0
     30042 W2       10014    TIP3     H2       HT       0.417000       1.00800           0
     30043 W2       10015    TIP3     OH2      OT      -0.834000       15.9994           0
     30044 W2       10015    TIP3     H1       HT       0.417000       1.00800           0
     30045 W2       10015    TIP3     H2       HT       0.417000       1.00800           0
     30046 W2       10016    TIP3     OH2      OT      -0.834000       15.9994           0
     30047 W2       10016    TIP3     H1       HT       0.417000       1.00800           0
     30048 W2       10016    TIP3     H2       HT       0.417000       1.00800           0
     30049 W2       10017    TIP3     OH2      OT      -0.834000       15.9994           0
     30050 W2       10017    TIP3     H1       HT       0.417000       1.00800           0
     30051 W2       10017    TIP3     H2       HT       0.417000       1.00800           0
     30052 W2       10018    TIP3     OH2      OT      -0.834000       15.9994           0
     30053 W2       10018    TIP3     H1       HT       0.417000       1.00800           0
     30054 W2       10018    TIP3     H2       HT       0.417000       1.00800           0
     30055 W2       10019    TIP3     OH2      OT      -0.834000       15.9994           0
     30056 W2       10019    TIP3     H1       HT       0.417000       1.00800           0
     30057 W2       10019    TIP3     H2       HT       0.417000       1.00800           0
     30058 W2       10020    TIP3     OH2      OT      -0.834000       15.9994           0
     30059 W2       10020    TIP3     H1       HT       0.417000       1.00800           0
     30060 W2       10020    TIP3     H2       HT       0.417000       1.00800           0
     30061 W2       10021    TIP3     OH2      OT      -0.834000       15.9994           0
     30062 W2       10021    TIP3     H1       HT       0.417000       1.00800           0
     30063 W2       10021    TIP3     H2       HT       0.417000       1.00800           0
     30064 W2       10022    TIP3     OH2      OT      -0.834000       15.9994           0
     30065 W2       10022    TIP3     H1       HT       0.417000       1.00800           0
     30066 W2       10022    TIP3     H2       HT       0.417000       1.00800           0
     30067 W2       10023    TIP3     OH2      OT      -0.834000       15.9994           0
     30068 W2       10023    TIP3     H1       HT       0.417000       1.00800           0
     30069 W2       10023    TIP3     H2       HT       0.417000       1.00800           0
     30070 W2       10024    TIP3     OH2      OT      -0.834000       15.9994           0
     30071 W2       10024    TIP3     H1       HT       0.417000       1.00800           0
     30072 W2       10024    TIP3     H2       HT       0.417000       1.00800           0
     30073 W2       10025    TIP3     OH2      OT      -0.834000       15.9994           0
     30074 W2       10025    TIP3     H1       HT       0.417000       1.00800           0
     30075 W2       10025    TIP3     H2       HT       0.417000       1.00800           0
     30076 W2       10026    TIP3     OH2      OT      -0.834000       15.9994           0
     30077 W2       10026    TIP3     H1       HT       0.417000       1.00800           0
     30078 W2       10026    TIP3     H2       HT       0.417000       1.00800           0
     30079 W2       10027    TIP3     OH2      OT      -0.834000       15.9994           0
     30080 W2       10027    TIP3     H1       HT       0.417000       1.00800           0
     30081 W2       10027    TIP3     H2       HT       0.417000       1.00800           0
     30082 W2       10028    TIP3     OH2      OT      -0.834000       15.9994           0
     30083 W2       10028    TIP3     H1       HT       0.417000       1.00800           0
     30084 W2       10028    TIP3     H2       HT       0.417000       1.00800           0
     30085 W2       10029    TIP3     OH2      OT      -0.834000       15.9994           0
     30086 W2       10029    TIP3     H1       HT       0.417000       1.00800           0
     30087 W2       10029    TIP3     H2       HT       0.417000       1.00800           0
     30088 W2       10030    TIP3     OH2      OT      -0.834000       15.9994           0
     30089 W2       10030    TIP3     H1       HT       0.417000       1.00800           0
     30090 W2       10030    TIP3     H2       HT       0.417000       1.00800           0
     30091 W2       10031    TIP3     OH2      OT      -0.834000       15.9994           0
     30092 W2       10031    TIP3     H1       HT       0.417000       1.00800           0
     30093 W2       10031    TIP3     H2       HT       0.417000       1.00800           0
     30094 W2       10032    TIP3     OH2      OT      -0.834000       15.9994           0
     30095 W2       10032    TIP3     H1       HT       0.417000       1.00800           0
     30096 W2       10032    TIP3     H2       HT       0.417000       1.00800           0
     30097 W2       10033    TIP3     OH2      OT      -0.834000       15.9994           0
     30098 W2       10033    TIP3     H1       HT       0.417000       1.00800           0
     30099 W2       10033    TIP3     H2       HT       0.417000       1.00800           0
     30100 W2       10034    TIP3     OH2      OT      -0.834000       15.9994           0
     30101 W2       10034    TIP3     H1       HT       0.417000       1.00800           0
     30102 W2       10034    TIP3     H2       HT       0.417000       1.00800           0
     30103 W2       10035    TIP3     OH2      OT      -0.834000       15.9994           0
     30104 W2       10035    TIP3     H1       HT       0.417000       1.00800           0
     30105 W2       10035    TIP3     H2       HT       0.417000       1.00800           0
     30106 W2       10036    TIP3     OH2      OT      -0.834000       15.9994           0
     30107 W2       10036    TIP3     H1       HT       0.417000       1.00800           0
     30108 W2       10036    TIP3     H2       HT       0.417000       1.00800           0
     30109 W2       10037    TIP3     OH2      OT      -0.834000       15.9994           0
     30110 W2       10037    TIP3     H1       HT       0.417000       1.00800           0
     30111 W2       10037    TIP3     H2       HT       0.417000       1.00800           0
     30112 W2       10038    TIP3     OH2      OT      -0.834000       15.9994           0
     30113 W2       10038    TIP3     H1       HT       0.417000       1.00800           0
     30114 W2       10038    TIP3     H2       HT       0.417000       1.00800           0
     30115 W2       10039    TIP3     OH2      OT      -0.834000       15.9994           0
     30116 W2       10039    TIP3     H1       HT       0.417000       1.00800           0
     30117 W2       10039    TIP3     H2       HT       0.417000       1.00800           0
     30118 W2       10040    TIP3     OH2      OT      -0.834000       15.9994           0
     30119 W2       10040    TIP3     H1       HT       0.417000       1.00800           0
     30120 W2       10040    TIP3     H2       HT       0.417000       1.00800           0
     30121 W2       10041    TIP3     OH2      OT      -0.834000       15.9994           0
     30122 W2       10041    TIP3     H1       HT       0.417000       1.00800           0
     30123 W2       10041    TIP3     H2       HT       0.417000       1.00800           0
     30124 W2       10042    TIP3     OH2      OT      -0.834000       15.9994           0
     30125 W2       10042    TIP3     H1       HT       0.417000       1.00800           0
     30126 W2       10042    TIP3     H2       HT       0.417000       1.00800           0
     30127 W2       10043    TIP3     OH2      OT      -0.834000       15.9994           0
     30128 W2       10043    TIP3     H1       HT       0.417000       1.00800           0
     30129 W2       10043    TIP3     H2       HT       0.417000       1.00800           0
     30130 W2       10044    TIP3     OH2      OT      -0.834000       15.9994           0
     30131 W2       10044    TIP3     H1       HT       0.417000       1.00800           0
     30132 W2       10044    TIP3     H2       HT       0.417000       1.00800           0
     30133 W2       10045    TIP3     OH2      OT      -0.834000       15.9994           0
     30134 W2       10045    TIP3     H1       HT       0.417000       1.00800           0
     30135 W2       10045    TIP3     H2       HT       0.417000       1.00800           0
     30136 W2       10046    TIP3     OH2      OT      -0.834000       15.9994           0
     30137 W2       10046    TIP3     H1       HT       0.417000       1.00800           0
     30138 W2       10046    TIP3     H2       HT       0.417000       1.00800           0
     30139 W2       10047    TIP3     OH2      OT      -0.834000       15.9994           0
     30140 W2       10047    TIP3     H1       HT       0.417000       1.00800           0
     30141 W2       10047    TIP3     H2       HT       0.417000       1.00800           0
     30142 W2       10048    TIP3     OH2      OT      -0.834000       15.9994           0
     30143 W2       10048    TIP3     H1       HT       0.417000       1.00800           0
     30144 W2       10048    TIP3     H2       HT       0.417000       1.00800           0
     30145 W2       10049    TIP3     OH2      OT      -0.834000       15.9994           0
     30146 W2       10049    TIP3     H1       HT       0.417000       1.00800           0
     30147 W2       10049    TIP3     H2       HT       0.417000       1.00800           0
     30148 W2       10050    TIP3     OH2      OT      -0.834000       15.9994           0
     30149 W2       10050    TIP3     H1       HT       0.417000       1.00800           0
     30150 W2       10050    TIP3     H2       HT       0.417000       1.00800           0
     30151 W2       10051    TIP3     OH2      OT      -0.834000       15.9994           0
     30152 W2       10051    TIP3     H1       HT       0.417000       1.00800           0
     30153 W2       10051    TIP3     H2       HT       0.417000       1.00800           0
     30154 W2       10052    TIP3     OH2      OT      -0.834000       15.9994           0
     30155 W2       10052    TIP3     H1       HT       0.417000       1.00800           0
     30156 W2       10052    TIP3     H2       HT       0.417000       1.00800           0
     30157 W2       10053    TIP3     OH2      OT      -0.834000       15.9994           0
     30158 W2       10053    TIP3     H1       HT       0.417000       1.00800           0
     30159 W2       10053    TIP3     H2       HT       0.417000       1.00800           0
     30160 W2       10054    TIP3     OH2      OT      -0.834000       15.9994           0
     30161 W2       10054    TIP3     H1       HT       0.417000       1.00800           0
     30162 W2       10054    TIP3     H2       HT       0.417000       1.00800           0
     30163 W2       10055    TIP3     OH2      OT      -0.834000       15.9994           0
     30164 W2       10055    TIP3     H1       HT       0.417000       1.00800           0
     30165 W2       10055    TIP3     H2       HT       0.417000       1.00800           0
     30166 W2       10056    TIP3     OH2      OT      -0.834000       15.9994           0
     30167 W2       10056    TIP3     H1       HT       0.417000       1.00800           0
     30168 W2       10056    TIP3     H2       HT       0.417000       1.00800           0
     30169 W2       10057    TIP3     OH2      OT      -0.834000       15.9994           0
     30170 W2       10057    TIP3     H1       HT       0.417000       1.00800           0
     30171 W2       10057    TIP3     H2       HT       0.417000       1.00800           0
     30172 W2       10058    TIP3     OH2      OT      -0.834000       15.9994           0
     30173 W2       10058    TIP3     H1       HT       0.417000       1.00800           0
     30174 W2       10058    TIP3     H2       HT       0.417000       1.00800           0
     30175 W2       10059    TIP3     OH2      OT      -0.834000       15.9994           0
     30176 W2       10059    TIP3     H1       HT       0.417000       1.00800           0
     30177 W2       10059    TIP3     H2       HT       0.417000       1.00800           0
     30178 W2       10060    TIP3     OH2      OT      -0.834000       15.9994           0
     30179 W2       10060    TIP3     H1       HT       0.417000       1.00800           0
     30180 W2       10060    TIP3     H2       HT       0.417000       1.00800           0
     30181 W2       10061    TIP3     OH2      OT      -0.834000       15.9994           0
     30182 W2       10061    TIP3     H1       HT       0.417000       1.00800           0
     30183 W2       10061    TIP3     H2       HT       0.417000       1.00800           0
     30184 W2       10062    TIP3     OH2      OT      -0.834000       15.9994           0
     30185 W2       10062    TIP3     H1       HT       0.417000       1.00800           0
     30186 W2       10062    TIP3     H2       HT       0.417000       1.00800           0
     30187 W2       10063    TIP3     OH2      OT      -0.834000       15.9994           0
     30188 W2       10063    TIP3     H1       HT       0.417000       1.00800           0
     30189 W2       10063    TIP3     H2       HT       0.417000       1.00800           0
     30190 W2       10064    TIP3     OH2      OT      -0.834000       15.9994           0
     30191 W2       10064    TIP3     H1       HT       0.417000       1.00800           0
     30192 W2       10064    TIP3     H2       HT       0.417000       1.00800           0
     30193 W2       10065    TIP3     OH2      OT      -0.834000       15.9994           0
     30194 W2       10065    TIP3     H1       HT       0.417000       1.00800           0
     30195 W2       10065    TIP3     H2       HT       0.417000       1.00800           0
     30196 W2       10066    TIP3     OH2      OT      -0.834000       15.9994           0
     30197 W2       10066    TIP3     H1       HT       0.417000       1.00800           0
     30198 W2       10066    TIP3     H2       HT       0.417000       1.00800           0
     30199 W2       10067    TIP3     OH2      OT      -0.834000       15.9994           0
     30200 W2       10067    TIP3     H1       HT       0.417000       1.00800           0
     30201 W2       10067    TIP3     H2       HT       0.417000       1.00800           0
     30202 W2       10068    TIP3     OH2      OT      -0.834000       15.9994           0
     30203 W2       10068    TIP3     H1       HT       0.417000       1.00800           0
     30204 W2       10068    TIP3     H2       HT       0.417000       1.00800           0
     30205 W2       10069    TIP3     OH2      OT      -0.834000       15.9994           0
     30206 W2       10069    TIP3     H1       HT       0.417000       1.00800           0
     30207 W2       10069    TIP3     H2       HT       0.417000       1.00800           0
     30208 W2       10070    TIP3     OH2      OT      -0.834000       15.9994           0
     30209 W2       10070    TIP3     H1       HT       0.417000       1.00800           0
     30210 W2       10070    TIP3     H2       HT       0.417000       1.00800           0
     30211 W2       10071    TIP3     OH2      OT      -0.834000       15.9994           0
     30212 W2       10071    TIP3     H1       HT       0.417000       1.00800           0
     30213 W2       10071    TIP3     H2       HT       0.417000       1.00800           0
     30214 W2       10072    TIP3     OH2      OT      -0.834000       15.9994           0
     30215 W2       10072    TIP3     H1       HT       0.417000       1.00800           0
     30216 W2       10072    TIP3     H2       HT       0.417000       1.00800           0
     30217 W2       10073    TIP3     OH2      OT      -0.834000       15.9994           0
     30218 W2       10073    TIP3     H1       HT       0.417000       1.00800           0
     30219 W2       10073    TIP3     H2       HT       0.417000       1.00800           0
     30220 W2       10074    TIP3     OH2      OT      -0.834000       15.9994           0
     30221 W2       10074    TIP3     H1       HT       0.417000       1.00800           0
     30222 W2       10074    TIP3     H2       HT       0.417000       1.00800           0
     30223 W2       10075    TIP3     OH2      OT      -0.834000       15.9994           0
     30224 W2       10075    TIP3     H1       HT       0.417000       1.00800           0
     30225 W2       10075    TIP3     H2       HT       0.417000       1.00800           0
     30226 W2       10076    TIP3     OH2      OT      -0.834000       15.9994           0
     30227 W2       10076    TIP3     H1       HT       0.417000       1.00800           0
     30228 W2       10076    TIP3     H2       HT       0.417000       1.00800           0
     30229 W2       10077    TIP3     OH2      OT      -0.834000       15.9994           0
     30230 W2       10077    TIP3     H1       HT       0.417000       1.00800           0
     30231 W2       10077    TIP3     H2       HT       0.417000       1.00800           0
     30232 W2       10078    TIP3     OH2      OT      -0.834000       15.9994           0
     30233 W2       10078    TIP3     H1       HT       0.417000       1.00800           0
     30234 W2       10078    TIP3     H2       HT       0.417000       1.00800           0
     30235 W2       10079    TIP3     OH2      OT      -0.834000       15.9994           0
     30236 W2       10079    TIP3     H1       HT       0.417000       1.00800           0
     30237 W2       10079    TIP3     H2       HT       0.417000       1.00800           0
     30238 W2       10080    TIP3     OH2      OT      -0.834000       15.9994           0
     30239 W2       10080    TIP3     H1       HT       0.417000       1.00800           0
     30240 W2       10080    TIP3     H2       HT       0.417000       1.00800           0
     30241 W2       10081    TIP3     OH2      OT      -0.834000       15.9994           0
     30242 W2       10081    TIP3     H1       HT       0.417000       1.00800           0
     30243 W2       10081    TIP3     H2       HT       0.417000       1.00800           0
     30244 W2       10082    TIP3     OH2      OT      -0.834000       15.9994           0
     30245 W2       10082    TIP3     H1       HT       0.417000       1.00800           0
     30246 W2       10082    TIP3     H2       HT       0.417000       1.00800           0
     30247 W2       10083    TIP3     OH2      OT      -0.834000       15.9994           0
     30248 W2       10083    TIP3     H1       HT       0.417000       1.00800           0
     30249 W2       10083    TIP3     H2       HT       0.417000       1.00800           0
     30250 W2       10084    TIP3     OH2      OT      -0.834000       15.9994           0
     30251 W2       10084    TIP3     H1       HT       0.417000       1.00800           0
     30252 W2       10084    TIP3     H2       HT       0.417000       1.00800           0
     30253 W2       10085    TIP3     OH2      OT      -0.834000       15.9994           0
     30254 W2       10085    TIP3     H1       HT       0.417000       1.00800           0
     30255 W2       10085    TIP3     H2       HT       0.417000       1.00800           0
     30256 W2       10086    TIP3     OH2      OT      -0.834000       15.9994           0
     30257 W2       10086    TIP3     H1       HT       0.417000       1.00800           0
     30258 W2       10086    TIP3     H2       HT       0.417000       1.00800           0
     30259 W2       10087    TIP3     OH2      OT      -0.834000       15.9994           0
     30260 W2       10087    TIP3     H1       HT       0.417000       1.00800           0
     30261 W2       10087    TIP3     H2       HT       0.417000       1.00800           0
     30262 W2       10088    TIP3     OH2      OT      -0.834000       15.9994           0
     30263 W2       10088    TIP3     H1       HT       0.417000       1.00800           0
     30264 W2       10088    TIP3     H2       HT       0.417000       1.00800           0
     30265 W2       10089    TIP3     OH2      OT      -0.834000       15.9994           0
     30266 W2       10089    TIP3     H1       HT       0.417000       1.00800           0
     30267 W2       10089    TIP3     H2       HT       0.417000       1.00800           0
     30268 W2       10090    TIP3     OH2      OT      -0.834000       15.9994           0
     30269 W2       10090    TIP3     H1       HT       0.417000       1.00800           0
     30270 W2       10090    TIP3     H2       HT       0.417000       1.00800           0
     30271 W2       10091    TIP3     OH2      OT      -0.834000       15.9994           0
     30272 W2       10091    TIP3     H1       HT       0.417000       1.00800           0
     30273 W2       10091    TIP3     H2       HT       0.417000       1.00800           0
     30274 W2       10092    TIP3     OH2      OT      -0.834000       15.9994           0
     30275 W2       10092    TIP3     H1       HT       0.417000       1.00800           0
     30276 W2       10092    TIP3     H2       HT       0.417000       1.00800           0
     30277 W2       10093    TIP3     OH2      OT      -0.834000       15.9994           0
     30278 W2       10093    TIP3     H1       HT       0.417000       1.00800           0
     30279 W2       10093    TIP3     H2       HT       0.417000       1.00800           0
     30280 W2       10094    TIP3     OH2      OT      -0.834000       15.9994           0
     30281 W2       10094    TIP3     H1       HT       0.417000       1.00800           0
     30282 W2       10094    TIP3     H2       HT       0.417000       1.00800           0
     30283 W2       10095    TIP3     OH2      OT      -0.834000       15.9994           0
     30284 W2       10095    TIP3     H1       HT       0.417000       1.00800           0
     30285 W2       10095    TIP3     H2       HT       0.417000       1.00800           0
     30286 W2       10096    TIP3     OH2      OT      -0.834000       15.9994           0
     30287 W2       10096    TIP3     H1       HT       0.417000       1.00800           0
     30288 W2       10096    TIP3     H2       HT       0.417000       1.00800           0
     30289 W2       10097    TIP3     OH2      OT      -0.834000       15.9994           0
     30290 W2       10097    TIP3     H1       HT       0.417000       1.00800           0
     30291 W2       10097    TIP3     H2       HT       0.417000       1.00800           0
     30292 W2       10098    TIP3     OH2      OT      -0.834000       15.9994           0
     30293 W2       10098    TIP3     H1       HT       0.417000       1.00800           0
     30294 W2       10098    TIP3     H2       HT       0.417000       1.00800           0
     30295 W2       10099    TIP3     OH2      OT      -0.834000       15.9994           0
     30296 W2       10099    TIP3     H1       HT       0.417000       1.00800           0
     30297 W2       10099    TIP3     H2       HT       0.417000       1.00800           0
     30298 W2       10100    TIP3     OH2      OT      -0.834000       15.9994           0
     30299 W2       10100    TIP3     H1       HT       0.417000       1.00800           0
     30300 W2       10100    TIP3     H2       HT       0.417000       1.00800           0
     30301 W2       10101    TIP3     OH2      OT      -0.834000       15.9994           0
     30302 W2       10101    TIP3     H1       HT       0.417000       1.00800           0
     30303 W2       10101    TIP3     H2       HT       0.417000       1.00800           0
     30304 W2       10102    TIP3     OH2      OT      -0.834000       15.9994           0
     30305 W2       10102    TIP3     H1       HT       0.417000       1.00800           0
     30306 W2       10102    TIP3     H2       HT       0.417000       1.00800           0
     30307 W2       10103    TIP3     OH2      OT      -0.834000       15.9994           0
     30308 W2       10103    TIP3     H1       HT       0.417000       1.00800           0
     30309 W2       10103    TIP3     H2       HT       0.417000       1.00800           0
     30310 W2       10104    TIP3     OH2      OT      -0.834000       15.9994           0
     30311 W2       10104    TIP3     H1       HT       0.417000       1.00800           0
     30312 W2       10104    TIP3     H2       HT       0.417000       1.00800           0
     30313 W2       10105    TIP3     OH2      OT      -0.834000       15.9994           0
     30314 W2       10105    TIP3     H1       HT       0.417000       1.00800           0
     30315 W2       10105    TIP3     H2       HT       0.417000       1.00800           0
     30316 W2       10106    TIP3     OH2      OT      -0.834000       15.9994           0
     30317 W2       10106    TIP3     H1       HT       0.417000       1.00800           0
     30318 W2       10106    TIP3     H2       HT       0.417000       1.00800           0
     30319 W2       10107    TIP3     OH2      OT      -0.834000       15.9994           0
     30320 W2       10107    TIP3     H1       HT       0.417000       1.00800           0
     30321 W2       10107    TIP3     H2       HT       0.417000       1.00800           0
     30322 W2       10108    TIP3     OH2      OT      -0.834000       15.9994           0
     30323 W2       10108    TIP3     H1       HT       0.417000       1.00800           0
     30324 W2       10108    TIP3     H2       HT       0.417000       1.00800           0
     30325 W2       10109    TIP3     OH2      OT      -0.834000       15.9994           0
     30326 W2       10109    TIP3     H1       HT       0.417000       1.00800           0
     30327 W2       10109    TIP3     H2       HT       0.417000       1.00800           0
     30328 W2       10110    TIP3     OH2      OT      -0.834000       15.9994           0
     30329 W2       10110    TIP3     H1       HT       0.417000       1.00800           0
     30330 W2       10110    TIP3     H2       HT       0.417000       1.00800           0
     30331 W2       10111    TIP3     OH2      OT      -0.834000       15.9994           0
     30332 W2       10111    TIP3     H1       HT       0.417000       1.00800           0
     30333 W2       10111    TIP3     H2       HT       0.417000       1.00800           0
     30334 W2       10112    TIP3     OH2      OT      -0.834000       15.9994           0
     30335 W2       10112    TIP3     H1       HT       0.417000       1.00800           0
     30336 W2       10112    TIP3     H2       HT       0.417000       1.00800           0
     30337 W2       10113    TIP3     OH2      OT      -0.834000       15.9994           0
     30338 W2       10113    TIP3     H1       HT       0.417000       1.00800           0
     30339 W2       10113    TIP3     H2       HT       0.417000       1.00800           0
     30340 W2       10114    TIP3     OH2      OT      -0.834000       15.9994           0
     30341 W2       10114    TIP3     H1       HT       0.417000       1.00800           0
     30342 W2       10114    TIP3     H2       HT       0.417000       1.00800           0
     30343 W2       10115    TIP3     OH2      OT      -0.834000       15.9994           0
     30344 W2       10115    TIP3     H1       HT       0.417000       1.00800           0
     30345 W2       10115    TIP3     H2       HT       0.417000       1.00800           0
     30346 W2       10116    TIP3     OH2      OT      -0.834000       15.9994           0
     30347 W2       10116    TIP3     H1       HT       0.417000       1.00800           0
     30348 W2       10116    TIP3     H2       HT       0.417000       1.00800           0
     30349 W2       10117    TIP3     OH2      OT      -0.834000       15.9994           0
     30350 W2       10117    TIP3     H1       HT       0.417000       1.00800           0
     30351 W2       10117    TIP3     H2       HT       0.417000       1.00800           0
     30352 W2       10118    TIP3     OH2      OT      -0.834000       15.9994           0
     30353 W2       10118    TIP3     H1       HT       0.417000       1.00800           0
     30354 W2       10118    TIP3     H2       HT       0.417000       1.00800           0
     30355 W2       10119    TIP3     OH2      OT      -0.834000       15.9994           0
     30356 W2       10119    TIP3     H1       HT       0.417000       1.00800           0
     30357 W2       10119    TIP3     H2       HT       0.417000       1.00800           0
     30358 W2       10120    TIP3     OH2      OT      -0.834000       15.9994           0
     30359 W2       10120    TIP3     H1       HT       0.417000       1.00800           0
     30360 W2       10120    TIP3     H2       HT       0.417000       1.00800           0
     30361 W2       10121    TIP3     OH2      OT      -0.834000       15.9994           0
     30362 W2       10121    TIP3     H1       HT       0.417000       1.00800           0
     30363 W2       10121    TIP3     H2       HT       0.417000       1.00800           0
     30364 W2       10122    TIP3     OH2      OT      -0.834000       15.9994           0
     30365 W2       10122    TIP3     H1       HT       0.417000       1.00800           0
     30366 W2       10122    TIP3     H2       HT       0.417000       1.00800           0
     30367 W2       10123    TIP3     OH2      OT      -0.834000       15.9994           0
     30368 W2       10123    TIP3     H1       HT       0.417000       1.00800           0
     30369 W2       10123    TIP3     H2       HT       0.417000       1.00800           0
     30370 W2       10124    TIP3     OH2      OT      -0.834000       15.9994           0
     30371 W2       10124    TIP3     H1       HT       0.417000       1.00800           0
     30372 W2       10124    TIP3     H2       HT       0.417000       1.00800           0
     30373 W2       10125    TIP3     OH2      OT      -0.834000       15.9994           0
     30374 W2       10125    TIP3     H1       HT       0.417000       1.00800           0
     30375 W2       10125    TIP3     H2       HT       0.417000       1.00800           0
     30376 W2       10126    TIP3     OH2      OT      -0.834000       15.9994           0
     30377 W2       10126    TIP3     H1       HT       0.417000       1.00800           0
     30378 W2       10126    TIP3     H2       HT       0.417000       1.00800           0
     30379 W2       10127    TIP3     OH2      OT      -0.834000       15.9994           0
     30380 W2       10127    TIP3     H1       HT       0.417000       1.00800           0
     30381 W2       10127    TIP3     H2       HT       0.417000       1.00800           0
     30382 W2       10128    TIP3     OH2      OT      -0.834000       15.9994           0
     30383 W2       10128    TIP3     H1       HT       0.417000       1.00800           0
     30384 W2       10128    TIP3     H2       HT       0.417000       1.00800           0
     30385 W2       10129    TIP3     OH2      OT      -0.834000       15.9994           0
     30386 W2       10129    TIP3     H1       HT       0.417000       1.00800           0
     30387 W2       10129    TIP3     H2       HT       0.417000       1.00800           0
     30388 W2       10130    TIP3     OH2      OT      -0.834000       15.9994           0
     30389 W2       10130    TIP3     H1       HT       0.417000       1.00800           0
     30390 W2       10130    TIP3     H2       HT       0.417000       1.00800           0
     30391 W2       10131    TIP3     OH2      OT      -0.834000       15.9994           0
     30392 W2       10131    TIP3     H1       HT       0.417000       1.00800           0
     30393 W2       10131    TIP3     H2       HT       0.417000       1.00800           0
     30394 W2       10132    TIP3     OH2      OT      -0.834000       15.9994           0
     30395 W2       10132    TIP3     H1       HT       0.417000       1.00800           0
     30396 W2       10132    TIP3     H2       HT       0.417000       1.00800           0
     30397 W2       10133    TIP3     OH2      OT      -0.834000       15.9994           0
     30398 W2       10133    TIP3     H1       HT       0.417000       1.00800           0
     30399 W2       10133    TIP3     H2       HT       0.417000       1.00800           0
     30400 W2       10134    TIP3     OH2      OT      -0.834000       15.9994           0
     30401 W2       10134    TIP3     H1       HT       0.417000       1.00800           0
     30402 W2       10134    TIP3     H2       HT       0.417000       1.00800           0
     30403 W2       10135    TIP3     OH2      OT      -0.834000       15.9994           0
     30404 W2       10135    TIP3     H1       HT       0.417000       1.00800           0
     30405 W2       10135    TIP3     H2       HT       0.417000       1.00800           0
     30406 W2       10136    TIP3     OH2      OT      -0.834000       15.9994           0
     30407 W2       10136    TIP3     H1       HT       0.417000       1.00800           0
     30408 W2       10136    TIP3     H2       HT       0.417000       1.00800           0
     30409 W2       10137    TIP3     OH2      OT      -0.834000       15.9994           0
     30410 W2       10137    TIP3     H1       HT       0.417000       1.00800           0
     30411 W2       10137    TIP3     H2       HT       0.417000       1.00800           0
     30412 W2       10138    TIP3     OH2      OT      -0.834000       15.9994           0
     30413 W2       10138    TIP3     H1       HT       0.417000       1.00800           0
     30414 W2       10138    TIP3     H2       HT       0.417000       1.00800           0
     30415 W2       10139    TIP3     OH2      OT      -0.834000       15.9994           0
     30416 W2       10139    TIP3     H1       HT       0.417000       1.00800           0
     30417 W2       10139    TIP3     H2       HT       0.417000       1.00800           0
     30418 W2       10140    TIP3     OH2      OT      -0.834000       15.9994           0
     30419 W2       10140    TIP3     H1       HT       0.417000       1.00800           0
     30420 W2       10140    TIP3     H2       HT       0.417000       1.00800           0
     30421 W2       10141    TIP3     OH2      OT      -0.834000       15.9994           0
     30422 W2       10141    TIP3     H1       HT       0.417000       1.00800           0
     30423 W2       10141    TIP3     H2       HT       0.417000       1.00800           0
     30424 W2       10142    TIP3     OH2      OT      -0.834000       15.9994           0
     30425 W2       10142    TIP3     H1       HT       0.417000       1.00800           0
     30426 W2       10142    TIP3     H2       HT       0.417000       1.00800           0
     30427 W2       10143    TIP3     OH2      OT      -0.834000       15.9994           0
     30428 W2       10143    TIP3     H1       HT       0.417000       1.00800           0
     30429 W2       10143    TIP3     H2       HT       0.417000       1.00800           0
     30430 W2       10144    TIP3     OH2      OT      -0.834000       15.9994           0
     30431 W2       10144    TIP3     H1       HT       0.417000       1.00800           0
     30432 W2       10144    TIP3     H2       HT       0.417000       1.00800           0
     30433 W2       10145    TIP3     OH2      OT      -0.834000       15.9994           0
     30434 W2       10145    TIP3     H1       HT       0.417000       1.00800           0
     30435 W2       10145    TIP3     H2       HT       0.417000       1.00800           0
     30436 W2       10146    TIP3     OH2      OT      -0.834000       15.9994           0
     30437 W2       10146    TIP3     H1       HT       0.417000       1.00800           0
     30438 W2       10146    TIP3     H2       HT       0.417000       1.00800           0
     30439 W2       10147    TIP3     OH2      OT      -0.834000       15.9994           0
     30440 W2       10147    TIP3     H1       HT       0.417000       1.00800           0
     30441 W2       10147    TIP3     H2       HT       0.417000       1.00800           0
     30442 W2       10148    TIP3     OH2      OT      -0.834000       15.9994           0
     30443 W2       10148    TIP3     H1       HT       0.417000       1.00800           0
     30444 W2       10148    TIP3     H2       HT       0.417000       1.00800           0
     30445 W2       10149    TIP3     OH2      OT      -0.834000       15.9994           0
     30446 W2       10149    TIP3     H1       HT       0.417000       1.00800           0
     30447 W2       10149    TIP3     H2       HT       0.417000       1.00800           0
     30448 W2       10150    TIP3     OH2      OT      -0.834000       15.9994           0
     30449 W2       10150    TIP3     H1       HT       0.417000       1.00800           0
     30450 W2       10150    TIP3     H2       HT       0.417000       1.00800           0
     30451 W2       10151    TIP3     OH2      OT      -0.834000       15.9994           0
     30452 W2       10151    TIP3     H1       HT       0.417000       1.00800           0
     30453 W2       10151    TIP3     H2       HT       0.417000       1.00800           0
     30454 W2       10152    TIP3     OH2      OT      -0.834000       15.9994           0
     30455 W2       10152    TIP3     H1       HT       0.417000       1.00800           0
     30456 W2       10152    TIP3     H2       HT       0.417000       1.00800           0
     30457 W2       10153    TIP3     OH2      OT      -0.834000       15.9994           0
     30458 W2       10153    TIP3     H1       HT       0.417000       1.00800           0
     30459 W2       10153    TIP3     H2       HT       0.417000       1.00800           0
     30460 W2       10154    TIP3     OH2      OT      -0.834000       15.9994           0
     30461 W2       10154    TIP3     H1       HT       0.417000       1.00800           0
     30462 W2       10154    TIP3     H2       HT       0.417000       1.00800           0
     30463 W2       10155    TIP3     OH2      OT      -0.834000       15.9994           0
     30464 W2       10155    TIP3     H1       HT       0.417000       1.00800           0
     30465 W2       10155    TIP3     H2       HT       0.417000       1.00800           0
     30466 W2       10156    TIP3     OH2      OT      -0.834000       15.9994           0
     30467 W2       10156    TIP3     H1       HT       0.417000       1.00800           0
     30468 W2       10156    TIP3     H2       HT       0.417000       1.00800           0
     30469 W2       10157    TIP3     OH2      OT      -0.834000       15.9994           0
     30470 W2       10157    TIP3     H1       HT       0.417000       1.00800           0
     30471 W2       10157    TIP3     H2       HT       0.417000       1.00800           0
     30472 W2       10158    TIP3     OH2      OT      -0.834000       15.9994           0
     30473 W2       10158    TIP3     H1       HT       0.417000       1.00800           0
     30474 W2       10158    TIP3     H2       HT       0.417000       1.00800           0
     30475 W2       10159    TIP3     OH2      OT      -0.834000       15.9994           0
     30476 W2       10159    TIP3     H1       HT       0.417000       1.00800           0
     30477 W2       10159    TIP3     H2       HT       0.417000       1.00800           0
     30478 W2       10160    TIP3     OH2      OT      -0.834000       15.9994           0
     30479 W2       10160    TIP3     H1       HT       0.417000       1.00800           0
     30480 W2       10160    TIP3     H2       HT       0.417000       1.00800           0
     30481 W2       10161    TIP3     OH2      OT      -0.834000       15.9994           0
     30482 W2       10161    TIP3     H1       HT       0.417000       1.00800           0
     30483 W2       10161    TIP3     H2       HT       0.417000       1.00800           0
     30484 W2       10162    TIP3     OH2      OT      -0.834000       15.9994           0
     30485 W2       10162    TIP3     H1       HT       0.417000       1.00800           0
     30486 W2       10162    TIP3     H2       HT       0.417000       1.00800           0
     30487 W2       10163    TIP3     OH2      OT      -0.834000       15.9994           0
     30488 W2       10163    TIP3     H1       HT       0.417000       1.00800           0
     30489 W2       10163    TIP3     H2       HT       0.417000       1.00800           0
     30490 W2       10164    TIP3     OH2      OT      -0.834000       15.9994           0
     30491 W2       10164    TIP3     H1       HT       0.417000       1.00800           0
     30492 W2       10164    TIP3     H2       HT       0.417000       1.00800           0
     30493 W2       10165    TIP3     OH2      OT      -0.834000       15.9994           0
     30494 W2       10165    TIP3     H1       HT       0.417000       1.00800           0
     30495 W2       10165    TIP3     H2       HT       0.417000       1.00800           0
     30496 W2       10166    TIP3     OH2      OT      -0.834000       15.9994           0
     30497 W2       10166    TIP3     H1       HT       0.417000       1.00800           0
     30498 W2       10166    TIP3     H2       HT       0.417000       1.00800           0
     30499 W2       10167    TIP3     OH2      OT      -0.834000       15.9994           0
     30500 W2       10167    TIP3     H1       HT       0.417000       1.00800           0
     30501 W2       10167    TIP3     H2       HT       0.417000       1.00800           0
     30502 W2       10168    TIP3     OH2      OT      -0.834000       15.9994           0
     30503 W2       10168    TIP3     H1       HT       0.417000       1.00800           0
     30504 W2       10168    TIP3     H2       HT       0.417000       1.00800           0
     30505 W2       10169    TIP3     OH2      OT      -0.834000       15.9994           0
     30506 W2       10169    TIP3     H1       HT       0.417000       1.00800           0
     30507 W2       10169    TIP3     H2       HT       0.417000       1.00800           0
     30508 W2       10170    TIP3     OH2      OT      -0.834000       15.9994           0
     30509 W2       10170    TIP3     H1       HT       0.417000       1.00800           0
     30510 W2       10170    TIP3     H2       HT       0.417000       1.00800           0
     30511 W2       10171    TIP3     OH2      OT      -0.834000       15.9994           0
     30512 W2       10171    TIP3     H1       HT       0.417000       1.00800           0
     30513 W2       10171    TIP3     H2       HT       0.417000       1.00800           0
     30514 W2       10172    TIP3     OH2      OT      -0.834000       15.9994           0
     30515 W2       10172    TIP3     H1       HT       0.417000       1.00800           0
     30516 W2       10172    TIP3     H2       HT       0.417000       1.00800           0
     30517 W2       10173    TIP3     OH2      OT      -0.834000       15.9994           0
     30518 W2       10173    TIP3     H1       HT       0.417000       1.00800           0
     30519 W2       10173    TIP3     H2       HT       0.417000       1.00800           0
     30520 W2       10174    TIP3     OH2      OT      -0.834000       15.9994           0
     30521 W2       10174    TIP3     H1       HT       0.417000       1.00800           0
     30522 W2       10174    TIP3     H2       HT       0.417000       1.00800           0
     30523 W2       10175    TIP3     OH2      OT      -0.834000       15.9994           0
     30524 W2       10175    TIP3     H1       HT       0.417000       1.00800           0
     30525 W2       10175    TIP3     H2       HT       0.417000       1.00800           0
     30526 W2       10176    TIP3     OH2      OT      -0.834000       15.9994           0
     30527 W2       10176    TIP3     H1       HT       0.417000       1.00800           0
     30528 W2       10176    TIP3     H2       HT       0.417000       1.00800           0
     30529 W2       10177    TIP3     OH2      OT      -0.834000       15.9994           0
     30530 W2       10177    TIP3     H1       HT       0.417000       1.00800           0
     30531 W2       10177    TIP3     H2       HT       0.417000       1.00800           0
     30532 W2       10178    TIP3     OH2      OT      -0.834000       15.9994           0
     30533 W2       10178    TIP3     H1       HT       0.417000       1.00800           0
     30534 W2       10178    TIP3     H2       HT       0.417000       1.00800           0
     30535 W2       10179    TIP3     OH2      OT      -0.834000       15.9994           0
     30536 W2       10179    TIP3     H1       HT       0.417000       1.00800           0
     30537 W2       10179    TIP3     H2       HT       0.417000       1.00800           0
     30538 W2       10180    TIP3     OH2      OT      -0.834000       15.9994           0
     30539 W2       10180    TIP3     H1       HT       0.417000       1.00800           0
     30540 W2       10180    TIP3     H2       HT       0.417000       1.00800           0
     30541 W2       10181    TIP3     OH2      OT      -0.834000       15.9994           0
     30542 W2       10181    TIP3     H1       HT       0.417000       1.00800           0
     30543 W2       10181    TIP3     H2       HT       0.417000       1.00800           0
     30544 W2       10182    TIP3     OH2      OT      -0.834000       15.9994           0
     30545 W2       10182    TIP3     H1       HT       0.417000       1.00800           0
     30546 W2       10182    TIP3     H2       HT       0.417000       1.00800           0
     30547 W2       10183    TIP3     OH2      OT      -0.834000       15.9994           0
     30548 W2       10183    TIP3     H1       HT       0.417000       1.00800           0
     30549 W2       10183    TIP3     H2       HT       0.417000       1.00800           0
     30550 W2       10184    TIP3     OH2      OT      -0.834000       15.9994           0
     30551 W2       10184    TIP3     H1       HT       0.417000       1.00800           0
     30552 W2       10184    TIP3     H2       HT       0.417000       1.00800           0
     30553 W2       10185    TIP3     OH2      OT      -0.834000       15.9994           0
     30554 W2       10185    TIP3     H1       HT       0.417000       1.00800           0
     30555 W2       10185    TIP3     H2       HT       0.417000       1.00800           0
     30556 W2       10186    TIP3     OH2      OT      -0.834000       15.9994           0
     30557 W2       10186    TIP3     H1       HT       0.417000       1.00800           0
     30558 W2       10186    TIP3     H2       HT       0.417000       1.00800           0
     30559 W2       10187    TIP3     OH2      OT      -0.834000       15.9994           0
     30560 W2       10187    TIP3     H1       HT       0.417000       1.00800           0
     30561 W2       10187    TIP3     H2       HT       0.417000       1.00800           0
     30562 W2       10188    TIP3     OH2      OT      -0.834000       15.9994           0
     30563 W2       10188    TIP3     H1       HT       0.417000       1.00800           0
     30564 W2       10188    TIP3     H2       HT       0.417000       1.00800           0
     30565 W2       10189    TIP3     OH2      OT      -0.834000       15.9994           0
     30566 W2       10189    TIP3     H1       HT       0.417000       1.00800           0
     30567 W2       10189    TIP3     H2       HT       0.417000       1.00800           0
     30568 W2       10190    TIP3     OH2      OT      -0.834000       15.9994           0
     30569 W2       10190    TIP3     H1       HT       0.417000       1.00800           0
     30570 W2       10190    TIP3     H2       HT       0.417000       1.00800           0
     30571 W2       10191    TIP3     OH2      OT      -0.834000       15.9994           0
     30572 W2       10191    TIP3     H1       HT       0.417000       1.00800           0
     30573 W2       10191    TIP3     H2       HT       0.417000       1.00800           0
     30574 W2       10192    TIP3     OH2      OT      -0.834000       15.9994           0
     30575 W2       10192    TIP3     H1       HT       0.417000       1.00800           0
     30576 W2       10192    TIP3     H2       HT       0.417000       1.00800           0
     30577 W2       10193    TIP3     OH2      OT      -0.834000       15.9994           0
     30578 W2       10193    TIP3     H1       HT       0.417000       1.00800           0
     30579 W2       10193    TIP3     H2       HT       0.417000       1.00800           0
     30580 W2       10194    TIP3     OH2      OT      -0.834000       15.9994           0
     30581 W2       10194    TIP3     H1       HT       0.417000       1.00800           0
     30582 W2       10194    TIP3     H2       HT       0.417000       1.00800           0
     30583 W2       10195    TIP3     OH2      OT      -0.834000       15.9994           0
     30584 W2       10195    TIP3     H1       HT       0.417000       1.00800           0
     30585 W2       10195    TIP3     H2       HT       0.417000       1.00800           0
     30586 W2       10196    TIP3     OH2      OT      -0.834000       15.9994           0
     30587 W2       10196    TIP3     H1       HT       0.417000       1.00800           0
     30588 W2       10196    TIP3     H2       HT       0.417000       1.00800           0
     30589 W2       10197    TIP3     OH2      OT      -0.834000       15.9994           0
     30590 W2       10197    TIP3     H1       HT       0.417000       1.00800           0
     30591 W2       10197    TIP3     H2       HT       0.417000       1.00800           0
     30592 W2       10198    TIP3     OH2      OT      -0.834000       15.9994           0
     30593 W2       10198    TIP3     H1       HT       0.417000       1.00800           0
     30594 W2       10198    TIP3     H2       HT       0.417000       1.00800           0
     30595 W2       10199    TIP3     OH2      OT      -0.834000       15.9994           0
     30596 W2       10199    TIP3     H1       HT       0.417000       1.00800           0
     30597 W2       10199    TIP3     H2       HT       0.417000       1.00800           0
     30598 W2       10200    TIP3     OH2      OT      -0.834000       15.9994           0
     30599 W2       10200    TIP3     H1       HT       0.417000       1.00800           0
     30600 W2       10200    TIP3     H2       HT       0.417000       1.00800           0
     30601 W2       10201    TIP3     OH2      OT      -0.834000       15.9994           0
     30602 W2       10201    TIP3     H1       HT       0.417000       1.00800           0
     30603 W2       10201    TIP3     H2       HT       0.417000       1.00800           0
     30604 W2       10202    TIP3     OH2      OT      -0.834000       15.9994           0
     30605 W2       10202    TIP3     H1       HT       0.417000       1.00800           0
     30606 W2       10202    TIP3     H2       HT       0.417000       1.00800           0
     30607 W2       10203    TIP3     OH2      OT      -0.834000       15.9994           0
     30608 W2       10203    TIP3     H1       HT       0.417000       1.00800           0
     30609 W2       10203    TIP3     H2       HT       0.417000       1.00800           0
     30610 W2       10204    TIP3     OH2      OT      -0.834000       15.9994           0
     30611 W2       10204    TIP3     H1       HT       0.417000       1.00800           0
     30612 W2       10204    TIP3     H2       HT       0.417000       1.00800           0
     30613 W2       10205    TIP3     OH2      OT      -0.834000       15.9994           0
     30614 W2       10205    TIP3     H1       HT       0.417000       1.00800           0
     30615 W2       10205    TIP3     H2       HT       0.417000       1.00800           0
     30616 W2       10206    TIP3     OH2      OT      -0.834000       15.9994           0
     30617 W2       10206    TIP3     H1       HT       0.417000       1.00800           0
     30618 W2       10206    TIP3     H2       HT       0.417000       1.00800           0
     30619 W2       10207    TIP3     OH2      OT      -0.834000       15.9994           0
     30620 W2       10207    TIP3     H1       HT       0.417000       1.00800           0
     30621 W2       10207    TIP3     H2       HT       0.417000       1.00800           0
     30622 W2       10208    TIP3     OH2      OT      -0.834000       15.9994           0
     30623 W2       10208    TIP3     H1       HT       0.417000       1.00800           0
     30624 W2       10208    TIP3     H2       HT       0.417000       1.00800           0
     30625 W2       10209    TIP3     OH2      OT      -0.834000       15.9994           0
     30626 W2       10209    TIP3     H1       HT       0.417000       1.00800           0
     30627 W2       10209    TIP3     H2       HT       0.417000       1.00800           0
     30628 W2       10210    TIP3     OH2      OT      -0.834000       15.9994           0
     30629 W2       10210    TIP3     H1       HT       0.417000       1.00800           0
     30630 W2       10210    TIP3     H2       HT       0.417000       1.00800           0
     30631 W2       10211    TIP3     OH2      OT      -0.834000       15.9994           0
     30632 W2       10211    TIP3     H1       HT       0.417000       1.00800           0
     30633 W2       10211    TIP3     H2       HT       0.417000       1.00800           0
     30634 W2       10212    TIP3     OH2      OT      -0.834000       15.9994           0
     30635 W2       10212    TIP3     H1       HT       0.417000       1.00800           0
     30636 W2       10212    TIP3     H2       HT       0.417000       1.00800           0
     30637 W2       10213    TIP3     OH2      OT      -0.834000       15.9994           0
     30638 W2       10213    TIP3     H1       HT       0.417000       1.00800           0
     30639 W2       10213    TIP3     H2       HT       0.417000       1.00800           0
     30640 W2       10214    TIP3     OH2      OT      -0.834000       15.9994           0
     30641 W2       10214    TIP3     H1       HT       0.417000       1.00800           0
     30642 W2       10214    TIP3     H2       HT       0.417000       1.00800           0
     30643 W2       10215    TIP3     OH2      OT      -0.834000       15.9994           0
     30644 W2       10215    TIP3     H1       HT       0.417000       1.00800           0
     30645 W2       10215    TIP3     H2       HT       0.417000       1.00800           0
     30646 W2       10216    TIP3     OH2      OT      -0.834000       15.9994           0
     30647 W2       10216    TIP3     H1       HT       0.417000       1.00800           0
     30648 W2       10216    TIP3     H2       HT       0.417000       1.00800           0
     30649 W2       10217    TIP3     OH2      OT      -0.834000       15.9994           0
     30650 W2       10217    TIP3     H1       HT       0.417000       1.00800           0
     30651 W2       10217    TIP3     H2       HT       0.417000       1.00800           0
     30652 W2       10218    TIP3     OH2      OT      -0.834000       15.9994           0
     30653 W2       10218    TIP3     H1       HT       0.417000       1.00800           0
     30654 W2       10218    TIP3     H2       HT       0.417000       1.00800           0
     30655 W2       10219    TIP3     OH2      OT      -0.834000       15.9994           0
     30656 W2       10219    TIP3     H1       HT       0.417000       1.00800           0
     30657 W2       10219    TIP3     H2       HT       0.417000       1.00800           0
     30658 W2       10220    TIP3     OH2      OT      -0.834000       15.9994           0
     30659 W2       10220    TIP3     H1       HT       0.417000       1.00800           0
     30660 W2       10220    TIP3     H2       HT       0.417000       1.00800           0
     30661 W2       10221    TIP3     OH2      OT      -0.834000       15.9994           0
     30662 W2       10221    TIP3     H1       HT       0.417000       1.00800           0
     30663 W2       10221    TIP3     H2       HT       0.417000       1.00800           0
     30664 W2       10222    TIP3     OH2      OT      -0.834000       15.9994           0
     30665 W2       10222    TIP3     H1       HT       0.417000       1.00800           0
     30666 W2       10222    TIP3     H2       HT       0.417000       1.00800           0
     30667 W2       10223    TIP3     OH2      OT      -0.834000       15.9994           0
     30668 W2       10223    TIP3     H1       HT       0.417000       1.00800           0
     30669 W2       10223    TIP3     H2       HT       0.417000       1.00800           0
     30670 W2       10224    TIP3     OH2      OT      -0.834000       15.9994           0
     30671 W2       10224    TIP3     H1       HT       0.417000       1.00800           0
     30672 W2       10224    TIP3     H2       HT       0.417000       1.00800           0
     30673 W2       10225    TIP3     OH2      OT      -0.834000       15.9994           0
     30674 W2       10225    TIP3     H1       HT       0.417000       1.00800           0
     30675 W2       10225    TIP3     H2       HT       0.417000       1.00800           0
     30676 W2       10226    TIP3     OH2      OT      -0.834000       15.9994           0
     30677 W2       10226    TIP3     H1       HT       0.417000       1.00800           0
     30678 W2       10226    TIP3     H2       HT       0.417000       1.00800           0
     30679 W2       10227    TIP3     OH2      OT      -0.834000       15.9994           0
     30680 W2       10227    TIP3     H1       HT       0.417000       1.00800           0
     30681 W2       10227    TIP3     H2       HT       0.417000       1.00800           0
     30682 W2       10228    TIP3     OH2      OT      -0.834000       15.9994           0
     30683 W2       10228    TIP3     H1       HT       0.417000       1.00800           0
     30684 W2       10228    TIP3     H2       HT       0.417000       1.00800           0
     30685 W2       10229    TIP3     OH2      OT      -0.834000       15.9994           0
     30686 W2       10229    TIP3     H1       HT       0.417000       1.00800           0
     30687 W2       10229    TIP3     H2       HT       0.417000       1.00800           0
     30688 W2       10230    TIP3     OH2      OT      -0.834000       15.9994           0
     30689 W2       10230    TIP3     H1       HT       0.417000       1.00800           0
     30690 W2       10230    TIP3     H2       HT       0.417000       1.00800           0
     30691 W2       10231    TIP3     OH2      OT      -0.834000       15.9994           0
     30692 W2       10231    TIP3     H1       HT       0.417000       1.00800           0
     30693 W2       10231    TIP3     H2       HT       0.417000       1.00800           0
     30694 W2       10232    TIP3     OH2      OT      -0.834000       15.9994           0
     30695 W2       10232    TIP3     H1       HT       0.417000       1.00800           0
     30696 W2       10232    TIP3     H2       HT       0.417000       1.00800           0
     30697 W2       10233    TIP3     OH2      OT      -0.834000       15.9994           0
     30698 W2       10233    TIP3     H1       HT       0.417000       1.00800           0
     30699 W2       10233    TIP3     H2       HT       0.417000       1.00800           0
     30700 W2       10234    TIP3     OH2      OT      -0.834000       15.9994           0
     30701 W2       10234    TIP3     H1       HT       0.417000       1.00800           0
     30702 W2       10234    TIP3     H2       HT       0.417000       1.00800           0
     30703 W2       10235    TIP3     OH2      OT      -0.834000       15.9994           0
     30704 W2       10235    TIP3     H1       HT       0.417000       1.00800           0
     30705 W2       10235    TIP3     H2       HT       0.417000       1.00800           0
     30706 W2       10236    TIP3     OH2      OT      -0.834000       15.9994           0
     30707 W2       10236    TIP3     H1       HT       0.417000       1.00800           0
     30708 W2       10236    TIP3     H2       HT       0.417000       1.00800           0
     30709 W2       10237    TIP3     OH2      OT      -0.834000       15.9994           0
     30710 W2       10237    TIP3     H1       HT       0.417000       1.00800           0
     30711 W2       10237    TIP3     H2       HT       0.417000       1.00800           0
     30712 W2       10238    TIP3     OH2      OT      -0.834000       15.9994           0
     30713 W2       10238    TIP3     H1       HT       0.417000       1.00800           0
     30714 W2       10238    TIP3     H2       HT       0.417000       1.00800           0
     30715 W2       10239    TIP3     OH2      OT      -0.834000       15.9994           0
     30716 W2       10239    TIP3     H1       HT       0.417000       1.00800           0
     30717 W2       10239    TIP3     H2       HT       0.417000       1.00800           0
     30718 W2       10240    TIP3     OH2      OT      -0.834000       15.9994           0
     30719 W2       10240    TIP3     H1       HT       0.417000       1.00800           0
     30720 W2       10240    TIP3     H2       HT       0.417000       1.00800           0
     30721 W2       10241    TIP3     OH2      OT      -0.834000       15.9994           0
     30722 W2       10241    TIP3     H1       HT       0.417000       1.00800           0
     30723 W2       10241    TIP3     H2       HT       0.417000       1.00800           0
     30724 W2       10242    TIP3     OH2      OT      -0.834000       15.9994           0
     30725 W2       10242    TIP3     H1       HT       0.417000       1.00800           0
     30726 W2       10242    TIP3     H2       HT       0.417000       1.00800           0
     30727 W2       10243    TIP3     OH2      OT      -0.834000       15.9994           0
     30728 W2       10243    TIP3     H1       HT       0.417000       1.00800           0
     30729 W2       10243    TIP3     H2       HT       0.417000       1.00800           0
     30730 W2       10244    TIP3     OH2      OT      -0.834000       15.9994           0
     30731 W2       10244    TIP3     H1       HT       0.417000       1.00800           0
     30732 W2       10244    TIP3     H2       HT       0.417000       1.00800           0
     30733 W2       10245    TIP3     OH2      OT      -0.834000       15.9994           0
     30734 W2       10245    TIP3     H1       HT       0.417000       1.00800           0
     30735 W2       10245    TIP3     H2       HT       0.417000       1.00800           0
     30736 W2       10246    TIP3     OH2      OT      -0.834000       15.9994           0
     30737 W2       10246    TIP3     H1       HT       0.417000       1.00800           0
     30738 W2       10246    TIP3     H2       HT       0.417000       1.00800           0
     30739 W2       10247    TIP3     OH2      OT      -0.834000       15.9994           0
     30740 W2       10247    TIP3     H1       HT       0.417000       1.00800           0
     30741 W2       10247    TIP3     H2       HT       0.417000       1.00800           0
     30742 W2       10248    TIP3     OH2      OT      -0.834000       15.9994           0
     30743 W2       10248    TIP3     H1       HT       0.417000       1.00800           0
     30744 W2       10248    TIP3     H2       HT       0.417000       1.00800           0
     30745 W2       10249    TIP3     OH2      OT      -0.834000       15.9994           0
     30746 W2       10249    TIP3     H1       HT       0.417000       1.00800           0
     30747 W2       10249    TIP3     H2       HT       0.417000       1.00800           0
     30748 W2       10250    TIP3     OH2      OT      -0.834000       15.9994           0
     30749 W2       10250    TIP3     H1       HT       0.417000       1.00800           0
     30750 W2       10250    TIP3     H2       HT       0.417000       1.00800           0
     30751 W2       10251    TIP3     OH2      OT      -0.834000       15.9994           0
     30752 W2       10251    TIP3     H1       HT       0.417000       1.00800           0
     30753 W2       10251    TIP3     H2       HT       0.417000       1.00800           0
     30754 W2       10252    TIP3     OH2      OT      -0.834000       15.9994           0
     30755 W2       10252    TIP3     H1       HT       0.417000       1.00800           0
     30756 W2       10252    TIP3     H2       HT       0.417000       1.00800           0
     30757 W2       10253    TIP3     OH2      OT      -0.834000       15.9994           0
     30758 W2       10253    TIP3     H1       HT       0.417000       1.00800           0
     30759 W2       10253    TIP3     H2       HT       0.417000       1.00800           0
     30760 W2       10254    TIP3     OH2      OT      -0.834000       15.9994           0
     30761 W2       10254    TIP3     H1       HT       0.417000       1.00800           0
     30762 W2       10254    TIP3     H2       HT       0.417000       1.00800           0
     30763 W2       10255    TIP3     OH2      OT      -0.834000       15.9994           0
     30764 W2       10255    TIP3     H1       HT       0.417000       1.00800           0
     30765 W2       10255    TIP3     H2       HT       0.417000       1.00800           0
     30766 W2       10256    TIP3     OH2      OT      -0.834000       15.9994           0
     30767 W2       10256    TIP3     H1       HT       0.417000       1.00800           0
     30768 W2       10256    TIP3     H2       HT       0.417000       1.00800           0
     30769 W2       10257    TIP3     OH2      OT      -0.834000       15.9994           0
     30770 W2       10257    TIP3     H1       HT       0.417000       1.00800           0
     30771 W2       10257    TIP3     H2       HT       0.417000       1.00800           0
     30772 W2       10258    TIP3     OH2      OT      -0.834000       15.9994           0
     30773 W2       10258    TIP3     H1       HT       0.417000       1.00800           0
     30774 W2       10258    TIP3     H2       HT       0.417000       1.00800           0
     30775 W2       10259    TIP3     OH2      OT      -0.834000       15.9994           0
     30776 W2       10259    TIP3     H1       HT       0.417000       1.00800           0
     30777 W2       10259    TIP3     H2       HT       0.417000       1.00800           0
     30778 W2       10260    TIP3     OH2      OT      -0.834000       15.9994           0
     30779 W2       10260    TIP3     H1       HT       0.417000       1.00800           0
     30780 W2       10260    TIP3     H2       HT       0.417000       1.00800           0
     30781 W2       10261    TIP3     OH2      OT      -0.834000       15.9994           0
     30782 W2       10261    TIP3     H1       HT       0.417000       1.00800           0
     30783 W2       10261    TIP3     H2       HT       0.417000       1.00800           0
     30784 W2       10262    TIP3     OH2      OT      -0.834000       15.9994           0
     30785 W2       10262    TIP3     H1       HT       0.417000       1.00800           0
     30786 W2       10262    TIP3     H2       HT       0.417000       1.00800           0
     30787 W2       10263    TIP3     OH2      OT      -0.834000       15.9994           0
     30788 W2       10263    TIP3     H1       HT       0.417000       1.00800           0
     30789 W2       10263    TIP3     H2       HT       0.417000       1.00800           0
     30790 W2       10264    TIP3     OH2      OT      -0.834000       15.9994           0
     30791 W2       10264    TIP3     H1       HT       0.417000       1.00800           0
     30792 W2       10264    TIP3     H2       HT       0.417000       1.00800           0
     30793 W2       10265    TIP3     OH2      OT      -0.834000       15.9994           0
     30794 W2       10265    TIP3     H1       HT       0.417000       1.00800           0
     30795 W2       10265    TIP3     H2       HT       0.417000       1.00800           0
     30796 W2       10266    TIP3     OH2      OT      -0.834000       15.9994           0
     30797 W2       10266    TIP3     H1       HT       0.417000       1.00800           0
     30798 W2       10266    TIP3     H2       HT       0.417000       1.00800           0
     30799 W2       10267    TIP3     OH2      OT      -0.834000       15.9994           0
     30800 W2       10267    TIP3     H1       HT       0.417000       1.00800           0
     30801 W2       10267    TIP3     H2       HT       0.417000       1.00800           0
     30802 W2       10268    TIP3     OH2      OT      -0.834000       15.9994           0
     30803 W2       10268    TIP3     H1       HT       0.417000       1.00800           0
     30804 W2       10268    TIP3     H2       HT       0.417000       1.00800           0
     30805 W2       10269    TIP3     OH2      OT      -0.834000       15.9994           0
     30806 W2       10269    TIP3     H1       HT       0.417000       1.00800           0
     30807 W2       10269    TIP3     H2       HT       0.417000       1.00800           0
     30808 W2       10270    TIP3     OH2      OT      -0.834000       15.9994           0
     30809 W2       10270    TIP3     H1       HT       0.417000       1.00800           0
     30810 W2       10270    TIP3     H2       HT       0.417000       1.00800           0
     30811 W2       10271    TIP3     OH2      OT      -0.834000       15.9994           0
     30812 W2       10271    TIP3     H1       HT       0.417000       1.00800           0
     30813 W2       10271    TIP3     H2       HT       0.417000       1.00800           0
     30814 W2       10272    TIP3     OH2      OT      -0.834000       15.9994           0
     30815 W2       10272    TIP3     H1       HT       0.417000       1.00800           0
     30816 W2       10272    TIP3     H2       HT       0.417000       1.00800           0
     30817 W2       10273    TIP3     OH2      OT      -0.834000       15.9994           0
     30818 W2       10273    TIP3     H1       HT       0.417000       1.00800           0
     30819 W2       10273    TIP3     H2       HT       0.417000       1.00800           0
     30820 W2       10274    TIP3     OH2      OT      -0.834000       15.9994           0
     30821 W2       10274    TIP3     H1       HT       0.417000       1.00800           0
     30822 W2       10274    TIP3     H2       HT       0.417000       1.00800           0
     30823 W2       10275    TIP3     OH2      OT      -0.834000       15.9994           0
     30824 W2       10275    TIP3     H1       HT       0.417000       1.00800           0
     30825 W2       10275    TIP3     H2       HT       0.417000       1.00800           0
     30826 W2       10276    TIP3     OH2      OT      -0.834000       15.9994           0
     30827 W2       10276    TIP3     H1       HT       0.417000       1.00800           0
     30828 W2       10276    TIP3     H2       HT       0.417000       1.00800           0
     30829 W2       10277    TIP3     OH2      OT      -0.834000       15.9994           0
     30830 W2       10277    TIP3     H1       HT       0.417000       1.00800           0
     30831 W2       10277    TIP3     H2       HT       0.417000       1.00800           0
     30832 W2       10278    TIP3     OH2      OT      -0.834000       15.9994           0
     30833 W2       10278    TIP3     H1       HT       0.417000       1.00800           0
     30834 W2       10278    TIP3     H2       HT       0.417000       1.00800           0
     30835 W2       10279    TIP3     OH2      OT      -0.834000       15.9994           0
     30836 W2       10279    TIP3     H1       HT       0.417000       1.00800           0
     30837 W2       10279    TIP3     H2       HT       0.417000       1.00800           0
     30838 W2       10280    TIP3     OH2      OT      -0.834000       15.9994           0
     30839 W2       10280    TIP3     H1       HT       0.417000       1.00800           0
     30840 W2       10280    TIP3     H2       HT       0.417000       1.00800           0
     30841 W2       10281    TIP3     OH2      OT      -0.834000       15.9994           0
     30842 W2       10281    TIP3     H1       HT       0.417000       1.00800           0
     30843 W2       10281    TIP3     H2       HT       0.417000       1.00800           0
     30844 W2       10282    TIP3     OH2      OT      -0.834000       15.9994           0
     30845 W2       10282    TIP3     H1       HT       0.417000       1.00800           0
     30846 W2       10282    TIP3     H2       HT       0.417000       1.00800           0
     30847 W2       10283    TIP3     OH2      OT      -0.834000       15.9994           0
     30848 W2       10283    TIP3     H1       HT       0.417000       1.00800           0
     30849 W2       10283    TIP3     H2       HT       0.417000       1.00800           0
     30850 W2       10284    TIP3     OH2      OT      -0.834000       15.9994           0
     30851 W2       10284    TIP3     H1       HT       0.417000       1.00800           0
     30852 W2       10284    TIP3     H2       HT       0.417000       1.00800           0
     30853 W2       10285    TIP3     OH2      OT      -0.834000       15.9994           0
     30854 W2       10285    TIP3     H1       HT       0.417000       1.00800           0
     30855 W2       10285    TIP3     H2       HT       0.417000       1.00800           0
     30856 W2       10286    TIP3     OH2      OT      -0.834000       15.9994           0
     30857 W2       10286    TIP3     H1       HT       0.417000       1.00800           0
     30858 W2       10286    TIP3     H2       HT       0.417000       1.00800           0
     30859 W2       10287    TIP3     OH2      OT      -0.834000       15.9994           0
     30860 W2       10287    TIP3     H1       HT       0.417000       1.00800           0
     30861 W2       10287    TIP3     H2       HT       0.417000       1.00800           0
     30862 W2       10288    TIP3     OH2      OT      -0.834000       15.9994           0
     30863 W2       10288    TIP3     H1       HT       0.417000       1.00800           0
     30864 W2       10288    TIP3     H2       HT       0.417000       1.00800           0
     30865 W2       10289    TIP3     OH2      OT      -0.834000       15.9994           0
     30866 W2       10289    TIP3     H1       HT       0.417000       1.00800           0
     30867 W2       10289    TIP3     H2       HT       0.417000       1.00800           0
     30868 W2       10290    TIP3     OH2      OT      -0.834000       15.9994           0
     30869 W2       10290    TIP3     H1       HT       0.417000       1.00800           0
     30870 W2       10290    TIP3     H2       HT       0.417000       1.00800           0
     30871 W2       10291    TIP3     OH2      OT      -0.834000       15.9994           0
     30872 W2       10291    TIP3     H1       HT       0.417000       1.00800           0
     30873 W2       10291    TIP3     H2       HT       0.417000       1.00800           0
     30874 W2       10292    TIP3     OH2      OT      -0.834000       15.9994           0
     30875 W2       10292    TIP3     H1       HT       0.417000       1.00800           0
     30876 W2       10292    TIP3     H2       HT       0.417000       1.00800           0
     30877 W2       10293    TIP3     OH2      OT      -0.834000       15.9994           0
     30878 W2       10293    TIP3     H1       HT       0.417000       1.00800           0
     30879 W2       10293    TIP3     H2       HT       0.417000       1.00800           0
     30880 W2       10294    TIP3     OH2      OT      -0.834000       15.9994           0
     30881 W2       10294    TIP3     H1       HT       0.417000       1.00800           0
     30882 W2       10294    TIP3     H2       HT       0.417000       1.00800           0
     30883 W2       10295    TIP3     OH2      OT      -0.834000       15.9994           0
     30884 W2       10295    TIP3     H1       HT       0.417000       1.00800           0
     30885 W2       10295    TIP3     H2       HT       0.417000       1.00800           0
     30886 W2       10296    TIP3     OH2      OT      -0.834000       15.9994           0
     30887 W2       10296    TIP3     H1       HT       0.417000       1.00800           0
     30888 W2       10296    TIP3     H2       HT       0.417000       1.00800           0
     30889 W2       10297    TIP3     OH2      OT      -0.834000       15.9994           0
     30890 W2       10297    TIP3     H1       HT       0.417000       1.00800           0
     30891 W2       10297    TIP3     H2       HT       0.417000       1.00800           0
     30892 W2       10298    TIP3     OH2      OT      -0.834000       15.9994           0
     30893 W2       10298    TIP3     H1       HT       0.417000       1.00800           0
     30894 W2       10298    TIP3     H2       HT       0.417000       1.00800           0
     30895 W2       10299    TIP3     OH2      OT      -0.834000       15.9994           0
     30896 W2       10299    TIP3     H1       HT       0.417000       1.00800           0
     30897 W2       10299    TIP3     H2       HT       0.417000       1.00800           0
     30898 W2       10300    TIP3     OH2      OT      -0.834000       15.9994           0
     30899 W2       10300    TIP3     H1       HT       0.417000       1.00800           0
     30900 W2       10300    TIP3     H2       HT       0.417000       1.00800           0
     30901 W2       10301    TIP3     OH2      OT      -0.834000       15.9994           0
     30902 W2       10301    TIP3     H1       HT       0.417000       1.00800           0
     30903 W2       10301    TIP3     H2       HT       0.417000       1.00800           0
     30904 W2       10302    TIP3     OH2      OT      -0.834000       15.9994           0
     30905 W2       10302    TIP3     H1       HT       0.417000       1.00800           0
     30906 W2       10302    TIP3     H2       HT       0.417000       1.00800           0
     30907 W2       10303    TIP3     OH2      OT      -0.834000       15.9994           0
     30908 W2       10303    TIP3     H1       HT       0.417000       1.00800           0
     30909 W2       10303    TIP3     H2       HT       0.417000       1.00800           0
     30910 W2       10304    TIP3     OH2      OT      -0.834000       15.9994           0
     30911 W2       10304    TIP3     H1       HT       0.417000       1.00800           0
     30912 W2       10304    TIP3     H2       HT       0.417000       1.00800           0
     30913 W2       10305    TIP3     OH2      OT      -0.834000       15.9994           0
     30914 W2       10305    TIP3     H1       HT       0.417000       1.00800           0
     30915 W2       10305    TIP3     H2       HT       0.417000       1.00800           0
     30916 W2       10306    TIP3     OH2      OT      -0.834000       15.9994           0
     30917 W2       10306    TIP3     H1       HT       0.417000       1.00800           0
     30918 W2       10306    TIP3     H2       HT       0.417000       1.00800           0
     30919 W2       10307    TIP3     OH2      OT      -0.834000       15.9994           0
     30920 W2       10307    TIP3     H1       HT       0.417000       1.00800           0
     30921 W2       10307    TIP3     H2       HT       0.417000       1.00800           0
     30922 W2       10308    TIP3     OH2      OT      -0.834000       15.9994           0
     30923 W2       10308    TIP3     H1       HT       0.417000       1.00800           0
     30924 W2       10308    TIP3     H2       HT       0.417000       1.00800           0
     30925 W2       10309    TIP3     OH2      OT      -0.834000       15.9994           0
     30926 W2       10309    TIP3     H1       HT       0.417000       1.00800           0
     30927 W2       10309    TIP3     H2       HT       0.417000       1.00800           0
     30928 W2       10310    TIP3     OH2      OT      -0.834000       15.9994           0
     30929 W2       10310    TIP3     H1       HT       0.417000       1.00800           0
     30930 W2       10310    TIP3     H2       HT       0.417000       1.00800           0
     30931 W2       10311    TIP3     OH2      OT      -0.834000       15.9994           0
     30932 W2       10311    TIP3     H1       HT       0.417000       1.00800           0
     30933 W2       10311    TIP3     H2       HT       0.417000       1.00800           0
     30934 W2       10312    TIP3     OH2      OT      -0.834000       15.9994           0
     30935 W2       10312    TIP3     H1       HT       0.417000       1.00800           0
     30936 W2       10312    TIP3     H2       HT       0.417000       1.00800           0
     30937 W2       10313    TIP3     OH2      OT      -0.834000       15.9994           0
     30938 W2       10313    TIP3     H1       HT       0.417000       1.00800           0
     30939 W2       10313    TIP3     H2       HT       0.417000       1.00800           0
     30940 W2       10314    TIP3     OH2      OT      -0.834000       15.9994           0
     30941 W2       10314    TIP3     H1       HT       0.417000       1.00800           0
     30942 W2       10314    TIP3     H2       HT       0.417000       1.00800           0
     30943 W2       10315    TIP3     OH2      OT      -0.834000       15.9994           0
     30944 W2       10315    TIP3     H1       HT       0.417000       1.00800           0
     30945 W2       10315    TIP3     H2       HT       0.417000       1.00800           0
     30946 W2       10316    TIP3     OH2      OT      -0.834000       15.9994           0
     30947 W2       10316    TIP3     H1       HT       0.417000       1.00800           0
     30948 W2       10316    TIP3     H2       HT       0.417000       1.00800           0
     30949 W2       10317    TIP3     OH2      OT      -0.834000       15.9994           0
     30950 W2       10317    TIP3     H1       HT       0.417000       1.00800           0
     30951 W2       10317    TIP3     H2       HT       0.417000       1.00800           0
     30952 W2       10318    TIP3     OH2      OT      -0.834000       15.9994           0
     30953 W2       10318    TIP3     H1       HT       0.417000       1.00800           0
     30954 W2       10318    TIP3     H2       HT       0.417000       1.00800           0
     30955 W2       10319    TIP3     OH2      OT      -0.834000       15.9994           0
     30956 W2       10319    TIP3     H1       HT       0.417000       1.00800           0
     30957 W2       10319    TIP3     H2       HT       0.417000       1.00800           0
     30958 W2       10320    TIP3     OH2      OT      -0.834000       15.9994           0
     30959 W2       10320    TIP3     H1       HT       0.417000       1.00800           0
     30960 W2       10320    TIP3     H2       HT       0.417000       1.00800           0
     30961 W2       10321    TIP3     OH2      OT      -0.834000       15.9994           0
     30962 W2       10321    TIP3     H1       HT       0.417000       1.00800           0
     30963 W2       10321    TIP3     H2       HT       0.417000       1.00800           0
     30964 W2       10322    TIP3     OH2      OT      -0.834000       15.9994           0
     30965 W2       10322    TIP3     H1       HT       0.417000       1.00800           0
     30966 W2       10322    TIP3     H2       HT       0.417000       1.00800           0
     30967 W2       10323    TIP3     OH2      OT      -0.834000       15.9994           0
     30968 W2       10323    TIP3     H1       HT       0.417000       1.00800           0
     30969 W2       10323    TIP3     H2       HT       0.417000       1.00800           0
     30970 W2       10324    TIP3     OH2      OT      -0.834000       15.9994           0
     30971 W2       10324    TIP3     H1       HT       0.417000       1.00800           0
     30972 W2       10324    TIP3     H2       HT       0.417000       1.00800           0
     30973 W2       10325    TIP3     OH2      OT      -0.834000       15.9994           0
     30974 W2       10325    TIP3     H1       HT       0.417000       1.00800           0
     30975 W2       10325    TIP3     H2       HT       0.417000       1.00800           0
     30976 W2       10326    TIP3     OH2      OT      -0.834000       15.9994           0
     30977 W2       10326    TIP3     H1       HT       0.417000       1.00800           0
     30978 W2       10326    TIP3     H2       HT       0.417000       1.00800           0
     30979 W2       10327    TIP3     OH2      OT      -0.834000       15.9994           0
     30980 W2       10327    TIP3     H1       HT       0.417000       1.00800           0
     30981 W2       10327    TIP3     H2       HT       0.417000       1.00800           0
     30982 W2       10328    TIP3     OH2      OT      -0.834000       15.9994           0
     30983 W2       10328    TIP3     H1       HT       0.417000       1.00800           0
     30984 W2       10328    TIP3     H2       HT       0.417000       1.00800           0
     30985 W2       10329    TIP3     OH2      OT      -0.834000       15.9994           0
     30986 W2       10329    TIP3     H1       HT       0.417000       1.00800           0
     30987 W2       10329    TIP3     H2       HT       0.417000       1.00800           0
     30988 W2       10330    TIP3     OH2      OT      -0.834000       15.9994           0
     30989 W2       10330    TIP3     H1       HT       0.417000       1.00800           0
     30990 W2       10330    TIP3     H2       HT       0.417000       1.00800           0
     30991 W2       10331    TIP3     OH2      OT      -0.834000       15.9994           0
     30992 W2       10331    TIP3     H1       HT       0.417000       1.00800           0
     30993 W2       10331    TIP3     H2       HT       0.417000       1.00800           0
     30994 W2       10332    TIP3     OH2      OT      -0.834000       15.9994           0
     30995 W2       10332    TIP3     H1       HT       0.417000       1.00800           0
     30996 W2       10332    TIP3     H2       HT       0.417000       1.00800           0
     30997 W2       10333    TIP3     OH2      OT      -0.834000       15.9994           0
     30998 W2       10333    TIP3     H1       HT       0.417000       1.00800           0
     30999 W2       10333    TIP3     H2       HT       0.417000       1.00800           0
     31000 W2       10334    TIP3     OH2      OT      -0.834000       15.9994           0
     31001 W2       10334    TIP3     H1       HT       0.417000       1.00800           0
     31002 W2       10334    TIP3     H2       HT       0.417000       1.00800           0
     31003 W2       10335    TIP3     OH2      OT      -0.834000       15.9994           0
     31004 W2       10335    TIP3     H1       HT       0.417000       1.00800           0
     31005 W2       10335    TIP3     H2       HT       0.417000       1.00800           0
     31006 W2       10336    TIP3     OH2      OT      -0.834000       15.9994           0
     31007 W2       10336    TIP3     H1       HT       0.417000       1.00800           0
     31008 W2       10336    TIP3     H2       HT       0.417000       1.00800           0
     31009 W2       10337    TIP3     OH2      OT      -0.834000       15.9994           0
     31010 W2       10337    TIP3     H1       HT       0.417000       1.00800           0
     31011 W2       10337    TIP3     H2       HT       0.417000       1.00800           0
     31012 W2       10338    TIP3     OH2      OT      -0.834000       15.9994           0
     31013 W2       10338    TIP3     H1       HT       0.417000       1.00800           0
     31014 W2       10338    TIP3     H2       HT       0.417000       1.00800           0
     31015 W2       10339    TIP3     OH2      OT      -0.834000       15.9994           0
     31016 W2       10339    TIP3     H1       HT       0.417000       1.00800           0
     31017 W2       10339    TIP3     H2       HT       0.417000       1.00800           0
     31018 W2       10340    TIP3     OH2      OT      -0.834000       15.9994           0
     31019 W2       10340    TIP3     H1       HT       0.417000       1.00800           0
     31020 W2       10340    TIP3     H2       HT       0.417000       1.00800           0
     31021 W2       10341    TIP3     OH2      OT      -0.834000       15.9994           0
     31022 W2       10341    TIP3     H1       HT       0.417000       1.00800           0
     31023 W2       10341    TIP3     H2       HT       0.417000       1.00800           0
     31024 W2       10342    TIP3     OH2      OT      -0.834000       15.9994           0
     31025 W2       10342    TIP3     H1       HT       0.417000       1.00800           0
     31026 W2       10342    TIP3     H2       HT       0.417000       1.00800           0
     31027 W2       10343    TIP3     OH2      OT      -0.834000       15.9994           0
     31028 W2       10343    TIP3     H1       HT       0.417000       1.00800           0
     31029 W2       10343    TIP3     H2       HT       0.417000       1.00800           0
     31030 W2       10344    TIP3     OH2      OT      -0.834000       15.9994           0
     31031 W2       10344    TIP3     H1       HT       0.417000       1.00800           0
     31032 W2       10344    TIP3     H2       HT       0.417000       1.00800           0
     31033 W2       10345    TIP3     OH2      OT      -0.834000       15.9994           0
     31034 W2       10345    TIP3     H1       HT       0.417000       1.00800           0
     31035 W2       10345    TIP3     H2       HT       0.417000       1.00800           0
     31036 W2       10346    TIP3     OH2      OT      -0.834000       15.9994           0
     31037 W2       10346    TIP3     H1       HT       0.417000       1.00800           0
     31038 W2       10346    TIP3     H2       HT       0.417000       1.00800           0
     31039 W2       10347    TIP3     OH2      OT      -0.834000       15.9994           0
     31040 W2       10347    TIP3     H1       HT       0.417000       1.00800           0
     31041 W2       10347    TIP3     H2       HT       0.417000       1.00800           0
     31042 W2       10348    TIP3     OH2      OT      -0.834000       15.9994           0
     31043 W2       10348    TIP3     H1       HT       0.417000       1.00800           0
     31044 W2       10348    TIP3     H2       HT       0.417000       1.00800           0
     31045 W2       10349    TIP3     OH2      OT      -0.834000       15.9994           0
     31046 W2       10349    TIP3     H1       HT       0.417000       1.00800           0
     31047 W2       10349    TIP3     H2       HT       0.417000       1.00800           0
     31048 W2       10350    TIP3     OH2      OT      -0.834000       15.9994           0
     31049 W2       10350    TIP3     H1       HT       0.417000       1.00800           0
     31050 W2       10350    TIP3     H2       HT       0.417000       1.00800           0
     31051 W2       10351    TIP3     OH2      OT      -0.834000       15.9994           0
     31052 W2       10351    TIP3     H1       HT       0.417000       1.00800           0
     31053 W2       10351    TIP3     H2       HT       0.417000       1.00800           0
     31054 W2       10352    TIP3     OH2      OT      -0.834000       15.9994           0
     31055 W2       10352    TIP3     H1       HT       0.417000       1.00800           0
     31056 W2       10352    TIP3     H2       HT       0.417000       1.00800           0
     31057 W2       10353    TIP3     OH2      OT      -0.834000       15.9994           0
     31058 W2       10353    TIP3     H1       HT       0.417000       1.00800           0
     31059 W2       10353    TIP3     H2       HT       0.417000       1.00800           0
     31060 W2       10354    TIP3     OH2      OT      -0.834000       15.9994           0
     31061 W2       10354    TIP3     H1       HT       0.417000       1.00800           0
     31062 W2       10354    TIP3     H2       HT       0.417000       1.00800           0
     31063 W2       10355    TIP3     OH2      OT      -0.834000       15.9994           0
     31064 W2       10355    TIP3     H1       HT       0.417000       1.00800           0
     31065 W2       10355    TIP3     H2       HT       0.417000       1.00800           0
     31066 W2       10356    TIP3     OH2      OT      -0.834000       15.9994           0
     31067 W2       10356    TIP3     H1       HT       0.417000       1.00800           0
     31068 W2       10356    TIP3     H2       HT       0.417000       1.00800           0
     31069 W2       10357    TIP3     OH2      OT      -0.834000       15.9994           0
     31070 W2       10357    TIP3     H1       HT       0.417000       1.00800           0
     31071 W2       10357    TIP3     H2       HT       0.417000       1.00800           0
     31072 W2       10358    TIP3     OH2      OT      -0.834000       15.9994           0
     31073 W2       10358    TIP3     H1       HT       0.417000       1.00800           0
     31074 W2       10358    TIP3     H2       HT       0.417000       1.00800           0
     31075 W2       10359    TIP3     OH2      OT      -0.834000       15.9994           0
     31076 W2       10359    TIP3     H1       HT       0.417000       1.00800           0
     31077 W2       10359    TIP3     H2       HT       0.417000       1.00800           0
     31078 W2       10360    TIP3     OH2      OT      -0.834000       15.9994           0
     31079 W2       10360    TIP3     H1       HT       0.417000       1.00800           0
     31080 W2       10360    TIP3     H2       HT       0.417000       1.00800           0
     31081 W2       10361    TIP3     OH2      OT      -0.834000       15.9994           0
     31082 W2       10361    TIP3     H1       HT       0.417000       1.00800           0
     31083 W2       10361    TIP3     H2       HT       0.417000       1.00800           0
     31084 W2       10362    TIP3     OH2      OT      -0.834000       15.9994           0
     31085 W2       10362    TIP3     H1       HT       0.417000       1.00800           0
     31086 W2       10362    TIP3     H2       HT       0.417000       1.00800           0
     31087 W2       10363    TIP3     OH2      OT      -0.834000       15.9994           0
     31088 W2       10363    TIP3     H1       HT       0.417000       1.00800           0
     31089 W2       10363    TIP3     H2       HT       0.417000       1.00800           0
     31090 W2       10364    TIP3     OH2      OT      -0.834000       15.9994           0
     31091 W2       10364    TIP3     H1       HT       0.417000       1.00800           0
     31092 W2       10364    TIP3     H2       HT       0.417000       1.00800           0
     31093 W2       10365    TIP3     OH2      OT      -0.834000       15.9994           0
     31094 W2       10365    TIP3     H1       HT       0.417000       1.00800           0
     31095 W2       10365    TIP3     H2       HT       0.417000       1.00800           0
     31096 W2       10366    TIP3     OH2      OT      -0.834000       15.9994           0
     31097 W2       10366    TIP3     H1       HT       0.417000       1.00800           0
     31098 W2       10366    TIP3     H2       HT       0.417000       1.00800           0
     31099 W2       10367    TIP3     OH2      OT      -0.834000       15.9994           0
     31100 W2       10367    TIP3     H1       HT       0.417000       1.00800           0
     31101 W2       10367    TIP3     H2       HT       0.417000       1.00800           0
     31102 W2       10368    TIP3     OH2      OT      -0.834000       15.9994           0
     31103 W2       10368    TIP3     H1       HT       0.417000       1.00800           0
     31104 W2       10368    TIP3     H2       HT       0.417000       1.00800           0
     31105 W2       10369    TIP3     OH2      OT      -0.834000       15.9994           0
     31106 W2       10369    TIP3     H1       HT       0.417000       1.00800           0
     31107 W2       10369    TIP3     H2       HT       0.417000       1.00800           0
     31108 W2       10370    TIP3     OH2      OT      -0.834000       15.9994           0
     31109 W2       10370    TIP3     H1       HT       0.417000       1.00800           0
     31110 W2       10370    TIP3     H2       HT       0.417000       1.00800           0
     31111 W2       10371    TIP3     OH2      OT      -0.834000       15.9994           0
     31112 W2       10371    TIP3     H1       HT       0.417000       1.00800           0
     31113 W2       10371    TIP3     H2       HT       0.417000       1.00800           0
     31114 W2       10372    TIP3     OH2      OT      -0.834000       15.9994           0
     31115 W2       10372    TIP3     H1       HT       0.417000       1.00800           0
     31116 W2       10372    TIP3     H2       HT       0.417000       1.00800           0
     31117 W2       10373    TIP3     OH2      OT      -0.834000       15.9994           0
     31118 W2       10373    TIP3     H1       HT       0.417000       1.00800           0
     31119 W2       10373    TIP3     H2       HT       0.417000       1.00800           0
     31120 W2       10374    TIP3     OH2      OT      -0.834000       15.9994           0
     31121 W2       10374    TIP3     H1       HT       0.417000       1.00800           0
     31122 W2       10374    TIP3     H2       HT       0.417000       1.00800           0
     31123 W2       10375    TIP3     OH2      OT      -0.834000       15.9994           0
     31124 W2       10375    TIP3     H1       HT       0.417000       1.00800           0
     31125 W2       10375    TIP3     H2       HT       0.417000       1.00800           0
     31126 W2       10376    TIP3     OH2      OT      -0.834000       15.9994           0
     31127 W2       10376    TIP3     H1       HT       0.417000       1.00800           0
     31128 W2       10376    TIP3     H2       HT       0.417000       1.00800           0
     31129 W2       10377    TIP3     OH2      OT      -0.834000       15.9994           0
     31130 W2       10377    TIP3     H1       HT       0.417000       1.00800           0
     31131 W2       10377    TIP3     H2       HT       0.417000       1.00800           0
     31132 W2       10378    TIP3     OH2      OT      -0.834000       15.9994           0
     31133 W2       10378    TIP3     H1       HT       0.417000       1.00800           0
     31134 W2       10378    TIP3     H2       HT       0.417000       1.00800           0
     31135 W2       10379    TIP3     OH2      OT      -0.834000       15.9994           0
     31136 W2       10379    TIP3     H1       HT       0.417000       1.00800           0
     31137 W2       10379    TIP3     H2       HT       0.417000       1.00800           0
     31138 W2       10380    TIP3     OH2      OT      -0.834000       15.9994           0
     31139 W2       10380    TIP3     H1       HT       0.417000       1.00800           0
     31140 W2       10380    TIP3     H2       HT       0.417000       1.00800           0
     31141 W2       10381    TIP3     OH2      OT      -0.834000       15.9994           0
     31142 W2       10381    TIP3     H1       HT       0.417000       1.00800           0
     31143 W2       10381    TIP3     H2       HT       0.417000       1.00800           0
     31144 W2       10382    TIP3     OH2      OT      -0.834000       15.9994           0
     31145 W2       10382    TIP3     H1       HT       0.417000       1.00800           0
     31146 W2       10382    TIP3     H2       HT       0.417000       1.00800           0
     31147 W2       10383    TIP3     OH2      OT      -0.834000       15.9994           0
     31148 W2       10383    TIP3     H1       HT       0.417000       1.00800           0
     31149 W2       10383    TIP3     H2       HT       0.417000       1.00800           0
     31150 W2       10384    TIP3     OH2      OT      -0.834000       15.9994           0
     31151 W2       10384    TIP3     H1       HT       0.417000       1.00800           0
     31152 W2       10384    TIP3     H2       HT       0.417000       1.00800           0
     31153 W2       10385    TIP3     OH2      OT      -0.834000       15.9994           0
     31154 W2       10385    TIP3     H1       HT       0.417000       1.00800           0
     31155 W2       10385    TIP3     H2       HT       0.417000       1.00800           0
     31156 W2       10386    TIP3     OH2      OT      -0.834000       15.9994           0
     31157 W2       10386    TIP3     H1       HT       0.417000       1.00800           0
     31158 W2       10386    TIP3     H2       HT       0.417000       1.00800           0
     31159 W2       10387    TIP3     OH2      OT      -0.834000       15.9994           0
     31160 W2       10387    TIP3     H1       HT       0.417000       1.00800           0
     31161 W2       10387    TIP3     H2       HT       0.417000       1.00800           0
     31162 W2       10388    TIP3     OH2      OT      -0.834000       15.9994           0
     31163 W2       10388    TIP3     H1       HT       0.417000       1.00800           0
     31164 W2       10388    TIP3     H2       HT       0.417000       1.00800           0
     31165 W2       10389    TIP3     OH2      OT      -0.834000       15.9994           0
     31166 W2       10389    TIP3     H1       HT       0.417000       1.00800           0
     31167 W2       10389    TIP3     H2       HT       0.417000       1.00800           0
     31168 W2       10390    TIP3     OH2      OT      -0.834000       15.9994           0
     31169 W2       10390    TIP3     H1       HT       0.417000       1.00800           0
     31170 W2       10390    TIP3     H2       HT       0.417000       1.00800           0
     31171 W2       10391    TIP3     OH2      OT      -0.834000       15.9994           0
     31172 W2       10391    TIP3     H1       HT       0.417000       1.00800           0
     31173 W2       10391    TIP3     H2       HT       0.417000       1.00800           0
     31174 W2       10392    TIP3     OH2      OT      -0.834000       15.9994           0
     31175 W2       10392    TIP3     H1       HT       0.417000       1.00800           0
     31176 W2       10392    TIP3     H2       HT       0.417000       1.00800           0
     31177 W2       10393    TIP3     OH2      OT      -0.834000       15.9994           0
     31178 W2       10393    TIP3     H1       HT       0.417000       1.00800           0
     31179 W2       10393    TIP3     H2       HT       0.417000       1.00800           0
     31180 W2       10394    TIP3     OH2      OT      -0.834000       15.9994           0
     31181 W2       10394    TIP3     H1       HT       0.417000       1.00800           0
     31182 W2       10394    TIP3     H2       HT       0.417000       1.00800           0
     31183 W2       10395    TIP3     OH2      OT      -0.834000       15.9994           0
     31184 W2       10395    TIP3     H1       HT       0.417000       1.00800           0
     31185 W2       10395    TIP3     H2       HT       0.417000       1.00800           0
     31186 W2       10396    TIP3     OH2      OT      -0.834000       15.9994           0
     31187 W2       10396    TIP3     H1       HT       0.417000       1.00800           0
     31188 W2       10396    TIP3     H2       HT       0.417000       1.00800           0
     31189 W2       10397    TIP3     OH2      OT      -0.834000       15.9994           0
     31190 W2       10397    TIP3     H1       HT       0.417000       1.00800           0
     31191 W2       10397    TIP3     H2       HT       0.417000       1.00800           0
     31192 W2       10398    TIP3     OH2      OT      -0.834000       15.9994           0
     31193 W2       10398    TIP3     H1       HT       0.417000       1.00800           0
     31194 W2       10398    TIP3     H2       HT       0.417000       1.00800           0
     31195 W2       10399    TIP3     OH2      OT      -0.834000       15.9994           0
     31196 W2       10399    TIP3     H1       HT       0.417000       1.00800           0
     31197 W2       10399    TIP3     H2       HT       0.417000       1.00800           0
     31198 W2       10400    TIP3     OH2      OT      -0.834000       15.9994           0
     31199 W2       10400    TIP3     H1       HT       0.417000       1.00800           0
     31200 W2       10400    TIP3     H2       HT       0.417000       1.00800           0
     31201 W2       10401    TIP3     OH2      OT      -0.834000       15.9994           0
     31202 W2       10401    TIP3     H1       HT       0.417000       1.00800           0
     31203 W2       10401    TIP3     H2       HT       0.417000       1.00800           0
     31204 W2       10402    TIP3     OH2      OT      -0.834000       15.9994           0
     31205 W2       10402    TIP3     H1       HT       0.417000       1.00800           0
     31206 W2       10402    TIP3     H2       HT       0.417000       1.00800           0
     31207 W2       10403    TIP3     OH2      OT      -0.834000       15.9994           0
     31208 W2       10403    TIP3     H1       HT       0.417000       1.00800           0
     31209 W2       10403    TIP3     H2       HT       0.417000       1.00800           0
     31210 W2       10404    TIP3     OH2      OT      -0.834000       15.9994           0
     31211 W2       10404    TIP3     H1       HT       0.417000       1.00800           0
     31212 W2       10404    TIP3     H2       HT       0.417000       1.00800           0
     31213 W2       10405    TIP3     OH2      OT      -0.834000       15.9994           0
     31214 W2       10405    TIP3     H1       HT       0.417000       1.00800           0
     31215 W2       10405    TIP3     H2       HT       0.417000       1.00800           0
     31216 W2       10406    TIP3     OH2      OT      -0.834000       15.9994           0
     31217 W2       10406    TIP3     H1       HT       0.417000       1.00800           0
     31218 W2       10406    TIP3     H2       HT       0.417000       1.00800           0
     31219 W2       10407    TIP3     OH2      OT      -0.834000       15.9994           0
     31220 W2       10407    TIP3     H1       HT       0.417000       1.00800           0
     31221 W2       10407    TIP3     H2       HT       0.417000       1.00800           0
     31222 W2       10408    TIP3     OH2      OT      -0.834000       15.9994           0
     31223 W2       10408    TIP3     H1       HT       0.417000       1.00800           0
     31224 W2       10408    TIP3     H2       HT       0.417000       1.00800           0
     31225 W2       10409    TIP3     OH2      OT      -0.834000       15.9994           0
     31226 W2       10409    TIP3     H1       HT       0.417000       1.00800           0
     31227 W2       10409    TIP3     H2       HT       0.417000       1.00800           0
     31228 W2       10410    TIP3     OH2      OT      -0.834000       15.9994           0
     31229 W2       10410    TIP3     H1       HT       0.417000       1.00800           0
     31230 W2       10410    TIP3     H2       HT       0.417000       1.00800           0
     31231 W2       10411    TIP3     OH2      OT      -0.834000       15.9994           0
     31232 W2       10411    TIP3     H1       HT       0.417000       1.00800           0
     31233 W2       10411    TIP3     H2       HT       0.417000       1.00800           0
     31234 W2       10412    TIP3     OH2      OT      -0.834000       15.9994           0
     31235 W2       10412    TIP3     H1       HT       0.417000       1.00800           0
     31236 W2       10412    TIP3     H2       HT       0.417000       1.00800           0
     31237 W2       10413    TIP3     OH2      OT      -0.834000       15.9994           0
     31238 W2       10413    TIP3     H1       HT       0.417000       1.00800           0
     31239 W2       10413    TIP3     H2       HT       0.417000       1.00800           0
     31240 W2       10414    TIP3     OH2      OT      -0.834000       15.9994           0
     31241 W2       10414    TIP3     H1       HT       0.417000       1.00800           0
     31242 W2       10414    TIP3     H2       HT       0.417000       1.00800           0
     31243 W2       10415    TIP3     OH2      OT      -0.834000       15.9994           0
     31244 W2       10415    TIP3     H1       HT       0.417000       1.00800           0
     31245 W2       10415    TIP3     H2       HT       0.417000       1.00800           0
     31246 W2       10416    TIP3     OH2      OT      -0.834000       15.9994           0
     31247 W2       10416    TIP3     H1       HT       0.417000       1.00800           0
     31248 W2       10416    TIP3     H2       HT       0.417000       1.00800           0
     31249 W2       10417    TIP3     OH2      OT      -0.834000       15.9994           0
     31250 W2       10417    TIP3     H1       HT       0.417000       1.00800           0
     31251 W2       10417    TIP3     H2       HT       0.417000       1.00800           0
     31252 W2       10418    TIP3     OH2      OT      -0.834000       15.9994           0
     31253 W2       10418    TIP3     H1       HT       0.417000       1.00800           0
     31254 W2       10418    TIP3     H2       HT       0.417000       1.00800           0
     31255 W2       10419    TIP3     OH2      OT      -0.834000       15.9994           0
     31256 W2       10419    TIP3     H1       HT       0.417000       1.00800           0
     31257 W2       10419    TIP3     H2       HT       0.417000       1.00800           0
     31258 W2       10420    TIP3     OH2      OT      -0.834000       15.9994           0
     31259 W2       10420    TIP3     H1       HT       0.417000       1.00800           0
     31260 W2       10420    TIP3     H2       HT       0.417000       1.00800           0
     31261 W2       10421    TIP3     OH2      OT      -0.834000       15.9994           0
     31262 W2       10421    TIP3     H1       HT       0.417000       1.00800           0
     31263 W2       10421    TIP3     H2       HT       0.417000       1.00800           0
     31264 W2       10422    TIP3     OH2      OT      -0.834000       15.9994           0
     31265 W2       10422    TIP3     H1       HT       0.417000       1.00800           0
     31266 W2       10422    TIP3     H2       HT       0.417000       1.00800           0
     31267 W2       10423    TIP3     OH2      OT      -0.834000       15.9994           0
     31268 W2       10423    TIP3     H1       HT       0.417000       1.00800           0
     31269 W2       10423    TIP3     H2       HT       0.417000       1.00800           0
     31270 W2       10424    TIP3     OH2      OT      -0.834000       15.9994           0
     31271 W2       10424    TIP3     H1       HT       0.417000       1.00800           0
     31272 W2       10424    TIP3     H2       HT       0.417000       1.00800           0
     31273 W2       10425    TIP3     OH2      OT      -0.834000       15.9994           0
     31274 W2       10425    TIP3     H1       HT       0.417000       1.00800           0
     31275 W2       10425    TIP3     H2       HT       0.417000       1.00800           0
     31276 W2       10426    TIP3     OH2      OT      -0.834000       15.9994           0
     31277 W2       10426    TIP3     H1       HT       0.417000       1.00800           0
     31278 W2       10426    TIP3     H2       HT       0.417000       1.00800           0
     31279 W2       10427    TIP3     OH2      OT      -0.834000       15.9994           0
     31280 W2       10427    TIP3     H1       HT       0.417000       1.00800           0
     31281 W2       10427    TIP3     H2       HT       0.417000       1.00800           0
     31282 W2       10428    TIP3     OH2      OT      -0.834000       15.9994           0
     31283 W2       10428    TIP3     H1       HT       0.417000       1.00800           0
     31284 W2       10428    TIP3     H2       HT       0.417000       1.00800           0
     31285 W2       10429    TIP3     OH2      OT      -0.834000       15.9994           0
     31286 W2       10429    TIP3     H1       HT       0.417000       1.00800           0
     31287 W2       10429    TIP3     H2       HT       0.417000       1.00800           0
     31288 W2       10430    TIP3     OH2      OT      -0.834000       15.9994           0
     31289 W2       10430    TIP3     H1       HT       0.417000       1.00800           0
     31290 W2       10430    TIP3     H2       HT       0.417000       1.00800           0
     31291 W2       10431    TIP3     OH2      OT      -0.834000       15.9994           0
     31292 W2       10431    TIP3     H1       HT       0.417000       1.00800           0
     31293 W2       10431    TIP3     H2       HT       0.417000       1.00800           0
     31294 W2       10432    TIP3     OH2      OT      -0.834000       15.9994           0
     31295 W2       10432    TIP3     H1       HT       0.417000       1.00800           0
     31296 W2       10432    TIP3     H2       HT       0.417000       1.00800           0
     31297 W2       10433    TIP3     OH2      OT      -0.834000       15.9994           0
     31298 W2       10433    TIP3     H1       HT       0.417000       1.00800           0
     31299 W2       10433    TIP3     H2       HT       0.417000       1.00800           0
     31300 W2       10434    TIP3     OH2      OT      -0.834000       15.9994           0
     31301 W2       10434    TIP3     H1       HT       0.417000       1.00800           0
     31302 W2       10434    TIP3     H2       HT       0.417000       1.00800           0
     31303 W2       10435    TIP3     OH2      OT      -0.834000       15.9994           0
     31304 W2       10435    TIP3     H1       HT       0.417000       1.00800           0
     31305 W2       10435    TIP3     H2       HT       0.417000       1.00800           0
     31306 W2       10436    TIP3     OH2      OT      -0.834000       15.9994           0
     31307 W2       10436    TIP3     H1       HT       0.417000       1.00800           0
     31308 W2       10436    TIP3     H2       HT       0.417000       1.00800           0
     31309 W2       10437    TIP3     OH2      OT      -0.834000       15.9994           0
     31310 W2       10437    TIP3     H1       HT       0.417000       1.00800           0
     31311 W2       10437    TIP3     H2       HT       0.417000       1.00800           0
     31312 W2       10438    TIP3     OH2      OT      -0.834000       15.9994           0
     31313 W2       10438    TIP3     H1       HT       0.417000       1.00800           0
     31314 W2       10438    TIP3     H2       HT       0.417000       1.00800           0
     31315 W2       10439    TIP3     OH2      OT      -0.834000       15.9994           0
     31316 W2       10439    TIP3     H1       HT       0.417000       1.00800           0
     31317 W2       10439    TIP3     H2       HT       0.417000       1.00800           0
     31318 W2       10440    TIP3     OH2      OT      -0.834000       15.9994           0
     31319 W2       10440    TIP3     H1       HT       0.417000       1.00800           0
     31320 W2       10440    TIP3     H2       HT       0.417000       1.00800           0
     31321 W2       10441    TIP3     OH2      OT      -0.834000       15.9994           0
     31322 W2       10441    TIP3     H1       HT       0.417000       1.00800           0
     31323 W2       10441    TIP3     H2       HT       0.417000       1.00800           0
     31324 W2       10442    TIP3     OH2      OT      -0.834000       15.9994           0
     31325 W2       10442    TIP3     H1       HT       0.417000       1.00800           0
     31326 W2       10442    TIP3     H2       HT       0.417000       1.00800           0
     31327 W2       10443    TIP3     OH2      OT      -0.834000       15.9994           0
     31328 W2       10443    TIP3     H1       HT       0.417000       1.00800           0
     31329 W2       10443    TIP3     H2       HT       0.417000       1.00800           0
     31330 W2       10444    TIP3     OH2      OT      -0.834000       15.9994           0
     31331 W2       10444    TIP3     H1       HT       0.417000       1.00800           0
     31332 W2       10444    TIP3     H2       HT       0.417000       1.00800           0
     31333 W2       10445    TIP3     OH2      OT      -0.834000       15.9994           0
     31334 W2       10445    TIP3     H1       HT       0.417000       1.00800           0
     31335 W2       10445    TIP3     H2       HT       0.417000       1.00800           0
     31336 W2       10446    TIP3     OH2      OT      -0.834000       15.9994           0
     31337 W2       10446    TIP3     H1       HT       0.417000       1.00800           0
     31338 W2       10446    TIP3     H2       HT       0.417000       1.00800           0
     31339 W2       10447    TIP3     OH2      OT      -0.834000       15.9994           0
     31340 W2       10447    TIP3     H1       HT       0.417000       1.00800           0
     31341 W2       10447    TIP3     H2       HT       0.417000       1.00800           0
     31342 W2       10448    TIP3     OH2      OT      -0.834000       15.9994           0
     31343 W2       10448    TIP3     H1       HT       0.417000       1.00800           0
     31344 W2       10448    TIP3     H2       HT       0.417000       1.00800           0
     31345 W2       10449    TIP3     OH2      OT      -0.834000       15.9994           0
     31346 W2       10449    TIP3     H1       HT       0.417000       1.00800           0
     31347 W2       10449    TIP3     H2       HT       0.417000       1.00800           0
     31348 W2       10450    TIP3     OH2      OT      -0.834000       15.9994           0
     31349 W2       10450    TIP3     H1       HT       0.417000       1.00800           0
     31350 W2       10450    TIP3     H2       HT       0.417000       1.00800           0
     31351 W2       10451    TIP3     OH2      OT      -0.834000       15.9994           0
     31352 W2       10451    TIP3     H1       HT       0.417000       1.00800           0
     31353 W2       10451    TIP3     H2       HT       0.417000       1.00800           0
     31354 W2       10452    TIP3     OH2      OT      -0.834000       15.9994           0
     31355 W2       10452    TIP3     H1       HT       0.417000       1.00800           0
     31356 W2       10452    TIP3     H2       HT       0.417000       1.00800           0
     31357 W2       10453    TIP3     OH2      OT      -0.834000       15.9994           0
     31358 W2       10453    TIP3     H1       HT       0.417000       1.00800           0
     31359 W2       10453    TIP3     H2       HT       0.417000       1.00800           0
     31360 W2       10454    TIP3     OH2      OT      -0.834000       15.9994           0
     31361 W2       10454    TIP3     H1       HT       0.417000       1.00800           0
     31362 W2       10454    TIP3     H2       HT       0.417000       1.00800           0
     31363 W2       10455    TIP3     OH2      OT      -0.834000       15.9994           0
     31364 W2       10455    TIP3     H1       HT       0.417000       1.00800           0
     31365 W2       10455    TIP3     H2       HT       0.417000       1.00800           0
     31366 W2       10456    TIP3     OH2      OT      -0.834000       15.9994           0
     31367 W2       10456    TIP3     H1       HT       0.417000       1.00800           0
     31368 W2       10456    TIP3     H2       HT       0.417000       1.00800           0
     31369 W2       10457    TIP3     OH2      OT      -0.834000       15.9994           0
     31370 W2       10457    TIP3     H1       HT       0.417000       1.00800           0
     31371 W2       10457    TIP3     H2       HT       0.417000       1.00800           0
     31372 W2       10458    TIP3     OH2      OT      -0.834000       15.9994           0
     31373 W2       10458    TIP3     H1       HT       0.417000       1.00800           0
     31374 W2       10458    TIP3     H2       HT       0.417000       1.00800           0
     31375 W2       10459    TIP3     OH2      OT      -0.834000       15.9994           0
     31376 W2       10459    TIP3     H1       HT       0.417000       1.00800           0
     31377 W2       10459    TIP3     H2       HT       0.417000       1.00800           0
     31378 W2       10460    TIP3     OH2      OT      -0.834000       15.9994           0
     31379 W2       10460    TIP3     H1       HT       0.417000       1.00800           0
     31380 W2       10460    TIP3     H2       HT       0.417000       1.00800           0
     31381 W2       10461    TIP3     OH2      OT      -0.834000       15.9994           0
     31382 W2       10461    TIP3     H1       HT       0.417000       1.00800           0
     31383 W2       10461    TIP3     H2       HT       0.417000       1.00800           0
     31384 W2       10462    TIP3     OH2      OT      -0.834000       15.9994           0
     31385 W2       10462    TIP3     H1       HT       0.417000       1.00800           0
     31386 W2       10462    TIP3     H2       HT       0.417000       1.00800           0
     31387 W2       10463    TIP3     OH2      OT      -0.834000       15.9994           0
     31388 W2       10463    TIP3     H1       HT       0.417000       1.00800           0
     31389 W2       10463    TIP3     H2       HT       0.417000       1.00800           0
     31390 W2       10464    TIP3     OH2      OT      -0.834000       15.9994           0
     31391 W2       10464    TIP3     H1       HT       0.417000       1.00800           0
     31392 W2       10464    TIP3     H2       HT       0.417000       1.00800           0
     31393 W2       10465    TIP3     OH2      OT      -0.834000       15.9994           0
     31394 W2       10465    TIP3     H1       HT       0.417000       1.00800           0
     31395 W2       10465    TIP3     H2       HT       0.417000       1.00800           0
     31396 W2       10466    TIP3     OH2      OT      -0.834000       15.9994           0
     31397 W2       10466    TIP3     H1       HT       0.417000       1.00800           0
     31398 W2       10466    TIP3     H2       HT       0.417000       1.00800           0
     31399 W2       10467    TIP3     OH2      OT      -0.834000       15.9994           0
     31400 W2       10467    TIP3     H1       HT       0.417000       1.00800           0
     31401 W2       10467    TIP3     H2       HT       0.417000       1.00800           0
     31402 W2       10468    TIP3     OH2      OT      -0.834000       15.9994           0
     31403 W2       10468    TIP3     H1       HT       0.417000       1.00800           0
     31404 W2       10468    TIP3     H2       HT       0.417000       1.00800           0
     31405 W2       10469    TIP3     OH2      OT      -0.834000       15.9994           0
     31406 W2       10469    TIP3     H1       HT       0.417000       1.00800           0
     31407 W2       10469    TIP3     H2       HT       0.417000       1.00800           0
     31408 W2       10470    TIP3     OH2      OT      -0.834000       15.9994           0
     31409 W2       10470    TIP3     H1       HT       0.417000       1.00800           0
     31410 W2       10470    TIP3     H2       HT       0.417000       1.00800           0
     31411 W2       10471    TIP3     OH2      OT      -0.834000       15.9994           0
     31412 W2       10471    TIP3     H1       HT       0.417000       1.00800           0
     31413 W2       10471    TIP3     H2       HT       0.417000       1.00800           0
     31414 W2       10472    TIP3     OH2      OT      -0.834000       15.9994           0
     31415 W2       10472    TIP3     H1       HT       0.417000       1.00800           0
     31416 W2       10472    TIP3     H2       HT       0.417000       1.00800           0
     31417 W2       10473    TIP3     OH2      OT      -0.834000       15.9994           0
     31418 W2       10473    TIP3     H1       HT       0.417000       1.00800           0
     31419 W2       10473    TIP3     H2       HT       0.417000       1.00800           0
     31420 W2       10474    TIP3     OH2      OT      -0.834000       15.9994           0
     31421 W2       10474    TIP3     H1       HT       0.417000       1.00800           0
     31422 W2       10474    TIP3     H2       HT       0.417000       1.00800           0
     31423 W2       10475    TIP3     OH2      OT      -0.834000       15.9994           0
     31424 W2       10475    TIP3     H1       HT       0.417000       1.00800           0
     31425 W2       10475    TIP3     H2       HT       0.417000       1.00800           0
     31426 W2       10476    TIP3     OH2      OT      -0.834000       15.9994           0
     31427 W2       10476    TIP3     H1       HT       0.417000       1.00800           0
     31428 W2       10476    TIP3     H2       HT       0.417000       1.00800           0
     31429 W2       10477    TIP3     OH2      OT      -0.834000       15.9994           0
     31430 W2       10477    TIP3     H1       HT       0.417000       1.00800           0
     31431 W2       10477    TIP3     H2       HT       0.417000       1.00800           0
     31432 W2       10478    TIP3     OH2      OT      -0.834000       15.9994           0
     31433 W2       10478    TIP3     H1       HT       0.417000       1.00800           0
     31434 W2       10478    TIP3     H2       HT       0.417000       1.00800           0
     31435 W2       10479    TIP3     OH2      OT      -0.834000       15.9994           0
     31436 W2       10479    TIP3     H1       HT       0.417000       1.00800           0
     31437 W2       10479    TIP3     H2       HT       0.417000       1.00800           0
     31438 W2       10480    TIP3     OH2      OT      -0.834000       15.9994           0
     31439 W2       10480    TIP3     H1       HT       0.417000       1.00800           0
     31440 W2       10480    TIP3     H2       HT       0.417000       1.00800           0
     31441 W2       10481    TIP3     OH2      OT      -0.834000       15.9994           0
     31442 W2       10481    TIP3     H1       HT       0.417000       1.00800           0
     31443 W2       10481    TIP3     H2       HT       0.417000       1.00800           0
     31444 W2       10482    TIP3     OH2      OT      -0.834000       15.9994           0
     31445 W2       10482    TIP3     H1       HT       0.417000       1.00800           0
     31446 W2       10482    TIP3     H2       HT       0.417000       1.00800           0
     31447 W2       10483    TIP3     OH2      OT      -0.834000       15.9994           0
     31448 W2       10483    TIP3     H1       HT       0.417000       1.00800           0
     31449 W2       10483    TIP3     H2       HT       0.417000       1.00800           0
     31450 W2       10484    TIP3     OH2      OT      -0.834000       15.9994           0
     31451 W2       10484    TIP3     H1       HT       0.417000       1.00800           0
     31452 W2       10484    TIP3     H2       HT       0.417000       1.00800           0
     31453 W2       10485    TIP3     OH2      OT      -0.834000       15.9994           0
     31454 W2       10485    TIP3     H1       HT       0.417000       1.00800           0
     31455 W2       10485    TIP3     H2       HT       0.417000       1.00800           0
     31456 W2       10486    TIP3     OH2      OT      -0.834000       15.9994           0
     31457 W2       10486    TIP3     H1       HT       0.417000       1.00800           0
     31458 W2       10486    TIP3     H2       HT       0.417000       1.00800           0
     31459 W2       10487    TIP3     OH2      OT      -0.834000       15.9994           0
     31460 W2       10487    TIP3     H1       HT       0.417000       1.00800           0
     31461 W2       10487    TIP3     H2       HT       0.417000       1.00800           0
     31462 W2       10488    TIP3     OH2      OT      -0.834000       15.9994           0
     31463 W2       10488    TIP3     H1       HT       0.417000       1.00800           0
     31464 W2       10488    TIP3     H2       HT       0.417000       1.00800           0
     31465 W2       10489    TIP3     OH2      OT      -0.834000       15.9994           0
     31466 W2       10489    TIP3     H1       HT       0.417000       1.00800           0
     31467 W2       10489    TIP3     H2       HT       0.417000       1.00800           0
     31468 W2       10490    TIP3     OH2      OT      -0.834000       15.9994           0
     31469 W2       10490    TIP3     H1       HT       0.417000       1.00800           0
     31470 W2       10490    TIP3     H2       HT       0.417000       1.00800           0
     31471 W2       10491    TIP3     OH2      OT      -0.834000       15.9994           0
     31472 W2       10491    TIP3     H1       HT       0.417000       1.00800           0
     31473 W2       10491    TIP3     H2       HT       0.417000       1.00800           0
     31474 W2       10492    TIP3     OH2      OT      -0.834000       15.9994           0
     31475 W2       10492    TIP3     H1       HT       0.417000       1.00800           0
     31476 W2       10492    TIP3     H2       HT       0.417000       1.00800           0
     31477 W2       10493    TIP3     OH2      OT      -0.834000       15.9994           0
     31478 W2       10493    TIP3     H1       HT       0.417000       1.00800           0
     31479 W2       10493    TIP3     H2       HT       0.417000       1.00800           0
     31480 W2       10494    TIP3     OH2      OT      -0.834000       15.9994           0
     31481 W2       10494    TIP3     H1       HT       0.417000       1.00800           0
     31482 W2       10494    TIP3     H2       HT       0.417000       1.00800           0
     31483 W2       10495    TIP3     OH2      OT      -0.834000       15.9994           0
     31484 W2       10495    TIP3     H1       HT       0.417000       1.00800           0
     31485 W2       10495    TIP3     H2       HT       0.417000       1.00800           0
     31486 W2       10496    TIP3     OH2      OT      -0.834000       15.9994           0
     31487 W2       10496    TIP3     H1       HT       0.417000       1.00800           0
     31488 W2       10496    TIP3     H2       HT       0.417000       1.00800           0
     31489 W2       10497    TIP3     OH2      OT      -0.834000       15.9994           0
     31490 W2       10497    TIP3     H1       HT       0.417000       1.00800           0
     31491 W2       10497    TIP3     H2       HT       0.417000       1.00800           0
     31492 W2       10498    TIP3     OH2      OT      -0.834000       15.9994           0
     31493 W2       10498    TIP3     H1       HT       0.417000       1.00800           0
     31494 W2       10498    TIP3     H2       HT       0.417000       1.00800           0
     31495 W2       10499    TIP3     OH2      OT      -0.834000       15.9994           0
     31496 W2       10499    TIP3     H1       HT       0.417000       1.00800           0
     31497 W2       10499    TIP3     H2       HT       0.417000       1.00800           0
     31498 W2       10500    TIP3     OH2      OT      -0.834000       15.9994           0
     31499 W2       10500    TIP3     H1       HT       0.417000       1.00800           0
     31500 W2       10500    TIP3     H2       HT       0.417000       1.00800           0
     31501 W2       10501    TIP3     OH2      OT      -0.834000       15.9994           0
     31502 W2       10501    TIP3     H1       HT       0.417000       1.00800           0
     31503 W2       10501    TIP3     H2       HT       0.417000       1.00800           0
     31504 W2       10502    TIP3     OH2      OT      -0.834000       15.9994           0
     31505 W2       10502    TIP3     H1       HT       0.417000       1.00800           0
     31506 W2       10502    TIP3     H2       HT       0.417000       1.00800           0
     31507 W2       10503    TIP3     OH2      OT      -0.834000       15.9994           0
     31508 W2       10503    TIP3     H1       HT       0.417000       1.00800           0
     31509 W2       10503    TIP3     H2       HT       0.417000       1.00800           0
     31510 W2       10504    TIP3     OH2      OT      -0.834000       15.9994           0
     31511 W2       10504    TIP3     H1       HT       0.417000       1.00800           0
     31512 W2       10504    TIP3     H2       HT       0.417000       1.00800           0
     31513 W2       10505    TIP3     OH2      OT      -0.834000       15.9994           0
     31514 W2       10505    TIP3     H1       HT       0.417000       1.00800           0
     31515 W2       10505    TIP3     H2       HT       0.417000       1.00800           0
     31516 W2       10506    TIP3     OH2      OT      -0.834000       15.9994           0
     31517 W2       10506    TIP3     H1       HT       0.417000       1.00800           0
     31518 W2       10506    TIP3     H2       HT       0.417000       1.00800           0
     31519 W2       10507    TIP3     OH2      OT      -0.834000       15.9994           0
     31520 W2       10507    TIP3     H1       HT       0.417000       1.00800           0
     31521 W2       10507    TIP3     H2       HT       0.417000       1.00800           0
     31522 W2       10508    TIP3     OH2      OT      -0.834000       15.9994           0
     31523 W2       10508    TIP3     H1       HT       0.417000       1.00800           0
     31524 W2       10508    TIP3     H2       HT       0.417000       1.00800           0
     31525 W2       10509    TIP3     OH2      OT      -0.834000       15.9994           0
     31526 W2       10509    TIP3     H1       HT       0.417000       1.00800           0
     31527 W2       10509    TIP3     H2       HT       0.417000       1.00800           0
     31528 W2       10510    TIP3     OH2      OT      -0.834000       15.9994           0
     31529 W2       10510    TIP3     H1       HT       0.417000       1.00800           0
     31530 W2       10510    TIP3     H2       HT       0.417000       1.00800           0
     31531 W2       10511    TIP3     OH2      OT      -0.834000       15.9994           0
     31532 W2       10511    TIP3     H1       HT       0.417000       1.00800           0
     31533 W2       10511    TIP3     H2       HT       0.417000       1.00800           0
     31534 W2       10512    TIP3     OH2      OT      -0.834000       15.9994           0
     31535 W2       10512    TIP3     H1       HT       0.417000       1.00800           0
     31536 W2       10512    TIP3     H2       HT       0.417000       1.00800           0
     31537 W2       10513    TIP3     OH2      OT      -0.834000       15.9994           0
     31538 W2       10513    TIP3     H1       HT       0.417000       1.00800           0
     31539 W2       10513    TIP3     H2       HT       0.417000       1.00800           0
     31540 W2       10514    TIP3     OH2      OT      -0.834000       15.9994           0
     31541 W2       10514    TIP3     H1       HT       0.417000       1.00800           0
     31542 W2       10514    TIP3     H2       HT       0.417000       1.00800           0
     31543 W2       10515    TIP3     OH2      OT      -0.834000       15.9994           0
     31544 W2       10515    TIP3     H1       HT       0.417000       1.00800           0
     31545 W2       10515    TIP3     H2       HT       0.417000       1.00800           0
     31546 W2       10516    TIP3     OH2      OT      -0.834000       15.9994           0
     31547 W2       10516    TIP3     H1       HT       0.417000       1.00800           0
     31548 W2       10516    TIP3     H2       HT       0.417000       1.00800           0
     31549 W2       10517    TIP3     OH2      OT      -0.834000       15.9994           0
     31550 W2       10517    TIP3     H1       HT       0.417000       1.00800           0
     31551 W2       10517    TIP3     H2       HT       0.417000       1.00800           0
     31552 W2       10518    TIP3     OH2      OT      -0.834000       15.9994           0
     31553 W2       10518    TIP3     H1       HT       0.417000       1.00800           0
     31554 W2       10518    TIP3     H2       HT       0.417000       1.00800           0
     31555 W2       10519    TIP3     OH2      OT      -0.834000       15.9994           0
     31556 W2       10519    TIP3     H1       HT       0.417000       1.00800           0
     31557 W2       10519    TIP3     H2       HT       0.417000       1.00800           0
     31558 W2       10520    TIP3     OH2      OT      -0.834000       15.9994           0
     31559 W2       10520    TIP3     H1       HT       0.417000       1.00800           0
     31560 W2       10520    TIP3     H2       HT       0.417000       1.00800           0
     31561 W2       10521    TIP3     OH2      OT      -0.834000       15.9994           0
     31562 W2       10521    TIP3     H1       HT       0.417000       1.00800           0
     31563 W2       10521    TIP3     H2       HT       0.417000       1.00800           0
     31564 W2       10522    TIP3     OH2      OT      -0.834000       15.9994           0
     31565 W2       10522    TIP3     H1       HT       0.417000       1.00800           0
     31566 W2       10522    TIP3     H2       HT       0.417000       1.00800           0
     31567 W2       10523    TIP3     OH2      OT      -0.834000       15.9994           0
     31568 W2       10523    TIP3     H1       HT       0.417000       1.00800           0
     31569 W2       10523    TIP3     H2       HT       0.417000       1.00800           0
     31570 W2       10524    TIP3     OH2      OT      -0.834000       15.9994           0
     31571 W2       10524    TIP3     H1       HT       0.417000       1.00800           0
     31572 W2       10524    TIP3     H2       HT       0.417000       1.00800           0
     31573 W2       10525    TIP3     OH2      OT      -0.834000       15.9994           0
     31574 W2       10525    TIP3     H1       HT       0.417000       1.00800           0
     31575 W2       10525    TIP3     H2       HT       0.417000       1.00800           0
     31576 W2       10526    TIP3     OH2      OT      -0.834000       15.9994           0
     31577 W2       10526    TIP3     H1       HT       0.417000       1.00800           0
     31578 W2       10526    TIP3     H2       HT       0.417000       1.00800           0
     31579 W2       10527    TIP3     OH2      OT      -0.834000       15.9994           0
     31580 W2       10527    TIP3     H1       HT       0.417000       1.00800           0
     31581 W2       10527    TIP3     H2       HT       0.417000       1.00800           0
     31582 W2       10528    TIP3     OH2      OT      -0.834000       15.9994           0
     31583 W2       10528    TIP3     H1       HT       0.417000       1.00800           0
     31584 W2       10528    TIP3     H2       HT       0.417000       1.00800           0
     31585 W2       10529    TIP3     OH2      OT      -0.834000       15.9994           0
     31586 W2       10529    TIP3     H1       HT       0.417000       1.00800           0
     31587 W2       10529    TIP3     H2       HT       0.417000       1.00800           0
     31588 W2       10530    TIP3     OH2      OT      -0.834000       15.9994           0
     31589 W2       10530    TIP3     H1       HT       0.417000       1.00800           0
     31590 W2       10530    TIP3     H2       HT       0.417000       1.00800           0
     31591 W2       10531    TIP3     OH2      OT      -0.834000       15.9994           0
     31592 W2       10531    TIP3     H1       HT       0.417000       1.00800           0
     31593 W2       10531    TIP3     H2       HT       0.417000       1.00800           0
     31594 W2       10532    TIP3     OH2      OT      -0.834000       15.9994           0
     31595 W2       10532    TIP3     H1       HT       0.417000       1.00800           0
     31596 W2       10532    TIP3     H2       HT       0.417000       1.00800           0
     31597 W2       10533    TIP3     OH2      OT      -0.834000       15.9994           0
     31598 W2       10533    TIP3     H1       HT       0.417000       1.00800           0
     31599 W2       10533    TIP3     H2       HT       0.417000       1.00800           0
     31600 W2       10534    TIP3     OH2      OT      -0.834000       15.9994           0
     31601 W2       10534    TIP3     H1       HT       0.417000       1.00800           0
     31602 W2       10534    TIP3     H2       HT       0.417000       1.00800           0
     31603 W2       10535    TIP3     OH2      OT      -0.834000       15.9994           0
     31604 W2       10535    TIP3     H1       HT       0.417000       1.00800           0
     31605 W2       10535    TIP3     H2       HT       0.417000       1.00800           0
     31606 W2       10536    TIP3     OH2      OT      -0.834000       15.9994           0
     31607 W2       10536    TIP3     H1       HT       0.417000       1.00800           0
     31608 W2       10536    TIP3     H2       HT       0.417000       1.00800           0
     31609 W2       10537    TIP3     OH2      OT      -0.834000       15.9994           0
     31610 W2       10537    TIP3     H1       HT       0.417000       1.00800           0
     31611 W2       10537    TIP3     H2       HT       0.417000       1.00800           0
     31612 W2       10538    TIP3     OH2      OT      -0.834000       15.9994           0
     31613 W2       10538    TIP3     H1       HT       0.417000       1.00800           0
     31614 W2       10538    TIP3     H2       HT       0.417000       1.00800           0
     31615 W2       10539    TIP3     OH2      OT      -0.834000       15.9994           0
     31616 W2       10539    TIP3     H1       HT       0.417000       1.00800           0
     31617 W2       10539    TIP3     H2       HT       0.417000       1.00800           0
     31618 W2       10540    TIP3     OH2      OT      -0.834000       15.9994           0
     31619 W2       10540    TIP3     H1       HT       0.417000       1.00800           0
     31620 W2       10540    TIP3     H2       HT       0.417000       1.00800           0
     31621 W2       10541    TIP3     OH2      OT      -0.834000       15.9994           0
     31622 W2       10541    TIP3     H1       HT       0.417000       1.00800           0
     31623 W2       10541    TIP3     H2       HT       0.417000       1.00800           0
     31624 W2       10542    TIP3     OH2      OT      -0.834000       15.9994           0
     31625 W2       10542    TIP3     H1       HT       0.417000       1.00800           0
     31626 W2       10542    TIP3     H2       HT       0.417000       1.00800           0
     31627 W2       10543    TIP3     OH2      OT      -0.834000       15.9994           0
     31628 W2       10543    TIP3     H1       HT       0.417000       1.00800           0
     31629 W2       10543    TIP3     H2       HT       0.417000       1.00800           0
     31630 W2       10544    TIP3     OH2      OT      -0.834000       15.9994           0
     31631 W2       10544    TIP3     H1       HT       0.417000       1.00800           0
     31632 W2       10544    TIP3     H2       HT       0.417000       1.00800           0
     31633 W2       10545    TIP3     OH2      OT      -0.834000       15.9994           0
     31634 W2       10545    TIP3     H1       HT       0.417000       1.00800           0
     31635 W2       10545    TIP3     H2       HT       0.417000       1.00800           0
     31636 W2       10546    TIP3     OH2      OT      -0.834000       15.9994           0
     31637 W2       10546    TIP3     H1       HT       0.417000       1.00800           0
     31638 W2       10546    TIP3     H2       HT       0.417000       1.00800           0
     31639 W2       10547    TIP3     OH2      OT      -0.834000       15.9994           0
     31640 W2       10547    TIP3     H1       HT       0.417000       1.00800           0
     31641 W2       10547    TIP3     H2       HT       0.417000       1.00800           0
     31642 W2       10548    TIP3     OH2      OT      -0.834000       15.9994           0
     31643 W2       10548    TIP3     H1       HT       0.417000       1.00800           0
     31644 W2       10548    TIP3     H2       HT       0.417000       1.00800           0
     31645 W2       10549    TIP3     OH2      OT      -0.834000       15.9994           0
     31646 W2       10549    TIP3     H1       HT       0.417000       1.00800           0
     31647 W2       10549    TIP3     H2       HT       0.417000       1.00800           0
     31648 W2       10550    TIP3     OH2      OT      -0.834000       15.9994           0
     31649 W2       10550    TIP3     H1       HT       0.417000       1.00800           0
     31650 W2       10550    TIP3     H2       HT       0.417000       1.00800           0
     31651 W2       10551    TIP3     OH2      OT      -0.834000       15.9994           0
     31652 W2       10551    TIP3     H1       HT       0.417000       1.00800           0
     31653 W2       10551    TIP3     H2       HT       0.417000       1.00800           0
     31654 W2       10552    TIP3     OH2      OT      -0.834000       15.9994           0
     31655 W2       10552    TIP3     H1       HT       0.417000       1.00800           0
     31656 W2       10552    TIP3     H2       HT       0.417000       1.00800           0
     31657 W2       10553    TIP3     OH2      OT      -0.834000       15.9994           0
     31658 W2       10553    TIP3     H1       HT       0.417000       1.00800           0
     31659 W2       10553    TIP3     H2       HT       0.417000       1.00800           0
     31660 W2       10554    TIP3     OH2      OT      -0.834000       15.9994           0
     31661 W2       10554    TIP3     H1       HT       0.417000       1.00800           0
     31662 W2       10554    TIP3     H2       HT       0.417000       1.00800           0
     31663 W2       10555    TIP3     OH2      OT      -0.834000       15.9994           0
     31664 W2       10555    TIP3     H1       HT       0.417000       1.00800           0
     31665 W2       10555    TIP3     H2       HT       0.417000       1.00800           0
     31666 W2       10556    TIP3     OH2      OT      -0.834000       15.9994           0
     31667 W2       10556    TIP3     H1       HT       0.417000       1.00800           0
     31668 W2       10556    TIP3     H2       HT       0.417000       1.00800           0
     31669 W2       10557    TIP3     OH2      OT      -0.834000       15.9994           0
     31670 W2       10557    TIP3     H1       HT       0.417000       1.00800           0
     31671 W2       10557    TIP3     H2       HT       0.417000       1.00800           0
     31672 W2       10558    TIP3     OH2      OT      -0.834000       15.9994           0
     31673 W2       10558    TIP3     H1       HT       0.417000       1.00800           0
     31674 W2       10558    TIP3     H2       HT       0.417000       1.00800           0
     31675 W2       10559    TIP3     OH2      OT      -0.834000       15.9994           0
     31676 W2       10559    TIP3     H1       HT       0.417000       1.00800           0
     31677 W2       10559    TIP3     H2       HT       0.417000       1.00800           0
     31678 W2       10560    TIP3     OH2      OT      -0.834000       15.9994           0
     31679 W2       10560    TIP3     H1       HT       0.417000       1.00800           0
     31680 W2       10560    TIP3     H2       HT       0.417000       1.00800           0
     31681 W2       10561    TIP3     OH2      OT      -0.834000       15.9994           0
     31682 W2       10561    TIP3     H1       HT       0.417000       1.00800           0
     31683 W2       10561    TIP3     H2       HT       0.417000       1.00800           0
     31684 W2       10562    TIP3     OH2      OT      -0.834000       15.9994           0
     31685 W2       10562    TIP3     H1       HT       0.417000       1.00800           0
     31686 W2       10562    TIP3     H2       HT       0.417000       1.00800           0
     31687 W2       10563    TIP3     OH2      OT      -0.834000       15.9994           0
     31688 W2       10563    TIP3     H1       HT       0.417000       1.00800           0
     31689 W2       10563    TIP3     H2       HT       0.417000       1.00800           0
     31690 W2       10564    TIP3     OH2      OT      -0.834000       15.9994           0
     31691 W2       10564    TIP3     H1       HT       0.417000       1.00800           0
     31692 W2       10564    TIP3     H2       HT       0.417000       1.00800           0
     31693 W2       10565    TIP3     OH2      OT      -0.834000       15.9994           0
     31694 W2       10565    TIP3     H1       HT       0.417000       1.00800           0
     31695 W2       10565    TIP3     H2       HT       0.417000       1.00800           0
     31696 W2       10566    TIP3     OH2      OT      -0.834000       15.9994           0
     31697 W2       10566    TIP3     H1       HT       0.417000       1.00800           0
     31698 W2       10566    TIP3     H2       HT       0.417000       1.00800           0
     31699 W2       10567    TIP3     OH2      OT      -0.834000       15.9994           0
     31700 W2       10567    TIP3     H1       HT       0.417000       1.00800           0
     31701 W2       10567    TIP3     H2       HT       0.417000       1.00800           0
     31702 W2       10568    TIP3     OH2      OT      -0.834000       15.9994           0
     31703 W2       10568    TIP3     H1       HT       0.417000       1.00800           0
     31704 W2       10568    TIP3     H2       HT       0.417000       1.00800           0
     31705 W2       10569    TIP3     OH2      OT      -0.834000       15.9994           0
     31706 W2       10569    TIP3     H1       HT       0.417000       1.00800           0
     31707 W2       10569    TIP3     H2       HT       0.417000       1.00800           0
     31708 W2       10570    TIP3     OH2      OT      -0.834000       15.9994           0
     31709 W2       10570    TIP3     H1       HT       0.417000       1.00800           0
     31710 W2       10570    TIP3     H2       HT       0.417000       1.00800           0
     31711 W2       10571    TIP3     OH2      OT      -0.834000       15.9994           0
     31712 W2       10571    TIP3     H1       HT       0.417000       1.00800           0
     31713 W2       10571    TIP3     H2       HT       0.417000       1.00800           0
     31714 W2       10572    TIP3     OH2      OT      -0.834000       15.9994           0
     31715 W2       10572    TIP3     H1       HT       0.417000       1.00800           0
     31716 W2       10572    TIP3     H2       HT       0.417000       1.00800           0
     31717 W2       10573    TIP3     OH2      OT      -0.834000       15.9994           0
     31718 W2       10573    TIP3     H1       HT       0.417000       1.00800           0
     31719 W2       10573    TIP3     H2       HT       0.417000       1.00800           0
     31720 W2       10574    TIP3     OH2      OT      -0.834000       15.9994           0
     31721 W2       10574    TIP3     H1       HT       0.417000       1.00800           0
     31722 W2       10574    TIP3     H2       HT       0.417000       1.00800           0
     31723 W2       10575    TIP3     OH2      OT      -0.834000       15.9994           0
     31724 W2       10575    TIP3     H1       HT       0.417000       1.00800           0
     31725 W2       10575    TIP3     H2       HT       0.417000       1.00800           0
     31726 W2       10576    TIP3     OH2      OT      -0.834000       15.9994           0
     31727 W2       10576    TIP3     H1       HT       0.417000       1.00800           0
     31728 W2       10576    TIP3     H2       HT       0.417000       1.00800           0
     31729 W2       10577    TIP3     OH2      OT      -0.834000       15.9994           0
     31730 W2       10577    TIP3     H1       HT       0.417000       1.00800           0
     31731 W2       10577    TIP3     H2       HT       0.417000       1.00800           0
     31732 W2       10578    TIP3     OH2      OT      -0.834000       15.9994           0
     31733 W2       10578    TIP3     H1       HT       0.417000       1.00800           0
     31734 W2       10578    TIP3     H2       HT       0.417000       1.00800           0
     31735 W2       10579    TIP3     OH2      OT      -0.834000       15.9994           0
     31736 W2       10579    TIP3     H1       HT       0.417000       1.00800           0
     31737 W2       10579    TIP3     H2       HT       0.417000       1.00800           0
     31738 W2       10580    TIP3     OH2      OT      -0.834000       15.9994           0
     31739 W2       10580    TIP3     H1       HT       0.417000       1.00800           0
     31740 W2       10580    TIP3     H2       HT       0.417000       1.00800           0
     31741 W2       10581    TIP3     OH2      OT      -0.834000       15.9994           0
     31742 W2       10581    TIP3     H1       HT       0.417000       1.00800           0
     31743 W2       10581    TIP3     H2       HT       0.417000       1.00800           0
     31744 W2       10582    TIP3     OH2      OT      -0.834000       15.9994           0
     31745 W2       10582    TIP3     H1       HT       0.417000       1.00800           0
     31746 W2       10582    TIP3     H2       HT       0.417000       1.00800           0
     31747 W2       10583    TIP3     OH2      OT      -0.834000       15.9994           0
     31748 W2       10583    TIP3     H1       HT       0.417000       1.00800           0
     31749 W2       10583    TIP3     H2       HT       0.417000       1.00800           0
     31750 W2       10584    TIP3     OH2      OT      -0.834000       15.9994           0
     31751 W2       10584    TIP3     H1       HT       0.417000       1.00800           0
     31752 W2       10584    TIP3     H2       HT       0.417000       1.00800           0
     31753 W2       10585    TIP3     OH2      OT      -0.834000       15.9994           0
     31754 W2       10585    TIP3     H1       HT       0.417000       1.00800           0
     31755 W2       10585    TIP3     H2       HT       0.417000       1.00800           0
     31756 W2       10586    TIP3     OH2      OT      -0.834000       15.9994           0
     31757 W2       10586    TIP3     H1       HT       0.417000       1.00800           0
     31758 W2       10586    TIP3     H2       HT       0.417000       1.00800           0
     31759 W2       10587    TIP3     OH2      OT      -0.834000       15.9994           0
     31760 W2       10587    TIP3     H1       HT       0.417000       1.00800           0
     31761 W2       10587    TIP3     H2       HT       0.417000       1.00800           0
     31762 W2       10588    TIP3     OH2      OT      -0.834000       15.9994           0
     31763 W2       10588    TIP3     H1       HT       0.417000       1.00800           0
     31764 W2       10588    TIP3     H2       HT       0.417000       1.00800           0
     31765 W2       10589    TIP3     OH2      OT      -0.834000       15.9994           0
     31766 W2       10589    TIP3     H1       HT       0.417000       1.00800           0
     31767 W2       10589    TIP3     H2       HT       0.417000       1.00800           0
     31768 W2       10590    TIP3     OH2      OT      -0.834000       15.9994           0
     31769 W2       10590    TIP3     H1       HT       0.417000       1.00800           0
     31770 W2       10590    TIP3     H2       HT       0.417000       1.00800           0
     31771 W2       10591    TIP3     OH2      OT      -0.834000       15.9994           0
     31772 W2       10591    TIP3     H1       HT       0.417000       1.00800           0
     31773 W2       10591    TIP3     H2       HT       0.417000       1.00800           0
     31774 W2       10592    TIP3     OH2      OT      -0.834000       15.9994           0
     31775 W2       10592    TIP3     H1       HT       0.417000       1.00800           0
     31776 W2       10592    TIP3     H2       HT       0.417000       1.00800           0
     31777 W2       10593    TIP3     OH2      OT      -0.834000       15.9994           0
     31778 W2       10593    TIP3     H1       HT       0.417000       1.00800           0
     31779 W2       10593    TIP3     H2       HT       0.417000       1.00800           0
     31780 W2       10594    TIP3     OH2      OT      -0.834000       15.9994           0
     31781 W2       10594    TIP3     H1       HT       0.417000       1.00800           0
     31782 W2       10594    TIP3     H2       HT       0.417000       1.00800           0
     31783 W2       10595    TIP3     OH2      OT      -0.834000       15.9994           0
     31784 W2       10595    TIP3     H1       HT       0.417000       1.00800           0
     31785 W2       10595    TIP3     H2       HT       0.417000       1.00800           0
     31786 W2       10596    TIP3     OH2      OT      -0.834000       15.9994           0
     31787 W2       10596    TIP3     H1       HT       0.417000       1.00800           0
     31788 W2       10596    TIP3     H2       HT       0.417000       1.00800           0
     31789 W2       10597    TIP3     OH2      OT      -0.834000       15.9994           0
     31790 W2       10597    TIP3     H1       HT       0.417000       1.00800           0
     31791 W2       10597    TIP3     H2       HT       0.417000       1.00800           0
     31792 W2       10598    TIP3     OH2      OT      -0.834000       15.9994           0
     31793 W2       10598    TIP3     H1       HT       0.417000       1.00800           0
     31794 W2       10598    TIP3     H2       HT       0.417000       1.00800           0
     31795 W2       10599    TIP3     OH2      OT      -0.834000       15.9994           0
     31796 W2       10599    TIP3     H1       HT       0.417000       1.00800           0
     31797 W2       10599    TIP3     H2       HT       0.417000       1.00800           0
     31798 W2       10600    TIP3     OH2      OT      -0.834000       15.9994           0
     31799 W2       10600    TIP3     H1       HT       0.417000       1.00800           0
     31800 W2       10600    TIP3     H2       HT       0.417000       1.00800           0
     31801 W2       10601    TIP3     OH2      OT      -0.834000       15.9994           0
     31802 W2       10601    TIP3     H1       HT       0.417000       1.00800           0
     31803 W2       10601    TIP3     H2       HT       0.417000       1.00800           0
     31804 W2       10602    TIP3     OH2      OT      -0.834000       15.9994           0
     31805 W2       10602    TIP3     H1       HT       0.417000       1.00800           0
     31806 W2       10602    TIP3     H2       HT       0.417000       1.00800           0
     31807 W2       10603    TIP3     OH2      OT      -0.834000       15.9994           0
     31808 W2       10603    TIP3     H1       HT       0.417000       1.00800           0
     31809 W2       10603    TIP3     H2       HT       0.417000       1.00800           0
     31810 W2       10604    TIP3     OH2      OT      -0.834000       15.9994           0
     31811 W2       10604    TIP3     H1       HT       0.417000       1.00800           0
     31812 W2       10604    TIP3     H2       HT       0.417000       1.00800           0
     31813 W2       10605    TIP3     OH2      OT      -0.834000       15.9994           0
     31814 W2       10605    TIP3     H1       HT       0.417000       1.00800           0
     31815 W2       10605    TIP3     H2       HT       0.417000       1.00800           0
     31816 W2       10606    TIP3     OH2      OT      -0.834000       15.9994           0
     31817 W2       10606    TIP3     H1       HT       0.417000       1.00800           0
     31818 W2       10606    TIP3     H2       HT       0.417000       1.00800           0
     31819 W2       10607    TIP3     OH2      OT      -0.834000       15.9994           0
     31820 W2       10607    TIP3     H1       HT       0.417000       1.00800           0
     31821 W2       10607    TIP3     H2       HT       0.417000       1.00800           0
     31822 W2       10608    TIP3     OH2      OT      -0.834000       15.9994           0
     31823 W2       10608    TIP3     H1       HT       0.417000       1.00800           0
     31824 W2       10608    TIP3     H2       HT       0.417000       1.00800           0
     31825 W2       10609    TIP3     OH2      OT      -0.834000       15.9994           0
     31826 W2       10609    TIP3     H1       HT       0.417000       1.00800           0
     31827 W2       10609    TIP3     H2       HT       0.417000       1.00800           0
     31828 W2       10610    TIP3     OH2      OT      -0.834000       15.9994           0
     31829 W2       10610    TIP3     H1       HT       0.417000       1.00800           0
     31830 W2       10610    TIP3     H2       HT       0.417000       1.00800           0
     31831 W2       10611    TIP3     OH2      OT      -0.834000       15.9994           0
     31832 W2       10611    TIP3     H1       HT       0.417000       1.00800           0
     31833 W2       10611    TIP3     H2       HT       0.417000       1.00800           0
     31834 W2       10612    TIP3     OH2      OT      -0.834000       15.9994           0
     31835 W2       10612    TIP3     H1       HT       0.417000       1.00800           0
     31836 W2       10612    TIP3     H2       HT       0.417000       1.00800           0
     31837 W2       10613    TIP3     OH2      OT      -0.834000       15.9994           0
     31838 W2       10613    TIP3     H1       HT       0.417000       1.00800           0
     31839 W2       10613    TIP3     H2       HT       0.417000       1.00800           0
     31840 W2       10614    TIP3     OH2      OT      -0.834000       15.9994           0
     31841 W2       10614    TIP3     H1       HT       0.417000       1.00800           0
     31842 W2       10614    TIP3     H2       HT       0.417000       1.00800           0
     31843 W2       10615    TIP3     OH2      OT      -0.834000       15.9994           0
     31844 W2       10615    TIP3     H1       HT       0.417000       1.00800           0
     31845 W2       10615    TIP3     H2       HT       0.417000       1.00800           0
     31846 W2       10616    TIP3     OH2      OT      -0.834000       15.9994           0
     31847 W2       10616    TIP3     H1       HT       0.417000       1.00800           0
     31848 W2       10616    TIP3     H2       HT       0.417000       1.00800           0
     31849 W2       10617    TIP3     OH2      OT      -0.834000       15.9994           0
     31850 W2       10617    TIP3     H1       HT       0.417000       1.00800           0
     31851 W2       10617    TIP3     H2       HT       0.417000       1.00800           0
     31852 W2       10618    TIP3     OH2      OT      -0.834000       15.9994           0
     31853 W2       10618    TIP3     H1       HT       0.417000       1.00800           0
     31854 W2       10618    TIP3     H2       HT       0.417000       1.00800           0
     31855 W2       10619    TIP3     OH2      OT      -0.834000       15.9994           0
     31856 W2       10619    TIP3     H1       HT       0.417000       1.00800           0
     31857 W2       10619    TIP3     H2       HT       0.417000       1.00800           0
     31858 W2       10620    TIP3     OH2      OT      -0.834000       15.9994           0
     31859 W2       10620    TIP3     H1       HT       0.417000       1.00800           0
     31860 W2       10620    TIP3     H2       HT       0.417000       1.00800           0
     31861 W2       10621    TIP3     OH2      OT      -0.834000       15.9994           0
     31862 W2       10621    TIP3     H1       HT       0.417000       1.00800           0
     31863 W2       10621    TIP3     H2       HT       0.417000       1.00800           0
     31864 W2       10622    TIP3     OH2      OT      -0.834000       15.9994           0
     31865 W2       10622    TIP3     H1       HT       0.417000       1.00800           0
     31866 W2       10622    TIP3     H2       HT       0.417000       1.00800           0
     31867 W2       10623    TIP3     OH2      OT      -0.834000       15.9994           0
     31868 W2       10623    TIP3     H1       HT       0.417000       1.00800           0
     31869 W2       10623    TIP3     H2       HT       0.417000       1.00800           0
     31870 W2       10624    TIP3     OH2      OT      -0.834000       15.9994           0
     31871 W2       10624    TIP3     H1       HT       0.417000       1.00800           0
     31872 W2       10624    TIP3     H2       HT       0.417000       1.00800           0
     31873 W2       10625    TIP3     OH2      OT      -0.834000       15.9994           0
     31874 W2       10625    TIP3     H1       HT       0.417000       1.00800           0
     31875 W2       10625    TIP3     H2       HT       0.417000       1.00800           0
     31876 W2       10626    TIP3     OH2      OT      -0.834000       15.9994           0
     31877 W2       10626    TIP3     H1       HT       0.417000       1.00800           0
     31878 W2       10626    TIP3     H2       HT       0.417000       1.00800           0
     31879 W2       10627    TIP3     OH2      OT      -0.834000       15.9994           0
     31880 W2       10627    TIP3     H1       HT       0.417000       1.00800           0
     31881 W2       10627    TIP3     H2       HT       0.417000       1.00800           0
     31882 W2       10628    TIP3     OH2      OT      -0.834000       15.9994           0
     31883 W2       10628    TIP3     H1       HT       0.417000       1.00800           0
     31884 W2       10628    TIP3     H2       HT       0.417000       1.00800           0
     31885 W2       10629    TIP3     OH2      OT      -0.834000       15.9994           0
     31886 W2       10629    TIP3     H1       HT       0.417000       1.00800           0
     31887 W2       10629    TIP3     H2       HT       0.417000       1.00800           0
     31888 W2       10630    TIP3     OH2      OT      -0.834000       15.9994           0
     31889 W2       10630    TIP3     H1       HT       0.417000       1.00800           0
     31890 W2       10630    TIP3     H2       HT       0.417000       1.00800           0
     31891 W2       10631    TIP3     OH2      OT      -0.834000       15.9994           0
     31892 W2       10631    TIP3     H1       HT       0.417000       1.00800           0
     31893 W2       10631    TIP3     H2       HT       0.417000       1.00800           0
     31894 W2       10632    TIP3     OH2      OT      -0.834000       15.9994           0
     31895 W2       10632    TIP3     H1       HT       0.417000       1.00800           0
     31896 W2       10632    TIP3     H2       HT       0.417000       1.00800           0
     31897 W2       10633    TIP3     OH2      OT      -0.834000       15.9994           0
     31898 W2       10633    TIP3     H1       HT       0.417000       1.00800           0
     31899 W2       10633    TIP3     H2       HT       0.417000       1.00800           0
     31900 W2       10634    TIP3     OH2      OT      -0.834000       15.9994           0
     31901 W2       10634    TIP3     H1       HT       0.417000       1.00800           0
     31902 W2       10634    TIP3     H2       HT       0.417000       1.00800           0
     31903 W2       10635    TIP3     OH2      OT      -0.834000       15.9994           0
     31904 W2       10635    TIP3     H1       HT       0.417000       1.00800           0
     31905 W2       10635    TIP3     H2       HT       0.417000       1.00800           0
     31906 W2       10636    TIP3     OH2      OT      -0.834000       15.9994           0
     31907 W2       10636    TIP3     H1       HT       0.417000       1.00800           0
     31908 W2       10636    TIP3     H2       HT       0.417000       1.00800           0
     31909 W2       10637    TIP3     OH2      OT      -0.834000       15.9994           0
     31910 W2       10637    TIP3     H1       HT       0.417000       1.00800           0
     31911 W2       10637    TIP3     H2       HT       0.417000       1.00800           0
     31912 W2       10638    TIP3     OH2      OT      -0.834000       15.9994           0
     31913 W2       10638    TIP3     H1       HT       0.417000       1.00800           0
     31914 W2       10638    TIP3     H2       HT       0.417000       1.00800           0
     31915 W2       10639    TIP3     OH2      OT      -0.834000       15.9994           0
     31916 W2       10639    TIP3     H1       HT       0.417000       1.00800           0
     31917 W2       10639    TIP3     H2       HT       0.417000       1.00800           0
     31918 W2       10640    TIP3     OH2      OT      -0.834000       15.9994           0
     31919 W2       10640    TIP3     H1       HT       0.417000       1.00800           0
     31920 W2       10640    TIP3     H2       HT       0.417000       1.00800           0
     31921 W2       10641    TIP3     OH2      OT      -0.834000       15.9994           0
     31922 W2       10641    TIP3     H1       HT       0.417000       1.00800           0
     31923 W2       10641    TIP3     H2       HT       0.417000       1.00800           0
     31924 W2       10642    TIP3     OH2      OT      -0.834000       15.9994           0
     31925 W2       10642    TIP3     H1       HT       0.417000       1.00800           0
     31926 W2       10642    TIP3     H2       HT       0.417000       1.00800           0
     31927 W2       10643    TIP3     OH2      OT      -0.834000       15.9994           0
     31928 W2       10643    TIP3     H1       HT       0.417000       1.00800           0
     31929 W2       10643    TIP3     H2       HT       0.417000       1.00800           0
     31930 W2       10644    TIP3     OH2      OT      -0.834000       15.9994           0
     31931 W2       10644    TIP3     H1       HT       0.417000       1.00800           0
     31932 W2       10644    TIP3     H2       HT       0.417000       1.00800           0
     31933 W2       10645    TIP3     OH2      OT      -0.834000       15.9994           0
     31934 W2       10645    TIP3     H1       HT       0.417000       1.00800           0
     31935 W2       10645    TIP3     H2       HT       0.417000       1.00800           0
     31936 W2       10646    TIP3     OH2      OT      -0.834000       15.9994           0
     31937 W2       10646    TIP3     H1       HT       0.417000       1.00800           0
     31938 W2       10646    TIP3     H2       HT       0.417000       1.00800           0
     31939 W2       10647    TIP3     OH2      OT      -0.834000       15.9994           0
     31940 W2       10647    TIP3     H1       HT       0.417000       1.00800           0
     31941 W2       10647    TIP3     H2       HT       0.417000       1.00800           0
     31942 W2       10648    TIP3     OH2      OT      -0.834000       15.9994           0
     31943 W2       10648    TIP3     H1       HT       0.417000       1.00800           0
     31944 W2       10648    TIP3     H2       HT       0.417000       1.00800           0
     31945 W2       10649    TIP3     OH2      OT      -0.834000       15.9994           0
     31946 W2       10649    TIP3     H1       HT       0.417000       1.00800           0
     31947 W2       10649    TIP3     H2       HT       0.417000       1.00800           0
     31948 W2       10650    TIP3     OH2      OT      -0.834000       15.9994           0
     31949 W2       10650    TIP3     H1       HT       0.417000       1.00800           0
     31950 W2       10650    TIP3     H2       HT       0.417000       1.00800           0
     31951 W2       10651    TIP3     OH2      OT      -0.834000       15.9994           0
     31952 W2       10651    TIP3     H1       HT       0.417000       1.00800           0
     31953 W2       10651    TIP3     H2       HT       0.417000       1.00800           0
     31954 W2       10652    TIP3     OH2      OT      -0.834000       15.9994           0
     31955 W2       10652    TIP3     H1       HT       0.417000       1.00800           0
     31956 W2       10652    TIP3     H2       HT       0.417000       1.00800           0
     31957 W2       10653    TIP3     OH2      OT      -0.834000       15.9994           0
     31958 W2       10653    TIP3     H1       HT       0.417000       1.00800           0
     31959 W2       10653    TIP3     H2       HT       0.417000       1.00800           0
     31960 W2       10654    TIP3     OH2      OT      -0.834000       15.9994           0
     31961 W2       10654    TIP3     H1       HT       0.417000       1.00800           0
     31962 W2       10654    TIP3     H2       HT       0.417000       1.00800           0
     31963 W2       10655    TIP3     OH2      OT      -0.834000       15.9994           0
     31964 W2       10655    TIP3     H1       HT       0.417000       1.00800           0
     31965 W2       10655    TIP3     H2       HT       0.417000       1.00800           0
     31966 W2       10656    TIP3     OH2      OT      -0.834000       15.9994           0
     31967 W2       10656    TIP3     H1       HT       0.417000       1.00800           0
     31968 W2       10656    TIP3     H2       HT       0.417000       1.00800           0
     31969 W2       10657    TIP3     OH2      OT      -0.834000       15.9994           0
     31970 W2       10657    TIP3     H1       HT       0.417000       1.00800           0
     31971 W2       10657    TIP3     H2       HT       0.417000       1.00800           0
     31972 W2       10658    TIP3     OH2      OT      -0.834000       15.9994           0
     31973 W2       10658    TIP3     H1       HT       0.417000       1.00800           0
     31974 W2       10658    TIP3     H2       HT       0.417000       1.00800           0
     31975 W2       10659    TIP3     OH2      OT      -0.834000       15.9994           0
     31976 W2       10659    TIP3     H1       HT       0.417000       1.00800           0
     31977 W2       10659    TIP3     H2       HT       0.417000       1.00800           0
     31978 W2       10660    TIP3     OH2      OT      -0.834000       15.9994           0
     31979 W2       10660    TIP3     H1       HT       0.417000       1.00800           0
     31980 W2       10660    TIP3     H2       HT       0.417000       1.00800           0
     31981 W2       10661    TIP3     OH2      OT      -0.834000       15.9994           0
     31982 W2       10661    TIP3     H1       HT       0.417000       1.00800           0
     31983 W2       10661    TIP3     H2       HT       0.417000       1.00800           0
     31984 W2       10662    TIP3     OH2      OT      -0.834000       15.9994           0
     31985 W2       10662    TIP3     H1       HT       0.417000       1.00800           0
     31986 W2       10662    TIP3     H2       HT       0.417000       1.00800           0
     31987 W2       10663    TIP3     OH2      OT      -0.834000       15.9994           0
     31988 W2       10663    TIP3     H1       HT       0.417000       1.00800           0
     31989 W2       10663    TIP3     H2       HT       0.417000       1.00800           0
     31990 W2       10664    TIP3     OH2      OT      -0.834000       15.9994           0
     31991 W2       10664    TIP3     H1       HT       0.417000       1.00800           0
     31992 W2       10664    TIP3     H2       HT       0.417000       1.00800           0
     31993 W2       10665    TIP3     OH2      OT      -0.834000       15.9994           0
     31994 W2       10665    TIP3     H1       HT       0.417000       1.00800           0
     31995 W2       10665    TIP3     H2       HT       0.417000       1.00800           0
     31996 W2       10666    TIP3     OH2      OT      -0.834000       15.9994           0
     31997 W2       10666    TIP3     H1       HT       0.417000       1.00800           0
     31998 W2       10666    TIP3     H2       HT       0.417000       1.00800           0
     31999 W2       10667    TIP3     OH2      OT      -0.834000       15.9994           0
     32000 W2       10667    TIP3     H1       HT       0.417000       1.00800           0
     32001 W2       10667    TIP3     H2       HT       0.417000       1.00800           0
     32002 W2       10668    TIP3     OH2      OT      -0.834000       15.9994           0
     32003 W2       10668    TIP3     H1       HT       0.417000       1.00800           0
     32004 W2       10668    TIP3     H2       HT       0.417000       1.00800           0
     32005 W2       10669    TIP3     OH2      OT      -0.834000       15.9994           0
     32006 W2       10669    TIP3     H1       HT       0.417000       1.00800           0
     32007 W2       10669    TIP3     H2       HT       0.417000       1.00800           0
     32008 W2       10670    TIP3     OH2      OT      -0.834000       15.9994           0
     32009 W2       10670    TIP3     H1       HT       0.417000       1.00800           0
     32010 W2       10670    TIP3     H2       HT       0.417000       1.00800           0
     32011 W2       10671    TIP3     OH2      OT      -0.834000       15.9994           0
     32012 W2       10671    TIP3     H1       HT       0.417000       1.00800           0
     32013 W2       10671    TIP3     H2       HT       0.417000       1.00800           0
     32014 W2       10672    TIP3     OH2      OT      -0.834000       15.9994           0
     32015 W2       10672    TIP3     H1       HT       0.417000       1.00800           0
     32016 W2       10672    TIP3     H2       HT       0.417000       1.00800           0
     32017 W2       10673    TIP3     OH2      OT      -0.834000       15.9994           0
     32018 W2       10673    TIP3     H1       HT       0.417000       1.00800           0
     32019 W2       10673    TIP3     H2       HT       0.417000       1.00800           0
     32020 W2       10674    TIP3     OH2      OT      -0.834000       15.9994           0
     32021 W2       10674    TIP3     H1       HT       0.417000       1.00800           0
     32022 W2       10674    TIP3     H2       HT       0.417000       1.00800           0
     32023 W2       10675    TIP3     OH2      OT      -0.834000       15.9994           0
     32024 W2       10675    TIP3     H1       HT       0.417000       1.00800           0
     32025 W2       10675    TIP3     H2       HT       0.417000       1.00800           0
     32026 W2       10676    TIP3     OH2      OT      -0.834000       15.9994           0
     32027 W2       10676    TIP3     H1       HT       0.417000       1.00800           0
     32028 W2       10676    TIP3     H2       HT       0.417000       1.00800           0
     32029 W2       10677    TIP3     OH2      OT      -0.834000       15.9994           0
     32030 W2       10677    TIP3     H1       HT       0.417000       1.00800           0
     32031 W2       10677    TIP3     H2       HT       0.417000       1.00800           0
     32032 W2       10678    TIP3     OH2      OT      -0.834000       15.9994           0
     32033 W2       10678    TIP3     H1       HT       0.417000       1.00800           0
     32034 W2       10678    TIP3     H2       HT       0.417000       1.00800           0
     32035 W2       10679    TIP3     OH2      OT      -0.834000       15.9994           0
     32036 W2       10679    TIP3     H1       HT       0.417000       1.00800           0
     32037 W2       10679    TIP3     H2       HT       0.417000       1.00800           0
     32038 W2       10680    TIP3     OH2      OT      -0.834000       15.9994           0
     32039 W2       10680    TIP3     H1       HT       0.417000       1.00800           0
     32040 W2       10680    TIP3     H2       HT       0.417000       1.00800           0
     32041 W2       10681    TIP3     OH2      OT      -0.834000       15.9994           0
     32042 W2       10681    TIP3     H1       HT       0.417000       1.00800           0
     32043 W2       10681    TIP3     H2       HT       0.417000       1.00800           0
     32044 W2       10682    TIP3     OH2      OT      -0.834000       15.9994           0
     32045 W2       10682    TIP3     H1       HT       0.417000       1.00800           0
     32046 W2       10682    TIP3     H2       HT       0.417000       1.00800           0
     32047 W2       10683    TIP3     OH2      OT      -0.834000       15.9994           0
     32048 W2       10683    TIP3     H1       HT       0.417000       1.00800           0
     32049 W2       10683    TIP3     H2       HT       0.417000       1.00800           0
     32050 W2       10684    TIP3     OH2      OT      -0.834000       15.9994           0
     32051 W2       10684    TIP3     H1       HT       0.417000       1.00800           0
     32052 W2       10684    TIP3     H2       HT       0.417000       1.00800           0
     32053 W2       10685    TIP3     OH2      OT      -0.834000       15.9994           0
     32054 W2       10685    TIP3     H1       HT       0.417000       1.00800           0
     32055 W2       10685    TIP3     H2       HT       0.417000       1.00800           0
     32056 W2       10686    TIP3     OH2      OT      -0.834000       15.9994           0
     32057 W2       10686    TIP3     H1       HT       0.417000       1.00800           0
     32058 W2       10686    TIP3     H2       HT       0.417000       1.00800           0
     32059 W2       10687    TIP3     OH2      OT      -0.834000       15.9994           0
     32060 W2       10687    TIP3     H1       HT       0.417000       1.00800           0
     32061 W2       10687    TIP3     H2       HT       0.417000       1.00800           0
     32062 W2       10688    TIP3     OH2      OT      -0.834000       15.9994           0
     32063 W2       10688    TIP3     H1       HT       0.417000       1.00800           0
     32064 W2       10688    TIP3     H2       HT       0.417000       1.00800           0
     32065 W2       10689    TIP3     OH2      OT      -0.834000       15.9994           0
     32066 W2       10689    TIP3     H1       HT       0.417000       1.00800           0
     32067 W2       10689    TIP3     H2       HT       0.417000       1.00800           0
     32068 W2       10690    TIP3     OH2      OT      -0.834000       15.9994           0
     32069 W2       10690    TIP3     H1       HT       0.417000       1.00800           0
     32070 W2       10690    TIP3     H2       HT       0.417000       1.00800           0
     32071 W2       10691    TIP3     OH2      OT      -0.834000       15.9994           0
     32072 W2       10691    TIP3     H1       HT       0.417000       1.00800           0
     32073 W2       10691    TIP3     H2       HT       0.417000       1.00800           0
     32074 W2       10692    TIP3     OH2      OT      -0.834000       15.9994           0
     32075 W2       10692    TIP3     H1       HT       0.417000       1.00800           0
     32076 W2       10692    TIP3     H2       HT       0.417000       1.00800           0
     32077 W2       10693    TIP3     OH2      OT      -0.834000       15.9994           0
     32078 W2       10693    TIP3     H1       HT       0.417000       1.00800           0
     32079 W2       10693    TIP3     H2       HT       0.417000       1.00800           0
     32080 W2       10694    TIP3     OH2      OT      -0.834000       15.9994           0
     32081 W2       10694    TIP3     H1       HT       0.417000       1.00800           0
     32082 W2       10694    TIP3     H2       HT       0.417000       1.00800           0
     32083 W2       10695    TIP3     OH2      OT      -0.834000       15.9994           0
     32084 W2       10695    TIP3     H1       HT       0.417000       1.00800           0
     32085 W2       10695    TIP3     H2       HT       0.417000       1.00800           0
     32086 W2       10696    TIP3     OH2      OT      -0.834000       15.9994           0
     32087 W2       10696    TIP3     H1       HT       0.417000       1.00800           0
     32088 W2       10696    TIP3     H2       HT       0.417000       1.00800           0
     32089 W2       10697    TIP3     OH2      OT      -0.834000       15.9994           0
     32090 W2       10697    TIP3     H1       HT       0.417000       1.00800           0
     32091 W2       10697    TIP3     H2       HT       0.417000       1.00800           0
     32092 W2       10698    TIP3     OH2      OT      -0.834000       15.9994           0
     32093 W2       10698    TIP3     H1       HT       0.417000       1.00800           0
     32094 W2       10698    TIP3     H2       HT       0.417000       1.00800           0
     32095 W2       10699    TIP3     OH2      OT      -0.834000       15.9994           0
     32096 W2       10699    TIP3     H1       HT       0.417000       1.00800           0
     32097 W2       10699    TIP3     H2       HT       0.417000       1.00800           0
     32098 W2       10700    TIP3     OH2      OT      -0.834000       15.9994           0
     32099 W2       10700    TIP3     H1       HT       0.417000       1.00800           0
     32100 W2       10700    TIP3     H2       HT       0.417000       1.00800           0
     32101 W2       10701    TIP3     OH2      OT      -0.834000       15.9994           0
     32102 W2       10701    TIP3     H1       HT       0.417000       1.00800           0
     32103 W2       10701    TIP3     H2       HT       0.417000       1.00800           0
     32104 W2       10702    TIP3     OH2      OT      -0.834000       15.9994           0
     32105 W2       10702    TIP3     H1       HT       0.417000       1.00800           0
     32106 W2       10702    TIP3     H2       HT       0.417000       1.00800           0
     32107 W2       10703    TIP3     OH2      OT      -0.834000       15.9994           0
     32108 W2       10703    TIP3     H1       HT       0.417000       1.00800           0
     32109 W2       10703    TIP3     H2       HT       0.417000       1.00800           0
     32110 W2       10704    TIP3     OH2      OT      -0.834000       15.9994           0
     32111 W2       10704    TIP3     H1       HT       0.417000       1.00800           0
     32112 W2       10704    TIP3     H2       HT       0.417000       1.00800           0
     32113 W2       10705    TIP3     OH2      OT      -0.834000       15.9994           0
     32114 W2       10705    TIP3     H1       HT       0.417000       1.00800           0
     32115 W2       10705    TIP3     H2       HT       0.417000       1.00800           0
     32116 W2       10706    TIP3     OH2      OT      -0.834000       15.9994           0
     32117 W2       10706    TIP3     H1       HT       0.417000       1.00800           0
     32118 W2       10706    TIP3     H2       HT       0.417000       1.00800           0
     32119 W2       10707    TIP3     OH2      OT      -0.834000       15.9994           0
     32120 W2       10707    TIP3     H1       HT       0.417000       1.00800           0
     32121 W2       10707    TIP3     H2       HT       0.417000       1.00800           0
     32122 W2       10708    TIP3     OH2      OT      -0.834000       15.9994           0
     32123 W2       10708    TIP3     H1       HT       0.417000       1.00800           0
     32124 W2       10708    TIP3     H2       HT       0.417000       1.00800           0
     32125 W2       10709    TIP3     OH2      OT      -0.834000       15.9994           0
     32126 W2       10709    TIP3     H1       HT       0.417000       1.00800           0
     32127 W2       10709    TIP3     H2       HT       0.417000       1.00800           0
     32128 W2       10710    TIP3     OH2      OT      -0.834000       15.9994           0
     32129 W2       10710    TIP3     H1       HT       0.417000       1.00800           0
     32130 W2       10710    TIP3     H2       HT       0.417000       1.00800           0
     32131 W2       10711    TIP3     OH2      OT      -0.834000       15.9994           0
     32132 W2       10711    TIP3     H1       HT       0.417000       1.00800           0
     32133 W2       10711    TIP3     H2       HT       0.417000       1.00800           0
     32134 W2       10712    TIP3     OH2      OT      -0.834000       15.9994           0
     32135 W2       10712    TIP3     H1       HT       0.417000       1.00800           0
     32136 W2       10712    TIP3     H2       HT       0.417000       1.00800           0
     32137 W2       10713    TIP3     OH2      OT      -0.834000       15.9994           0
     32138 W2       10713    TIP3     H1       HT       0.417000       1.00800           0
     32139 W2       10713    TIP3     H2       HT       0.417000       1.00800           0
     32140 W2       10714    TIP3     OH2      OT      -0.834000       15.9994           0
     32141 W2       10714    TIP3     H1       HT       0.417000       1.00800           0
     32142 W2       10714    TIP3     H2       HT       0.417000       1.00800           0
     32143 W2       10715    TIP3     OH2      OT      -0.834000       15.9994           0
     32144 W2       10715    TIP3     H1       HT       0.417000       1.00800           0
     32145 W2       10715    TIP3     H2       HT       0.417000       1.00800           0
     32146 W2       10716    TIP3     OH2      OT      -0.834000       15.9994           0
     32147 W2       10716    TIP3     H1       HT       0.417000       1.00800           0
     32148 W2       10716    TIP3     H2       HT       0.417000       1.00800           0
     32149 W2       10717    TIP3     OH2      OT      -0.834000       15.9994           0
     32150 W2       10717    TIP3     H1       HT       0.417000       1.00800           0
     32151 W2       10717    TIP3     H2       HT       0.417000       1.00800           0
     32152 W2       10718    TIP3     OH2      OT      -0.834000       15.9994           0
     32153 W2       10718    TIP3     H1       HT       0.417000       1.00800           0
     32154 W2       10718    TIP3     H2       HT       0.417000       1.00800           0
     32155 W2       10719    TIP3     OH2      OT      -0.834000       15.9994           0
     32156 W2       10719    TIP3     H1       HT       0.417000       1.00800           0
     32157 W2       10719    TIP3     H2       HT       0.417000       1.00800           0
     32158 W2       10720    TIP3     OH2      OT      -0.834000       15.9994           0
     32159 W2       10720    TIP3     H1       HT       0.417000       1.00800           0
     32160 W2       10720    TIP3     H2       HT       0.417000       1.00800           0
     32161 W2       10721    TIP3     OH2      OT      -0.834000       15.9994           0
     32162 W2       10721    TIP3     H1       HT       0.417000       1.00800           0
     32163 W2       10721    TIP3     H2       HT       0.417000       1.00800           0
     32164 W2       10722    TIP3     OH2      OT      -0.834000       15.9994           0
     32165 W2       10722    TIP3     H1       HT       0.417000       1.00800           0
     32166 W2       10722    TIP3     H2       HT       0.417000       1.00800           0
     32167 W2       10723    TIP3     OH2      OT      -0.834000       15.9994           0
     32168 W2       10723    TIP3     H1       HT       0.417000       1.00800           0
     32169 W2       10723    TIP3     H2       HT       0.417000       1.00800           0
     32170 W2       10724    TIP3     OH2      OT      -0.834000       15.9994           0
     32171 W2       10724    TIP3     H1       HT       0.417000       1.00800           0
     32172 W2       10724    TIP3     H2       HT       0.417000       1.00800           0
     32173 W2       10725    TIP3     OH2      OT      -0.834000       15.9994           0
     32174 W2       10725    TIP3     H1       HT       0.417000       1.00800           0
     32175 W2       10725    TIP3     H2       HT       0.417000       1.00800           0
     32176 W2       10726    TIP3     OH2      OT      -0.834000       15.9994           0
     32177 W2       10726    TIP3     H1       HT       0.417000       1.00800           0
     32178 W2       10726    TIP3     H2       HT       0.417000       1.00800           0
     32179 W2       10727    TIP3     OH2      OT      -0.834000       15.9994           0
     32180 W2       10727    TIP3     H1       HT       0.417000       1.00800           0
     32181 W2       10727    TIP3     H2       HT       0.417000       1.00800           0
     32182 W2       10728    TIP3     OH2      OT      -0.834000       15.9994           0
     32183 W2       10728    TIP3     H1       HT       0.417000       1.00800           0
     32184 W2       10728    TIP3     H2       HT       0.417000       1.00800           0
     32185 W2       10729    TIP3     OH2      OT      -0.834000       15.9994           0
     32186 W2       10729    TIP3     H1       HT       0.417000       1.00800           0
     32187 W2       10729    TIP3     H2       HT       0.417000       1.00800           0
     32188 W2       10730    TIP3     OH2      OT      -0.834000       15.9994           0
     32189 W2       10730    TIP3     H1       HT       0.417000       1.00800           0
     32190 W2       10730    TIP3     H2       HT       0.417000       1.00800           0
     32191 W2       10731    TIP3     OH2      OT      -0.834000       15.9994           0
     32192 W2       10731    TIP3     H1       HT       0.417000       1.00800           0
     32193 W2       10731    TIP3     H2       HT       0.417000       1.00800           0
     32194 W2       10732    TIP3     OH2      OT      -0.834000       15.9994           0
     32195 W2       10732    TIP3     H1       HT       0.417000       1.00800           0
     32196 W2       10732    TIP3     H2       HT       0.417000       1.00800           0
     32197 W2       10733    TIP3     OH2      OT      -0.834000       15.9994           0
     32198 W2       10733    TIP3     H1       HT       0.417000       1.00800           0
     32199 W2       10733    TIP3     H2       HT       0.417000       1.00800           0
     32200 W2       10734    TIP3     OH2      OT      -0.834000       15.9994           0
     32201 W2       10734    TIP3     H1       HT       0.417000       1.00800           0
     32202 W2       10734    TIP3     H2       HT       0.417000       1.00800           0
     32203 W2       10735    TIP3     OH2      OT      -0.834000       15.9994           0
     32204 W2       10735    TIP3     H1       HT       0.417000       1.00800           0
     32205 W2       10735    TIP3     H2       HT       0.417000       1.00800           0
     32206 W2       10736    TIP3     OH2      OT      -0.834000       15.9994           0
     32207 W2       10736    TIP3     H1       HT       0.417000       1.00800           0
     32208 W2       10736    TIP3     H2       HT       0.417000       1.00800           0
     32209 W2       10737    TIP3     OH2      OT      -0.834000       15.9994           0
     32210 W2       10737    TIP3     H1       HT       0.417000       1.00800           0
     32211 W2       10737    TIP3     H2       HT       0.417000       1.00800           0
     32212 W2       10738    TIP3     OH2      OT      -0.834000       15.9994           0
     32213 W2       10738    TIP3     H1       HT       0.417000       1.00800           0
     32214 W2       10738    TIP3     H2       HT       0.417000       1.00800           0
     32215 W2       10739    TIP3     OH2      OT      -0.834000       15.9994           0
     32216 W2       10739    TIP3     H1       HT       0.417000       1.00800           0
     32217 W2       10739    TIP3     H2       HT       0.417000       1.00800           0
     32218 W2       10740    TIP3     OH2      OT      -0.834000       15.9994           0
     32219 W2       10740    TIP3     H1       HT       0.417000       1.00800           0
     32220 W2       10740    TIP3     H2       HT       0.417000       1.00800           0
     32221 W2       10741    TIP3     OH2      OT      -0.834000       15.9994           0
     32222 W2       10741    TIP3     H1       HT       0.417000       1.00800           0
     32223 W2       10741    TIP3     H2       HT       0.417000       1.00800           0
     32224 W2       10742    TIP3     OH2      OT      -0.834000       15.9994           0
     32225 W2       10742    TIP3     H1       HT       0.417000       1.00800           0
     32226 W2       10742    TIP3     H2       HT       0.417000       1.00800           0
     32227 W2       10743    TIP3     OH2      OT      -0.834000       15.9994           0
     32228 W2       10743    TIP3     H1       HT       0.417000       1.00800           0
     32229 W2       10743    TIP3     H2       HT       0.417000       1.00800           0
     32230 W2       10744    TIP3     OH2      OT      -0.834000       15.9994           0
     32231 W2       10744    TIP3     H1       HT       0.417000       1.00800           0
     32232 W2       10744    TIP3     H2       HT       0.417000       1.00800           0
     32233 W2       10745    TIP3     OH2      OT      -0.834000       15.9994           0
     32234 W2       10745    TIP3     H1       HT       0.417000       1.00800           0
     32235 W2       10745    TIP3     H2       HT       0.417000       1.00800           0
     32236 W2       10746    TIP3     OH2      OT      -0.834000       15.9994           0
     32237 W2       10746    TIP3     H1       HT       0.417000       1.00800           0
     32238 W2       10746    TIP3     H2       HT       0.417000       1.00800           0
     32239 W2       10747    TIP3     OH2      OT      -0.834000       15.9994           0
     32240 W2       10747    TIP3     H1       HT       0.417000       1.00800           0
     32241 W2       10747    TIP3     H2       HT       0.417000       1.00800           0
     32242 W2       10748    TIP3     OH2      OT      -0.834000       15.9994           0
     32243 W2       10748    TIP3     H1       HT       0.417000       1.00800           0
     32244 W2       10748    TIP3     H2       HT       0.417000       1.00800           0
     32245 W2       10749    TIP3     OH2      OT      -0.834000       15.9994           0
     32246 W2       10749    TIP3     H1       HT       0.417000       1.00800           0
     32247 W2       10749    TIP3     H2       HT       0.417000       1.00800           0
     32248 W2       10750    TIP3     OH2      OT      -0.834000       15.9994           0
     32249 W2       10750    TIP3     H1       HT       0.417000       1.00800           0
     32250 W2       10750    TIP3     H2       HT       0.417000       1.00800           0
     32251 W2       10751    TIP3     OH2      OT      -0.834000       15.9994           0
     32252 W2       10751    TIP3     H1       HT       0.417000       1.00800           0
     32253 W2       10751    TIP3     H2       HT       0.417000       1.00800           0
     32254 W2       10752    TIP3     OH2      OT      -0.834000       15.9994           0
     32255 W2       10752    TIP3     H1       HT       0.417000       1.00800           0
     32256 W2       10752    TIP3     H2       HT       0.417000       1.00800           0
     32257 W2       10753    TIP3     OH2      OT      -0.834000       15.9994           0
     32258 W2       10753    TIP3     H1       HT       0.417000       1.00800           0
     32259 W2       10753    TIP3     H2       HT       0.417000       1.00800           0
     32260 W2       10754    TIP3     OH2      OT      -0.834000       15.9994           0
     32261 W2       10754    TIP3     H1       HT       0.417000       1.00800           0
     32262 W2       10754    TIP3     H2       HT       0.417000       1.00800           0
     32263 W2       10755    TIP3     OH2      OT      -0.834000       15.9994           0
     32264 W2       10755    TIP3     H1       HT       0.417000       1.00800           0
     32265 W2       10755    TIP3     H2       HT       0.417000       1.00800           0
     32266 W2       10756    TIP3     OH2      OT      -0.834000       15.9994           0
     32267 W2       10756    TIP3     H1       HT       0.417000       1.00800           0
     32268 W2       10756    TIP3     H2       HT       0.417000       1.00800           0
     32269 W2       10757    TIP3     OH2      OT      -0.834000       15.9994           0
     32270 W2       10757    TIP3     H1       HT       0.417000       1.00800           0
     32271 W2       10757    TIP3     H2       HT       0.417000       1.00800           0
     32272 W2       10758    TIP3     OH2      OT      -0.834000       15.9994           0
     32273 W2       10758    TIP3     H1       HT       0.417000       1.00800           0
     32274 W2       10758    TIP3     H2       HT       0.417000       1.00800           0
     32275 W2       10759    TIP3     OH2      OT      -0.834000       15.9994           0
     32276 W2       10759    TIP3     H1       HT       0.417000       1.00800           0
     32277 W2       10759    TIP3     H2       HT       0.417000       1.00800           0
     32278 W2       10760    TIP3     OH2      OT      -0.834000       15.9994           0
     32279 W2       10760    TIP3     H1       HT       0.417000       1.00800           0
     32280 W2       10760    TIP3     H2       HT       0.417000       1.00800           0
     32281 W2       10761    TIP3     OH2      OT      -0.834000       15.9994           0
     32282 W2       10761    TIP3     H1       HT       0.417000       1.00800           0
     32283 W2       10761    TIP3     H2       HT       0.417000       1.00800           0
     32284 W2       10762    TIP3     OH2      OT      -0.834000       15.9994           0
     32285 W2       10762    TIP3     H1       HT       0.417000       1.00800           0
     32286 W2       10762    TIP3     H2       HT       0.417000       1.00800           0
     32287 W2       10763    TIP3     OH2      OT      -0.834000       15.9994           0
     32288 W2       10763    TIP3     H1       HT       0.417000       1.00800           0
     32289 W2       10763    TIP3     H2       HT       0.417000       1.00800           0
     32290 W2       10764    TIP3     OH2      OT      -0.834000       15.9994           0
     32291 W2       10764    TIP3     H1       HT       0.417000       1.00800           0
     32292 W2       10764    TIP3     H2       HT       0.417000       1.00800           0
     32293 W2       10765    TIP3     OH2      OT      -0.834000       15.9994           0
     32294 W2       10765    TIP3     H1       HT       0.417000       1.00800           0
     32295 W2       10765    TIP3     H2       HT       0.417000       1.00800           0
     32296 W2       10766    TIP3     OH2      OT      -0.834000       15.9994           0
     32297 W2       10766    TIP3     H1       HT       0.417000       1.00800           0
     32298 W2       10766    TIP3     H2       HT       0.417000       1.00800           0
     32299 W2       10767    TIP3     OH2      OT      -0.834000       15.9994           0
     32300 W2       10767    TIP3     H1       HT       0.417000       1.00800           0
     32301 W2       10767    TIP3     H2       HT       0.417000       1.00800           0
     32302 W2       10768    TIP3     OH2      OT      -0.834000       15.9994           0
     32303 W2       10768    TIP3     H1       HT       0.417000       1.00800           0
     32304 W2       10768    TIP3     H2       HT       0.417000       1.00800           0
     32305 W2       10769    TIP3     OH2      OT      -0.834000       15.9994           0
     32306 W2       10769    TIP3     H1       HT       0.417000       1.00800           0
     32307 W2       10769    TIP3     H2       HT       0.417000       1.00800           0
     32308 W2       10770    TIP3     OH2      OT      -0.834000       15.9994           0
     32309 W2       10770    TIP3     H1       HT       0.417000       1.00800           0
     32310 W2       10770    TIP3     H2       HT       0.417000       1.00800           0
     32311 W2       10771    TIP3     OH2      OT      -0.834000       15.9994           0
     32312 W2       10771    TIP3     H1       HT       0.417000       1.00800           0
     32313 W2       10771    TIP3     H2       HT       0.417000       1.00800           0
     32314 W2       10772    TIP3     OH2      OT      -0.834000       15.9994           0
     32315 W2       10772    TIP3     H1       HT       0.417000       1.00800           0
     32316 W2       10772    TIP3     H2       HT       0.417000       1.00800           0
     32317 W2       10773    TIP3     OH2      OT      -0.834000       15.9994           0
     32318 W2       10773    TIP3     H1       HT       0.417000       1.00800           0
     32319 W2       10773    TIP3     H2       HT       0.417000       1.00800           0
     32320 W2       10774    TIP3     OH2      OT      -0.834000       15.9994           0
     32321 W2       10774    TIP3     H1       HT       0.417000       1.00800           0
     32322 W2       10774    TIP3     H2       HT       0.417000       1.00800           0
     32323 W2       10775    TIP3     OH2      OT      -0.834000       15.9994           0
     32324 W2       10775    TIP3     H1       HT       0.417000       1.00800           0
     32325 W2       10775    TIP3     H2       HT       0.417000       1.00800           0
     32326 W2       10776    TIP3     OH2      OT      -0.834000       15.9994           0
     32327 W2       10776    TIP3     H1       HT       0.417000       1.00800           0
     32328 W2       10776    TIP3     H2       HT       0.417000       1.00800           0
     32329 W2       10777    TIP3     OH2      OT      -0.834000       15.9994           0
     32330 W2       10777    TIP3     H1       HT       0.417000       1.00800           0
     32331 W2       10777    TIP3     H2       HT       0.417000       1.00800           0
     32332 W2       10778    TIP3     OH2      OT      -0.834000       15.9994           0
     32333 W2       10778    TIP3     H1       HT       0.417000       1.00800           0
     32334 W2       10778    TIP3     H2       HT       0.417000       1.00800           0
     32335 W2       10779    TIP3     OH2      OT      -0.834000       15.9994           0
     32336 W2       10779    TIP3     H1       HT       0.417000       1.00800           0
     32337 W2       10779    TIP3     H2       HT       0.417000       1.00800           0
     32338 W2       10780    TIP3     OH2      OT      -0.834000       15.9994           0
     32339 W2       10780    TIP3     H1       HT       0.417000       1.00800           0
     32340 W2       10780    TIP3     H2       HT       0.417000       1.00800           0
     32341 W2       10781    TIP3     OH2      OT      -0.834000       15.9994           0
     32342 W2       10781    TIP3     H1       HT       0.417000       1.00800           0
     32343 W2       10781    TIP3     H2       HT       0.417000       1.00800           0
     32344 W2       10782    TIP3     OH2      OT      -0.834000       15.9994           0
     32345 W2       10782    TIP3     H1       HT       0.417000       1.00800           0
     32346 W2       10782    TIP3     H2       HT       0.417000       1.00800           0
     32347 W2       10783    TIP3     OH2      OT      -0.834000       15.9994           0
     32348 W2       10783    TIP3     H1       HT       0.417000       1.00800           0
     32349 W2       10783    TIP3     H2       HT       0.417000       1.00800           0
     32350 W2       10784    TIP3     OH2      OT      -0.834000       15.9994           0
     32351 W2       10784    TIP3     H1       HT       0.417000       1.00800           0
     32352 W2       10784    TIP3     H2       HT       0.417000       1.00800           0
     32353 W2       10785    TIP3     OH2      OT      -0.834000       15.9994           0
     32354 W2       10785    TIP3     H1       HT       0.417000       1.00800           0
     32355 W2       10785    TIP3     H2       HT       0.417000       1.00800           0
     32356 W2       10786    TIP3     OH2      OT      -0.834000       15.9994           0
     32357 W2       10786    TIP3     H1       HT       0.417000       1.00800           0
     32358 W2       10786    TIP3     H2       HT       0.417000       1.00800           0
     32359 W2       10787    TIP3     OH2      OT      -0.834000       15.9994           0
     32360 W2       10787    TIP3     H1       HT       0.417000       1.00800           0
     32361 W2       10787    TIP3     H2       HT       0.417000       1.00800           0
     32362 W2       10788    TIP3     OH2      OT      -0.834000       15.9994           0
     32363 W2       10788    TIP3     H1       HT       0.417000       1.00800           0
     32364 W2       10788    TIP3     H2       HT       0.417000       1.00800           0
     32365 W2       10789    TIP3     OH2      OT      -0.834000       15.9994           0
     32366 W2       10789    TIP3     H1       HT       0.417000       1.00800           0
     32367 W2       10789    TIP3     H2       HT       0.417000       1.00800           0
     32368 W2       10790    TIP3     OH2      OT      -0.834000       15.9994           0
     32369 W2       10790    TIP3     H1       HT       0.417000       1.00800           0
     32370 W2       10790    TIP3     H2       HT       0.417000       1.00800           0
     32371 W2       10791    TIP3     OH2      OT      -0.834000       15.9994           0
     32372 W2       10791    TIP3     H1       HT       0.417000       1.00800           0
     32373 W2       10791    TIP3     H2       HT       0.417000       1.00800           0
     32374 W2       10792    TIP3     OH2      OT      -0.834000       15.9994           0
     32375 W2       10792    TIP3     H1       HT       0.417000       1.00800           0
     32376 W2       10792    TIP3     H2       HT       0.417000       1.00800           0
     32377 W2       10793    TIP3     OH2      OT      -0.834000       15.9994           0
     32378 W2       10793    TIP3     H1       HT       0.417000       1.00800           0
     32379 W2       10793    TIP3     H2       HT       0.417000       1.00800           0
     32380 W2       10794    TIP3     OH2      OT      -0.834000       15.9994           0
     32381 W2       10794    TIP3     H1       HT       0.417000       1.00800           0
     32382 W2       10794    TIP3     H2       HT       0.417000       1.00800           0
     32383 W2       10795    TIP3     OH2      OT      -0.834000       15.9994           0
     32384 W2       10795    TIP3     H1       HT       0.417000       1.00800           0
     32385 W2       10795    TIP3     H2       HT       0.417000       1.00800           0
     32386 W2       10796    TIP3     OH2      OT      -0.834000       15.9994           0
     32387 W2       10796    TIP3     H1       HT       0.417000       1.00800           0
     32388 W2       10796    TIP3     H2       HT       0.417000       1.00800           0
     32389 W2       10797    TIP3     OH2      OT      -0.834000       15.9994           0
     32390 W2       10797    TIP3     H1       HT       0.417000       1.00800           0
     32391 W2       10797    TIP3     H2       HT       0.417000       1.00800           0
     32392 W2       10798    TIP3     OH2      OT      -0.834000       15.9994           0
     32393 W2       10798    TIP3     H1       HT       0.417000       1.00800           0
     32394 W2       10798    TIP3     H2       HT       0.417000       1.00800           0
     32395 W2       10799    TIP3     OH2      OT      -0.834000       15.9994           0
     32396 W2       10799    TIP3     H1       HT       0.417000       1.00800           0
     32397 W2       10799    TIP3     H2       HT       0.417000       1.00800           0
     32398 W2       10800    TIP3     OH2      OT      -0.834000       15.9994           0
     32399 W2       10800    TIP3     H1       HT       0.417000       1.00800           0
     32400 W2       10800    TIP3     H2       HT       0.417000       1.00800           0
     32401 W2       10801    TIP3     OH2      OT      -0.834000       15.9994           0
     32402 W2       10801    TIP3     H1       HT       0.417000       1.00800           0
     32403 W2       10801    TIP3     H2       HT       0.417000       1.00800           0
     32404 W2       10802    TIP3     OH2      OT      -0.834000       15.9994           0
     32405 W2       10802    TIP3     H1       HT       0.417000       1.00800           0
     32406 W2       10802    TIP3     H2       HT       0.417000       1.00800           0
     32407 W2       10803    TIP3     OH2      OT      -0.834000       15.9994           0
     32408 W2       10803    TIP3     H1       HT       0.417000       1.00800           0
     32409 W2       10803    TIP3     H2       HT       0.417000       1.00800           0
     32410 W2       10804    TIP3     OH2      OT      -0.834000       15.9994           0
     32411 W2       10804    TIP3     H1       HT       0.417000       1.00800           0
     32412 W2       10804    TIP3     H2       HT       0.417000       1.00800           0
     32413 W2       10805    TIP3     OH2      OT      -0.834000       15.9994           0
     32414 W2       10805    TIP3     H1       HT       0.417000       1.00800           0
     32415 W2       10805    TIP3     H2       HT       0.417000       1.00800           0
     32416 W2       10806    TIP3     OH2      OT      -0.834000       15.9994           0
     32417 W2       10806    TIP3     H1       HT       0.417000       1.00800           0
     32418 W2       10806    TIP3     H2       HT       0.417000       1.00800           0
     32419 W2       10807    TIP3     OH2      OT      -0.834000       15.9994           0
     32420 W2       10807    TIP3     H1       HT       0.417000       1.00800           0
     32421 W2       10807    TIP3     H2       HT       0.417000       1.00800           0
     32422 W2       10808    TIP3     OH2      OT      -0.834000       15.9994           0
     32423 W2       10808    TIP3     H1       HT       0.417000       1.00800           0
     32424 W2       10808    TIP3     H2       HT       0.417000       1.00800           0
     32425 W2       10809    TIP3     OH2      OT      -0.834000       15.9994           0
     32426 W2       10809    TIP3     H1       HT       0.417000       1.00800           0
     32427 W2       10809    TIP3     H2       HT       0.417000       1.00800           0
     32428 W2       10810    TIP3     OH2      OT      -0.834000       15.9994           0
     32429 W2       10810    TIP3     H1       HT       0.417000       1.00800           0
     32430 W2       10810    TIP3     H2       HT       0.417000       1.00800           0
     32431 W2       10811    TIP3     OH2      OT      -0.834000       15.9994           0
     32432 W2       10811    TIP3     H1       HT       0.417000       1.00800           0
     32433 W2       10811    TIP3     H2       HT       0.417000       1.00800           0
     32434 W2       10812    TIP3     OH2      OT      -0.834000       15.9994           0
     32435 W2       10812    TIP3     H1       HT       0.417000       1.00800           0
     32436 W2       10812    TIP3     H2       HT       0.417000       1.00800           0
     32437 W2       10813    TIP3     OH2      OT      -0.834000       15.9994           0
     32438 W2       10813    TIP3     H1       HT       0.417000       1.00800           0
     32439 W2       10813    TIP3     H2       HT       0.417000       1.00800           0
     32440 W2       10814    TIP3     OH2      OT      -0.834000       15.9994           0
     32441 W2       10814    TIP3     H1       HT       0.417000       1.00800           0
     32442 W2       10814    TIP3     H2       HT       0.417000       1.00800           0
     32443 W2       10815    TIP3     OH2      OT      -0.834000       15.9994           0
     32444 W2       10815    TIP3     H1       HT       0.417000       1.00800           0
     32445 W2       10815    TIP3     H2       HT       0.417000       1.00800           0
     32446 W2       10816    TIP3     OH2      OT      -0.834000       15.9994           0
     32447 W2       10816    TIP3     H1       HT       0.417000       1.00800           0
     32448 W2       10816    TIP3     H2       HT       0.417000       1.00800           0
     32449 W2       10817    TIP3     OH2      OT      -0.834000       15.9994           0
     32450 W2       10817    TIP3     H1       HT       0.417000       1.00800           0
     32451 W2       10817    TIP3     H2       HT       0.417000       1.00800           0
     32452 W2       10818    TIP3     OH2      OT      -0.834000       15.9994           0
     32453 W2       10818    TIP3     H1       HT       0.417000       1.00800           0
     32454 W2       10818    TIP3     H2       HT       0.417000       1.00800           0
     32455 W2       10819    TIP3     OH2      OT      -0.834000       15.9994           0
     32456 W2       10819    TIP3     H1       HT       0.417000       1.00800           0
     32457 W2       10819    TIP3     H2       HT       0.417000       1.00800           0
     32458 W2       10820    TIP3     OH2      OT      -0.834000       15.9994           0
     32459 W2       10820    TIP3     H1       HT       0.417000       1.00800           0
     32460 W2       10820    TIP3     H2       HT       0.417000       1.00800           0
     32461 W2       10821    TIP3     OH2      OT      -0.834000       15.9994           0
     32462 W2       10821    TIP3     H1       HT       0.417000       1.00800           0
     32463 W2       10821    TIP3     H2       HT       0.417000       1.00800           0
     32464 W2       10822    TIP3     OH2      OT      -0.834000       15.9994           0
     32465 W2       10822    TIP3     H1       HT       0.417000       1.00800           0
     32466 W2       10822    TIP3     H2       HT       0.417000       1.00800           0
     32467 W2       10823    TIP3     OH2      OT      -0.834000       15.9994           0
     32468 W2       10823    TIP3     H1       HT       0.417000       1.00800           0
     32469 W2       10823    TIP3     H2       HT       0.417000       1.00800           0
     32470 W2       10824    TIP3     OH2      OT      -0.834000       15.9994           0
     32471 W2       10824    TIP3     H1       HT       0.417000       1.00800           0
     32472 W2       10824    TIP3     H2       HT       0.417000       1.00800           0
     32473 W2       10825    TIP3     OH2      OT      -0.834000       15.9994           0
     32474 W2       10825    TIP3     H1       HT       0.417000       1.00800           0
     32475 W2       10825    TIP3     H2       HT       0.417000       1.00800           0
     32476 W2       10826    TIP3     OH2      OT      -0.834000       15.9994           0
     32477 W2       10826    TIP3     H1       HT       0.417000       1.00800           0
     32478 W2       10826    TIP3     H2       HT       0.417000       1.00800           0
     32479 W2       10827    TIP3     OH2      OT      -0.834000       15.9994           0
     32480 W2       10827    TIP3     H1       HT       0.417000       1.00800           0
     32481 W2       10827    TIP3     H2       HT       0.417000       1.00800           0
     32482 W2       10828    TIP3     OH2      OT      -0.834000       15.9994           0
     32483 W2       10828    TIP3     H1       HT       0.417000       1.00800           0
     32484 W2       10828    TIP3     H2       HT       0.417000       1.00800           0
     32485 W2       10829    TIP3     OH2      OT      -0.834000       15.9994           0
     32486 W2       10829    TIP3     H1       HT       0.417000       1.00800           0
     32487 W2       10829    TIP3     H2       HT       0.417000       1.00800           0
     32488 W2       10830    TIP3     OH2      OT      -0.834000       15.9994           0
     32489 W2       10830    TIP3     H1       HT       0.417000       1.00800           0
     32490 W2       10830    TIP3     H2       HT       0.417000       1.00800           0
     32491 W2       10831    TIP3     OH2      OT      -0.834000       15.9994           0
     32492 W2       10831    TIP3     H1       HT       0.417000       1.00800           0
     32493 W2       10831    TIP3     H2       HT       0.417000       1.00800           0
     32494 W2       10832    TIP3     OH2      OT      -0.834000       15.9994           0
     32495 W2       10832    TIP3     H1       HT       0.417000       1.00800           0
     32496 W2       10832    TIP3     H2       HT       0.417000       1.00800           0
     32497 W2       10833    TIP3     OH2      OT      -0.834000       15.9994           0
     32498 W2       10833    TIP3     H1       HT       0.417000       1.00800           0
     32499 W2       10833    TIP3     H2       HT       0.417000       1.00800           0
     32500 W2       10834    TIP3     OH2      OT      -0.834000       15.9994           0
     32501 W2       10834    TIP3     H1       HT       0.417000       1.00800           0
     32502 W2       10834    TIP3     H2       HT       0.417000       1.00800           0
     32503 W2       10835    TIP3     OH2      OT      -0.834000       15.9994           0
     32504 W2       10835    TIP3     H1       HT       0.417000       1.00800           0
     32505 W2       10835    TIP3     H2       HT       0.417000       1.00800           0
     32506 W2       10836    TIP3     OH2      OT      -0.834000       15.9994           0
     32507 W2       10836    TIP3     H1       HT       0.417000       1.00800           0
     32508 W2       10836    TIP3     H2       HT       0.417000       1.00800           0
     32509 W2       10837    TIP3     OH2      OT      -0.834000       15.9994           0
     32510 W2       10837    TIP3     H1       HT       0.417000       1.00800           0
     32511 W2       10837    TIP3     H2       HT       0.417000       1.00800           0
     32512 W2       10838    TIP3     OH2      OT      -0.834000       15.9994           0
     32513 W2       10838    TIP3     H1       HT       0.417000       1.00800           0
     32514 W2       10838    TIP3     H2       HT       0.417000       1.00800           0
     32515 W2       10839    TIP3     OH2      OT      -0.834000       15.9994           0
     32516 W2       10839    TIP3     H1       HT       0.417000       1.00800           0
     32517 W2       10839    TIP3     H2       HT       0.417000       1.00800           0
     32518 W2       10840    TIP3     OH2      OT      -0.834000       15.9994           0
     32519 W2       10840    TIP3     H1       HT       0.417000       1.00800           0
     32520 W2       10840    TIP3     H2       HT       0.417000       1.00800           0
     32521 W2       10841    TIP3     OH2      OT      -0.834000       15.9994           0
     32522 W2       10841    TIP3     H1       HT       0.417000       1.00800           0
     32523 W2       10841    TIP3     H2       HT       0.417000       1.00800           0
     32524 W2       10842    TIP3     OH2      OT      -0.834000       15.9994           0
     32525 W2       10842    TIP3     H1       HT       0.417000       1.00800           0
     32526 W2       10842    TIP3     H2       HT       0.417000       1.00800           0
     32527 W2       10843    TIP3     OH2      OT      -0.834000       15.9994           0
     32528 W2       10843    TIP3     H1       HT       0.417000       1.00800           0
     32529 W2       10843    TIP3     H2       HT       0.417000       1.00800           0
     32530 W2       10844    TIP3     OH2      OT      -0.834000       15.9994           0
     32531 W2       10844    TIP3     H1       HT       0.417000       1.00800           0
     32532 W2       10844    TIP3     H2       HT       0.417000       1.00800           0
     32533 W2       10845    TIP3     OH2      OT      -0.834000       15.9994           0
     32534 W2       10845    TIP3     H1       HT       0.417000       1.00800           0
     32535 W2       10845    TIP3     H2       HT       0.417000       1.00800           0
     32536 W2       10846    TIP3     OH2      OT      -0.834000       15.9994           0
     32537 W2       10846    TIP3     H1       HT       0.417000       1.00800           0
     32538 W2       10846    TIP3     H2       HT       0.417000       1.00800           0
     32539 W2       10847    TIP3     OH2      OT      -0.834000       15.9994           0
     32540 W2       10847    TIP3     H1       HT       0.417000       1.00800           0
     32541 W2       10847    TIP3     H2       HT       0.417000       1.00800           0
     32542 W2       10848    TIP3     OH2      OT      -0.834000       15.9994           0
     32543 W2       10848    TIP3     H1       HT       0.417000       1.00800           0
     32544 W2       10848    TIP3     H2       HT       0.417000       1.00800           0
     32545 W2       10849    TIP3     OH2      OT      -0.834000       15.9994           0
     32546 W2       10849    TIP3     H1       HT       0.417000       1.00800           0
     32547 W2       10849    TIP3     H2       HT       0.417000       1.00800           0
     32548 W2       10850    TIP3     OH2      OT      -0.834000       15.9994           0
     32549 W2       10850    TIP3     H1       HT       0.417000       1.00800           0
     32550 W2       10850    TIP3     H2       HT       0.417000       1.00800           0
     32551 W2       10851    TIP3     OH2      OT      -0.834000       15.9994           0
     32552 W2       10851    TIP3     H1       HT       0.417000       1.00800           0
     32553 W2       10851    TIP3     H2       HT       0.417000       1.00800           0
     32554 W2       10852    TIP3     OH2      OT      -0.834000       15.9994           0
     32555 W2       10852    TIP3     H1       HT       0.417000       1.00800           0
     32556 W2       10852    TIP3     H2       HT       0.417000       1.00800           0
     32557 W2       10853    TIP3     OH2      OT      -0.834000       15.9994           0
     32558 W2       10853    TIP3     H1       HT       0.417000       1.00800           0
     32559 W2       10853    TIP3     H2       HT       0.417000       1.00800           0
     32560 W2       10854    TIP3     OH2      OT      -0.834000       15.9994           0
     32561 W2       10854    TIP3     H1       HT       0.417000       1.00800           0
     32562 W2       10854    TIP3     H2       HT       0.417000       1.00800           0
     32563 W2       10855    TIP3     OH2      OT      -0.834000       15.9994           0
     32564 W2       10855    TIP3     H1       HT       0.417000       1.00800           0
     32565 W2       10855    TIP3     H2       HT       0.417000       1.00800           0
     32566 W2       10856    TIP3     OH2      OT      -0.834000       15.9994           0
     32567 W2       10856    TIP3     H1       HT       0.417000       1.00800           0
     32568 W2       10856    TIP3     H2       HT       0.417000       1.00800           0
     32569 W2       10857    TIP3     OH2      OT      -0.834000       15.9994           0
     32570 W2       10857    TIP3     H1       HT       0.417000       1.00800           0
     32571 W2       10857    TIP3     H2       HT       0.417000       1.00800           0
     32572 W2       10858    TIP3     OH2      OT      -0.834000       15.9994           0
     32573 W2       10858    TIP3     H1       HT       0.417000       1.00800           0
     32574 W2       10858    TIP3     H2       HT       0.417000       1.00800           0
     32575 W2       10859    TIP3     OH2      OT      -0.834000       15.9994           0
     32576 W2       10859    TIP3     H1       HT       0.417000       1.00800           0
     32577 W2       10859    TIP3     H2       HT       0.417000       1.00800           0
     32578 W2       10860    TIP3     OH2      OT      -0.834000       15.9994           0
     32579 W2       10860    TIP3     H1       HT       0.417000       1.00800           0
     32580 W2       10860    TIP3     H2       HT       0.417000       1.00800           0
     32581 W2       10861    TIP3     OH2      OT      -0.834000       15.9994           0
     32582 W2       10861    TIP3     H1       HT       0.417000       1.00800           0
     32583 W2       10861    TIP3     H2       HT       0.417000       1.00800           0
     32584 W2       10862    TIP3     OH2      OT      -0.834000       15.9994           0
     32585 W2       10862    TIP3     H1       HT       0.417000       1.00800           0
     32586 W2       10862    TIP3     H2       HT       0.417000       1.00800           0
     32587 W2       10863    TIP3     OH2      OT      -0.834000       15.9994           0
     32588 W2       10863    TIP3     H1       HT       0.417000       1.00800           0
     32589 W2       10863    TIP3     H2       HT       0.417000       1.00800           0
     32590 W2       10864    TIP3     OH2      OT      -0.834000       15.9994           0
     32591 W2       10864    TIP3     H1       HT       0.417000       1.00800           0
     32592 W2       10864    TIP3     H2       HT       0.417000       1.00800           0
     32593 W2       10865    TIP3     OH2      OT      -0.834000       15.9994           0
     32594 W2       10865    TIP3     H1       HT       0.417000       1.00800           0
     32595 W2       10865    TIP3     H2       HT       0.417000       1.00800           0
     32596 W2       10866    TIP3     OH2      OT      -0.834000       15.9994           0
     32597 W2       10866    TIP3     H1       HT       0.417000       1.00800           0
     32598 W2       10866    TIP3     H2       HT       0.417000       1.00800           0
     32599 W2       10867    TIP3     OH2      OT      -0.834000       15.9994           0
     32600 W2       10867    TIP3     H1       HT       0.417000       1.00800           0
     32601 W2       10867    TIP3     H2       HT       0.417000       1.00800           0
     32602 W2       10868    TIP3     OH2      OT      -0.834000       15.9994           0
     32603 W2       10868    TIP3     H1       HT       0.417000       1.00800           0
     32604 W2       10868    TIP3     H2       HT       0.417000       1.00800           0
     32605 W2       10869    TIP3     OH2      OT      -0.834000       15.9994           0
     32606 W2       10869    TIP3     H1       HT       0.417000       1.00800           0
     32607 W2       10869    TIP3     H2       HT       0.417000       1.00800           0
     32608 W2       10870    TIP3     OH2      OT      -0.834000       15.9994           0
     32609 W2       10870    TIP3     H1       HT       0.417000       1.00800           0
     32610 W2       10870    TIP3     H2       HT       0.417000       1.00800           0
     32611 W2       10871    TIP3     OH2      OT      -0.834000       15.9994           0
     32612 W2       10871    TIP3     H1       HT       0.417000       1.00800           0
     32613 W2       10871    TIP3     H2       HT       0.417000       1.00800           0
     32614 W2       10872    TIP3     OH2      OT      -0.834000       15.9994           0
     32615 W2       10872    TIP3     H1       HT       0.417000       1.00800           0
     32616 W2       10872    TIP3     H2       HT       0.417000       1.00800           0
     32617 W2       10873    TIP3     OH2      OT      -0.834000       15.9994           0
     32618 W2       10873    TIP3     H1       HT       0.417000       1.00800           0
     32619 W2       10873    TIP3     H2       HT       0.417000       1.00800           0
     32620 W2       10874    TIP3     OH2      OT      -0.834000       15.9994           0
     32621 W2       10874    TIP3     H1       HT       0.417000       1.00800           0
     32622 W2       10874    TIP3     H2       HT       0.417000       1.00800           0
     32623 W2       10875    TIP3     OH2      OT      -0.834000       15.9994           0
     32624 W2       10875    TIP3     H1       HT       0.417000       1.00800           0
     32625 W2       10875    TIP3     H2       HT       0.417000       1.00800           0
     32626 W2       10876    TIP3     OH2      OT      -0.834000       15.9994           0
     32627 W2       10876    TIP3     H1       HT       0.417000       1.00800           0
     32628 W2       10876    TIP3     H2       HT       0.417000       1.00800           0
     32629 W2       10877    TIP3     OH2      OT      -0.834000       15.9994           0
     32630 W2       10877    TIP3     H1       HT       0.417000       1.00800           0
     32631 W2       10877    TIP3     H2       HT       0.417000       1.00800           0
     32632 W2       10878    TIP3     OH2      OT      -0.834000       15.9994           0
     32633 W2       10878    TIP3     H1       HT       0.417000       1.00800           0
     32634 W2       10878    TIP3     H2       HT       0.417000       1.00800           0
     32635 W2       10879    TIP3     OH2      OT      -0.834000       15.9994           0
     32636 W2       10879    TIP3     H1       HT       0.417000       1.00800           0
     32637 W2       10879    TIP3     H2       HT       0.417000       1.00800           0
     32638 W2       10880    TIP3     OH2      OT      -0.834000       15.9994           0
     32639 W2       10880    TIP3     H1       HT       0.417000       1.00800           0
     32640 W2       10880    TIP3     H2       HT       0.417000       1.00800           0
     32641 W2       10881    TIP3     OH2      OT      -0.834000       15.9994           0
     32642 W2       10881    TIP3     H1       HT       0.417000       1.00800           0
     32643 W2       10881    TIP3     H2       HT       0.417000       1.00800           0
     32644 W2       10882    TIP3     OH2      OT      -0.834000       15.9994           0
     32645 W2       10882    TIP3     H1       HT       0.417000       1.00800           0
     32646 W2       10882    TIP3     H2       HT       0.417000       1.00800           0
     32647 W2       10883    TIP3     OH2      OT      -0.834000       15.9994           0
     32648 W2       10883    TIP3     H1       HT       0.417000       1.00800           0
     32649 W2       10883    TIP3     H2       HT       0.417000       1.00800           0
     32650 W2       10884    TIP3     OH2      OT      -0.834000       15.9994           0
     32651 W2       10884    TIP3     H1       HT       0.417000       1.00800           0
     32652 W2       10884    TIP3     H2       HT       0.417000       1.00800           0
     32653 W2       10885    TIP3     OH2      OT      -0.834000       15.9994           0
     32654 W2       10885    TIP3     H1       HT       0.417000       1.00800           0
     32655 W2       10885    TIP3     H2       HT       0.417000       1.00800           0
     32656 W2       10886    TIP3     OH2      OT      -0.834000       15.9994           0
     32657 W2       10886    TIP3     H1       HT       0.417000       1.00800           0
     32658 W2       10886    TIP3     H2       HT       0.417000       1.00800           0
     32659 W2       10887    TIP3     OH2      OT      -0.834000       15.9994           0
     32660 W2       10887    TIP3     H1       HT       0.417000       1.00800           0
     32661 W2       10887    TIP3     H2       HT       0.417000       1.00800           0
     32662 W2       10888    TIP3     OH2      OT      -0.834000       15.9994           0
     32663 W2       10888    TIP3     H1       HT       0.417000       1.00800           0
     32664 W2       10888    TIP3     H2       HT       0.417000       1.00800           0
     32665 W2       10889    TIP3     OH2      OT      -0.834000       15.9994           0
     32666 W2       10889    TIP3     H1       HT       0.417000       1.00800           0
     32667 W2       10889    TIP3     H2       HT       0.417000       1.00800           0
     32668 W2       10890    TIP3     OH2      OT      -0.834000       15.9994           0
     32669 W2       10890    TIP3     H1       HT       0.417000       1.00800           0
     32670 W2       10890    TIP3     H2       HT       0.417000       1.00800           0
     32671 W2       10891    TIP3     OH2      OT      -0.834000       15.9994           0
     32672 W2       10891    TIP3     H1       HT       0.417000       1.00800           0
     32673 W2       10891    TIP3     H2       HT       0.417000       1.00800           0
     32674 W2       10892    TIP3     OH2      OT      -0.834000       15.9994           0
     32675 W2       10892    TIP3     H1       HT       0.417000       1.00800           0
     32676 W2       10892    TIP3     H2       HT       0.417000       1.00800           0
     32677 W2       10893    TIP3     OH2      OT      -0.834000       15.9994           0
     32678 W2       10893    TIP3     H1       HT       0.417000       1.00800           0
     32679 W2       10893    TIP3     H2       HT       0.417000       1.00800           0
     32680 W2       10894    TIP3     OH2      OT      -0.834000       15.9994           0
     32681 W2       10894    TIP3     H1       HT       0.417000       1.00800           0
     32682 W2       10894    TIP3     H2       HT       0.417000       1.00800           0
     32683 W2       10895    TIP3     OH2      OT      -0.834000       15.9994           0
     32684 W2       10895    TIP3     H1       HT       0.417000       1.00800           0
     32685 W2       10895    TIP3     H2       HT       0.417000       1.00800           0
     32686 W2       10896    TIP3     OH2      OT      -0.834000       15.9994           0
     32687 W2       10896    TIP3     H1       HT       0.417000       1.00800           0
     32688 W2       10896    TIP3     H2       HT       0.417000       1.00800           0
     32689 W2       10897    TIP3     OH2      OT      -0.834000       15.9994           0
     32690 W2       10897    TIP3     H1       HT       0.417000       1.00800           0
     32691 W2       10897    TIP3     H2       HT       0.417000       1.00800           0
     32692 W2       10898    TIP3     OH2      OT      -0.834000       15.9994           0
     32693 W2       10898    TIP3     H1       HT       0.417000       1.00800           0
     32694 W2       10898    TIP3     H2       HT       0.417000       1.00800           0
     32695 W2       10899    TIP3     OH2      OT      -0.834000       15.9994           0
     32696 W2       10899    TIP3     H1       HT       0.417000       1.00800           0
     32697 W2       10899    TIP3     H2       HT       0.417000       1.00800           0
     32698 W2       10900    TIP3     OH2      OT      -0.834000       15.9994           0
     32699 W2       10900    TIP3     H1       HT       0.417000       1.00800           0
     32700 W2       10900    TIP3     H2       HT       0.417000       1.00800           0
     32701 W2       10901    TIP3     OH2      OT      -0.834000       15.9994           0
     32702 W2       10901    TIP3     H1       HT       0.417000       1.00800           0
     32703 W2       10901    TIP3     H2       HT       0.417000       1.00800           0
     32704 W2       10902    TIP3     OH2      OT      -0.834000       15.9994           0
     32705 W2       10902    TIP3     H1       HT       0.417000       1.00800           0
     32706 W2       10902    TIP3     H2       HT       0.417000       1.00800           0
     32707 W2       10903    TIP3     OH2      OT      -0.834000       15.9994           0
     32708 W2       10903    TIP3     H1       HT       0.417000       1.00800           0
     32709 W2       10903    TIP3     H2       HT       0.417000       1.00800           0
     32710 W2       10904    TIP3     OH2      OT      -0.834000       15.9994           0
     32711 W2       10904    TIP3     H1       HT       0.417000       1.00800           0
     32712 W2       10904    TIP3     H2       HT       0.417000       1.00800           0
     32713 W2       10905    TIP3     OH2      OT      -0.834000       15.9994           0
     32714 W2       10905    TIP3     H1       HT       0.417000       1.00800           0
     32715 W2       10905    TIP3     H2       HT       0.417000       1.00800           0
     32716 W2       10906    TIP3     OH2      OT      -0.834000       15.9994           0
     32717 W2       10906    TIP3     H1       HT       0.417000       1.00800           0
     32718 W2       10906    TIP3     H2       HT       0.417000       1.00800           0
     32719 W2       10907    TIP3     OH2      OT      -0.834000       15.9994           0
     32720 W2       10907    TIP3     H1       HT       0.417000       1.00800           0
     32721 W2       10907    TIP3     H2       HT       0.417000       1.00800           0
     32722 W2       10908    TIP3     OH2      OT      -0.834000       15.9994           0
     32723 W2       10908    TIP3     H1       HT       0.417000       1.00800           0
     32724 W2       10908    TIP3     H2       HT       0.417000       1.00800           0
     32725 W2       10909    TIP3     OH2      OT      -0.834000       15.9994           0
     32726 W2       10909    TIP3     H1       HT       0.417000       1.00800           0
     32727 W2       10909    TIP3     H2       HT       0.417000       1.00800           0
     32728 W2       10910    TIP3     OH2      OT      -0.834000       15.9994           0
     32729 W2       10910    TIP3     H1       HT       0.417000       1.00800           0
     32730 W2       10910    TIP3     H2       HT       0.417000       1.00800           0
     32731 W2       10911    TIP3     OH2      OT      -0.834000       15.9994           0
     32732 W2       10911    TIP3     H1       HT       0.417000       1.00800           0
     32733 W2       10911    TIP3     H2       HT       0.417000       1.00800           0
     32734 W2       10912    TIP3     OH2      OT      -0.834000       15.9994           0
     32735 W2       10912    TIP3     H1       HT       0.417000       1.00800           0
     32736 W2       10912    TIP3     H2       HT       0.417000       1.00800           0
     32737 W2       10913    TIP3     OH2      OT      -0.834000       15.9994           0
     32738 W2       10913    TIP3     H1       HT       0.417000       1.00800           0
     32739 W2       10913    TIP3     H2       HT       0.417000       1.00800           0
     32740 W2       10914    TIP3     OH2      OT      -0.834000       15.9994           0
     32741 W2       10914    TIP3     H1       HT       0.417000       1.00800           0
     32742 W2       10914    TIP3     H2       HT       0.417000       1.00800           0
     32743 W2       10915    TIP3     OH2      OT      -0.834000       15.9994           0
     32744 W2       10915    TIP3     H1       HT       0.417000       1.00800           0
     32745 W2       10915    TIP3     H2       HT       0.417000       1.00800           0
     32746 W2       10916    TIP3     OH2      OT      -0.834000       15.9994           0
     32747 W2       10916    TIP3     H1       HT       0.417000       1.00800           0
     32748 W2       10916    TIP3     H2       HT       0.417000       1.00800           0
     32749 W2       10917    TIP3     OH2      OT      -0.834000       15.9994           0
     32750 W2       10917    TIP3     H1       HT       0.417000       1.00800           0
     32751 W2       10917    TIP3     H2       HT       0.417000       1.00800           0
     32752 W2       10918    TIP3     OH2      OT      -0.834000       15.9994           0
     32753 W2       10918    TIP3     H1       HT       0.417000       1.00800           0
     32754 W2       10918    TIP3     H2       HT       0.417000       1.00800           0
     32755 W2       10919    TIP3     OH2      OT      -0.834000       15.9994           0
     32756 W2       10919    TIP3     H1       HT       0.417000       1.00800           0
     32757 W2       10919    TIP3     H2       HT       0.417000       1.00800           0
     32758 W2       10920    TIP3     OH2      OT      -0.834000       15.9994           0
     32759 W2       10920    TIP3     H1       HT       0.417000       1.00800           0
     32760 W2       10920    TIP3     H2       HT       0.417000       1.00800           0
     32761 W2       10921    TIP3     OH2      OT      -0.834000       15.9994           0
     32762 W2       10921    TIP3     H1       HT       0.417000       1.00800           0
     32763 W2       10921    TIP3     H2       HT       0.417000       1.00800           0
     32764 W2       10922    TIP3     OH2      OT      -0.834000       15.9994           0
     32765 W2       10922    TIP3     H1       HT       0.417000       1.00800           0
     32766 W2       10922    TIP3     H2       HT       0.417000       1.00800           0
     32767 W2       10923    TIP3     OH2      OT      -0.834000       15.9994           0
     32768 W2       10923    TIP3     H1       HT       0.417000       1.00800           0
     32769 W2       10923    TIP3     H2       HT       0.417000       1.00800           0
     32770 W2       10924    TIP3     OH2      OT      -0.834000       15.9994           0
     32771 W2       10924    TIP3     H1       HT       0.417000       1.00800           0
     32772 W2       10924    TIP3     H2       HT       0.417000       1.00800           0
     32773 W2       10925    TIP3     OH2      OT      -0.834000       15.9994           0
     32774 W2       10925    TIP3     H1       HT       0.417000       1.00800           0
     32775 W2       10925    TIP3     H2       HT       0.417000       1.00800           0
     32776 W2       10926    TIP3     OH2      OT      -0.834000       15.9994           0
     32777 W2       10926    TIP3     H1       HT       0.417000       1.00800           0
     32778 W2       10926    TIP3     H2       HT       0.417000       1.00800           0
     32779 W2       10927    TIP3     OH2      OT      -0.834000       15.9994           0
     32780 W2       10927    TIP3     H1       HT       0.417000       1.00800           0
     32781 W2       10927    TIP3     H2       HT       0.417000       1.00800           0
     32782 W2       10928    TIP3     OH2      OT      -0.834000       15.9994           0
     32783 W2       10928    TIP3     H1       HT       0.417000       1.00800           0
     32784 W2       10928    TIP3     H2       HT       0.417000       1.00800           0
     32785 W2       10929    TIP3     OH2      OT      -0.834000       15.9994           0
     32786 W2       10929    TIP3     H1       HT       0.417000       1.00800           0
     32787 W2       10929    TIP3     H2       HT       0.417000       1.00800           0
     32788 W2       10930    TIP3     OH2      OT      -0.834000       15.9994           0
     32789 W2       10930    TIP3     H1       HT       0.417000       1.00800           0
     32790 W2       10930    TIP3     H2       HT       0.417000       1.00800           0
     32791 W2       10931    TIP3     OH2      OT      -0.834000       15.9994           0
     32792 W2       10931    TIP3     H1       HT       0.417000       1.00800           0
     32793 W2       10931    TIP3     H2       HT       0.417000       1.00800           0
     32794 W2       10932    TIP3     OH2      OT      -0.834000       15.9994           0
     32795 W2       10932    TIP3     H1       HT       0.417000       1.00800           0
     32796 W2       10932    TIP3     H2       HT       0.417000       1.00800           0
     32797 W2       10933    TIP3     OH2      OT      -0.834000       15.9994           0
     32798 W2       10933    TIP3     H1       HT       0.417000       1.00800           0
     32799 W2       10933    TIP3     H2       HT       0.417000       1.00800           0
     32800 W2       10934    TIP3     OH2      OT      -0.834000       15.9994           0
     32801 W2       10934    TIP3     H1       HT       0.417000       1.00800           0
     32802 W2       10934    TIP3     H2       HT       0.417000       1.00800           0
     32803 W2       10935    TIP3     OH2      OT      -0.834000       15.9994           0
     32804 W2       10935    TIP3     H1       HT       0.417000       1.00800           0
     32805 W2       10935    TIP3     H2       HT       0.417000       1.00800           0
     32806 W2       10936    TIP3     OH2      OT      -0.834000       15.9994           0
     32807 W2       10936    TIP3     H1       HT       0.417000       1.00800           0
     32808 W2       10936    TIP3     H2       HT       0.417000       1.00800           0
     32809 W2       10937    TIP3     OH2      OT      -0.834000       15.9994           0
     32810 W2       10937    TIP3     H1       HT       0.417000       1.00800           0
     32811 W2       10937    TIP3     H2       HT       0.417000       1.00800           0
     32812 W2       10938    TIP3     OH2      OT      -0.834000       15.9994           0
     32813 W2       10938    TIP3     H1       HT       0.417000       1.00800           0
     32814 W2       10938    TIP3     H2       HT       0.417000       1.00800           0
     32815 W2       10939    TIP3     OH2      OT      -0.834000       15.9994           0
     32816 W2       10939    TIP3     H1       HT       0.417000       1.00800           0
     32817 W2       10939    TIP3     H2       HT       0.417000       1.00800           0
     32818 W2       10940    TIP3     OH2      OT      -0.834000       15.9994           0
     32819 W2       10940    TIP3     H1       HT       0.417000       1.00800           0
     32820 W2       10940    TIP3     H2       HT       0.417000       1.00800           0
     32821 W2       10941    TIP3     OH2      OT      -0.834000       15.9994           0
     32822 W2       10941    TIP3     H1       HT       0.417000       1.00800           0
     32823 W2       10941    TIP3     H2       HT       0.417000       1.00800           0
     32824 W2       10942    TIP3     OH2      OT      -0.834000       15.9994           0
     32825 W2       10942    TIP3     H1       HT       0.417000       1.00800           0
     32826 W2       10942    TIP3     H2       HT       0.417000       1.00800           0
     32827 W2       10943    TIP3     OH2      OT      -0.834000       15.9994           0
     32828 W2       10943    TIP3     H1       HT       0.417000       1.00800           0
     32829 W2       10943    TIP3     H2       HT       0.417000       1.00800           0
     32830 W2       10944    TIP3     OH2      OT      -0.834000       15.9994           0
     32831 W2       10944    TIP3     H1       HT       0.417000       1.00800           0
     32832 W2       10944    TIP3     H2       HT       0.417000       1.00800           0
     32833 W2       10945    TIP3     OH2      OT      -0.834000       15.9994           0
     32834 W2       10945    TIP3     H1       HT       0.417000       1.00800           0
     32835 W2       10945    TIP3     H2       HT       0.417000       1.00800           0
     32836 W2       10946    TIP3     OH2      OT      -0.834000       15.9994           0
     32837 W2       10946    TIP3     H1       HT       0.417000       1.00800           0
     32838 W2       10946    TIP3     H2       HT       0.417000       1.00800           0
     32839 W2       10947    TIP3     OH2      OT      -0.834000       15.9994           0
     32840 W2       10947    TIP3     H1       HT       0.417000       1.00800           0
     32841 W2       10947    TIP3     H2       HT       0.417000       1.00800           0
     32842 W2       10948    TIP3     OH2      OT      -0.834000       15.9994           0
     32843 W2       10948    TIP3     H1       HT       0.417000       1.00800           0
     32844 W2       10948    TIP3     H2       HT       0.417000       1.00800           0
     32845 W2       10949    TIP3     OH2      OT      -0.834000       15.9994           0
     32846 W2       10949    TIP3     H1       HT       0.417000       1.00800           0
     32847 W2       10949    TIP3     H2       HT       0.417000       1.00800           0
     32848 W2       10950    TIP3     OH2      OT      -0.834000       15.9994           0
     32849 W2       10950    TIP3     H1       HT       0.417000       1.00800           0
     32850 W2       10950    TIP3     H2       HT       0.417000       1.00800           0
     32851 W2       10951    TIP3     OH2      OT      -0.834000       15.9994           0
     32852 W2       10951    TIP3     H1       HT       0.417000       1.00800           0
     32853 W2       10951    TIP3     H2       HT       0.417000       1.00800           0
     32854 W2       10952    TIP3     OH2      OT      -0.834000       15.9994           0
     32855 W2       10952    TIP3     H1       HT       0.417000       1.00800           0
     32856 W2       10952    TIP3     H2       HT       0.417000       1.00800           0
     32857 W2       10953    TIP3     OH2      OT      -0.834000       15.9994           0
     32858 W2       10953    TIP3     H1       HT       0.417000       1.00800           0
     32859 W2       10953    TIP3     H2       HT       0.417000       1.00800           0
     32860 W2       10954    TIP3     OH2      OT      -0.834000       15.9994           0
     32861 W2       10954    TIP3     H1       HT       0.417000       1.00800           0
     32862 W2       10954    TIP3     H2       HT       0.417000       1.00800           0
     32863 W2       10955    TIP3     OH2      OT      -0.834000       15.9994           0
     32864 W2       10955    TIP3     H1       HT       0.417000       1.00800           0
     32865 W2       10955    TIP3     H2       HT       0.417000       1.00800           0
     32866 W2       10956    TIP3     OH2      OT      -0.834000       15.9994           0
     32867 W2       10956    TIP3     H1       HT       0.417000       1.00800           0
     32868 W2       10956    TIP3     H2       HT       0.417000       1.00800           0
     32869 W2       10957    TIP3     OH2      OT      -0.834000       15.9994           0
     32870 W2       10957    TIP3     H1       HT       0.417000       1.00800           0
     32871 W2       10957    TIP3     H2       HT       0.417000       1.00800           0
     32872 W2       10958    TIP3     OH2      OT      -0.834000       15.9994           0
     32873 W2       10958    TIP3     H1       HT       0.417000       1.00800           0
     32874 W2       10958    TIP3     H2       HT       0.417000       1.00800           0
     32875 W2       10959    TIP3     OH2      OT      -0.834000       15.9994           0
     32876 W2       10959    TIP3     H1       HT       0.417000       1.00800           0
     32877 W2       10959    TIP3     H2       HT       0.417000       1.00800           0
     32878 W2       10960    TIP3     OH2      OT      -0.834000       15.9994           0
     32879 W2       10960    TIP3     H1       HT       0.417000       1.00800           0
     32880 W2       10960    TIP3     H2       HT       0.417000       1.00800           0
     32881 W2       10961    TIP3     OH2      OT      -0.834000       15.9994           0
     32882 W2       10961    TIP3     H1       HT       0.417000       1.00800           0
     32883 W2       10961    TIP3     H2       HT       0.417000       1.00800           0
     32884 W2       10962    TIP3     OH2      OT      -0.834000       15.9994           0
     32885 W2       10962    TIP3     H1       HT       0.417000       1.00800           0
     32886 W2       10962    TIP3     H2       HT       0.417000       1.00800           0
     32887 W2       10963    TIP3     OH2      OT      -0.834000       15.9994           0
     32888 W2       10963    TIP3     H1       HT       0.417000       1.00800           0
     32889 W2       10963    TIP3     H2       HT       0.417000       1.00800           0
     32890 W2       10964    TIP3     OH2      OT      -0.834000       15.9994           0
     32891 W2       10964    TIP3     H1       HT       0.417000       1.00800           0
     32892 W2       10964    TIP3     H2       HT       0.417000       1.00800           0
     32893 W2       10965    TIP3     OH2      OT      -0.834000       15.9994           0
     32894 W2       10965    TIP3     H1       HT       0.417000       1.00800           0
     32895 W2       10965    TIP3     H2       HT       0.417000       1.00800           0
     32896 W2       10966    TIP3     OH2      OT      -0.834000       15.9994           0
     32897 W2       10966    TIP3     H1       HT       0.417000       1.00800           0
     32898 W2       10966    TIP3     H2       HT       0.417000       1.00800           0
     32899 W2       10967    TIP3     OH2      OT      -0.834000       15.9994           0
     32900 W2       10967    TIP3     H1       HT       0.417000       1.00800           0
     32901 W2       10967    TIP3     H2       HT       0.417000       1.00800           0
     32902 W2       10968    TIP3     OH2      OT      -0.834000       15.9994           0
     32903 W2       10968    TIP3     H1       HT       0.417000       1.00800           0
     32904 W2       10968    TIP3     H2       HT       0.417000       1.00800           0
     32905 W2       10969    TIP3     OH2      OT      -0.834000       15.9994           0
     32906 W2       10969    TIP3     H1       HT       0.417000       1.00800           0
     32907 W2       10969    TIP3     H2       HT       0.417000       1.00800           0
     32908 W2       10970    TIP3     OH2      OT      -0.834000       15.9994           0
     32909 W2       10970    TIP3     H1       HT       0.417000       1.00800           0
     32910 W2       10970    TIP3     H2       HT       0.417000       1.00800           0
     32911 W2       10971    TIP3     OH2      OT      -0.834000       15.9994           0
     32912 W2       10971    TIP3     H1       HT       0.417000       1.00800           0
     32913 W2       10971    TIP3     H2       HT       0.417000       1.00800           0
     32914 W2       10972    TIP3     OH2      OT      -0.834000       15.9994           0
     32915 W2       10972    TIP3     H1       HT       0.417000       1.00800           0
     32916 W2       10972    TIP3     H2       HT       0.417000       1.00800           0
     32917 W2       10973    TIP3     OH2      OT      -0.834000       15.9994           0
     32918 W2       10973    TIP3     H1       HT       0.417000       1.00800           0
     32919 W2       10973    TIP3     H2       HT       0.417000       1.00800           0
     32920 W2       10974    TIP3     OH2      OT      -0.834000       15.9994           0
     32921 W2       10974    TIP3     H1       HT       0.417000       1.00800           0
     32922 W2       10974    TIP3     H2       HT       0.417000       1.00800           0
     32923 W2       10975    TIP3     OH2      OT      -0.834000       15.9994           0
     32924 W2       10975    TIP3     H1       HT       0.417000       1.00800           0
     32925 W2       10975    TIP3     H2       HT       0.417000       1.00800           0
     32926 W2       10976    TIP3     OH2      OT      -0.834000       15.9994           0
     32927 W2       10976    TIP3     H1       HT       0.417000       1.00800           0
     32928 W2       10976    TIP3     H2       HT       0.417000       1.00800           0
     32929 W2       10977    TIP3     OH2      OT      -0.834000       15.9994           0
     32930 W2       10977    TIP3     H1       HT       0.417000       1.00800           0
     32931 W2       10977    TIP3     H2       HT       0.417000       1.00800           0
     32932 W2       10978    TIP3     OH2      OT      -0.834000       15.9994           0
     32933 W2       10978    TIP3     H1       HT       0.417000       1.00800           0
     32934 W2       10978    TIP3     H2       HT       0.417000       1.00800           0
     32935 W2       10979    TIP3     OH2      OT      -0.834000       15.9994           0
     32936 W2       10979    TIP3     H1       HT       0.417000       1.00800           0
     32937 W2       10979    TIP3     H2       HT       0.417000       1.00800           0
     32938 W2       10980    TIP3     OH2      OT      -0.834000       15.9994           0
     32939 W2       10980    TIP3     H1       HT       0.417000       1.00800           0
     32940 W2       10980    TIP3     H2       HT       0.417000       1.00800           0
     32941 W2       10981    TIP3     OH2      OT      -0.834000       15.9994           0
     32942 W2       10981    TIP3     H1       HT       0.417000       1.00800           0
     32943 W2       10981    TIP3     H2       HT       0.417000       1.00800           0
     32944 W2       10982    TIP3     OH2      OT      -0.834000       15.9994           0
     32945 W2       10982    TIP3     H1       HT       0.417000       1.00800           0
     32946 W2       10982    TIP3     H2       HT       0.417000       1.00800           0
     32947 W2       10983    TIP3     OH2      OT      -0.834000       15.9994           0
     32948 W2       10983    TIP3     H1       HT       0.417000       1.00800           0
     32949 W2       10983    TIP3     H2       HT       0.417000       1.00800           0
     32950 W2       10984    TIP3     OH2      OT      -0.834000       15.9994           0
     32951 W2       10984    TIP3     H1       HT       0.417000       1.00800           0
     32952 W2       10984    TIP3     H2       HT       0.417000       1.00800           0
     32953 W2       10985    TIP3     OH2      OT      -0.834000       15.9994           0
     32954 W2       10985    TIP3     H1       HT       0.417000       1.00800           0
     32955 W2       10985    TIP3     H2       HT       0.417000       1.00800           0
     32956 W2       10986    TIP3     OH2      OT      -0.834000       15.9994           0
     32957 W2       10986    TIP3     H1       HT       0.417000       1.00800           0
     32958 W2       10986    TIP3     H2       HT       0.417000       1.00800           0
     32959 W2       10987    TIP3     OH2      OT      -0.834000       15.9994           0
     32960 W2       10987    TIP3     H1       HT       0.417000       1.00800           0
     32961 W2       10987    TIP3     H2       HT       0.417000       1.00800           0
     32962 W2       10988    TIP3     OH2      OT      -0.834000       15.9994           0
     32963 W2       10988    TIP3     H1       HT       0.417000       1.00800           0
     32964 W2       10988    TIP3     H2       HT       0.417000       1.00800           0
     32965 W2       10989    TIP3     OH2      OT      -0.834000       15.9994           0
     32966 W2       10989    TIP3     H1       HT       0.417000       1.00800           0
     32967 W2       10989    TIP3     H2       HT       0.417000       1.00800           0
     32968 W2       10990    TIP3     OH2      OT      -0.834000       15.9994           0
     32969 W2       10990    TIP3     H1       HT       0.417000       1.00800           0
     32970 W2       10990    TIP3     H2       HT       0.417000       1.00800           0
     32971 W2       10991    TIP3     OH2      OT      -0.834000       15.9994           0
     32972 W2       10991    TIP3     H1       HT       0.417000       1.00800           0
     32973 W2       10991    TIP3     H2       HT       0.417000       1.00800           0
     32974 W2       10992    TIP3     OH2      OT      -0.834000       15.9994           0
     32975 W2       10992    TIP3     H1       HT       0.417000       1.00800           0
     32976 W2       10992    TIP3     H2       HT       0.417000       1.00800           0
     32977 W2       10993    TIP3     OH2      OT      -0.834000       15.9994           0
     32978 W2       10993    TIP3     H1       HT       0.417000       1.00800           0
     32979 W2       10993    TIP3     H2       HT       0.417000       1.00800           0
     32980 W2       10994    TIP3     OH2      OT      -0.834000       15.9994           0
     32981 W2       10994    TIP3     H1       HT       0.417000       1.00800           0
     32982 W2       10994    TIP3     H2       HT       0.417000       1.00800           0
     32983 W2       10995    TIP3     OH2      OT      -0.834000       15.9994           0
     32984 W2       10995    TIP3     H1       HT       0.417000       1.00800           0
     32985 W2       10995    TIP3     H2       HT       0.417000       1.00800           0
     32986 W2       10996    TIP3     OH2      OT      -0.834000       15.9994           0
     32987 W2       10996    TIP3     H1       HT       0.417000       1.00800           0
     32988 W2       10996    TIP3     H2       HT       0.417000       1.00800           0
     32989 W2       10997    TIP3     OH2      OT      -0.834000       15.9994           0
     32990 W2       10997    TIP3     H1       HT       0.417000       1.00800           0
     32991 W2       10997    TIP3     H2       HT       0.417000       1.00800           0
     32992 W2       10998    TIP3     OH2      OT      -0.834000       15.9994           0
     32993 W2       10998    TIP3     H1       HT       0.417000       1.00800           0
     32994 W2       10998    TIP3     H2       HT       0.417000       1.00800           0
     32995 W2       10999    TIP3     OH2      OT      -0.834000       15.9994           0
     32996 W2       10999    TIP3     H1       HT       0.417000       1.00800           0
     32997 W2       10999    TIP3     H2       HT       0.417000       1.00800           0
     32998 W2       11000    TIP3     OH2      OT      -0.834000       15.9994           0
     32999 W2       11000    TIP3     H1       HT       0.417000       1.00800           0
     33000 W2       11000    TIP3     H2       HT       0.417000       1.00800           0
     33001 W2       11001    TIP3     OH2      OT      -0.834000       15.9994           0
     33002 W2       11001    TIP3     H1       HT       0.417000       1.00800           0
     33003 W2       11001    TIP3     H2       HT       0.417000       1.00800           0
     33004 W2       11002    TIP3     OH2      OT      -0.834000       15.9994           0
     33005 W2       11002    TIP3     H1       HT       0.417000       1.00800           0
     33006 W2       11002    TIP3     H2       HT       0.417000       1.00800           0
     33007 W2       11003    TIP3     OH2      OT      -0.834000       15.9994           0
     33008 W2       11003    TIP3     H1       HT       0.417000       1.00800           0
     33009 W2       11003    TIP3     H2       HT       0.417000       1.00800           0
     33010 W2       11004    TIP3     OH2      OT      -0.834000       15.9994           0
     33011 W2       11004    TIP3     H1       HT       0.417000       1.00800           0
     33012 W2       11004    TIP3     H2       HT       0.417000       1.00800           0
     33013 W2       11005    TIP3     OH2      OT      -0.834000       15.9994           0
     33014 W2       11005    TIP3     H1       HT       0.417000       1.00800           0
     33015 W2       11005    TIP3     H2       HT       0.417000       1.00800           0
     33016 W2       11006    TIP3     OH2      OT      -0.834000       15.9994           0
     33017 W2       11006    TIP3     H1       HT       0.417000       1.00800           0
     33018 W2       11006    TIP3     H2       HT       0.417000       1.00800           0
     33019 W2       11007    TIP3     OH2      OT      -0.834000       15.9994           0
     33020 W2       11007    TIP3     H1       HT       0.417000       1.00800           0
     33021 W2       11007    TIP3     H2       HT       0.417000       1.00800           0
     33022 W2       11008    TIP3     OH2      OT      -0.834000       15.9994           0
     33023 W2       11008    TIP3     H1       HT       0.417000       1.00800           0
     33024 W2       11008    TIP3     H2       HT       0.417000       1.00800           0
     33025 W2       11009    TIP3     OH2      OT      -0.834000       15.9994           0
     33026 W2       11009    TIP3     H1       HT       0.417000       1.00800           0
     33027 W2       11009    TIP3     H2       HT       0.417000       1.00800           0
     33028 W2       11010    TIP3     OH2      OT      -0.834000       15.9994           0
     33029 W2       11010    TIP3     H1       HT       0.417000       1.00800           0
     33030 W2       11010    TIP3     H2       HT       0.417000       1.00800           0
     33031 W2       11011    TIP3     OH2      OT      -0.834000       15.9994           0
     33032 W2       11011    TIP3     H1       HT       0.417000       1.00800           0
     33033 W2       11011    TIP3     H2       HT       0.417000       1.00800           0
     33034 W2       11012    TIP3     OH2      OT      -0.834000       15.9994           0
     33035 W2       11012    TIP3     H1       HT       0.417000       1.00800           0
     33036 W2       11012    TIP3     H2       HT       0.417000       1.00800           0
     33037 W2       11013    TIP3     OH2      OT      -0.834000       15.9994           0
     33038 W2       11013    TIP3     H1       HT       0.417000       1.00800           0
     33039 W2       11013    TIP3     H2       HT       0.417000       1.00800           0
     33040 W2       11014    TIP3     OH2      OT      -0.834000       15.9994           0
     33041 W2       11014    TIP3     H1       HT       0.417000       1.00800           0
     33042 W2       11014    TIP3     H2       HT       0.417000       1.00800           0
     33043 W2       11015    TIP3     OH2      OT      -0.834000       15.9994           0
     33044 W2       11015    TIP3     H1       HT       0.417000       1.00800           0
     33045 W2       11015    TIP3     H2       HT       0.417000       1.00800           0
     33046 W2       11016    TIP3     OH2      OT      -0.834000       15.9994           0
     33047 W2       11016    TIP3     H1       HT       0.417000       1.00800           0
     33048 W2       11016    TIP3     H2       HT       0.417000       1.00800           0
     33049 W2       11017    TIP3     OH2      OT      -0.834000       15.9994           0
     33050 W2       11017    TIP3     H1       HT       0.417000       1.00800           0
     33051 W2       11017    TIP3     H2       HT       0.417000       1.00800           0
     33052 W2       11018    TIP3     OH2      OT      -0.834000       15.9994           0
     33053 W2       11018    TIP3     H1       HT       0.417000       1.00800           0
     33054 W2       11018    TIP3     H2       HT       0.417000       1.00800           0
     33055 W2       11019    TIP3     OH2      OT      -0.834000       15.9994           0
     33056 W2       11019    TIP3     H1       HT       0.417000       1.00800           0
     33057 W2       11019    TIP3     H2       HT       0.417000       1.00800           0
     33058 W2       11020    TIP3     OH2      OT      -0.834000       15.9994           0
     33059 W2       11020    TIP3     H1       HT       0.417000       1.00800           0
     33060 W2       11020    TIP3     H2       HT       0.417000       1.00800           0
     33061 W2       11021    TIP3     OH2      OT      -0.834000       15.9994           0
     33062 W2       11021    TIP3     H1       HT       0.417000       1.00800           0
     33063 W2       11021    TIP3     H2       HT       0.417000       1.00800           0
     33064 W2       11022    TIP3     OH2      OT      -0.834000       15.9994           0
     33065 W2       11022    TIP3     H1       HT       0.417000       1.00800           0
     33066 W2       11022    TIP3     H2       HT       0.417000       1.00800           0
     33067 W2       11023    TIP3     OH2      OT      -0.834000       15.9994           0
     33068 W2       11023    TIP3     H1       HT       0.417000       1.00800           0
     33069 W2       11023    TIP3     H2       HT       0.417000       1.00800           0
     33070 W2       11024    TIP3     OH2      OT      -0.834000       15.9994           0
     33071 W2       11024    TIP3     H1       HT       0.417000       1.00800           0
     33072 W2       11024    TIP3     H2       HT       0.417000       1.00800           0
     33073 W2       11025    TIP3     OH2      OT      -0.834000       15.9994           0
     33074 W2       11025    TIP3     H1       HT       0.417000       1.00800           0
     33075 W2       11025    TIP3     H2       HT       0.417000       1.00800           0
     33076 W2       11026    TIP3     OH2      OT      -0.834000       15.9994           0
     33077 W2       11026    TIP3     H1       HT       0.417000       1.00800           0
     33078 W2       11026    TIP3     H2       HT       0.417000       1.00800           0
     33079 W2       11027    TIP3     OH2      OT      -0.834000       15.9994           0
     33080 W2       11027    TIP3     H1       HT       0.417000       1.00800           0
     33081 W2       11027    TIP3     H2       HT       0.417000       1.00800           0
     33082 W2       11028    TIP3     OH2      OT      -0.834000       15.9994           0
     33083 W2       11028    TIP3     H1       HT       0.417000       1.00800           0
     33084 W2       11028    TIP3     H2       HT       0.417000       1.00800           0
     33085 W2       11029    TIP3     OH2      OT      -0.834000       15.9994           0
     33086 W2       11029    TIP3     H1       HT       0.417000       1.00800           0
     33087 W2       11029    TIP3     H2       HT       0.417000       1.00800           0
     33088 W2       11030    TIP3     OH2      OT      -0.834000       15.9994           0
     33089 W2       11030    TIP3     H1       HT       0.417000       1.00800           0
     33090 W2       11030    TIP3     H2       HT       0.417000       1.00800           0
     33091 W2       11031    TIP3     OH2      OT      -0.834000       15.9994           0
     33092 W2       11031    TIP3     H1       HT       0.417000       1.00800           0
     33093 W2       11031    TIP3     H2       HT       0.417000       1.00800           0
     33094 W2       11032    TIP3     OH2      OT      -0.834000       15.9994           0
     33095 W2       11032    TIP3     H1       HT       0.417000       1.00800           0
     33096 W2       11032    TIP3     H2       HT       0.417000       1.00800           0
     33097 W2       11033    TIP3     OH2      OT      -0.834000       15.9994           0
     33098 W2       11033    TIP3     H1       HT       0.417000       1.00800           0
     33099 W2       11033    TIP3     H2       HT       0.417000       1.00800           0
     33100 W2       11034    TIP3     OH2      OT      -0.834000       15.9994           0
     33101 W2       11034    TIP3     H1       HT       0.417000       1.00800           0
     33102 W2       11034    TIP3     H2       HT       0.417000       1.00800           0
     33103 W2       11035    TIP3     OH2      OT      -0.834000       15.9994           0
     33104 W2       11035    TIP3     H1       HT       0.417000       1.00800           0
     33105 W2       11035    TIP3     H2       HT       0.417000       1.00800           0
     33106 W2       11036    TIP3     OH2      OT      -0.834000       15.9994           0
     33107 W2       11036    TIP3     H1       HT       0.417000       1.00800           0
     33108 W2       11036    TIP3     H2       HT       0.417000       1.00800           0
     33109 W2       11037    TIP3     OH2      OT      -0.834000       15.9994           0
     33110 W2       11037    TIP3     H1       HT       0.417000       1.00800           0
     33111 W2       11037    TIP3     H2       HT       0.417000       1.00800           0
     33112 W2       11038    TIP3     OH2      OT      -0.834000       15.9994           0
     33113 W2       11038    TIP3     H1       HT       0.417000       1.00800           0
     33114 W2       11038    TIP3     H2       HT       0.417000       1.00800           0
     33115 W2       11039    TIP3     OH2      OT      -0.834000       15.9994           0
     33116 W2       11039    TIP3     H1       HT       0.417000       1.00800           0
     33117 W2       11039    TIP3     H2       HT       0.417000       1.00800           0
     33118 W2       11040    TIP3     OH2      OT      -0.834000       15.9994           0
     33119 W2       11040    TIP3     H1       HT       0.417000       1.00800           0
     33120 W2       11040    TIP3     H2       HT       0.417000       1.00800           0
     33121 W2       11041    TIP3     OH2      OT      -0.834000       15.9994           0
     33122 W2       11041    TIP3     H1       HT       0.417000       1.00800           0
     33123 W2       11041    TIP3     H2       HT       0.417000       1.00800           0
     33124 W2       11042    TIP3     OH2      OT      -0.834000       15.9994           0
     33125 W2       11042    TIP3     H1       HT       0.417000       1.00800           0
     33126 W2       11042    TIP3     H2       HT       0.417000       1.00800           0
     33127 W2       11043    TIP3     OH2      OT      -0.834000       15.9994           0
     33128 W2       11043    TIP3     H1       HT       0.417000       1.00800           0
     33129 W2       11043    TIP3     H2       HT       0.417000       1.00800           0
     33130 W2       11044    TIP3     OH2      OT      -0.834000       15.9994           0
     33131 W2       11044    TIP3     H1       HT       0.417000       1.00800           0
     33132 W2       11044    TIP3     H2       HT       0.417000       1.00800           0
     33133 W2       11045    TIP3     OH2      OT      -0.834000       15.9994           0
     33134 W2       11045    TIP3     H1       HT       0.417000       1.00800           0
     33135 W2       11045    TIP3     H2       HT       0.417000       1.00800           0
     33136 W2       11046    TIP3     OH2      OT      -0.834000       15.9994           0
     33137 W2       11046    TIP3     H1       HT       0.417000       1.00800           0
     33138 W2       11046    TIP3     H2       HT       0.417000       1.00800           0
     33139 W2       11047    TIP3     OH2      OT      -0.834000       15.9994           0
     33140 W2       11047    TIP3     H1       HT       0.417000       1.00800           0
     33141 W2       11047    TIP3     H2       HT       0.417000       1.00800           0
     33142 W2       11048    TIP3     OH2      OT      -0.834000       15.9994           0
     33143 W2       11048    TIP3     H1       HT       0.417000       1.00800           0
     33144 W2       11048    TIP3     H2       HT       0.417000       1.00800           0
     33145 W2       11049    TIP3     OH2      OT      -0.834000       15.9994           0
     33146 W2       11049    TIP3     H1       HT       0.417000       1.00800           0
     33147 W2       11049    TIP3     H2       HT       0.417000       1.00800           0
     33148 W2       11050    TIP3     OH2      OT      -0.834000       15.9994           0
     33149 W2       11050    TIP3     H1       HT       0.417000       1.00800           0
     33150 W2       11050    TIP3     H2       HT       0.417000       1.00800           0
     33151 W2       11051    TIP3     OH2      OT      -0.834000       15.9994           0
     33152 W2       11051    TIP3     H1       HT       0.417000       1.00800           0
     33153 W2       11051    TIP3     H2       HT       0.417000       1.00800           0
     33154 W2       11052    TIP3     OH2      OT      -0.834000       15.9994           0
     33155 W2       11052    TIP3     H1       HT       0.417000       1.00800           0
     33156 W2       11052    TIP3     H2       HT       0.417000       1.00800           0
     33157 W2       11053    TIP3     OH2      OT      -0.834000       15.9994           0
     33158 W2       11053    TIP3     H1       HT       0.417000       1.00800           0
     33159 W2       11053    TIP3     H2       HT       0.417000       1.00800           0
     33160 W2       11054    TIP3     OH2      OT      -0.834000       15.9994           0
     33161 W2       11054    TIP3     H1       HT       0.417000       1.00800           0
     33162 W2       11054    TIP3     H2       HT       0.417000       1.00800           0
     33163 W2       11055    TIP3     OH2      OT      -0.834000       15.9994           0
     33164 W2       11055    TIP3     H1       HT       0.417000       1.00800           0
     33165 W2       11055    TIP3     H2       HT       0.417000       1.00800           0
     33166 W2       11056    TIP3     OH2      OT      -0.834000       15.9994           0
     33167 W2       11056    TIP3     H1       HT       0.417000       1.00800           0
     33168 W2       11056    TIP3     H2       HT       0.417000       1.00800           0
     33169 W2       11057    TIP3     OH2      OT      -0.834000       15.9994           0
     33170 W2       11057    TIP3     H1       HT       0.417000       1.00800           0
     33171 W2       11057    TIP3     H2       HT       0.417000       1.00800           0
     33172 W2       11058    TIP3     OH2      OT      -0.834000       15.9994           0
     33173 W2       11058    TIP3     H1       HT       0.417000       1.00800           0
     33174 W2       11058    TIP3     H2       HT       0.417000       1.00800           0
     33175 W2       11059    TIP3     OH2      OT      -0.834000       15.9994           0
     33176 W2       11059    TIP3     H1       HT       0.417000       1.00800           0
     33177 W2       11059    TIP3     H2       HT       0.417000       1.00800           0
     33178 W2       11060    TIP3     OH2      OT      -0.834000       15.9994           0
     33179 W2       11060    TIP3     H1       HT       0.417000       1.00800           0
     33180 W2       11060    TIP3     H2       HT       0.417000       1.00800           0
     33181 W2       11061    TIP3     OH2      OT      -0.834000       15.9994           0
     33182 W2       11061    TIP3     H1       HT       0.417000       1.00800           0
     33183 W2       11061    TIP3     H2       HT       0.417000       1.00800           0
     33184 W2       11062    TIP3     OH2      OT      -0.834000       15.9994           0
     33185 W2       11062    TIP3     H1       HT       0.417000       1.00800           0
     33186 W2       11062    TIP3     H2       HT       0.417000       1.00800           0
     33187 W2       11063    TIP3     OH2      OT      -0.834000       15.9994           0
     33188 W2       11063    TIP3     H1       HT       0.417000       1.00800           0
     33189 W2       11063    TIP3     H2       HT       0.417000       1.00800           0
     33190 W2       11064    TIP3     OH2      OT      -0.834000       15.9994           0
     33191 W2       11064    TIP3     H1       HT       0.417000       1.00800           0
     33192 W2       11064    TIP3     H2       HT       0.417000       1.00800           0
     33193 W2       11065    TIP3     OH2      OT      -0.834000       15.9994           0
     33194 W2       11065    TIP3     H1       HT       0.417000       1.00800           0
     33195 W2       11065    TIP3     H2       HT       0.417000       1.00800           0
     33196 W2       11066    TIP3     OH2      OT      -0.834000       15.9994           0
     33197 W2       11066    TIP3     H1       HT       0.417000       1.00800           0
     33198 W2       11066    TIP3     H2       HT       0.417000       1.00800           0
     33199 W2       11067    TIP3     OH2      OT      -0.834000       15.9994           0
     33200 W2       11067    TIP3     H1       HT       0.417000       1.00800           0
     33201 W2       11067    TIP3     H2       HT       0.417000       1.00800           0
     33202 W2       11068    TIP3     OH2      OT      -0.834000       15.9994           0
     33203 W2       11068    TIP3     H1       HT       0.417000       1.00800           0
     33204 W2       11068    TIP3     H2       HT       0.417000       1.00800           0
     33205 W2       11069    TIP3     OH2      OT      -0.834000       15.9994           0
     33206 W2       11069    TIP3     H1       HT       0.417000       1.00800           0
     33207 W2       11069    TIP3     H2       HT       0.417000       1.00800           0
     33208 W2       11070    TIP3     OH2      OT      -0.834000       15.9994           0
     33209 W2       11070    TIP3     H1       HT       0.417000       1.00800           0
     33210 W2       11070    TIP3     H2       HT       0.417000       1.00800           0
     33211 W2       11071    TIP3     OH2      OT      -0.834000       15.9994           0
     33212 W2       11071    TIP3     H1       HT       0.417000       1.00800           0
     33213 W2       11071    TIP3     H2       HT       0.417000       1.00800           0
     33214 W2       11072    TIP3     OH2      OT      -0.834000       15.9994           0
     33215 W2       11072    TIP3     H1       HT       0.417000       1.00800           0
     33216 W2       11072    TIP3     H2       HT       0.417000       1.00800           0
     33217 W2       11073    TIP3     OH2      OT      -0.834000       15.9994           0
     33218 W2       11073    TIP3     H1       HT       0.417000       1.00800           0
     33219 W2       11073    TIP3     H2       HT       0.417000       1.00800           0
     33220 W2       11074    TIP3     OH2      OT      -0.834000       15.9994           0
     33221 W2       11074    TIP3     H1       HT       0.417000       1.00800           0
     33222 W2       11074    TIP3     H2       HT       0.417000       1.00800           0
     33223 W2       11075    TIP3     OH2      OT      -0.834000       15.9994           0
     33224 W2       11075    TIP3     H1       HT       0.417000       1.00800           0
     33225 W2       11075    TIP3     H2       HT       0.417000       1.00800           0
     33226 W2       11076    TIP3     OH2      OT      -0.834000       15.9994           0
     33227 W2       11076    TIP3     H1       HT       0.417000       1.00800           0
     33228 W2       11076    TIP3     H2       HT       0.417000       1.00800           0
     33229 W2       11077    TIP3     OH2      OT      -0.834000       15.9994           0
     33230 W2       11077    TIP3     H1       HT       0.417000       1.00800           0
     33231 W2       11077    TIP3     H2       HT       0.417000       1.00800           0
     33232 W2       11078    TIP3     OH2      OT      -0.834000       15.9994           0
     33233 W2       11078    TIP3     H1       HT       0.417000       1.00800           0
     33234 W2       11078    TIP3     H2       HT       0.417000       1.00800           0
     33235 W2       11079    TIP3     OH2      OT      -0.834000       15.9994           0
     33236 W2       11079    TIP3     H1       HT       0.417000       1.00800           0
     33237 W2       11079    TIP3     H2       HT       0.417000       1.00800           0
     33238 W2       11080    TIP3     OH2      OT      -0.834000       15.9994           0
     33239 W2       11080    TIP3     H1       HT       0.417000       1.00800           0
     33240 W2       11080    TIP3     H2       HT       0.417000       1.00800           0
     33241 W2       11081    TIP3     OH2      OT      -0.834000       15.9994           0
     33242 W2       11081    TIP3     H1       HT       0.417000       1.00800           0
     33243 W2       11081    TIP3     H2       HT       0.417000       1.00800           0
     33244 W2       11082    TIP3     OH2      OT      -0.834000       15.9994           0
     33245 W2       11082    TIP3     H1       HT       0.417000       1.00800           0
     33246 W2       11082    TIP3     H2       HT       0.417000       1.00800           0
     33247 W2       11083    TIP3     OH2      OT      -0.834000       15.9994           0
     33248 W2       11083    TIP3     H1       HT       0.417000       1.00800           0
     33249 W2       11083    TIP3     H2       HT       0.417000       1.00800           0
     33250 W2       11084    TIP3     OH2      OT      -0.834000       15.9994           0
     33251 W2       11084    TIP3     H1       HT       0.417000       1.00800           0
     33252 W2       11084    TIP3     H2       HT       0.417000       1.00800           0
     33253 W2       11085    TIP3     OH2      OT      -0.834000       15.9994           0
     33254 W2       11085    TIP3     H1       HT       0.417000       1.00800           0
     33255 W2       11085    TIP3     H2       HT       0.417000       1.00800           0
     33256 W2       11086    TIP3     OH2      OT      -0.834000       15.9994           0
     33257 W2       11086    TIP3     H1       HT       0.417000       1.00800           0
     33258 W2       11086    TIP3     H2       HT       0.417000       1.00800           0
     33259 W2       11087    TIP3     OH2      OT      -0.834000       15.9994           0
     33260 W2       11087    TIP3     H1       HT       0.417000       1.00800           0
     33261 W2       11087    TIP3     H2       HT       0.417000       1.00800           0
     33262 W2       11088    TIP3     OH2      OT      -0.834000       15.9994           0
     33263 W2       11088    TIP3     H1       HT       0.417000       1.00800           0
     33264 W2       11088    TIP3     H2       HT       0.417000       1.00800           0
     33265 W2       11089    TIP3     OH2      OT      -0.834000       15.9994           0
     33266 W2       11089    TIP3     H1       HT       0.417000       1.00800           0
     33267 W2       11089    TIP3     H2       HT       0.417000       1.00800           0
     33268 W2       11090    TIP3     OH2      OT      -0.834000       15.9994           0
     33269 W2       11090    TIP3     H1       HT       0.417000       1.00800           0
     33270 W2       11090    TIP3     H2       HT       0.417000       1.00800           0
     33271 W2       11091    TIP3     OH2      OT      -0.834000       15.9994           0
     33272 W2       11091    TIP3     H1       HT       0.417000       1.00800           0
     33273 W2       11091    TIP3     H2       HT       0.417000       1.00800           0
     33274 W2       11092    TIP3     OH2      OT      -0.834000       15.9994           0
     33275 W2       11092    TIP3     H1       HT       0.417000       1.00800           0
     33276 W2       11092    TIP3     H2       HT       0.417000       1.00800           0
     33277 W2       11093    TIP3     OH2      OT      -0.834000       15.9994           0
     33278 W2       11093    TIP3     H1       HT       0.417000       1.00800           0
     33279 W2       11093    TIP3     H2       HT       0.417000       1.00800           0
     33280 W2       11094    TIP3     OH2      OT      -0.834000       15.9994           0
     33281 W2       11094    TIP3     H1       HT       0.417000       1.00800           0
     33282 W2       11094    TIP3     H2       HT       0.417000       1.00800           0
     33283 W2       11095    TIP3     OH2      OT      -0.834000       15.9994           0
     33284 W2       11095    TIP3     H1       HT       0.417000       1.00800           0
     33285 W2       11095    TIP3     H2       HT       0.417000       1.00800           0
     33286 W2       11096    TIP3     OH2      OT      -0.834000       15.9994           0
     33287 W2       11096    TIP3     H1       HT       0.417000       1.00800           0
     33288 W2       11096    TIP3     H2       HT       0.417000       1.00800           0
     33289 W2       11097    TIP3     OH2      OT      -0.834000       15.9994           0
     33290 W2       11097    TIP3     H1       HT       0.417000       1.00800           0
     33291 W2       11097    TIP3     H2       HT       0.417000       1.00800           0
     33292 W2       11098    TIP3     OH2      OT      -0.834000       15.9994           0
     33293 W2       11098    TIP3     H1       HT       0.417000       1.00800           0
     33294 W2       11098    TIP3     H2       HT       0.417000       1.00800           0
     33295 W2       11099    TIP3     OH2      OT      -0.834000       15.9994           0
     33296 W2       11099    TIP3     H1       HT       0.417000       1.00800           0
     33297 W2       11099    TIP3     H2       HT       0.417000       1.00800           0
     33298 W2       11100    TIP3     OH2      OT      -0.834000       15.9994           0
     33299 W2       11100    TIP3     H1       HT       0.417000       1.00800           0
     33300 W2       11100    TIP3     H2       HT       0.417000       1.00800           0
     33301 W2       11101    TIP3     OH2      OT      -0.834000       15.9994           0
     33302 W2       11101    TIP3     H1       HT       0.417000       1.00800           0
     33303 W2       11101    TIP3     H2       HT       0.417000       1.00800           0
     33304 W2       11102    TIP3     OH2      OT      -0.834000       15.9994           0
     33305 W2       11102    TIP3     H1       HT       0.417000       1.00800           0
     33306 W2       11102    TIP3     H2       HT       0.417000       1.00800           0
     33307 W2       11103    TIP3     OH2      OT      -0.834000       15.9994           0
     33308 W2       11103    TIP3     H1       HT       0.417000       1.00800           0
     33309 W2       11103    TIP3     H2       HT       0.417000       1.00800           0
     33310 W2       11104    TIP3     OH2      OT      -0.834000       15.9994           0
     33311 W2       11104    TIP3     H1       HT       0.417000       1.00800           0
     33312 W2       11104    TIP3     H2       HT       0.417000       1.00800           0
     33313 W2       11105    TIP3     OH2      OT      -0.834000       15.9994           0
     33314 W2       11105    TIP3     H1       HT       0.417000       1.00800           0
     33315 W2       11105    TIP3     H2       HT       0.417000       1.00800           0
     33316 W2       11106    TIP3     OH2      OT      -0.834000       15.9994           0
     33317 W2       11106    TIP3     H1       HT       0.417000       1.00800           0
     33318 W2       11106    TIP3     H2       HT       0.417000       1.00800           0
     33319 W2       11107    TIP3     OH2      OT      -0.834000       15.9994           0
     33320 W2       11107    TIP3     H1       HT       0.417000       1.00800           0
     33321 W2       11107    TIP3     H2       HT       0.417000       1.00800           0
     33322 W2       11108    TIP3     OH2      OT      -0.834000       15.9994           0
     33323 W2       11108    TIP3     H1       HT       0.417000       1.00800           0
     33324 W2       11108    TIP3     H2       HT       0.417000       1.00800           0
     33325 W2       11109    TIP3     OH2      OT      -0.834000       15.9994           0
     33326 W2       11109    TIP3     H1       HT       0.417000       1.00800           0
     33327 W2       11109    TIP3     H2       HT       0.417000       1.00800           0
     33328 W2       11110    TIP3     OH2      OT      -0.834000       15.9994           0
     33329 W2       11110    TIP3     H1       HT       0.417000       1.00800           0
     33330 W2       11110    TIP3     H2       HT       0.417000       1.00800           0
     33331 W2       11111    TIP3     OH2      OT      -0.834000       15.9994           0
     33332 W2       11111    TIP3     H1       HT       0.417000       1.00800           0
     33333 W2       11111    TIP3     H2       HT       0.417000       1.00800           0
     33334 W2       11112    TIP3     OH2      OT      -0.834000       15.9994           0
     33335 W2       11112    TIP3     H1       HT       0.417000       1.00800           0
     33336 W2       11112    TIP3     H2       HT       0.417000       1.00800           0
     33337 W2       11113    TIP3     OH2      OT      -0.834000       15.9994           0
     33338 W2       11113    TIP3     H1       HT       0.417000       1.00800           0
     33339 W2       11113    TIP3     H2       HT       0.417000       1.00800           0
     33340 W2       11114    TIP3     OH2      OT      -0.834000       15.9994           0
     33341 W2       11114    TIP3     H1       HT       0.417000       1.00800           0
     33342 W2       11114    TIP3     H2       HT       0.417000       1.00800           0
     33343 W2       11115    TIP3     OH2      OT      -0.834000       15.9994           0
     33344 W2       11115    TIP3     H1       HT       0.417000       1.00800           0
     33345 W2       11115    TIP3     H2       HT       0.417000       1.00800           0
     33346 W2       11116    TIP3     OH2      OT      -0.834000       15.9994           0
     33347 W2       11116    TIP3     H1       HT       0.417000       1.00800           0
     33348 W2       11116    TIP3     H2       HT       0.417000       1.00800           0
     33349 W2       11117    TIP3     OH2      OT      -0.834000       15.9994           0
     33350 W2       11117    TIP3     H1       HT       0.417000       1.00800           0
     33351 W2       11117    TIP3     H2       HT       0.417000       1.00800           0
     33352 W2       11118    TIP3     OH2      OT      -0.834000       15.9994           0
     33353 W2       11118    TIP3     H1       HT       0.417000       1.00800           0
     33354 W2       11118    TIP3     H2       HT       0.417000       1.00800           0
     33355 W2       11119    TIP3     OH2      OT      -0.834000       15.9994           0
     33356 W2       11119    TIP3     H1       HT       0.417000       1.00800           0
     33357 W2       11119    TIP3     H2       HT       0.417000       1.00800           0
     33358 W2       11120    TIP3     OH2      OT      -0.834000       15.9994           0
     33359 W2       11120    TIP3     H1       HT       0.417000       1.00800           0
     33360 W2       11120    TIP3     H2       HT       0.417000       1.00800           0
     33361 W2       11121    TIP3     OH2      OT      -0.834000       15.9994           0
     33362 W2       11121    TIP3     H1       HT       0.417000       1.00800           0
     33363 W2       11121    TIP3     H2       HT       0.417000       1.00800           0
     33364 W2       11122    TIP3     OH2      OT      -0.834000       15.9994           0
     33365 W2       11122    TIP3     H1       HT       0.417000       1.00800           0
     33366 W2       11122    TIP3     H2       HT       0.417000       1.00800           0
     33367 W2       11123    TIP3     OH2      OT      -0.834000       15.9994           0
     33368 W2       11123    TIP3     H1       HT       0.417000       1.00800           0
     33369 W2       11123    TIP3     H2       HT       0.417000       1.00800           0
     33370 W2       11124    TIP3     OH2      OT      -0.834000       15.9994           0
     33371 W2       11124    TIP3     H1       HT       0.417000       1.00800           0
     33372 W2       11124    TIP3     H2       HT       0.417000       1.00800           0
     33373 W2       11125    TIP3     OH2      OT      -0.834000       15.9994           0
     33374 W2       11125    TIP3     H1       HT       0.417000       1.00800           0
     33375 W2       11125    TIP3     H2       HT       0.417000       1.00800           0
     33376 W2       11126    TIP3     OH2      OT      -0.834000       15.9994           0
     33377 W2       11126    TIP3     H1       HT       0.417000       1.00800           0
     33378 W2       11126    TIP3     H2       HT       0.417000       1.00800           0
     33379 W2       11127    TIP3     OH2      OT      -0.834000       15.9994           0
     33380 W2       11127    TIP3     H1       HT       0.417000       1.00800           0
     33381 W2       11127    TIP3     H2       HT       0.417000       1.00800           0
     33382 W2       11128    TIP3     OH2      OT      -0.834000       15.9994           0
     33383 W2       11128    TIP3     H1       HT       0.417000       1.00800           0
     33384 W2       11128    TIP3     H2       HT       0.417000       1.00800           0
     33385 W2       11129    TIP3     OH2      OT      -0.834000       15.9994           0
     33386 W2       11129    TIP3     H1       HT       0.417000       1.00800           0
     33387 W2       11129    TIP3     H2       HT       0.417000       1.00800           0
     33388 W2       11130    TIP3     OH2      OT      -0.834000       15.9994           0
     33389 W2       11130    TIP3     H1       HT       0.417000       1.00800           0
     33390 W2       11130    TIP3     H2       HT       0.417000       1.00800           0
     33391 W2       11131    TIP3     OH2      OT      -0.834000       15.9994           0
     33392 W2       11131    TIP3     H1       HT       0.417000       1.00800           0
     33393 W2       11131    TIP3     H2       HT       0.417000       1.00800           0
     33394 W2       11132    TIP3     OH2      OT      -0.834000       15.9994           0
     33395 W2       11132    TIP3     H1       HT       0.417000       1.00800           0
     33396 W2       11132    TIP3     H2       HT       0.417000       1.00800           0
     33397 W2       11133    TIP3     OH2      OT      -0.834000       15.9994           0
     33398 W2       11133    TIP3     H1       HT       0.417000       1.00800           0
     33399 W2       11133    TIP3     H2       HT       0.417000       1.00800           0
     33400 W2       11134    TIP3     OH2      OT      -0.834000       15.9994           0
     33401 W2       11134    TIP3     H1       HT       0.417000       1.00800           0
     33402 W2       11134    TIP3     H2       HT       0.417000       1.00800           0
     33403 W2       11135    TIP3     OH2      OT      -0.834000       15.9994           0
     33404 W2       11135    TIP3     H1       HT       0.417000       1.00800           0
     33405 W2       11135    TIP3     H2       HT       0.417000       1.00800           0
     33406 W2       11136    TIP3     OH2      OT      -0.834000       15.9994           0
     33407 W2       11136    TIP3     H1       HT       0.417000       1.00800           0
     33408 W2       11136    TIP3     H2       HT       0.417000       1.00800           0
     33409 W2       11137    TIP3     OH2      OT      -0.834000       15.9994           0
     33410 W2       11137    TIP3     H1       HT       0.417000       1.00800           0
     33411 W2       11137    TIP3     H2       HT       0.417000       1.00800           0
     33412 W2       11138    TIP3     OH2      OT      -0.834000       15.9994           0
     33413 W2       11138    TIP3     H1       HT       0.417000       1.00800           0
     33414 W2       11138    TIP3     H2       HT       0.417000       1.00800           0
     33415 W2       11139    TIP3     OH2      OT      -0.834000       15.9994           0
     33416 W2       11139    TIP3     H1       HT       0.417000       1.00800           0
     33417 W2       11139    TIP3     H2       HT       0.417000       1.00800           0
     33418 W2       11140    TIP3     OH2      OT      -0.834000       15.9994           0
     33419 W2       11140    TIP3     H1       HT       0.417000       1.00800           0
     33420 W2       11140    TIP3     H2       HT       0.417000       1.00800           0
     33421 W2       11141    TIP3     OH2      OT      -0.834000       15.9994           0
     33422 W2       11141    TIP3     H1       HT       0.417000       1.00800           0
     33423 W2       11141    TIP3     H2       HT       0.417000       1.00800           0
     33424 W2       11142    TIP3     OH2      OT      -0.834000       15.9994           0
     33425 W2       11142    TIP3     H1       HT       0.417000       1.00800           0
     33426 W2       11142    TIP3     H2       HT       0.417000       1.00800           0
     33427 W2       11143    TIP3     OH2      OT      -0.834000       15.9994           0
     33428 W2       11143    TIP3     H1       HT       0.417000       1.00800           0
     33429 W2       11143    TIP3     H2       HT       0.417000       1.00800           0
     33430 W2       11144    TIP3     OH2      OT      -0.834000       15.9994           0
     33431 W2       11144    TIP3     H1       HT       0.417000       1.00800           0
     33432 W2       11144    TIP3     H2       HT       0.417000       1.00800           0
     33433 W2       11145    TIP3     OH2      OT      -0.834000       15.9994           0
     33434 W2       11145    TIP3     H1       HT       0.417000       1.00800           0
     33435 W2       11145    TIP3     H2       HT       0.417000       1.00800           0
     33436 W2       11146    TIP3     OH2      OT      -0.834000       15.9994           0
     33437 W2       11146    TIP3     H1       HT       0.417000       1.00800           0
     33438 W2       11146    TIP3     H2       HT       0.417000       1.00800           0
     33439 W2       11147    TIP3     OH2      OT      -0.834000       15.9994           0
     33440 W2       11147    TIP3     H1       HT       0.417000       1.00800           0
     33441 W2       11147    TIP3     H2       HT       0.417000       1.00800           0
     33442 W2       11148    TIP3     OH2      OT      -0.834000       15.9994           0
     33443 W2       11148    TIP3     H1       HT       0.417000       1.00800           0
     33444 W2       11148    TIP3     H2       HT       0.417000       1.00800           0
     33445 W2       11149    TIP3     OH2      OT      -0.834000       15.9994           0
     33446 W2       11149    TIP3     H1       HT       0.417000       1.00800           0
     33447 W2       11149    TIP3     H2       HT       0.417000       1.00800           0
     33448 W2       11150    TIP3     OH2      OT      -0.834000       15.9994           0
     33449 W2       11150    TIP3     H1       HT       0.417000       1.00800           0
     33450 W2       11150    TIP3     H2       HT       0.417000       1.00800           0
     33451 W2       11151    TIP3     OH2      OT      -0.834000       15.9994           0
     33452 W2       11151    TIP3     H1       HT       0.417000       1.00800           0
     33453 W2       11151    TIP3     H2       HT       0.417000       1.00800           0
     33454 W2       11152    TIP3     OH2      OT      -0.834000       15.9994           0
     33455 W2       11152    TIP3     H1       HT       0.417000       1.00800           0
     33456 W2       11152    TIP3     H2       HT       0.417000       1.00800           0
     33457 W2       11153    TIP3     OH2      OT      -0.834000       15.9994           0
     33458 W2       11153    TIP3     H1       HT       0.417000       1.00800           0
     33459 W2       11153    TIP3     H2       HT       0.417000       1.00800           0
     33460 W2       11154    TIP3     OH2      OT      -0.834000       15.9994           0
     33461 W2       11154    TIP3     H1       HT       0.417000       1.00800           0
     33462 W2       11154    TIP3     H2       HT       0.417000       1.00800           0
     33463 W2       11155    TIP3     OH2      OT      -0.834000       15.9994           0
     33464 W2       11155    TIP3     H1       HT       0.417000       1.00800           0
     33465 W2       11155    TIP3     H2       HT       0.417000       1.00800           0
     33466 W2       11156    TIP3     OH2      OT      -0.834000       15.9994           0
     33467 W2       11156    TIP3     H1       HT       0.417000       1.00800           0
     33468 W2       11156    TIP3     H2       HT       0.417000       1.00800           0
     33469 W2       11157    TIP3     OH2      OT      -0.834000       15.9994           0
     33470 W2       11157    TIP3     H1       HT       0.417000       1.00800           0
     33471 W2       11157    TIP3     H2       HT       0.417000       1.00800           0
     33472 W2       11158    TIP3     OH2      OT      -0.834000       15.9994           0
     33473 W2       11158    TIP3     H1       HT       0.417000       1.00800           0
     33474 W2       11158    TIP3     H2       HT       0.417000       1.00800           0
     33475 W2       11159    TIP3     OH2      OT      -0.834000       15.9994           0
     33476 W2       11159    TIP3     H1       HT       0.417000       1.00800           0
     33477 W2       11159    TIP3     H2       HT       0.417000       1.00800           0
     33478 W2       11160    TIP3     OH2      OT      -0.834000       15.9994           0
     33479 W2       11160    TIP3     H1       HT       0.417000       1.00800           0
     33480 W2       11160    TIP3     H2       HT       0.417000       1.00800           0
     33481 W2       11161    TIP3     OH2      OT      -0.834000       15.9994           0
     33482 W2       11161    TIP3     H1       HT       0.417000       1.00800           0
     33483 W2       11161    TIP3     H2       HT       0.417000       1.00800           0
     33484 W2       11162    TIP3     OH2      OT      -0.834000       15.9994           0
     33485 W2       11162    TIP3     H1       HT       0.417000       1.00800           0
     33486 W2       11162    TIP3     H2       HT       0.417000       1.00800           0
     33487 W2       11163    TIP3     OH2      OT      -0.834000       15.9994           0
     33488 W2       11163    TIP3     H1       HT       0.417000       1.00800           0
     33489 W2       11163    TIP3     H2       HT       0.417000       1.00800           0
     33490 W2       11164    TIP3     OH2      OT      -0.834000       15.9994           0
     33491 W2       11164    TIP3     H1       HT       0.417000       1.00800           0
     33492 W2       11164    TIP3     H2       HT       0.417000       1.00800           0
     33493 W2       11165    TIP3     OH2      OT      -0.834000       15.9994           0
     33494 W2       11165    TIP3     H1       HT       0.417000       1.00800           0
     33495 W2       11165    TIP3     H2       HT       0.417000       1.00800           0
     33496 W2       11166    TIP3     OH2      OT      -0.834000       15.9994           0
     33497 W2       11166    TIP3     H1       HT       0.417000       1.00800           0
     33498 W2       11166    TIP3     H2       HT       0.417000       1.00800           0
     33499 W2       11167    TIP3     OH2      OT      -0.834000       15.9994           0
     33500 W2       11167    TIP3     H1       HT       0.417000       1.00800           0
     33501 W2       11167    TIP3     H2       HT       0.417000       1.00800           0
     33502 W2       11168    TIP3     OH2      OT      -0.834000       15.9994           0
     33503 W2       11168    TIP3     H1       HT       0.417000       1.00800           0
     33504 W2       11168    TIP3     H2       HT       0.417000       1.00800           0
     33505 W2       11169    TIP3     OH2      OT      -0.834000       15.9994           0
     33506 W2       11169    TIP3     H1       HT       0.417000       1.00800           0
     33507 W2       11169    TIP3     H2       HT       0.417000       1.00800           0
     33508 W2       11170    TIP3     OH2      OT      -0.834000       15.9994           0
     33509 W2       11170    TIP3     H1       HT       0.417000       1.00800           0
     33510 W2       11170    TIP3     H2       HT       0.417000       1.00800           0
     33511 W2       11171    TIP3     OH2      OT      -0.834000       15.9994           0
     33512 W2       11171    TIP3     H1       HT       0.417000       1.00800           0
     33513 W2       11171    TIP3     H2       HT       0.417000       1.00800           0
     33514 W2       11172    TIP3     OH2      OT      -0.834000       15.9994           0
     33515 W2       11172    TIP3     H1       HT       0.417000       1.00800           0
     33516 W2       11172    TIP3     H2       HT       0.417000       1.00800           0
     33517 W2       11173    TIP3     OH2      OT      -0.834000       15.9994           0
     33518 W2       11173    TIP3     H1       HT       0.417000       1.00800           0
     33519 W2       11173    TIP3     H2       HT       0.417000       1.00800           0
     33520 W2       11174    TIP3     OH2      OT      -0.834000       15.9994           0
     33521 W2       11174    TIP3     H1       HT       0.417000       1.00800           0
     33522 W2       11174    TIP3     H2       HT       0.417000       1.00800           0
     33523 W2       11175    TIP3     OH2      OT      -0.834000       15.9994           0
     33524 W2       11175    TIP3     H1       HT       0.417000       1.00800           0
     33525 W2       11175    TIP3     H2       HT       0.417000       1.00800           0
     33526 W2       11176    TIP3     OH2      OT      -0.834000       15.9994           0
     33527 W2       11176    TIP3     H1       HT       0.417000       1.00800           0
     33528 W2       11176    TIP3     H2       HT       0.417000       1.00800           0
     33529 W2       11177    TIP3     OH2      OT      -0.834000       15.9994           0
     33530 W2       11177    TIP3     H1       HT       0.417000       1.00800           0
     33531 W2       11177    TIP3     H2       HT       0.417000       1.00800           0
     33532 W2       11178    TIP3     OH2      OT      -0.834000       15.9994           0
     33533 W2       11178    TIP3     H1       HT       0.417000       1.00800           0
     33534 W2       11178    TIP3     H2       HT       0.417000       1.00800           0
     33535 W2       11179    TIP3     OH2      OT      -0.834000       15.9994           0
     33536 W2       11179    TIP3     H1       HT       0.417000       1.00800           0
     33537 W2       11179    TIP3     H2       HT       0.417000       1.00800           0
     33538 W2       11180    TIP3     OH2      OT      -0.834000       15.9994           0
     33539 W2       11180    TIP3     H1       HT       0.417000       1.00800           0
     33540 W2       11180    TIP3     H2       HT       0.417000       1.00800           0
     33541 W2       11181    TIP3     OH2      OT      -0.834000       15.9994           0
     33542 W2       11181    TIP3     H1       HT       0.417000       1.00800           0
     33543 W2       11181    TIP3     H2       HT       0.417000       1.00800           0
     33544 W2       11182    TIP3     OH2      OT      -0.834000       15.9994           0
     33545 W2       11182    TIP3     H1       HT       0.417000       1.00800           0
     33546 W2       11182    TIP3     H2       HT       0.417000       1.00800           0
     33547 W2       11183    TIP3     OH2      OT      -0.834000       15.9994           0
     33548 W2       11183    TIP3     H1       HT       0.417000       1.00800           0
     33549 W2       11183    TIP3     H2       HT       0.417000       1.00800           0
     33550 W2       11184    TIP3     OH2      OT      -0.834000       15.9994           0
     33551 W2       11184    TIP3     H1       HT       0.417000       1.00800           0
     33552 W2       11184    TIP3     H2       HT       0.417000       1.00800           0
     33553 W2       11185    TIP3     OH2      OT      -0.834000       15.9994           0
     33554 W2       11185    TIP3     H1       HT       0.417000       1.00800           0
     33555 W2       11185    TIP3     H2       HT       0.417000       1.00800           0
     33556 W2       11186    TIP3     OH2      OT      -0.834000       15.9994           0
     33557 W2       11186    TIP3     H1       HT       0.417000       1.00800           0
     33558 W2       11186    TIP3     H2       HT       0.417000       1.00800           0
     33559 W2       11187    TIP3     OH2      OT      -0.834000       15.9994           0
     33560 W2       11187    TIP3     H1       HT       0.417000       1.00800           0
     33561 W2       11187    TIP3     H2       HT       0.417000       1.00800           0
     33562 W2       11188    TIP3     OH2      OT      -0.834000       15.9994           0
     33563 W2       11188    TIP3     H1       HT       0.417000       1.00800           0
     33564 W2       11188    TIP3     H2       HT       0.417000       1.00800           0
     33565 W2       11189    TIP3     OH2      OT      -0.834000       15.9994           0
     33566 W2       11189    TIP3     H1       HT       0.417000       1.00800           0
     33567 W2       11189    TIP3     H2       HT       0.417000       1.00800           0
     33568 W2       11190    TIP3     OH2      OT      -0.834000       15.9994           0
     33569 W2       11190    TIP3     H1       HT       0.417000       1.00800           0
     33570 W2       11190    TIP3     H2       HT       0.417000       1.00800           0
     33571 W2       11191    TIP3     OH2      OT      -0.834000       15.9994           0
     33572 W2       11191    TIP3     H1       HT       0.417000       1.00800           0
     33573 W2       11191    TIP3     H2       HT       0.417000       1.00800           0
     33574 W2       11192    TIP3     OH2      OT      -0.834000       15.9994           0
     33575 W2       11192    TIP3     H1       HT       0.417000       1.00800           0
     33576 W2       11192    TIP3     H2       HT       0.417000       1.00800           0
     33577 W2       11193    TIP3     OH2      OT      -0.834000       15.9994           0
     33578 W2       11193    TIP3     H1       HT       0.417000       1.00800           0
     33579 W2       11193    TIP3     H2       HT       0.417000       1.00800           0
     33580 W2       11194    TIP3     OH2      OT      -0.834000       15.9994           0
     33581 W2       11194    TIP3     H1       HT       0.417000       1.00800           0
     33582 W2       11194    TIP3     H2       HT       0.417000       1.00800           0
     33583 W2       11195    TIP3     OH2      OT      -0.834000       15.9994           0
     33584 W2       11195    TIP3     H1       HT       0.417000       1.00800           0
     33585 W2       11195    TIP3     H2       HT       0.417000       1.00800           0
     33586 W2       11196    TIP3     OH2      OT      -0.834000       15.9994           0
     33587 W2       11196    TIP3     H1       HT       0.417000       1.00800           0
     33588 W2       11196    TIP3     H2       HT       0.417000       1.00800           0
     33589 W2       11197    TIP3     OH2      OT      -0.834000       15.9994           0
     33590 W2       11197    TIP3     H1       HT       0.417000       1.00800           0
     33591 W2       11197    TIP3     H2       HT       0.417000       1.00800           0
     33592 W2       11198    TIP3     OH2      OT      -0.834000       15.9994           0
     33593 W2       11198    TIP3     H1       HT       0.417000       1.00800           0
     33594 W2       11198    TIP3     H2       HT       0.417000       1.00800           0
     33595 W2       11199    TIP3     OH2      OT      -0.834000       15.9994           0
     33596 W2       11199    TIP3     H1       HT       0.417000       1.00800           0
     33597 W2       11199    TIP3     H2       HT       0.417000       1.00800           0
     33598 W2       11200    TIP3     OH2      OT      -0.834000       15.9994           0
     33599 W2       11200    TIP3     H1       HT       0.417000       1.00800           0
     33600 W2       11200    TIP3     H2       HT       0.417000       1.00800           0
     33601 W2       11201    TIP3     OH2      OT      -0.834000       15.9994           0
     33602 W2       11201    TIP3     H1       HT       0.417000       1.00800           0
     33603 W2       11201    TIP3     H2       HT       0.417000       1.00800           0
     33604 W2       11202    TIP3     OH2      OT      -0.834000       15.9994           0
     33605 W2       11202    TIP3     H1       HT       0.417000       1.00800           0
     33606 W2       11202    TIP3     H2       HT       0.417000       1.00800           0
     33607 W2       11203    TIP3     OH2      OT      -0.834000       15.9994           0
     33608 W2       11203    TIP3     H1       HT       0.417000       1.00800           0
     33609 W2       11203    TIP3     H2       HT       0.417000       1.00800           0
     33610 W2       11204    TIP3     OH2      OT      -0.834000       15.9994           0
     33611 W2       11204    TIP3     H1       HT       0.417000       1.00800           0
     33612 W2       11204    TIP3     H2       HT       0.417000       1.00800           0
     33613 W2       11205    TIP3     OH2      OT      -0.834000       15.9994           0
     33614 W2       11205    TIP3     H1       HT       0.417000       1.00800           0
     33615 W2       11205    TIP3     H2       HT       0.417000       1.00800           0
     33616 W2       11206    TIP3     OH2      OT      -0.834000       15.9994           0
     33617 W2       11206    TIP3     H1       HT       0.417000       1.00800           0
     33618 W2       11206    TIP3     H2       HT       0.417000       1.00800           0
     33619 W2       11207    TIP3     OH2      OT      -0.834000       15.9994           0
     33620 W2       11207    TIP3     H1       HT       0.417000       1.00800           0
     33621 W2       11207    TIP3     H2       HT       0.417000       1.00800           0
     33622 W2       11208    TIP3     OH2      OT      -0.834000       15.9994           0
     33623 W2       11208    TIP3     H1       HT       0.417000       1.00800           0
     33624 W2       11208    TIP3     H2       HT       0.417000       1.00800           0
     33625 W2       11209    TIP3     OH2      OT      -0.834000       15.9994           0
     33626 W2       11209    TIP3     H1       HT       0.417000       1.00800           0
     33627 W2       11209    TIP3     H2       HT       0.417000       1.00800           0
     33628 W2       11210    TIP3     OH2      OT      -0.834000       15.9994           0
     33629 W2       11210    TIP3     H1       HT       0.417000       1.00800           0
     33630 W2       11210    TIP3     H2       HT       0.417000       1.00800           0
     33631 W2       11211    TIP3     OH2      OT      -0.834000       15.9994           0
     33632 W2       11211    TIP3     H1       HT       0.417000       1.00800           0
     33633 W2       11211    TIP3     H2       HT       0.417000       1.00800           0
     33634 W2       11212    TIP3     OH2      OT      -0.834000       15.9994           0
     33635 W2       11212    TIP3     H1       HT       0.417000       1.00800           0
     33636 W2       11212    TIP3     H2       HT       0.417000       1.00800           0
     33637 W2       11213    TIP3     OH2      OT      -0.834000       15.9994           0
     33638 W2       11213    TIP3     H1       HT       0.417000       1.00800           0
     33639 W2       11213    TIP3     H2       HT       0.417000       1.00800           0
     33640 W2       11214    TIP3     OH2      OT      -0.834000       15.9994           0
     33641 W2       11214    TIP3     H1       HT       0.417000       1.00800           0
     33642 W2       11214    TIP3     H2       HT       0.417000       1.00800           0
     33643 W2       11215    TIP3     OH2      OT      -0.834000       15.9994           0
     33644 W2       11215    TIP3     H1       HT       0.417000       1.00800           0
     33645 W2       11215    TIP3     H2       HT       0.417000       1.00800           0
     33646 W2       11216    TIP3     OH2      OT      -0.834000       15.9994           0
     33647 W2       11216    TIP3     H1       HT       0.417000       1.00800           0
     33648 W2       11216    TIP3     H2       HT       0.417000       1.00800           0
     33649 W2       11217    TIP3     OH2      OT      -0.834000       15.9994           0
     33650 W2       11217    TIP3     H1       HT       0.417000       1.00800           0
     33651 W2       11217    TIP3     H2       HT       0.417000       1.00800           0
     33652 W2       11218    TIP3     OH2      OT      -0.834000       15.9994           0
     33653 W2       11218    TIP3     H1       HT       0.417000       1.00800           0
     33654 W2       11218    TIP3     H2       HT       0.417000       1.00800           0
     33655 W2       11219    TIP3     OH2      OT      -0.834000       15.9994           0
     33656 W2       11219    TIP3     H1       HT       0.417000       1.00800           0
     33657 W2       11219    TIP3     H2       HT       0.417000       1.00800           0
     33658 W2       11220    TIP3     OH2      OT      -0.834000       15.9994           0
     33659 W2       11220    TIP3     H1       HT       0.417000       1.00800           0
     33660 W2       11220    TIP3     H2       HT       0.417000       1.00800           0
     33661 W2       11221    TIP3     OH2      OT      -0.834000       15.9994           0
     33662 W2       11221    TIP3     H1       HT       0.417000       1.00800           0
     33663 W2       11221    TIP3     H2       HT       0.417000       1.00800           0
     33664 W2       11222    TIP3     OH2      OT      -0.834000       15.9994           0
     33665 W2       11222    TIP3     H1       HT       0.417000       1.00800           0
     33666 W2       11222    TIP3     H2       HT       0.417000       1.00800           0
     33667 W2       11223    TIP3     OH2      OT      -0.834000       15.9994           0
     33668 W2       11223    TIP3     H1       HT       0.417000       1.00800           0
     33669 W2       11223    TIP3     H2       HT       0.417000       1.00800           0
     33670 W2       11224    TIP3     OH2      OT      -0.834000       15.9994           0
     33671 W2       11224    TIP3     H1       HT       0.417000       1.00800           0
     33672 W2       11224    TIP3     H2       HT       0.417000       1.00800           0
     33673 W2       11225    TIP3     OH2      OT      -0.834000       15.9994           0
     33674 W2       11225    TIP3     H1       HT       0.417000       1.00800           0
     33675 W2       11225    TIP3     H2       HT       0.417000       1.00800           0
     33676 W2       11226    TIP3     OH2      OT      -0.834000       15.9994           0
     33677 W2       11226    TIP3     H1       HT       0.417000       1.00800           0
     33678 W2       11226    TIP3     H2       HT       0.417000       1.00800           0
     33679 W2       11227    TIP3     OH2      OT      -0.834000       15.9994           0
     33680 W2       11227    TIP3     H1       HT       0.417000       1.00800           0
     33681 W2       11227    TIP3     H2       HT       0.417000       1.00800           0
     33682 W2       11228    TIP3     OH2      OT      -0.834000       15.9994           0
     33683 W2       11228    TIP3     H1       HT       0.417000       1.00800           0
     33684 W2       11228    TIP3     H2       HT       0.417000       1.00800           0
     33685 W2       11229    TIP3     OH2      OT      -0.834000       15.9994           0
     33686 W2       11229    TIP3     H1       HT       0.417000       1.00800           0
     33687 W2       11229    TIP3     H2       HT       0.417000       1.00800           0
     33688 W2       11230    TIP3     OH2      OT      -0.834000       15.9994           0
     33689 W2       11230    TIP3     H1       HT       0.417000       1.00800           0
     33690 W2       11230    TIP3     H2       HT       0.417000       1.00800           0
     33691 W2       11231    TIP3     OH2      OT      -0.834000       15.9994           0
     33692 W2       11231    TIP3     H1       HT       0.417000       1.00800           0
     33693 W2       11231    TIP3     H2       HT       0.417000       1.00800           0
     33694 W2       11232    TIP3     OH2      OT      -0.834000       15.9994           0
     33695 W2       11232    TIP3     H1       HT       0.417000       1.00800           0
     33696 W2       11232    TIP3     H2       HT       0.417000       1.00800           0
     33697 W2       11233    TIP3     OH2      OT      -0.834000       15.9994           0
     33698 W2       11233    TIP3     H1       HT       0.417000       1.00800           0
     33699 W2       11233    TIP3     H2       HT       0.417000       1.00800           0
     33700 W2       11234    TIP3     OH2      OT      -0.834000       15.9994           0
     33701 W2       11234    TIP3     H1       HT       0.417000       1.00800           0
     33702 W2       11234    TIP3     H2       HT       0.417000       1.00800           0
     33703 W2       11235    TIP3     OH2      OT      -0.834000       15.9994           0
     33704 W2       11235    TIP3     H1       HT       0.417000       1.00800           0
     33705 W2       11235    TIP3     H2       HT       0.417000       1.00800           0
     33706 W2       11236    TIP3     OH2      OT      -0.834000       15.9994           0
     33707 W2       11236    TIP3     H1       HT       0.417000       1.00800           0
     33708 W2       11236    TIP3     H2       HT       0.417000       1.00800           0
     33709 W2       11237    TIP3     OH2      OT      -0.834000       15.9994           0
     33710 W2       11237    TIP3     H1       HT       0.417000       1.00800           0
     33711 W2       11237    TIP3     H2       HT       0.417000       1.00800           0
     33712 W2       11238    TIP3     OH2      OT      -0.834000       15.9994           0
     33713 W2       11238    TIP3     H1       HT       0.417000       1.00800           0
     33714 W2       11238    TIP3     H2       HT       0.417000       1.00800           0
     33715 W2       11239    TIP3     OH2      OT      -0.834000       15.9994           0
     33716 W2       11239    TIP3     H1       HT       0.417000       1.00800           0
     33717 W2       11239    TIP3     H2       HT       0.417000       1.00800           0
     33718 W2       11240    TIP3     OH2      OT      -0.834000       15.9994           0
     33719 W2       11240    TIP3     H1       HT       0.417000       1.00800           0
     33720 W2       11240    TIP3     H2       HT       0.417000       1.00800           0
     33721 W2       11241    TIP3     OH2      OT      -0.834000       15.9994           0
     33722 W2       11241    TIP3     H1       HT       0.417000       1.00800           0
     33723 W2       11241    TIP3     H2       HT       0.417000       1.00800           0
     33724 W2       11242    TIP3     OH2      OT      -0.834000       15.9994           0
     33725 W2       11242    TIP3     H1       HT       0.417000       1.00800           0
     33726 W2       11242    TIP3     H2       HT       0.417000       1.00800           0
     33727 W2       11243    TIP3     OH2      OT      -0.834000       15.9994           0
     33728 W2       11243    TIP3     H1       HT       0.417000       1.00800           0
     33729 W2       11243    TIP3     H2       HT       0.417000       1.00800           0
     33730 W2       11244    TIP3     OH2      OT      -0.834000       15.9994           0
     33731 W2       11244    TIP3     H1       HT       0.417000       1.00800           0
     33732 W2       11244    TIP3     H2       HT       0.417000       1.00800           0
     33733 W2       11245    TIP3     OH2      OT      -0.834000       15.9994           0
     33734 W2       11245    TIP3     H1       HT       0.417000       1.00800           0
     33735 W2       11245    TIP3     H2       HT       0.417000       1.00800           0
     33736 W2       11246    TIP3     OH2      OT      -0.834000       15.9994           0
     33737 W2       11246    TIP3     H1       HT       0.417000       1.00800           0
     33738 W2       11246    TIP3     H2       HT       0.417000       1.00800           0
     33739 W2       11247    TIP3     OH2      OT      -0.834000       15.9994           0
     33740 W2       11247    TIP3     H1       HT       0.417000       1.00800           0
     33741 W2       11247    TIP3     H2       HT       0.417000       1.00800           0
     33742 W2       11248    TIP3     OH2      OT      -0.834000       15.9994           0
     33743 W2       11248    TIP3     H1       HT       0.417000       1.00800           0
     33744 W2       11248    TIP3     H2       HT       0.417000       1.00800           0
     33745 W2       11249    TIP3     OH2      OT      -0.834000       15.9994           0
     33746 W2       11249    TIP3     H1       HT       0.417000       1.00800           0
     33747 W2       11249    TIP3     H2       HT       0.417000       1.00800           0
     33748 W2       11250    TIP3     OH2      OT      -0.834000       15.9994           0
     33749 W2       11250    TIP3     H1       HT       0.417000       1.00800           0
     33750 W2       11250    TIP3     H2       HT       0.417000       1.00800           0
     33751 W2       11251    TIP3     OH2      OT      -0.834000       15.9994           0
     33752 W2       11251    TIP3     H1       HT       0.417000       1.00800           0
     33753 W2       11251    TIP3     H2       HT       0.417000       1.00800           0
     33754 W2       11252    TIP3     OH2      OT      -0.834000       15.9994           0
     33755 W2       11252    TIP3     H1       HT       0.417000       1.00800           0
     33756 W2       11252    TIP3     H2       HT       0.417000       1.00800           0
     33757 W2       11253    TIP3     OH2      OT      -0.834000       15.9994           0
     33758 W2       11253    TIP3     H1       HT       0.417000       1.00800           0
     33759 W2       11253    TIP3     H2       HT       0.417000       1.00800           0
     33760 W2       11254    TIP3     OH2      OT      -0.834000       15.9994           0
     33761 W2       11254    TIP3     H1       HT       0.417000       1.00800           0
     33762 W2       11254    TIP3     H2       HT       0.417000       1.00800           0
     33763 W2       11255    TIP3     OH2      OT      -0.834000       15.9994           0
     33764 W2       11255    TIP3     H1       HT       0.417000       1.00800           0
     33765 W2       11255    TIP3     H2       HT       0.417000       1.00800           0
     33766 W2       11256    TIP3     OH2      OT      -0.834000       15.9994           0
     33767 W2       11256    TIP3     H1       HT       0.417000       1.00800           0
     33768 W2       11256    TIP3     H2       HT       0.417000       1.00800           0
     33769 W2       11257    TIP3     OH2      OT      -0.834000       15.9994           0
     33770 W2       11257    TIP3     H1       HT       0.417000       1.00800           0
     33771 W2       11257    TIP3     H2       HT       0.417000       1.00800           0
     33772 W2       11258    TIP3     OH2      OT      -0.834000       15.9994           0
     33773 W2       11258    TIP3     H1       HT       0.417000       1.00800           0
     33774 W2       11258    TIP3     H2       HT       0.417000       1.00800           0
     33775 W2       11259    TIP3     OH2      OT      -0.834000       15.9994           0
     33776 W2       11259    TIP3     H1       HT       0.417000       1.00800           0
     33777 W2       11259    TIP3     H2       HT       0.417000       1.00800           0
     33778 W2       11260    TIP3     OH2      OT      -0.834000       15.9994           0
     33779 W2       11260    TIP3     H1       HT       0.417000       1.00800           0
     33780 W2       11260    TIP3     H2       HT       0.417000       1.00800           0
     33781 W2       11261    TIP3     OH2      OT      -0.834000       15.9994           0
     33782 W2       11261    TIP3     H1       HT       0.417000       1.00800           0
     33783 W2       11261    TIP3     H2       HT       0.417000       1.00800           0
     33784 W2       11262    TIP3     OH2      OT      -0.834000       15.9994           0
     33785 W2       11262    TIP3     H1       HT       0.417000       1.00800           0
     33786 W2       11262    TIP3     H2       HT       0.417000       1.00800           0
     33787 W2       11263    TIP3     OH2      OT      -0.834000       15.9994           0
     33788 W2       11263    TIP3     H1       HT       0.417000       1.00800           0
     33789 W2       11263    TIP3     H2       HT       0.417000       1.00800           0
     33790 W2       11264    TIP3     OH2      OT      -0.834000       15.9994           0
     33791 W2       11264    TIP3     H1       HT       0.417000       1.00800           0
     33792 W2       11264    TIP3     H2       HT       0.417000       1.00800           0
     33793 W2       11265    TIP3     OH2      OT      -0.834000       15.9994           0
     33794 W2       11265    TIP3     H1       HT       0.417000       1.00800           0
     33795 W2       11265    TIP3     H2       HT       0.417000       1.00800           0
     33796 W2       11266    TIP3     OH2      OT      -0.834000       15.9994           0
     33797 W2       11266    TIP3     H1       HT       0.417000       1.00800           0
     33798 W2       11266    TIP3     H2       HT       0.417000       1.00800           0
     33799 W2       11267    TIP3     OH2      OT      -0.834000       15.9994           0
     33800 W2       11267    TIP3     H1       HT       0.417000       1.00800           0
     33801 W2       11267    TIP3     H2       HT       0.417000       1.00800           0
     33802 W2       11268    TIP3     OH2      OT      -0.834000       15.9994           0
     33803 W2       11268    TIP3     H1       HT       0.417000       1.00800           0
     33804 W2       11268    TIP3     H2       HT       0.417000       1.00800           0
     33805 W2       11269    TIP3     OH2      OT      -0.834000       15.9994           0
     33806 W2       11269    TIP3     H1       HT       0.417000       1.00800           0
     33807 W2       11269    TIP3     H2       HT       0.417000       1.00800           0
     33808 W2       11270    TIP3     OH2      OT      -0.834000       15.9994           0
     33809 W2       11270    TIP3     H1       HT       0.417000       1.00800           0
     33810 W2       11270    TIP3     H2       HT       0.417000       1.00800           0
     33811 W2       11271    TIP3     OH2      OT      -0.834000       15.9994           0
     33812 W2       11271    TIP3     H1       HT       0.417000       1.00800           0
     33813 W2       11271    TIP3     H2       HT       0.417000       1.00800           0
     33814 W2       11272    TIP3     OH2      OT      -0.834000       15.9994           0
     33815 W2       11272    TIP3     H1       HT       0.417000       1.00800           0
     33816 W2       11272    TIP3     H2       HT       0.417000       1.00800           0
     33817 W2       11273    TIP3     OH2      OT      -0.834000       15.9994           0
     33818 W2       11273    TIP3     H1       HT       0.417000       1.00800           0
     33819 W2       11273    TIP3     H2       HT       0.417000       1.00800           0
     33820 W2       11274    TIP3     OH2      OT      -0.834000       15.9994           0
     33821 W2       11274    TIP3     H1       HT       0.417000       1.00800           0
     33822 W2       11274    TIP3     H2       HT       0.417000       1.00800           0
     33823 W2       11275    TIP3     OH2      OT      -0.834000       15.9994           0
     33824 W2       11275    TIP3     H1       HT       0.417000       1.00800           0
     33825 W2       11275    TIP3     H2       HT       0.417000       1.00800           0
     33826 W2       11276    TIP3     OH2      OT      -0.834000       15.9994           0
     33827 W2       11276    TIP3     H1       HT       0.417000       1.00800           0
     33828 W2       11276    TIP3     H2       HT       0.417000       1.00800           0
     33829 W2       11277    TIP3     OH2      OT      -0.834000       15.9994           0
     33830 W2       11277    TIP3     H1       HT       0.417000       1.00800           0
     33831 W2       11277    TIP3     H2       HT       0.417000       1.00800           0
     33832 W2       11278    TIP3     OH2      OT      -0.834000       15.9994           0
     33833 W2       11278    TIP3     H1       HT       0.417000       1.00800           0
     33834 W2       11278    TIP3     H2       HT       0.417000       1.00800           0
     33835 W2       11279    TIP3     OH2      OT      -0.834000       15.9994           0
     33836 W2       11279    TIP3     H1       HT       0.417000       1.00800           0
     33837 W2       11279    TIP3     H2       HT       0.417000       1.00800           0
     33838 W2       11280    TIP3     OH2      OT      -0.834000       15.9994           0
     33839 W2       11280    TIP3     H1       HT       0.417000       1.00800           0
     33840 W2       11280    TIP3     H2       HT       0.417000       1.00800           0
     33841 W2       11281    TIP3     OH2      OT      -0.834000       15.9994           0
     33842 W2       11281    TIP3     H1       HT       0.417000       1.00800           0
     33843 W2       11281    TIP3     H2       HT       0.417000       1.00800           0
     33844 W2       11282    TIP3     OH2      OT      -0.834000       15.9994           0
     33845 W2       11282    TIP3     H1       HT       0.417000       1.00800           0
     33846 W2       11282    TIP3     H2       HT       0.417000       1.00800           0
     33847 W2       11283    TIP3     OH2      OT      -0.834000       15.9994           0
     33848 W2       11283    TIP3     H1       HT       0.417000       1.00800           0
     33849 W2       11283    TIP3     H2       HT       0.417000       1.00800           0
     33850 W2       11284    TIP3     OH2      OT      -0.834000       15.9994           0
     33851 W2       11284    TIP3     H1       HT       0.417000       1.00800           0
     33852 W2       11284    TIP3     H2       HT       0.417000       1.00800           0
     33853 W2       11285    TIP3     OH2      OT      -0.834000       15.9994           0
     33854 W2       11285    TIP3     H1       HT       0.417000       1.00800           0
     33855 W2       11285    TIP3     H2       HT       0.417000       1.00800           0
     33856 W2       11286    TIP3     OH2      OT      -0.834000       15.9994           0
     33857 W2       11286    TIP3     H1       HT       0.417000       1.00800           0
     33858 W2       11286    TIP3     H2       HT       0.417000       1.00800           0
     33859 W2       11287    TIP3     OH2      OT      -0.834000       15.9994           0
     33860 W2       11287    TIP3     H1       HT       0.417000       1.00800           0
     33861 W2       11287    TIP3     H2       HT       0.417000       1.00800           0
     33862 W2       11288    TIP3     OH2      OT      -0.834000       15.9994           0
     33863 W2       11288    TIP3     H1       HT       0.417000       1.00800           0
     33864 W2       11288    TIP3     H2       HT       0.417000       1.00800           0
     33865 W2       11289    TIP3     OH2      OT      -0.834000       15.9994           0
     33866 W2       11289    TIP3     H1       HT       0.417000       1.00800           0
     33867 W2       11289    TIP3     H2       HT       0.417000       1.00800           0
     33868 W2       11290    TIP3     OH2      OT      -0.834000       15.9994           0
     33869 W2       11290    TIP3     H1       HT       0.417000       1.00800           0
     33870 W2       11290    TIP3     H2       HT       0.417000       1.00800           0
     33871 W2       11291    TIP3     OH2      OT      -0.834000       15.9994           0
     33872 W2       11291    TIP3     H1       HT       0.417000       1.00800           0
     33873 W2       11291    TIP3     H2       HT       0.417000       1.00800           0
     33874 W2       11292    TIP3     OH2      OT      -0.834000       15.9994           0
     33875 W2       11292    TIP3     H1       HT       0.417000       1.00800           0
     33876 W2       11292    TIP3     H2       HT       0.417000       1.00800           0
     33877 W2       11293    TIP3     OH2      OT      -0.834000       15.9994           0
     33878 W2       11293    TIP3     H1       HT       0.417000       1.00800           0
     33879 W2       11293    TIP3     H2       HT       0.417000       1.00800           0
     33880 W2       11294    TIP3     OH2      OT      -0.834000       15.9994           0
     33881 W2       11294    TIP3     H1       HT       0.417000       1.00800           0
     33882 W2       11294    TIP3     H2       HT       0.417000       1.00800           0
     33883 W2       11295    TIP3     OH2      OT      -0.834000       15.9994           0
     33884 W2       11295    TIP3     H1       HT       0.417000       1.00800           0
     33885 W2       11295    TIP3     H2       HT       0.417000       1.00800           0
     33886 W2       11296    TIP3     OH2      OT      -0.834000       15.9994           0
     33887 W2       11296    TIP3     H1       HT       0.417000       1.00800           0
     33888 W2       11296    TIP3     H2       HT       0.417000       1.00800           0
     33889 W2       11297    TIP3     OH2      OT      -0.834000       15.9994           0
     33890 W2       11297    TIP3     H1       HT       0.417000       1.00800           0
     33891 W2       11297    TIP3     H2       HT       0.417000       1.00800           0
     33892 W2       11298    TIP3     OH2      OT      -0.834000       15.9994           0
     33893 W2       11298    TIP3     H1       HT       0.417000       1.00800           0
     33894 W2       11298    TIP3     H2       HT       0.417000       1.00800           0
     33895 W2       11299    TIP3     OH2      OT      -0.834000       15.9994           0
     33896 W2       11299    TIP3     H1       HT       0.417000       1.00800           0
     33897 W2       11299    TIP3     H2       HT       0.417000       1.00800           0
     33898 W2       11300    TIP3     OH2      OT      -0.834000       15.9994           0
     33899 W2       11300    TIP3     H1       HT       0.417000       1.00800           0
     33900 W2       11300    TIP3     H2       HT       0.417000       1.00800           0
     33901 W2       11301    TIP3     OH2      OT      -0.834000       15.9994           0
     33902 W2       11301    TIP3     H1       HT       0.417000       1.00800           0
     33903 W2       11301    TIP3     H2       HT       0.417000       1.00800           0
     33904 W2       11302    TIP3     OH2      OT      -0.834000       15.9994           0
     33905 W2       11302    TIP3     H1       HT       0.417000       1.00800           0
     33906 W2       11302    TIP3     H2       HT       0.417000       1.00800           0
     33907 W2       11303    TIP3     OH2      OT      -0.834000       15.9994           0
     33908 W2       11303    TIP3     H1       HT       0.417000       1.00800           0
     33909 W2       11303    TIP3     H2       HT       0.417000       1.00800           0
     33910 W2       11304    TIP3     OH2      OT      -0.834000       15.9994           0
     33911 W2       11304    TIP3     H1       HT       0.417000       1.00800           0
     33912 W2       11304    TIP3     H2       HT       0.417000       1.00800           0
     33913 W2       11305    TIP3     OH2      OT      -0.834000       15.9994           0
     33914 W2       11305    TIP3     H1       HT       0.417000       1.00800           0
     33915 W2       11305    TIP3     H2       HT       0.417000       1.00800           0
     33916 W2       11306    TIP3     OH2      OT      -0.834000       15.9994           0
     33917 W2       11306    TIP3     H1       HT       0.417000       1.00800           0
     33918 W2       11306    TIP3     H2       HT       0.417000       1.00800           0
     33919 W2       11307    TIP3     OH2      OT      -0.834000       15.9994           0
     33920 W2       11307    TIP3     H1       HT       0.417000       1.00800           0
     33921 W2       11307    TIP3     H2       HT       0.417000       1.00800           0
     33922 W2       11308    TIP3     OH2      OT      -0.834000       15.9994           0
     33923 W2       11308    TIP3     H1       HT       0.417000       1.00800           0
     33924 W2       11308    TIP3     H2       HT       0.417000       1.00800           0
     33925 W2       11309    TIP3     OH2      OT      -0.834000       15.9994           0
     33926 W2       11309    TIP3     H1       HT       0.417000       1.00800           0
     33927 W2       11309    TIP3     H2       HT       0.417000       1.00800           0
     33928 W2       11310    TIP3     OH2      OT      -0.834000       15.9994           0
     33929 W2       11310    TIP3     H1       HT       0.417000       1.00800           0
     33930 W2       11310    TIP3     H2       HT       0.417000       1.00800           0
     33931 W2       11311    TIP3     OH2      OT      -0.834000       15.9994           0
     33932 W2       11311    TIP3     H1       HT       0.417000       1.00800           0
     33933 W2       11311    TIP3     H2       HT       0.417000       1.00800           0
     33934 W2       11312    TIP3     OH2      OT      -0.834000       15.9994           0
     33935 W2       11312    TIP3     H1       HT       0.417000       1.00800           0
     33936 W2       11312    TIP3     H2       HT       0.417000       1.00800           0
     33937 W2       11313    TIP3     OH2      OT      -0.834000       15.9994           0
     33938 W2       11313    TIP3     H1       HT       0.417000       1.00800           0
     33939 W2       11313    TIP3     H2       HT       0.417000       1.00800           0
     33940 W2       11314    TIP3     OH2      OT      -0.834000       15.9994           0
     33941 W2       11314    TIP3     H1       HT       0.417000       1.00800           0
     33942 W2       11314    TIP3     H2       HT       0.417000       1.00800           0
     33943 W2       11315    TIP3     OH2      OT      -0.834000       15.9994           0
     33944 W2       11315    TIP3     H1       HT       0.417000       1.00800           0
     33945 W2       11315    TIP3     H2       HT       0.417000       1.00800           0
     33946 W2       11316    TIP3     OH2      OT      -0.834000       15.9994           0
     33947 W2       11316    TIP3     H1       HT       0.417000       1.00800           0
     33948 W2       11316    TIP3     H2       HT       0.417000       1.00800           0
     33949 W2       11317    TIP3     OH2      OT      -0.834000       15.9994           0
     33950 W2       11317    TIP3     H1       HT       0.417000       1.00800           0
     33951 W2       11317    TIP3     H2       HT       0.417000       1.00800           0
     33952 W2       11318    TIP3     OH2      OT      -0.834000       15.9994           0
     33953 W2       11318    TIP3     H1       HT       0.417000       1.00800           0
     33954 W2       11318    TIP3     H2       HT       0.417000       1.00800           0
     33955 W2       11319    TIP3     OH2      OT      -0.834000       15.9994           0
     33956 W2       11319    TIP3     H1       HT       0.417000       1.00800           0
     33957 W2       11319    TIP3     H2       HT       0.417000       1.00800           0
     33958 W2       11320    TIP3     OH2      OT      -0.834000       15.9994           0
     33959 W2       11320    TIP3     H1       HT       0.417000       1.00800           0
     33960 W2       11320    TIP3     H2       HT       0.417000       1.00800           0
     33961 W2       11321    TIP3     OH2      OT      -0.834000       15.9994           0
     33962 W2       11321    TIP3     H1       HT       0.417000       1.00800           0
     33963 W2       11321    TIP3     H2       HT       0.417000       1.00800           0
     33964 W2       11322    TIP3     OH2      OT      -0.834000       15.9994           0
     33965 W2       11322    TIP3     H1       HT       0.417000       1.00800           0
     33966 W2       11322    TIP3     H2       HT       0.417000       1.00800           0
     33967 W2       11323    TIP3     OH2      OT      -0.834000       15.9994           0
     33968 W2       11323    TIP3     H1       HT       0.417000       1.00800           0
     33969 W2       11323    TIP3     H2       HT       0.417000       1.00800           0
     33970 W2       11324    TIP3     OH2      OT      -0.834000       15.9994           0
     33971 W2       11324    TIP3     H1       HT       0.417000       1.00800           0
     33972 W2       11324    TIP3     H2       HT       0.417000       1.00800           0
     33973 W2       11325    TIP3     OH2      OT      -0.834000       15.9994           0
     33974 W2       11325    TIP3     H1       HT       0.417000       1.00800           0
     33975 W2       11325    TIP3     H2       HT       0.417000       1.00800           0
     33976 W2       11326    TIP3     OH2      OT      -0.834000       15.9994           0
     33977 W2       11326    TIP3     H1       HT       0.417000       1.00800           0
     33978 W2       11326    TIP3     H2       HT       0.417000       1.00800           0
     33979 W2       11327    TIP3     OH2      OT      -0.834000       15.9994           0
     33980 W2       11327    TIP3     H1       HT       0.417000       1.00800           0
     33981 W2       11327    TIP3     H2       HT       0.417000       1.00800           0
     33982 W2       11328    TIP3     OH2      OT      -0.834000       15.9994           0
     33983 W2       11328    TIP3     H1       HT       0.417000       1.00800           0
     33984 W2       11328    TIP3     H2       HT       0.417000       1.00800           0
     33985 W2       11329    TIP3     OH2      OT      -0.834000       15.9994           0
     33986 W2       11329    TIP3     H1       HT       0.417000       1.00800           0
     33987 W2       11329    TIP3     H2       HT       0.417000       1.00800           0
     33988 W2       11330    TIP3     OH2      OT      -0.834000       15.9994           0
     33989 W2       11330    TIP3     H1       HT       0.417000       1.00800           0
     33990 W2       11330    TIP3     H2       HT       0.417000       1.00800           0
     33991 W2       11331    TIP3     OH2      OT      -0.834000       15.9994           0
     33992 W2       11331    TIP3     H1       HT       0.417000       1.00800           0
     33993 W2       11331    TIP3     H2       HT       0.417000       1.00800           0
     33994 W2       11332    TIP3     OH2      OT      -0.834000       15.9994           0
     33995 W2       11332    TIP3     H1       HT       0.417000       1.00800           0
     33996 W2       11332    TIP3     H2       HT       0.417000       1.00800           0
     33997 W2       11333    TIP3     OH2      OT      -0.834000       15.9994           0
     33998 W2       11333    TIP3     H1       HT       0.417000       1.00800           0
     33999 W2       11333    TIP3     H2       HT       0.417000       1.00800           0
     34000 W2       11334    TIP3     OH2      OT      -0.834000       15.9994           0
     34001 W2       11334    TIP3     H1       HT       0.417000       1.00800           0
     34002 W2       11334    TIP3     H2       HT       0.417000       1.00800           0
     34003 W2       11335    TIP3     OH2      OT      -0.834000       15.9994           0
     34004 W2       11335    TIP3     H1       HT       0.417000       1.00800           0
     34005 W2       11335    TIP3     H2       HT       0.417000       1.00800           0
     34006 W2       11336    TIP3     OH2      OT      -0.834000       15.9994           0
     34007 W2       11336    TIP3     H1       HT       0.417000       1.00800           0
     34008 W2       11336    TIP3     H2       HT       0.417000       1.00800           0
     34009 W2       11337    TIP3     OH2      OT      -0.834000       15.9994           0
     34010 W2       11337    TIP3     H1       HT       0.417000       1.00800           0
     34011 W2       11337    TIP3     H2       HT       0.417000       1.00800           0
     34012 W2       11338    TIP3     OH2      OT      -0.834000       15.9994           0
     34013 W2       11338    TIP3     H1       HT       0.417000       1.00800           0
     34014 W2       11338    TIP3     H2       HT       0.417000       1.00800           0
     34015 W2       11339    TIP3     OH2      OT      -0.834000       15.9994           0
     34016 W2       11339    TIP3     H1       HT       0.417000       1.00800           0
     34017 W2       11339    TIP3     H2       HT       0.417000       1.00800           0
     34018 W2       11340    TIP3     OH2      OT      -0.834000       15.9994           0
     34019 W2       11340    TIP3     H1       HT       0.417000       1.00800           0
     34020 W2       11340    TIP3     H2       HT       0.417000       1.00800           0
     34021 W2       11341    TIP3     OH2      OT      -0.834000       15.9994           0
     34022 W2       11341    TIP3     H1       HT       0.417000       1.00800           0
     34023 W2       11341    TIP3     H2       HT       0.417000       1.00800           0
     34024 W2       11342    TIP3     OH2      OT      -0.834000       15.9994           0
     34025 W2       11342    TIP3     H1       HT       0.417000       1.00800           0
     34026 W2       11342    TIP3     H2       HT       0.417000       1.00800           0
     34027 W2       11343    TIP3     OH2      OT      -0.834000       15.9994           0
     34028 W2       11343    TIP3     H1       HT       0.417000       1.00800           0
     34029 W2       11343    TIP3     H2       HT       0.417000       1.00800           0
     34030 W2       11344    TIP3     OH2      OT      -0.834000       15.9994           0
     34031 W2       11344    TIP3     H1       HT       0.417000       1.00800           0
     34032 W2       11344    TIP3     H2       HT       0.417000       1.00800           0
     34033 W2       11345    TIP3     OH2      OT      -0.834000       15.9994           0
     34034 W2       11345    TIP3     H1       HT       0.417000       1.00800           0
     34035 W2       11345    TIP3     H2       HT       0.417000       1.00800           0
     34036 W2       11346    TIP3     OH2      OT      -0.834000       15.9994           0
     34037 W2       11346    TIP3     H1       HT       0.417000       1.00800           0
     34038 W2       11346    TIP3     H2       HT       0.417000       1.00800           0
     34039 W2       11347    TIP3     OH2      OT      -0.834000       15.9994           0
     34040 W2       11347    TIP3     H1       HT       0.417000       1.00800           0
     34041 W2       11347    TIP3     H2       HT       0.417000       1.00800           0
     34042 W2       11348    TIP3     OH2      OT      -0.834000       15.9994           0
     34043 W2       11348    TIP3     H1       HT       0.417000       1.00800           0
     34044 W2       11348    TIP3     H2       HT       0.417000       1.00800           0
     34045 W2       11349    TIP3     OH2      OT      -0.834000       15.9994           0
     34046 W2       11349    TIP3     H1       HT       0.417000       1.00800           0
     34047 W2       11349    TIP3     H2       HT       0.417000       1.00800           0
     34048 W2       11350    TIP3     OH2      OT      -0.834000       15.9994           0
     34049 W2       11350    TIP3     H1       HT       0.417000       1.00800           0
     34050 W2       11350    TIP3     H2       HT       0.417000       1.00800           0
     34051 W2       11351    TIP3     OH2      OT      -0.834000       15.9994           0
     34052 W2       11351    TIP3     H1       HT       0.417000       1.00800           0
     34053 W2       11351    TIP3     H2       HT       0.417000       1.00800           0
     34054 W2       11352    TIP3     OH2      OT      -0.834000       15.9994           0
     34055 W2       11352    TIP3     H1       HT       0.417000       1.00800           0
     34056 W2       11352    TIP3     H2       HT       0.417000       1.00800           0
     34057 W2       11353    TIP3     OH2      OT      -0.834000       15.9994           0
     34058 W2       11353    TIP3     H1       HT       0.417000       1.00800           0
     34059 W2       11353    TIP3     H2       HT       0.417000       1.00800           0
     34060 W2       11354    TIP3     OH2      OT      -0.834000       15.9994           0
     34061 W2       11354    TIP3     H1       HT       0.417000       1.00800           0
     34062 W2       11354    TIP3     H2       HT       0.417000       1.00800           0
     34063 W2       11355    TIP3     OH2      OT      -0.834000       15.9994           0
     34064 W2       11355    TIP3     H1       HT       0.417000       1.00800           0
     34065 W2       11355    TIP3     H2       HT       0.417000       1.00800           0
     34066 W2       11356    TIP3     OH2      OT      -0.834000       15.9994           0
     34067 W2       11356    TIP3     H1       HT       0.417000       1.00800           0
     34068 W2       11356    TIP3     H2       HT       0.417000       1.00800           0
     34069 W2       11357    TIP3     OH2      OT      -0.834000       15.9994           0
     34070 W2       11357    TIP3     H1       HT       0.417000       1.00800           0
     34071 W2       11357    TIP3     H2       HT       0.417000       1.00800           0
     34072 W2       11358    TIP3     OH2      OT      -0.834000       15.9994           0
     34073 W2       11358    TIP3     H1       HT       0.417000       1.00800           0
     34074 W2       11358    TIP3     H2       HT       0.417000       1.00800           0
     34075 W2       11359    TIP3     OH2      OT      -0.834000       15.9994           0
     34076 W2       11359    TIP3     H1       HT       0.417000       1.00800           0
     34077 W2       11359    TIP3     H2       HT       0.417000       1.00800           0
     34078 W2       11360    TIP3     OH2      OT      -0.834000       15.9994           0
     34079 W2       11360    TIP3     H1       HT       0.417000       1.00800           0
     34080 W2       11360    TIP3     H2       HT       0.417000       1.00800           0
     34081 W2       11361    TIP3     OH2      OT      -0.834000       15.9994           0
     34082 W2       11361    TIP3     H1       HT       0.417000       1.00800           0
     34083 W2       11361    TIP3     H2       HT       0.417000       1.00800           0
     34084 W2       11362    TIP3     OH2      OT      -0.834000       15.9994           0
     34085 W2       11362    TIP3     H1       HT       0.417000       1.00800           0
     34086 W2       11362    TIP3     H2       HT       0.417000       1.00800           0
     34087 W2       11363    TIP3     OH2      OT      -0.834000       15.9994           0
     34088 W2       11363    TIP3     H1       HT       0.417000       1.00800           0
     34089 W2       11363    TIP3     H2       HT       0.417000       1.00800           0
     34090 W2       11364    TIP3     OH2      OT      -0.834000       15.9994           0
     34091 W2       11364    TIP3     H1       HT       0.417000       1.00800           0
     34092 W2       11364    TIP3     H2       HT       0.417000       1.00800           0
     34093 W2       11365    TIP3     OH2      OT      -0.834000       15.9994           0
     34094 W2       11365    TIP3     H1       HT       0.417000       1.00800           0
     34095 W2       11365    TIP3     H2       HT       0.417000       1.00800           0
     34096 W2       11366    TIP3     OH2      OT      -0.834000       15.9994           0
     34097 W2       11366    TIP3     H1       HT       0.417000       1.00800           0
     34098 W2       11366    TIP3     H2       HT       0.417000       1.00800           0
     34099 W2       11367    TIP3     OH2      OT      -0.834000       15.9994           0
     34100 W2       11367    TIP3     H1       HT       0.417000       1.00800           0
     34101 W2       11367    TIP3     H2       HT       0.417000       1.00800           0
     34102 W2       11368    TIP3     OH2      OT      -0.834000       15.9994           0
     34103 W2       11368    TIP3     H1       HT       0.417000       1.00800           0
     34104 W2       11368    TIP3     H2       HT       0.417000       1.00800           0
     34105 W2       11369    TIP3     OH2      OT      -0.834000       15.9994           0
     34106 W2       11369    TIP3     H1       HT       0.417000       1.00800           0
     34107 W2       11369    TIP3     H2       HT       0.417000       1.00800           0
     34108 W2       11370    TIP3     OH2      OT      -0.834000       15.9994           0
     34109 W2       11370    TIP3     H1       HT       0.417000       1.00800           0
     34110 W2       11370    TIP3     H2       HT       0.417000       1.00800           0
     34111 W2       11371    TIP3     OH2      OT      -0.834000       15.9994           0
     34112 W2       11371    TIP3     H1       HT       0.417000       1.00800           0
     34113 W2       11371    TIP3     H2       HT       0.417000       1.00800           0
     34114 W2       11372    TIP3     OH2      OT      -0.834000       15.9994           0
     34115 W2       11372    TIP3     H1       HT       0.417000       1.00800           0
     34116 W2       11372    TIP3     H2       HT       0.417000       1.00800           0
     34117 W2       11373    TIP3     OH2      OT      -0.834000       15.9994           0
     34118 W2       11373    TIP3     H1       HT       0.417000       1.00800           0
     34119 W2       11373    TIP3     H2       HT       0.417000       1.00800           0
     34120 W2       11374    TIP3     OH2      OT      -0.834000       15.9994           0
     34121 W2       11374    TIP3     H1       HT       0.417000       1.00800           0
     34122 W2       11374    TIP3     H2       HT       0.417000       1.00800           0
     34123 W2       11375    TIP3     OH2      OT      -0.834000       15.9994           0
     34124 W2       11375    TIP3     H1       HT       0.417000       1.00800           0
     34125 W2       11375    TIP3     H2       HT       0.417000       1.00800           0
     34126 W2       11376    TIP3     OH2      OT      -0.834000       15.9994           0
     34127 W2       11376    TIP3     H1       HT       0.417000       1.00800           0
     34128 W2       11376    TIP3     H2       HT       0.417000       1.00800           0
     34129 W2       11377    TIP3     OH2      OT      -0.834000       15.9994           0
     34130 W2       11377    TIP3     H1       HT       0.417000       1.00800           0
     34131 W2       11377    TIP3     H2       HT       0.417000       1.00800           0
     34132 W2       11378    TIP3     OH2      OT      -0.834000       15.9994           0
     34133 W2       11378    TIP3     H1       HT       0.417000       1.00800           0
     34134 W2       11378    TIP3     H2       HT       0.417000       1.00800           0
     34135 W2       11379    TIP3     OH2      OT      -0.834000       15.9994           0
     34136 W2       11379    TIP3     H1       HT       0.417000       1.00800           0
     34137 W2       11379    TIP3     H2       HT       0.417000       1.00800           0
     34138 W2       11380    TIP3     OH2      OT      -0.834000       15.9994           0
     34139 W2       11380    TIP3     H1       HT       0.417000       1.00800           0
     34140 W2       11380    TIP3     H2       HT       0.417000       1.00800           0
     34141 W2       11381    TIP3     OH2      OT      -0.834000       15.9994           0
     34142 W2       11381    TIP3     H1       HT       0.417000       1.00800           0
     34143 W2       11381    TIP3     H2       HT       0.417000       1.00800           0
     34144 W2       11382    TIP3     OH2      OT      -0.834000       15.9994           0
     34145 W2       11382    TIP3     H1       HT       0.417000       1.00800           0
     34146 W2       11382    TIP3     H2       HT       0.417000       1.00800           0
     34147 W2       11383    TIP3     OH2      OT      -0.834000       15.9994           0
     34148 W2       11383    TIP3     H1       HT       0.417000       1.00800           0
     34149 W2       11383    TIP3     H2       HT       0.417000       1.00800           0
     34150 W2       11384    TIP3     OH2      OT      -0.834000       15.9994           0
     34151 W2       11384    TIP3     H1       HT       0.417000       1.00800           0
     34152 W2       11384    TIP3     H2       HT       0.417000       1.00800           0
     34153 W2       11385    TIP3     OH2      OT      -0.834000       15.9994           0
     34154 W2       11385    TIP3     H1       HT       0.417000       1.00800           0
     34155 W2       11385    TIP3     H2       HT       0.417000       1.00800           0
     34156 W2       11386    TIP3     OH2      OT      -0.834000       15.9994           0
     34157 W2       11386    TIP3     H1       HT       0.417000       1.00800           0
     34158 W2       11386    TIP3     H2       HT       0.417000       1.00800           0
     34159 W2       11387    TIP3     OH2      OT      -0.834000       15.9994           0
     34160 W2       11387    TIP3     H1       HT       0.417000       1.00800           0
     34161 W2       11387    TIP3     H2       HT       0.417000       1.00800           0
     34162 W2       11388    TIP3     OH2      OT      -0.834000       15.9994           0
     34163 W2       11388    TIP3     H1       HT       0.417000       1.00800           0
     34164 W2       11388    TIP3     H2       HT       0.417000       1.00800           0
     34165 W2       11389    TIP3     OH2      OT      -0.834000       15.9994           0
     34166 W2       11389    TIP3     H1       HT       0.417000       1.00800           0
     34167 W2       11389    TIP3     H2       HT       0.417000       1.00800           0
     34168 W2       11390    TIP3     OH2      OT      -0.834000       15.9994           0
     34169 W2       11390    TIP3     H1       HT       0.417000       1.00800           0
     34170 W2       11390    TIP3     H2       HT       0.417000       1.00800           0
     34171 W2       11391    TIP3     OH2      OT      -0.834000       15.9994           0
     34172 W2       11391    TIP3     H1       HT       0.417000       1.00800           0
     34173 W2       11391    TIP3     H2       HT       0.417000       1.00800           0
     34174 W2       11392    TIP3     OH2      OT      -0.834000       15.9994           0
     34175 W2       11392    TIP3     H1       HT       0.417000       1.00800           0
     34176 W2       11392    TIP3     H2       HT       0.417000       1.00800           0
     34177 W2       11393    TIP3     OH2      OT      -0.834000       15.9994           0
     34178 W2       11393    TIP3     H1       HT       0.417000       1.00800           0
     34179 W2       11393    TIP3     H2       HT       0.417000       1.00800           0
     34180 W2       11394    TIP3     OH2      OT      -0.834000       15.9994           0
     34181 W2       11394    TIP3     H1       HT       0.417000       1.00800           0
     34182 W2       11394    TIP3     H2       HT       0.417000       1.00800           0
     34183 W2       11395    TIP3     OH2      OT      -0.834000       15.9994           0
     34184 W2       11395    TIP3     H1       HT       0.417000       1.00800           0
     34185 W2       11395    TIP3     H2       HT       0.417000       1.00800           0
     34186 W2       11396    TIP3     OH2      OT      -0.834000       15.9994           0
     34187 W2       11396    TIP3     H1       HT       0.417000       1.00800           0
     34188 W2       11396    TIP3     H2       HT       0.417000       1.00800           0
     34189 W2       11397    TIP3     OH2      OT      -0.834000       15.9994           0
     34190 W2       11397    TIP3     H1       HT       0.417000       1.00800           0
     34191 W2       11397    TIP3     H2       HT       0.417000       1.00800           0
     34192 W2       11398    TIP3     OH2      OT      -0.834000       15.9994           0
     34193 W2       11398    TIP3     H1       HT       0.417000       1.00800           0
     34194 W2       11398    TIP3     H2       HT       0.417000       1.00800           0
     34195 W2       11399    TIP3     OH2      OT      -0.834000       15.9994           0
     34196 W2       11399    TIP3     H1       HT       0.417000       1.00800           0
     34197 W2       11399    TIP3     H2       HT       0.417000       1.00800           0
     34198 W2       11400    TIP3     OH2      OT      -0.834000       15.9994           0
     34199 W2       11400    TIP3     H1       HT       0.417000       1.00800           0
     34200 W2       11400    TIP3     H2       HT       0.417000       1.00800           0
     34201 W2       11401    TIP3     OH2      OT      -0.834000       15.9994           0
     34202 W2       11401    TIP3     H1       HT       0.417000       1.00800           0
     34203 W2       11401    TIP3     H2       HT       0.417000       1.00800           0
     34204 W2       11402    TIP3     OH2      OT      -0.834000       15.9994           0
     34205 W2       11402    TIP3     H1       HT       0.417000       1.00800           0
     34206 W2       11402    TIP3     H2       HT       0.417000       1.00800           0
     34207 W2       11403    TIP3     OH2      OT      -0.834000       15.9994           0
     34208 W2       11403    TIP3     H1       HT       0.417000       1.00800           0
     34209 W2       11403    TIP3     H2       HT       0.417000       1.00800           0
     34210 W2       11404    TIP3     OH2      OT      -0.834000       15.9994           0
     34211 W2       11404    TIP3     H1       HT       0.417000       1.00800           0
     34212 W2       11404    TIP3     H2       HT       0.417000       1.00800           0
     34213 W2       11405    TIP3     OH2      OT      -0.834000       15.9994           0
     34214 W2       11405    TIP3     H1       HT       0.417000       1.00800           0
     34215 W2       11405    TIP3     H2       HT       0.417000       1.00800           0
     34216 W2       11406    TIP3     OH2      OT      -0.834000       15.9994           0
     34217 W2       11406    TIP3     H1       HT       0.417000       1.00800           0
     34218 W2       11406    TIP3     H2       HT       0.417000       1.00800           0
     34219 W2       11407    TIP3     OH2      OT      -0.834000       15.9994           0
     34220 W2       11407    TIP3     H1       HT       0.417000       1.00800           0
     34221 W2       11407    TIP3     H2       HT       0.417000       1.00800           0
     34222 W2       11408    TIP3     OH2      OT      -0.834000       15.9994           0
     34223 W2       11408    TIP3     H1       HT       0.417000       1.00800           0
     34224 W2       11408    TIP3     H2       HT       0.417000       1.00800           0
     34225 W2       11409    TIP3     OH2      OT      -0.834000       15.9994           0
     34226 W2       11409    TIP3     H1       HT       0.417000       1.00800           0
     34227 W2       11409    TIP3     H2       HT       0.417000       1.00800           0
     34228 W2       11410    TIP3     OH2      OT      -0.834000       15.9994           0
     34229 W2       11410    TIP3     H1       HT       0.417000       1.00800           0
     34230 W2       11410    TIP3     H2       HT       0.417000       1.00800           0
     34231 W2       11411    TIP3     OH2      OT      -0.834000       15.9994           0
     34232 W2       11411    TIP3     H1       HT       0.417000       1.00800           0
     34233 W2       11411    TIP3     H2       HT       0.417000       1.00800           0
     34234 W2       11412    TIP3     OH2      OT      -0.834000       15.9994           0
     34235 W2       11412    TIP3     H1       HT       0.417000       1.00800           0
     34236 W2       11412    TIP3     H2       HT       0.417000       1.00800           0
     34237 W2       11413    TIP3     OH2      OT      -0.834000       15.9994           0
     34238 W2       11413    TIP3     H1       HT       0.417000       1.00800           0
     34239 W2       11413    TIP3     H2       HT       0.417000       1.00800           0
     34240 W2       11414    TIP3     OH2      OT      -0.834000       15.9994           0
     34241 W2       11414    TIP3     H1       HT       0.417000       1.00800           0
     34242 W2       11414    TIP3     H2       HT       0.417000       1.00800           0
     34243 W2       11415    TIP3     OH2      OT      -0.834000       15.9994           0
     34244 W2       11415    TIP3     H1       HT       0.417000       1.00800           0
     34245 W2       11415    TIP3     H2       HT       0.417000       1.00800           0
     34246 W2       11416    TIP3     OH2      OT      -0.834000       15.9994           0
     34247 W2       11416    TIP3     H1       HT       0.417000       1.00800           0
     34248 W2       11416    TIP3     H2       HT       0.417000       1.00800           0
     34249 W2       11417    TIP3     OH2      OT      -0.834000       15.9994           0
     34250 W2       11417    TIP3     H1       HT       0.417000       1.00800           0
     34251 W2       11417    TIP3     H2       HT       0.417000       1.00800           0
     34252 W2       11418    TIP3     OH2      OT      -0.834000       15.9994           0
     34253 W2       11418    TIP3     H1       HT       0.417000       1.00800           0
     34254 W2       11418    TIP3     H2       HT       0.417000       1.00800           0
     34255 W2       11419    TIP3     OH2      OT      -0.834000       15.9994           0
     34256 W2       11419    TIP3     H1       HT       0.417000       1.00800           0
     34257 W2       11419    TIP3     H2       HT       0.417000       1.00800           0
     34258 W2       11420    TIP3     OH2      OT      -0.834000       15.9994           0
     34259 W2       11420    TIP3     H1       HT       0.417000       1.00800           0
     34260 W2       11420    TIP3     H2       HT       0.417000       1.00800           0
     34261 W2       11421    TIP3     OH2      OT      -0.834000       15.9994           0
     34262 W2       11421    TIP3     H1       HT       0.417000       1.00800           0
     34263 W2       11421    TIP3     H2       HT       0.417000       1.00800           0
     34264 W2       11422    TIP3     OH2      OT      -0.834000       15.9994           0
     34265 W2       11422    TIP3     H1       HT       0.417000       1.00800           0
     34266 W2       11422    TIP3     H2       HT       0.417000       1.00800           0
     34267 W2       11423    TIP3     OH2      OT      -0.834000       15.9994           0
     34268 W2       11423    TIP3     H1       HT       0.417000       1.00800           0
     34269 W2       11423    TIP3     H2       HT       0.417000       1.00800           0
     34270 W2       11424    TIP3     OH2      OT      -0.834000       15.9994           0
     34271 W2       11424    TIP3     H1       HT       0.417000       1.00800           0
     34272 W2       11424    TIP3     H2       HT       0.417000       1.00800           0
     34273 W2       11425    TIP3     OH2      OT      -0.834000       15.9994           0
     34274 W2       11425    TIP3     H1       HT       0.417000       1.00800           0
     34275 W2       11425    TIP3     H2       HT       0.417000       1.00800           0
     34276 W2       11426    TIP3     OH2      OT      -0.834000       15.9994           0
     34277 W2       11426    TIP3     H1       HT       0.417000       1.00800           0
     34278 W2       11426    TIP3     H2       HT       0.417000       1.00800           0
     34279 W2       11427    TIP3     OH2      OT      -0.834000       15.9994           0
     34280 W2       11427    TIP3     H1       HT       0.417000       1.00800           0
     34281 W2       11427    TIP3     H2       HT       0.417000       1.00800           0
     34282 W2       11428    TIP3     OH2      OT      -0.834000       15.9994           0
     34283 W2       11428    TIP3     H1       HT       0.417000       1.00800           0
     34284 W2       11428    TIP3     H2       HT       0.417000       1.00800           0
     34285 W2       11429    TIP3     OH2      OT      -0.834000       15.9994           0
     34286 W2       11429    TIP3     H1       HT       0.417000       1.00800           0
     34287 W2       11429    TIP3     H2       HT       0.417000       1.00800           0
     34288 W2       11430    TIP3     OH2      OT      -0.834000       15.9994           0
     34289 W2       11430    TIP3     H1       HT       0.417000       1.00800           0
     34290 W2       11430    TIP3     H2       HT       0.417000       1.00800           0
     34291 W2       11431    TIP3     OH2      OT      -0.834000       15.9994           0
     34292 W2       11431    TIP3     H1       HT       0.417000       1.00800           0
     34293 W2       11431    TIP3     H2       HT       0.417000       1.00800           0
     34294 W2       11432    TIP3     OH2      OT      -0.834000       15.9994           0
     34295 W2       11432    TIP3     H1       HT       0.417000       1.00800           0
     34296 W2       11432    TIP3     H2       HT       0.417000       1.00800           0
     34297 W2       11433    TIP3     OH2      OT      -0.834000       15.9994           0
     34298 W2       11433    TIP3     H1       HT       0.417000       1.00800           0
     34299 W2       11433    TIP3     H2       HT       0.417000       1.00800           0
     34300 W2       11434    TIP3     OH2      OT      -0.834000       15.9994           0
     34301 W2       11434    TIP3     H1       HT       0.417000       1.00800           0
     34302 W2       11434    TIP3     H2       HT       0.417000       1.00800           0
     34303 W2       11435    TIP3     OH2      OT      -0.834000       15.9994           0
     34304 W2       11435    TIP3     H1       HT       0.417000       1.00800           0
     34305 W2       11435    TIP3     H2       HT       0.417000       1.00800           0
     34306 W2       11436    TIP3     OH2      OT      -0.834000       15.9994           0
     34307 W2       11436    TIP3     H1       HT       0.417000       1.00800           0
     34308 W2       11436    TIP3     H2       HT       0.417000       1.00800           0
     34309 W2       11437    TIP3     OH2      OT      -0.834000       15.9994           0
     34310 W2       11437    TIP3     H1       HT       0.417000       1.00800           0
     34311 W2       11437    TIP3     H2       HT       0.417000       1.00800           0
     34312 W2       11438    TIP3     OH2      OT      -0.834000       15.9994           0
     34313 W2       11438    TIP3     H1       HT       0.417000       1.00800           0
     34314 W2       11438    TIP3     H2       HT       0.417000       1.00800           0
     34315 W2       11439    TIP3     OH2      OT      -0.834000       15.9994           0
     34316 W2       11439    TIP3     H1       HT       0.417000       1.00800           0
     34317 W2       11439    TIP3     H2       HT       0.417000       1.00800           0
     34318 W2       11440    TIP3     OH2      OT      -0.834000       15.9994           0
     34319 W2       11440    TIP3     H1       HT       0.417000       1.00800           0
     34320 W2       11440    TIP3     H2       HT       0.417000       1.00800           0
     34321 W2       11441    TIP3     OH2      OT      -0.834000       15.9994           0
     34322 W2       11441    TIP3     H1       HT       0.417000       1.00800           0
     34323 W2       11441    TIP3     H2       HT       0.417000       1.00800           0
     34324 W2       11442    TIP3     OH2      OT      -0.834000       15.9994           0
     34325 W2       11442    TIP3     H1       HT       0.417000       1.00800           0
     34326 W2       11442    TIP3     H2       HT       0.417000       1.00800           0
     34327 W2       11443    TIP3     OH2      OT      -0.834000       15.9994           0
     34328 W2       11443    TIP3     H1       HT       0.417000       1.00800           0
     34329 W2       11443    TIP3     H2       HT       0.417000       1.00800           0
     34330 W2       11444    TIP3     OH2      OT      -0.834000       15.9994           0
     34331 W2       11444    TIP3     H1       HT       0.417000       1.00800           0
     34332 W2       11444    TIP3     H2       HT       0.417000       1.00800           0
     34333 W2       11445    TIP3     OH2      OT      -0.834000       15.9994           0
     34334 W2       11445    TIP3     H1       HT       0.417000       1.00800           0
     34335 W2       11445    TIP3     H2       HT       0.417000       1.00800           0
     34336 W2       11446    TIP3     OH2      OT      -0.834000       15.9994           0
     34337 W2       11446    TIP3     H1       HT       0.417000       1.00800           0
     34338 W2       11446    TIP3     H2       HT       0.417000       1.00800           0
     34339 W2       11447    TIP3     OH2      OT      -0.834000       15.9994           0
     34340 W2       11447    TIP3     H1       HT       0.417000       1.00800           0
     34341 W2       11447    TIP3     H2       HT       0.417000       1.00800           0
     34342 W2       11448    TIP3     OH2      OT      -0.834000       15.9994           0
     34343 W2       11448    TIP3     H1       HT       0.417000       1.00800           0
     34344 W2       11448    TIP3     H2       HT       0.417000       1.00800           0
     34345 W2       11449    TIP3     OH2      OT      -0.834000       15.9994           0
     34346 W2       11449    TIP3     H1       HT       0.417000       1.00800           0
     34347 W2       11449    TIP3     H2       HT       0.417000       1.00800           0
     34348 W2       11450    TIP3     OH2      OT      -0.834000       15.9994           0
     34349 W2       11450    TIP3     H1       HT       0.417000       1.00800           0
     34350 W2       11450    TIP3     H2       HT       0.417000       1.00800           0
     34351 W2       11451    TIP3     OH2      OT      -0.834000       15.9994           0
     34352 W2       11451    TIP3     H1       HT       0.417000       1.00800           0
     34353 W2       11451    TIP3     H2       HT       0.417000       1.00800           0
     34354 W2       11452    TIP3     OH2      OT      -0.834000       15.9994           0
     34355 W2       11452    TIP3     H1       HT       0.417000       1.00800           0
     34356 W2       11452    TIP3     H2       HT       0.417000       1.00800           0
     34357 W2       11453    TIP3     OH2      OT      -0.834000       15.9994           0
     34358 W2       11453    TIP3     H1       HT       0.417000       1.00800           0
     34359 W2       11453    TIP3     H2       HT       0.417000       1.00800           0
     34360 W2       11454    TIP3     OH2      OT      -0.834000       15.9994           0
     34361 W2       11454    TIP3     H1       HT       0.417000       1.00800           0
     34362 W2       11454    TIP3     H2       HT       0.417000       1.00800           0
     34363 W2       11455    TIP3     OH2      OT      -0.834000       15.9994           0
     34364 W2       11455    TIP3     H1       HT       0.417000       1.00800           0
     34365 W2       11455    TIP3     H2       HT       0.417000       1.00800           0
     34366 W2       11456    TIP3     OH2      OT      -0.834000       15.9994           0
     34367 W2       11456    TIP3     H1       HT       0.417000       1.00800           0
     34368 W2       11456    TIP3     H2       HT       0.417000       1.00800           0
     34369 W2       11457    TIP3     OH2      OT      -0.834000       15.9994           0
     34370 W2       11457    TIP3     H1       HT       0.417000       1.00800           0
     34371 W2       11457    TIP3     H2       HT       0.417000       1.00800           0
     34372 W2       11458    TIP3     OH2      OT      -0.834000       15.9994           0
     34373 W2       11458    TIP3     H1       HT       0.417000       1.00800           0
     34374 W2       11458    TIP3     H2       HT       0.417000       1.00800           0
     34375 W2       11459    TIP3     OH2      OT      -0.834000       15.9994           0
     34376 W2       11459    TIP3     H1       HT       0.417000       1.00800           0
     34377 W2       11459    TIP3     H2       HT       0.417000       1.00800           0
     34378 W2       11460    TIP3     OH2      OT      -0.834000       15.9994           0
     34379 W2       11460    TIP3     H1       HT       0.417000       1.00800           0
     34380 W2       11460    TIP3     H2       HT       0.417000       1.00800           0
     34381 W2       11461    TIP3     OH2      OT      -0.834000       15.9994           0
     34382 W2       11461    TIP3     H1       HT       0.417000       1.00800           0
     34383 W2       11461    TIP3     H2       HT       0.417000       1.00800           0
     34384 W2       11462    TIP3     OH2      OT      -0.834000       15.9994           0
     34385 W2       11462    TIP3     H1       HT       0.417000       1.00800           0
     34386 W2       11462    TIP3     H2       HT       0.417000       1.00800           0
     34387 W2       11463    TIP3     OH2      OT      -0.834000       15.9994           0
     34388 W2       11463    TIP3     H1       HT       0.417000       1.00800           0
     34389 W2       11463    TIP3     H2       HT       0.417000       1.00800           0
     34390 W2       11464    TIP3     OH2      OT      -0.834000       15.9994           0
     34391 W2       11464    TIP3     H1       HT       0.417000       1.00800           0
     34392 W2       11464    TIP3     H2       HT       0.417000       1.00800           0
     34393 W2       11465    TIP3     OH2      OT      -0.834000       15.9994           0
     34394 W2       11465    TIP3     H1       HT       0.417000       1.00800           0
     34395 W2       11465    TIP3     H2       HT       0.417000       1.00800           0
     34396 W2       11466    TIP3     OH2      OT      -0.834000       15.9994           0
     34397 W2       11466    TIP3     H1       HT       0.417000       1.00800           0
     34398 W2       11466    TIP3     H2       HT       0.417000       1.00800           0
     34399 W2       11467    TIP3     OH2      OT      -0.834000       15.9994           0
     34400 W2       11467    TIP3     H1       HT       0.417000       1.00800           0
     34401 W2       11467    TIP3     H2       HT       0.417000       1.00800           0
     34402 W2       11468    TIP3     OH2      OT      -0.834000       15.9994           0
     34403 W2       11468    TIP3     H1       HT       0.417000       1.00800           0
     34404 W2       11468    TIP3     H2       HT       0.417000       1.00800           0
     34405 W2       11469    TIP3     OH2      OT      -0.834000       15.9994           0
     34406 W2       11469    TIP3     H1       HT       0.417000       1.00800           0
     34407 W2       11469    TIP3     H2       HT       0.417000       1.00800           0
     34408 W2       11470    TIP3     OH2      OT      -0.834000       15.9994           0
     34409 W2       11470    TIP3     H1       HT       0.417000       1.00800           0
     34410 W2       11470    TIP3     H2       HT       0.417000       1.00800           0
     34411 W2       11471    TIP3     OH2      OT      -0.834000       15.9994           0
     34412 W2       11471    TIP3     H1       HT       0.417000       1.00800           0
     34413 W2       11471    TIP3     H2       HT       0.417000       1.00800           0
     34414 W2       11472    TIP3     OH2      OT      -0.834000       15.9994           0
     34415 W2       11472    TIP3     H1       HT       0.417000       1.00800           0
     34416 W2       11472    TIP3     H2       HT       0.417000       1.00800           0
     34417 W2       11473    TIP3     OH2      OT      -0.834000       15.9994           0
     34418 W2       11473    TIP3     H1       HT       0.417000       1.00800           0
     34419 W2       11473    TIP3     H2       HT       0.417000       1.00800           0
     34420 W2       11474    TIP3     OH2      OT      -0.834000       15.9994           0
     34421 W2       11474    TIP3     H1       HT       0.417000       1.00800           0
     34422 W2       11474    TIP3     H2       HT       0.417000       1.00800           0
     34423 W2       11475    TIP3     OH2      OT      -0.834000       15.9994           0
     34424 W2       11475    TIP3     H1       HT       0.417000       1.00800           0
     34425 W2       11475    TIP3     H2       HT       0.417000       1.00800           0
     34426 W2       11476    TIP3     OH2      OT      -0.834000       15.9994           0
     34427 W2       11476    TIP3     H1       HT       0.417000       1.00800           0
     34428 W2       11476    TIP3     H2       HT       0.417000       1.00800           0
     34429 W2       11477    TIP3     OH2      OT      -0.834000       15.9994           0
     34430 W2       11477    TIP3     H1       HT       0.417000       1.00800           0
     34431 W2       11477    TIP3     H2       HT       0.417000       1.00800           0
     34432 W2       11478    TIP3     OH2      OT      -0.834000       15.9994           0
     34433 W2       11478    TIP3     H1       HT       0.417000       1.00800           0
     34434 W2       11478    TIP3     H2       HT       0.417000       1.00800           0
     34435 W2       11479    TIP3     OH2      OT      -0.834000       15.9994           0
     34436 W2       11479    TIP3     H1       HT       0.417000       1.00800           0
     34437 W2       11479    TIP3     H2       HT       0.417000       1.00800           0
     34438 W2       11480    TIP3     OH2      OT      -0.834000       15.9994           0
     34439 W2       11480    TIP3     H1       HT       0.417000       1.00800           0
     34440 W2       11480    TIP3     H2       HT       0.417000       1.00800           0
     34441 W2       11481    TIP3     OH2      OT      -0.834000       15.9994           0
     34442 W2       11481    TIP3     H1       HT       0.417000       1.00800           0
     34443 W2       11481    TIP3     H2       HT       0.417000       1.00800           0
     34444 W2       11482    TIP3     OH2      OT      -0.834000       15.9994           0
     34445 W2       11482    TIP3     H1       HT       0.417000       1.00800           0
     34446 W2       11482    TIP3     H2       HT       0.417000       1.00800           0
     34447 W2       11483    TIP3     OH2      OT      -0.834000       15.9994           0
     34448 W2       11483    TIP3     H1       HT       0.417000       1.00800           0
     34449 W2       11483    TIP3     H2       HT       0.417000       1.00800           0
     34450 W2       11484    TIP3     OH2      OT      -0.834000       15.9994           0
     34451 W2       11484    TIP3     H1       HT       0.417000       1.00800           0
     34452 W2       11484    TIP3     H2       HT       0.417000       1.00800           0
     34453 W2       11485    TIP3     OH2      OT      -0.834000       15.9994           0
     34454 W2       11485    TIP3     H1       HT       0.417000       1.00800           0
     34455 W2       11485    TIP3     H2       HT       0.417000       1.00800           0
     34456 W2       11486    TIP3     OH2      OT      -0.834000       15.9994           0
     34457 W2       11486    TIP3     H1       HT       0.417000       1.00800           0
     34458 W2       11486    TIP3     H2       HT       0.417000       1.00800           0
     34459 W2       11487    TIP3     OH2      OT      -0.834000       15.9994           0
     34460 W2       11487    TIP3     H1       HT       0.417000       1.00800           0
     34461 W2       11487    TIP3     H2       HT       0.417000       1.00800           0
     34462 W2       11488    TIP3     OH2      OT      -0.834000       15.9994           0
     34463 W2       11488    TIP3     H1       HT       0.417000       1.00800           0
     34464 W2       11488    TIP3     H2       HT       0.417000       1.00800           0
     34465 W2       11489    TIP3     OH2      OT      -0.834000       15.9994           0
     34466 W2       11489    TIP3     H1       HT       0.417000       1.00800           0
     34467 W2       11489    TIP3     H2       HT       0.417000       1.00800           0
     34468 W2       11490    TIP3     OH2      OT      -0.834000       15.9994           0
     34469 W2       11490    TIP3     H1       HT       0.417000       1.00800           0
     34470 W2       11490    TIP3     H2       HT       0.417000       1.00800           0
     34471 W2       11491    TIP3     OH2      OT      -0.834000       15.9994           0
     34472 W2       11491    TIP3     H1       HT       0.417000       1.00800           0
     34473 W2       11491    TIP3     H2       HT       0.417000       1.00800           0
     34474 W2       11492    TIP3     OH2      OT      -0.834000       15.9994           0
     34475 W2       11492    TIP3     H1       HT       0.417000       1.00800           0
     34476 W2       11492    TIP3     H2       HT       0.417000       1.00800           0
     34477 W2       11493    TIP3     OH2      OT      -0.834000       15.9994           0
     34478 W2       11493    TIP3     H1       HT       0.417000       1.00800           0
     34479 W2       11493    TIP3     H2       HT       0.417000       1.00800           0
     34480 W2       11494    TIP3     OH2      OT      -0.834000       15.9994           0
     34481 W2       11494    TIP3     H1       HT       0.417000       1.00800           0
     34482 W2       11494    TIP3     H2       HT       0.417000       1.00800           0
     34483 W2       11495    TIP3     OH2      OT      -0.834000       15.9994           0
     34484 W2       11495    TIP3     H1       HT       0.417000       1.00800           0
     34485 W2       11495    TIP3     H2       HT       0.417000       1.00800           0
     34486 W2       11496    TIP3     OH2      OT      -0.834000       15.9994           0
     34487 W2       11496    TIP3     H1       HT       0.417000       1.00800           0
     34488 W2       11496    TIP3     H2       HT       0.417000       1.00800           0
     34489 W2       11497    TIP3     OH2      OT      -0.834000       15.9994           0
     34490 W2       11497    TIP3     H1       HT       0.417000       1.00800           0
     34491 W2       11497    TIP3     H2       HT       0.417000       1.00800           0
     34492 W2       11498    TIP3     OH2      OT      -0.834000       15.9994           0
     34493 W2       11498    TIP3     H1       HT       0.417000       1.00800           0
     34494 W2       11498    TIP3     H2       HT       0.417000       1.00800           0
     34495 W2       11499    TIP3     OH2      OT      -0.834000       15.9994           0
     34496 W2       11499    TIP3     H1       HT       0.417000       1.00800           0
     34497 W2       11499    TIP3     H2       HT       0.417000       1.00800           0
     34498 W2       11500    TIP3     OH2      OT      -0.834000       15.9994           0
     34499 W2       11500    TIP3     H1       HT       0.417000       1.00800           0
     34500 W2       11500    TIP3     H2       HT       0.417000       1.00800           0
     34501 W2       11501    TIP3     OH2      OT      -0.834000       15.9994           0
     34502 W2       11501    TIP3     H1       HT       0.417000       1.00800           0
     34503 W2       11501    TIP3     H2       HT       0.417000       1.00800           0
     34504 W2       11502    TIP3     OH2      OT      -0.834000       15.9994           0
     34505 W2       11502    TIP3     H1       HT       0.417000       1.00800           0
     34506 W2       11502    TIP3     H2       HT       0.417000       1.00800           0
     34507 W2       11503    TIP3     OH2      OT      -0.834000       15.9994           0
     34508 W2       11503    TIP3     H1       HT       0.417000       1.00800           0
     34509 W2       11503    TIP3     H2       HT       0.417000       1.00800           0
     34510 W2       11504    TIP3     OH2      OT      -0.834000       15.9994           0
     34511 W2       11504    TIP3     H1       HT       0.417000       1.00800           0
     34512 W2       11504    TIP3     H2       HT       0.417000       1.00800           0
     34513 W2       11505    TIP3     OH2      OT      -0.834000       15.9994           0
     34514 W2       11505    TIP3     H1       HT       0.417000       1.00800           0
     34515 W2       11505    TIP3     H2       HT       0.417000       1.00800           0
     34516 W2       11506    TIP3     OH2      OT      -0.834000       15.9994           0
     34517 W2       11506    TIP3     H1       HT       0.417000       1.00800           0
     34518 W2       11506    TIP3     H2       HT       0.417000       1.00800           0
     34519 W2       11507    TIP3     OH2      OT      -0.834000       15.9994           0
     34520 W2       11507    TIP3     H1       HT       0.417000       1.00800           0
     34521 W2       11507    TIP3     H2       HT       0.417000       1.00800           0
     34522 W2       11508    TIP3     OH2      OT      -0.834000       15.9994           0
     34523 W2       11508    TIP3     H1       HT       0.417000       1.00800           0
     34524 W2       11508    TIP3     H2       HT       0.417000       1.00800           0
     34525 W2       11509    TIP3     OH2      OT      -0.834000       15.9994           0
     34526 W2       11509    TIP3     H1       HT       0.417000       1.00800           0
     34527 W2       11509    TIP3     H2       HT       0.417000       1.00800           0
     34528 W2       11510    TIP3     OH2      OT      -0.834000       15.9994           0
     34529 W2       11510    TIP3     H1       HT       0.417000       1.00800           0
     34530 W2       11510    TIP3     H2       HT       0.417000       1.00800           0
     34531 W2       11511    TIP3     OH2      OT      -0.834000       15.9994           0
     34532 W2       11511    TIP3     H1       HT       0.417000       1.00800           0
     34533 W2       11511    TIP3     H2       HT       0.417000       1.00800           0
     34534 W2       11512    TIP3     OH2      OT      -0.834000       15.9994           0
     34535 W2       11512    TIP3     H1       HT       0.417000       1.00800           0
     34536 W2       11512    TIP3     H2       HT       0.417000       1.00800           0
     34537 W2       11513    TIP3     OH2      OT      -0.834000       15.9994           0
     34538 W2       11513    TIP3     H1       HT       0.417000       1.00800           0
     34539 W2       11513    TIP3     H2       HT       0.417000       1.00800           0
     34540 W2       11514    TIP3     OH2      OT      -0.834000       15.9994           0
     34541 W2       11514    TIP3     H1       HT       0.417000       1.00800           0
     34542 W2       11514    TIP3     H2       HT       0.417000       1.00800           0
     34543 W2       11515    TIP3     OH2      OT      -0.834000       15.9994           0
     34544 W2       11515    TIP3     H1       HT       0.417000       1.00800           0
     34545 W2       11515    TIP3     H2       HT       0.417000       1.00800           0
     34546 W2       11516    TIP3     OH2      OT      -0.834000       15.9994           0
     34547 W2       11516    TIP3     H1       HT       0.417000       1.00800           0
     34548 W2       11516    TIP3     H2       HT       0.417000       1.00800           0
     34549 W2       11517    TIP3     OH2      OT      -0.834000       15.9994           0
     34550 W2       11517    TIP3     H1       HT       0.417000       1.00800           0
     34551 W2       11517    TIP3     H2       HT       0.417000       1.00800           0
     34552 W2       11518    TIP3     OH2      OT      -0.834000       15.9994           0
     34553 W2       11518    TIP3     H1       HT       0.417000       1.00800           0
     34554 W2       11518    TIP3     H2       HT       0.417000       1.00800           0
     34555 W2       11519    TIP3     OH2      OT      -0.834000       15.9994           0
     34556 W2       11519    TIP3     H1       HT       0.417000       1.00800           0
     34557 W2       11519    TIP3     H2       HT       0.417000       1.00800           0
     34558 W2       11520    TIP3     OH2      OT      -0.834000       15.9994           0
     34559 W2       11520    TIP3     H1       HT       0.417000       1.00800           0
     34560 W2       11520    TIP3     H2       HT       0.417000       1.00800           0
     34561 W2       11521    TIP3     OH2      OT      -0.834000       15.9994           0
     34562 W2       11521    TIP3     H1       HT       0.417000       1.00800           0
     34563 W2       11521    TIP3     H2       HT       0.417000       1.00800           0
     34564 W2       11522    TIP3     OH2      OT      -0.834000       15.9994           0
     34565 W2       11522    TIP3     H1       HT       0.417000       1.00800           0
     34566 W2       11522    TIP3     H2       HT       0.417000       1.00800           0
     34567 W2       11523    TIP3     OH2      OT      -0.834000       15.9994           0
     34568 W2       11523    TIP3     H1       HT       0.417000       1.00800           0
     34569 W2       11523    TIP3     H2       HT       0.417000       1.00800           0
     34570 W2       11524    TIP3     OH2      OT      -0.834000       15.9994           0
     34571 W2       11524    TIP3     H1       HT       0.417000       1.00800           0
     34572 W2       11524    TIP3     H2       HT       0.417000       1.00800           0
     34573 W2       11525    TIP3     OH2      OT      -0.834000       15.9994           0
     34574 W2       11525    TIP3     H1       HT       0.417000       1.00800           0
     34575 W2       11525    TIP3     H2       HT       0.417000       1.00800           0
     34576 W2       11526    TIP3     OH2      OT      -0.834000       15.9994           0
     34577 W2       11526    TIP3     H1       HT       0.417000       1.00800           0
     34578 W2       11526    TIP3     H2       HT       0.417000       1.00800           0
     34579 W2       11527    TIP3     OH2      OT      -0.834000       15.9994           0
     34580 W2       11527    TIP3     H1       HT       0.417000       1.00800           0
     34581 W2       11527    TIP3     H2       HT       0.417000       1.00800           0
     34582 W2       11528    TIP3     OH2      OT      -0.834000       15.9994           0
     34583 W2       11528    TIP3     H1       HT       0.417000       1.00800           0
     34584 W2       11528    TIP3     H2       HT       0.417000       1.00800           0
     34585 W2       11529    TIP3     OH2      OT      -0.834000       15.9994           0
     34586 W2       11529    TIP3     H1       HT       0.417000       1.00800           0
     34587 W2       11529    TIP3     H2       HT       0.417000       1.00800           0
     34588 W2       11530    TIP3     OH2      OT      -0.834000       15.9994           0
     34589 W2       11530    TIP3     H1       HT       0.417000       1.00800           0
     34590 W2       11530    TIP3     H2       HT       0.417000       1.00800           0
     34591 W2       11531    TIP3     OH2      OT      -0.834000       15.9994           0
     34592 W2       11531    TIP3     H1       HT       0.417000       1.00800           0
     34593 W2       11531    TIP3     H2       HT       0.417000       1.00800           0
     34594 W2       11532    TIP3     OH2      OT      -0.834000       15.9994           0
     34595 W2       11532    TIP3     H1       HT       0.417000       1.00800           0
     34596 W2       11532    TIP3     H2       HT       0.417000       1.00800           0
     34597 W2       11533    TIP3     OH2      OT      -0.834000       15.9994           0
     34598 W2       11533    TIP3     H1       HT       0.417000       1.00800           0
     34599 W2       11533    TIP3     H2       HT       0.417000       1.00800           0
     34600 W2       11534    TIP3     OH2      OT      -0.834000       15.9994           0
     34601 W2       11534    TIP3     H1       HT       0.417000       1.00800           0
     34602 W2       11534    TIP3     H2       HT       0.417000       1.00800           0
     34603 W2       11535    TIP3     OH2      OT      -0.834000       15.9994           0
     34604 W2       11535    TIP3     H1       HT       0.417000       1.00800           0
     34605 W2       11535    TIP3     H2       HT       0.417000       1.00800           0
     34606 W2       11536    TIP3     OH2      OT      -0.834000       15.9994           0
     34607 W2       11536    TIP3     H1       HT       0.417000       1.00800           0
     34608 W2       11536    TIP3     H2       HT       0.417000       1.00800           0
     34609 W2       11537    TIP3     OH2      OT      -0.834000       15.9994           0
     34610 W2       11537    TIP3     H1       HT       0.417000       1.00800           0
     34611 W2       11537    TIP3     H2       HT       0.417000       1.00800           0
     34612 W2       11538    TIP3     OH2      OT      -0.834000       15.9994           0
     34613 W2       11538    TIP3     H1       HT       0.417000       1.00800           0
     34614 W2       11538    TIP3     H2       HT       0.417000       1.00800           0
     34615 W2       11539    TIP3     OH2      OT      -0.834000       15.9994           0
     34616 W2       11539    TIP3     H1       HT       0.417000       1.00800           0
     34617 W2       11539    TIP3     H2       HT       0.417000       1.00800           0
     34618 W2       11540    TIP3     OH2      OT      -0.834000       15.9994           0
     34619 W2       11540    TIP3     H1       HT       0.417000       1.00800           0
     34620 W2       11540    TIP3     H2       HT       0.417000       1.00800           0
     34621 W2       11541    TIP3     OH2      OT      -0.834000       15.9994           0
     34622 W2       11541    TIP3     H1       HT       0.417000       1.00800           0
     34623 W2       11541    TIP3     H2       HT       0.417000       1.00800           0
     34624 W2       11542    TIP3     OH2      OT      -0.834000       15.9994           0
     34625 W2       11542    TIP3     H1       HT       0.417000       1.00800           0
     34626 W2       11542    TIP3     H2       HT       0.417000       1.00800           0
     34627 W2       11543    TIP3     OH2      OT      -0.834000       15.9994           0
     34628 W2       11543    TIP3     H1       HT       0.417000       1.00800           0
     34629 W2       11543    TIP3     H2       HT       0.417000       1.00800           0
     34630 W2       11544    TIP3     OH2      OT      -0.834000       15.9994           0
     34631 W2       11544    TIP3     H1       HT       0.417000       1.00800           0
     34632 W2       11544    TIP3     H2       HT       0.417000       1.00800           0
     34633 W2       11545    TIP3     OH2      OT      -0.834000       15.9994           0
     34634 W2       11545    TIP3     H1       HT       0.417000       1.00800           0
     34635 W2       11545    TIP3     H2       HT       0.417000       1.00800           0
     34636 W2       11546    TIP3     OH2      OT      -0.834000       15.9994           0
     34637 W2       11546    TIP3     H1       HT       0.417000       1.00800           0
     34638 W2       11546    TIP3     H2       HT       0.417000       1.00800           0
     34639 W2       11547    TIP3     OH2      OT      -0.834000       15.9994           0
     34640 W2       11547    TIP3     H1       HT       0.417000       1.00800           0
     34641 W2       11547    TIP3     H2       HT       0.417000       1.00800           0
     34642 W2       11548    TIP3     OH2      OT      -0.834000       15.9994           0
     34643 W2       11548    TIP3     H1       HT       0.417000       1.00800           0
     34644 W2       11548    TIP3     H2       HT       0.417000       1.00800           0
     34645 W2       11549    TIP3     OH2      OT      -0.834000       15.9994           0
     34646 W2       11549    TIP3     H1       HT       0.417000       1.00800           0
     34647 W2       11549    TIP3     H2       HT       0.417000       1.00800           0
     34648 W2       11550    TIP3     OH2      OT      -0.834000       15.9994           0
     34649 W2       11550    TIP3     H1       HT       0.417000       1.00800           0
     34650 W2       11550    TIP3     H2       HT       0.417000       1.00800           0
     34651 W2       11551    TIP3     OH2      OT      -0.834000       15.9994           0
     34652 W2       11551    TIP3     H1       HT       0.417000       1.00800           0
     34653 W2       11551    TIP3     H2       HT       0.417000       1.00800           0
     34654 W2       11552    TIP3     OH2      OT      -0.834000       15.9994           0
     34655 W2       11552    TIP3     H1       HT       0.417000       1.00800           0
     34656 W2       11552    TIP3     H2       HT       0.417000       1.00800           0
     34657 W2       11553    TIP3     OH2      OT      -0.834000       15.9994           0
     34658 W2       11553    TIP3     H1       HT       0.417000       1.00800           0
     34659 W2       11553    TIP3     H2       HT       0.417000       1.00800           0
     34660 W2       11554    TIP3     OH2      OT      -0.834000       15.9994           0
     34661 W2       11554    TIP3     H1       HT       0.417000       1.00800           0
     34662 W2       11554    TIP3     H2       HT       0.417000       1.00800           0
     34663 W2       11555    TIP3     OH2      OT      -0.834000       15.9994           0
     34664 W2       11555    TIP3     H1       HT       0.417000       1.00800           0
     34665 W2       11555    TIP3     H2       HT       0.417000       1.00800           0
     34666 W2       11556    TIP3     OH2      OT      -0.834000       15.9994           0
     34667 W2       11556    TIP3     H1       HT       0.417000       1.00800           0
     34668 W2       11556    TIP3     H2       HT       0.417000       1.00800           0
     34669 W2       11557    TIP3     OH2      OT      -0.834000       15.9994           0
     34670 W2       11557    TIP3     H1       HT       0.417000       1.00800           0
     34671 W2       11557    TIP3     H2       HT       0.417000       1.00800           0
     34672 W2       11558    TIP3     OH2      OT      -0.834000       15.9994           0
     34673 W2       11558    TIP3     H1       HT       0.417000       1.00800           0
     34674 W2       11558    TIP3     H2       HT       0.417000       1.00800           0
     34675 W2       11559    TIP3     OH2      OT      -0.834000       15.9994           0
     34676 W2       11559    TIP3     H1       HT       0.417000       1.00800           0
     34677 W2       11559    TIP3     H2       HT       0.417000       1.00800           0
     34678 W2       11560    TIP3     OH2      OT      -0.834000       15.9994           0
     34679 W2       11560    TIP3     H1       HT       0.417000       1.00800           0
     34680 W2       11560    TIP3     H2       HT       0.417000       1.00800           0
     34681 W2       11561    TIP3     OH2      OT      -0.834000       15.9994           0
     34682 W2       11561    TIP3     H1       HT       0.417000       1.00800           0
     34683 W2       11561    TIP3     H2       HT       0.417000       1.00800           0
     34684 W2       11562    TIP3     OH2      OT      -0.834000       15.9994           0
     34685 W2       11562    TIP3     H1       HT       0.417000       1.00800           0
     34686 W2       11562    TIP3     H2       HT       0.417000       1.00800           0
     34687 W2       11563    TIP3     OH2      OT      -0.834000       15.9994           0
     34688 W2       11563    TIP3     H1       HT       0.417000       1.00800           0
     34689 W2       11563    TIP3     H2       HT       0.417000       1.00800           0
     34690 W2       11564    TIP3     OH2      OT      -0.834000       15.9994           0
     34691 W2       11564    TIP3     H1       HT       0.417000       1.00800           0
     34692 W2       11564    TIP3     H2       HT       0.417000       1.00800           0
     34693 W2       11565    TIP3     OH2      OT      -0.834000       15.9994           0
     34694 W2       11565    TIP3     H1       HT       0.417000       1.00800           0
     34695 W2       11565    TIP3     H2       HT       0.417000       1.00800           0
     34696 W2       11566    TIP3     OH2      OT      -0.834000       15.9994           0
     34697 W2       11566    TIP3     H1       HT       0.417000       1.00800           0
     34698 W2       11566    TIP3     H2       HT       0.417000       1.00800           0
     34699 W2       11567    TIP3     OH2      OT      -0.834000       15.9994           0
     34700 W2       11567    TIP3     H1       HT       0.417000       1.00800           0
     34701 W2       11567    TIP3     H2       HT       0.417000       1.00800           0
     34702 W2       11568    TIP3     OH2      OT      -0.834000       15.9994           0
     34703 W2       11568    TIP3     H1       HT       0.417000       1.00800           0
     34704 W2       11568    TIP3     H2       HT       0.417000       1.00800           0
     34705 W2       11569    TIP3     OH2      OT      -0.834000       15.9994           0
     34706 W2       11569    TIP3     H1       HT       0.417000       1.00800           0
     34707 W2       11569    TIP3     H2       HT       0.417000       1.00800           0
     34708 W2       11570    TIP3     OH2      OT      -0.834000       15.9994           0
     34709 W2       11570    TIP3     H1       HT       0.417000       1.00800           0
     34710 W2       11570    TIP3     H2       HT       0.417000       1.00800           0
     34711 W2       11571    TIP3     OH2      OT      -0.834000       15.9994           0
     34712 W2       11571    TIP3     H1       HT       0.417000       1.00800           0
     34713 W2       11571    TIP3     H2       HT       0.417000       1.00800           0
     34714 W2       11572    TIP3     OH2      OT      -0.834000       15.9994           0
     34715 W2       11572    TIP3     H1       HT       0.417000       1.00800           0
     34716 W2       11572    TIP3     H2       HT       0.417000       1.00800           0
     34717 W2       11573    TIP3     OH2      OT      -0.834000       15.9994           0
     34718 W2       11573    TIP3     H1       HT       0.417000       1.00800           0
     34719 W2       11573    TIP3     H2       HT       0.417000       1.00800           0
     34720 W2       11574    TIP3     OH2      OT      -0.834000       15.9994           0
     34721 W2       11574    TIP3     H1       HT       0.417000       1.00800           0
     34722 W2       11574    TIP3     H2       HT       0.417000       1.00800           0
     34723 W2       11575    TIP3     OH2      OT      -0.834000       15.9994           0
     34724 W2       11575    TIP3     H1       HT       0.417000       1.00800           0
     34725 W2       11575    TIP3     H2       HT       0.417000       1.00800           0
     34726 W2       11576    TIP3     OH2      OT      -0.834000       15.9994           0
     34727 W2       11576    TIP3     H1       HT       0.417000       1.00800           0
     34728 W2       11576    TIP3     H2       HT       0.417000       1.00800           0
     34729 W2       11577    TIP3     OH2      OT      -0.834000       15.9994           0
     34730 W2       11577    TIP3     H1       HT       0.417000       1.00800           0
     34731 W2       11577    TIP3     H2       HT       0.417000       1.00800           0
     34732 W2       11578    TIP3     OH2      OT      -0.834000       15.9994           0
     34733 W2       11578    TIP3     H1       HT       0.417000       1.00800           0
     34734 W2       11578    TIP3     H2       HT       0.417000       1.00800           0
     34735 W2       11579    TIP3     OH2      OT      -0.834000       15.9994           0
     34736 W2       11579    TIP3     H1       HT       0.417000       1.00800           0
     34737 W2       11579    TIP3     H2       HT       0.417000       1.00800           0
     34738 W2       11580    TIP3     OH2      OT      -0.834000       15.9994           0
     34739 W2       11580    TIP3     H1       HT       0.417000       1.00800           0
     34740 W2       11580    TIP3     H2       HT       0.417000       1.00800           0
     34741 W2       11581    TIP3     OH2      OT      -0.834000       15.9994           0
     34742 W2       11581    TIP3     H1       HT       0.417000       1.00800           0
     34743 W2       11581    TIP3     H2       HT       0.417000       1.00800           0
     34744 W2       11582    TIP3     OH2      OT      -0.834000       15.9994           0
     34745 W2       11582    TIP3     H1       HT       0.417000       1.00800           0
     34746 W2       11582    TIP3     H2       HT       0.417000       1.00800           0
     34747 W2       11583    TIP3     OH2      OT      -0.834000       15.9994           0
     34748 W2       11583    TIP3     H1       HT       0.417000       1.00800           0
     34749 W2       11583    TIP3     H2       HT       0.417000       1.00800           0
     34750 W2       11584    TIP3     OH2      OT      -0.834000       15.9994           0
     34751 W2       11584    TIP3     H1       HT       0.417000       1.00800           0
     34752 W2       11584    TIP3     H2       HT       0.417000       1.00800           0
     34753 W2       11585    TIP3     OH2      OT      -0.834000       15.9994           0
     34754 W2       11585    TIP3     H1       HT       0.417000       1.00800           0
     34755 W2       11585    TIP3     H2       HT       0.417000       1.00800           0
     34756 W2       11586    TIP3     OH2      OT      -0.834000       15.9994           0
     34757 W2       11586    TIP3     H1       HT       0.417000       1.00800           0
     34758 W2       11586    TIP3     H2       HT       0.417000       1.00800           0
     34759 W2       11587    TIP3     OH2      OT      -0.834000       15.9994           0
     34760 W2       11587    TIP3     H1       HT       0.417000       1.00800           0
     34761 W2       11587    TIP3     H2       HT       0.417000       1.00800           0
     34762 W2       11588    TIP3     OH2      OT      -0.834000       15.9994           0
     34763 W2       11588    TIP3     H1       HT       0.417000       1.00800           0
     34764 W2       11588    TIP3     H2       HT       0.417000       1.00800           0
     34765 W2       11589    TIP3     OH2      OT      -0.834000       15.9994           0
     34766 W2       11589    TIP3     H1       HT       0.417000       1.00800           0
     34767 W2       11589    TIP3     H2       HT       0.417000       1.00800           0
     34768 W2       11590    TIP3     OH2      OT      -0.834000       15.9994           0
     34769 W2       11590    TIP3     H1       HT       0.417000       1.00800           0
     34770 W2       11590    TIP3     H2       HT       0.417000       1.00800           0
     34771 W2       11591    TIP3     OH2      OT      -0.834000       15.9994           0
     34772 W2       11591    TIP3     H1       HT       0.417000       1.00800           0
     34773 W2       11591    TIP3     H2       HT       0.417000       1.00800           0
     34774 W2       11592    TIP3     OH2      OT      -0.834000       15.9994           0
     34775 W2       11592    TIP3     H1       HT       0.417000       1.00800           0
     34776 W2       11592    TIP3     H2       HT       0.417000       1.00800           0
     34777 W2       11593    TIP3     OH2      OT      -0.834000       15.9994           0
     34778 W2       11593    TIP3     H1       HT       0.417000       1.00800           0
     34779 W2       11593    TIP3     H2       HT       0.417000       1.00800           0
     34780 W2       11594    TIP3     OH2      OT      -0.834000       15.9994           0
     34781 W2       11594    TIP3     H1       HT       0.417000       1.00800           0
     34782 W2       11594    TIP3     H2       HT       0.417000       1.00800           0
     34783 W2       11595    TIP3     OH2      OT      -0.834000       15.9994           0
     34784 W2       11595    TIP3     H1       HT       0.417000       1.00800           0
     34785 W2       11595    TIP3     H2       HT       0.417000       1.00800           0
     34786 W2       11596    TIP3     OH2      OT      -0.834000       15.9994           0
     34787 W2       11596    TIP3     H1       HT       0.417000       1.00800           0
     34788 W2       11596    TIP3     H2       HT       0.417000       1.00800           0
     34789 W2       11597    TIP3     OH2      OT      -0.834000       15.9994           0
     34790 W2       11597    TIP3     H1       HT       0.417000       1.00800           0
     34791 W2       11597    TIP3     H2       HT       0.417000       1.00800           0
     34792 W2       11598    TIP3     OH2      OT      -0.834000       15.9994           0
     34793 W2       11598    TIP3     H1       HT       0.417000       1.00800           0
     34794 W2       11598    TIP3     H2       HT       0.417000       1.00800           0
     34795 W2       11599    TIP3     OH2      OT      -0.834000       15.9994           0
     34796 W2       11599    TIP3     H1       HT       0.417000       1.00800           0
     34797 W2       11599    TIP3     H2       HT       0.417000       1.00800           0
     34798 W2       11600    TIP3     OH2      OT      -0.834000       15.9994           0
     34799 W2       11600    TIP3     H1       HT       0.417000       1.00800           0
     34800 W2       11600    TIP3     H2       HT       0.417000       1.00800           0
     34801 W2       11601    TIP3     OH2      OT      -0.834000       15.9994           0
     34802 W2       11601    TIP3     H1       HT       0.417000       1.00800           0
     34803 W2       11601    TIP3     H2       HT       0.417000       1.00800           0
     34804 W2       11602    TIP3     OH2      OT      -0.834000       15.9994           0
     34805 W2       11602    TIP3     H1       HT       0.417000       1.00800           0
     34806 W2       11602    TIP3     H2       HT       0.417000       1.00800           0
     34807 W2       11603    TIP3     OH2      OT      -0.834000       15.9994           0
     34808 W2       11603    TIP3     H1       HT       0.417000       1.00800           0
     34809 W2       11603    TIP3     H2       HT       0.417000       1.00800           0
     34810 W2       11604    TIP3     OH2      OT      -0.834000       15.9994           0
     34811 W2       11604    TIP3     H1       HT       0.417000       1.00800           0
     34812 W2       11604    TIP3     H2       HT       0.417000       1.00800           0
     34813 W2       11605    TIP3     OH2      OT      -0.834000       15.9994           0
     34814 W2       11605    TIP3     H1       HT       0.417000       1.00800           0
     34815 W2       11605    TIP3     H2       HT       0.417000       1.00800           0
     34816 W2       11606    TIP3     OH2      OT      -0.834000       15.9994           0
     34817 W2       11606    TIP3     H1       HT       0.417000       1.00800           0
     34818 W2       11606    TIP3     H2       HT       0.417000       1.00800           0
     34819 W2       11607    TIP3     OH2      OT      -0.834000       15.9994           0
     34820 W2       11607    TIP3     H1       HT       0.417000       1.00800           0
     34821 W2       11607    TIP3     H2       HT       0.417000       1.00800           0
     34822 W2       11608    TIP3     OH2      OT      -0.834000       15.9994           0
     34823 W2       11608    TIP3     H1       HT       0.417000       1.00800           0
     34824 W2       11608    TIP3     H2       HT       0.417000       1.00800           0
     34825 W2       11609    TIP3     OH2      OT      -0.834000       15.9994           0
     34826 W2       11609    TIP3     H1       HT       0.417000       1.00800           0
     34827 W2       11609    TIP3     H2       HT       0.417000       1.00800           0
     34828 W2       11610    TIP3     OH2      OT      -0.834000       15.9994           0
     34829 W2       11610    TIP3     H1       HT       0.417000       1.00800           0
     34830 W2       11610    TIP3     H2       HT       0.417000       1.00800           0
     34831 W2       11611    TIP3     OH2      OT      -0.834000       15.9994           0
     34832 W2       11611    TIP3     H1       HT       0.417000       1.00800           0
     34833 W2       11611    TIP3     H2       HT       0.417000       1.00800           0
     34834 W2       11612    TIP3     OH2      OT      -0.834000       15.9994           0
     34835 W2       11612    TIP3     H1       HT       0.417000       1.00800           0
     34836 W2       11612    TIP3     H2       HT       0.417000       1.00800           0
     34837 W2       11613    TIP3     OH2      OT      -0.834000       15.9994           0
     34838 W2       11613    TIP3     H1       HT       0.417000       1.00800           0
     34839 W2       11613    TIP3     H2       HT       0.417000       1.00800           0
     34840 W2       11614    TIP3     OH2      OT      -0.834000       15.9994           0
     34841 W2       11614    TIP3     H1       HT       0.417000       1.00800           0
     34842 W2       11614    TIP3     H2       HT       0.417000       1.00800           0
     34843 W2       11615    TIP3     OH2      OT      -0.834000       15.9994           0
     34844 W2       11615    TIP3     H1       HT       0.417000       1.00800           0
     34845 W2       11615    TIP3     H2       HT       0.417000       1.00800           0
     34846 W2       11616    TIP3     OH2      OT      -0.834000       15.9994           0
     34847 W2       11616    TIP3     H1       HT       0.417000       1.00800           0
     34848 W2       11616    TIP3     H2       HT       0.417000       1.00800           0
     34849 W2       11617    TIP3     OH2      OT      -0.834000       15.9994           0
     34850 W2       11617    TIP3     H1       HT       0.417000       1.00800           0
     34851 W2       11617    TIP3     H2       HT       0.417000       1.00800           0
     34852 W2       11618    TIP3     OH2      OT      -0.834000       15.9994           0
     34853 W2       11618    TIP3     H1       HT       0.417000       1.00800           0
     34854 W2       11618    TIP3     H2       HT       0.417000       1.00800           0
     34855 W2       11619    TIP3     OH2      OT      -0.834000       15.9994           0
     34856 W2       11619    TIP3     H1       HT       0.417000       1.00800           0
     34857 W2       11619    TIP3     H2       HT       0.417000       1.00800           0
     34858 W2       11620    TIP3     OH2      OT      -0.834000       15.9994           0
     34859 W2       11620    TIP3     H1       HT       0.417000       1.00800           0
     34860 W2       11620    TIP3     H2       HT       0.417000       1.00800           0
     34861 W2       11621    TIP3     OH2      OT      -0.834000       15.9994           0
     34862 W2       11621    TIP3     H1       HT       0.417000       1.00800           0
     34863 W2       11621    TIP3     H2       HT       0.417000       1.00800           0
     34864 W2       11622    TIP3     OH2      OT      -0.834000       15.9994           0
     34865 W2       11622    TIP3     H1       HT       0.417000       1.00800           0
     34866 W2       11622    TIP3     H2       HT       0.417000       1.00800           0
     34867 W2       11623    TIP3     OH2      OT      -0.834000       15.9994           0
     34868 W2       11623    TIP3     H1       HT       0.417000       1.00800           0
     34869 W2       11623    TIP3     H2       HT       0.417000       1.00800           0
     34870 W2       11624    TIP3     OH2      OT      -0.834000       15.9994           0
     34871 W2       11624    TIP3     H1       HT       0.417000       1.00800           0
     34872 W2       11624    TIP3     H2       HT       0.417000       1.00800           0
     34873 W2       11625    TIP3     OH2      OT      -0.834000       15.9994           0
     34874 W2       11625    TIP3     H1       HT       0.417000       1.00800           0
     34875 W2       11625    TIP3     H2       HT       0.417000       1.00800           0
     34876 W2       11626    TIP3     OH2      OT      -0.834000       15.9994           0
     34877 W2       11626    TIP3     H1       HT       0.417000       1.00800           0
     34878 W2       11626    TIP3     H2       HT       0.417000       1.00800           0
     34879 W2       11627    TIP3     OH2      OT      -0.834000       15.9994           0
     34880 W2       11627    TIP3     H1       HT       0.417000       1.00800           0
     34881 W2       11627    TIP3     H2       HT       0.417000       1.00800           0
     34882 W2       11628    TIP3     OH2      OT      -0.834000       15.9994           0
     34883 W2       11628    TIP3     H1       HT       0.417000       1.00800           0
     34884 W2       11628    TIP3     H2       HT       0.417000       1.00800           0
     34885 W2       11629    TIP3     OH2      OT      -0.834000       15.9994           0
     34886 W2       11629    TIP3     H1       HT       0.417000       1.00800           0
     34887 W2       11629    TIP3     H2       HT       0.417000       1.00800           0
     34888 W2       11630    TIP3     OH2      OT      -0.834000       15.9994           0
     34889 W2       11630    TIP3     H1       HT       0.417000       1.00800           0
     34890 W2       11630    TIP3     H2       HT       0.417000       1.00800           0
     34891 W2       11631    TIP3     OH2      OT      -0.834000       15.9994           0
     34892 W2       11631    TIP3     H1       HT       0.417000       1.00800           0
     34893 W2       11631    TIP3     H2       HT       0.417000       1.00800           0
     34894 W2       11632    TIP3     OH2      OT      -0.834000       15.9994           0
     34895 W2       11632    TIP3     H1       HT       0.417000       1.00800           0
     34896 W2       11632    TIP3     H2       HT       0.417000       1.00800           0
     34897 W2       11633    TIP3     OH2      OT      -0.834000       15.9994           0
     34898 W2       11633    TIP3     H1       HT       0.417000       1.00800           0
     34899 W2       11633    TIP3     H2       HT       0.417000       1.00800           0
     34900 W2       11634    TIP3     OH2      OT      -0.834000       15.9994           0
     34901 W2       11634    TIP3     H1       HT       0.417000       1.00800           0
     34902 W2       11634    TIP3     H2       HT       0.417000       1.00800           0
     34903 W2       11635    TIP3     OH2      OT      -0.834000       15.9994           0
     34904 W2       11635    TIP3     H1       HT       0.417000       1.00800           0
     34905 W2       11635    TIP3     H2       HT       0.417000       1.00800           0
     34906 W2       11636    TIP3     OH2      OT      -0.834000       15.9994           0
     34907 W2       11636    TIP3     H1       HT       0.417000       1.00800           0
     34908 W2       11636    TIP3     H2       HT       0.417000       1.00800           0
     34909 W2       11637    TIP3     OH2      OT      -0.834000       15.9994           0
     34910 W2       11637    TIP3     H1       HT       0.417000       1.00800           0
     34911 W2       11637    TIP3     H2       HT       0.417000       1.00800           0
     34912 W2       11638    TIP3     OH2      OT      -0.834000       15.9994           0
     34913 W2       11638    TIP3     H1       HT       0.417000       1.00800           0
     34914 W2       11638    TIP3     H2       HT       0.417000       1.00800           0
     34915 W2       11639    TIP3     OH2      OT      -0.834000       15.9994           0
     34916 W2       11639    TIP3     H1       HT       0.417000       1.00800           0
     34917 W2       11639    TIP3     H2       HT       0.417000       1.00800           0
     34918 W2       11640    TIP3     OH2      OT      -0.834000       15.9994           0
     34919 W2       11640    TIP3     H1       HT       0.417000       1.00800           0
     34920 W2       11640    TIP3     H2       HT       0.417000       1.00800           0
     34921 W2       11641    TIP3     OH2      OT      -0.834000       15.9994           0
     34922 W2       11641    TIP3     H1       HT       0.417000       1.00800           0
     34923 W2       11641    TIP3     H2       HT       0.417000       1.00800           0
     34924 W2       11642    TIP3     OH2      OT      -0.834000       15.9994           0
     34925 W2       11642    TIP3     H1       HT       0.417000       1.00800           0
     34926 W2       11642    TIP3     H2       HT       0.417000       1.00800           0
     34927 W2       11643    TIP3     OH2      OT      -0.834000       15.9994           0
     34928 W2       11643    TIP3     H1       HT       0.417000       1.00800           0
     34929 W2       11643    TIP3     H2       HT       0.417000       1.00800           0
     34930 W2       11644    TIP3     OH2      OT      -0.834000       15.9994           0
     34931 W2       11644    TIP3     H1       HT       0.417000       1.00800           0
     34932 W2       11644    TIP3     H2       HT       0.417000       1.00800           0
     34933 W2       11645    TIP3     OH2      OT      -0.834000       15.9994           0
     34934 W2       11645    TIP3     H1       HT       0.417000       1.00800           0
     34935 W2       11645    TIP3     H2       HT       0.417000       1.00800           0
     34936 W2       11646    TIP3     OH2      OT      -0.834000       15.9994           0
     34937 W2       11646    TIP3     H1       HT       0.417000       1.00800           0
     34938 W2       11646    TIP3     H2       HT       0.417000       1.00800           0
     34939 W2       11647    TIP3     OH2      OT      -0.834000       15.9994           0
     34940 W2       11647    TIP3     H1       HT       0.417000       1.00800           0
     34941 W2       11647    TIP3     H2       HT       0.417000       1.00800           0
     34942 W2       11648    TIP3     OH2      OT      -0.834000       15.9994           0
     34943 W2       11648    TIP3     H1       HT       0.417000       1.00800           0
     34944 W2       11648    TIP3     H2       HT       0.417000       1.00800           0
     34945 W2       11649    TIP3     OH2      OT      -0.834000       15.9994           0
     34946 W2       11649    TIP3     H1       HT       0.417000       1.00800           0
     34947 W2       11649    TIP3     H2       HT       0.417000       1.00800           0
     34948 W2       11650    TIP3     OH2      OT      -0.834000       15.9994           0
     34949 W2       11650    TIP3     H1       HT       0.417000       1.00800           0
     34950 W2       11650    TIP3     H2       HT       0.417000       1.00800           0
     34951 W2       11651    TIP3     OH2      OT      -0.834000       15.9994           0
     34952 W2       11651    TIP3     H1       HT       0.417000       1.00800           0
     34953 W2       11651    TIP3     H2       HT       0.417000       1.00800           0
     34954 W2       11652    TIP3     OH2      OT      -0.834000       15.9994           0
     34955 W2       11652    TIP3     H1       HT       0.417000       1.00800           0
     34956 W2       11652    TIP3     H2       HT       0.417000       1.00800           0
     34957 W2       11653    TIP3     OH2      OT      -0.834000       15.9994           0
     34958 W2       11653    TIP3     H1       HT       0.417000       1.00800           0
     34959 W2       11653    TIP3     H2       HT       0.417000       1.00800           0
     34960 W2       11654    TIP3     OH2      OT      -0.834000       15.9994           0
     34961 W2       11654    TIP3     H1       HT       0.417000       1.00800           0
     34962 W2       11654    TIP3     H2       HT       0.417000       1.00800           0
     34963 W2       11655    TIP3     OH2      OT      -0.834000       15.9994           0
     34964 W2       11655    TIP3     H1       HT       0.417000       1.00800           0
     34965 W2       11655    TIP3     H2       HT       0.417000       1.00800           0
     34966 W2       11656    TIP3     OH2      OT      -0.834000       15.9994           0
     34967 W2       11656    TIP3     H1       HT       0.417000       1.00800           0
     34968 W2       11656    TIP3     H2       HT       0.417000       1.00800           0
     34969 W2       11657    TIP3     OH2      OT      -0.834000       15.9994           0
     34970 W2       11657    TIP3     H1       HT       0.417000       1.00800           0
     34971 W2       11657    TIP3     H2       HT       0.417000       1.00800           0
     34972 W2       11658    TIP3     OH2      OT      -0.834000       15.9994           0
     34973 W2       11658    TIP3     H1       HT       0.417000       1.00800           0
     34974 W2       11658    TIP3     H2       HT       0.417000       1.00800           0
     34975 W2       11659    TIP3     OH2      OT      -0.834000       15.9994           0
     34976 W2       11659    TIP3     H1       HT       0.417000       1.00800           0
     34977 W2       11659    TIP3     H2       HT       0.417000       1.00800           0
     34978 W2       11660    TIP3     OH2      OT      -0.834000       15.9994           0
     34979 W2       11660    TIP3     H1       HT       0.417000       1.00800           0
     34980 W2       11660    TIP3     H2       HT       0.417000       1.00800           0
     34981 W2       11661    TIP3     OH2      OT      -0.834000       15.9994           0
     34982 W2       11661    TIP3     H1       HT       0.417000       1.00800           0
     34983 W2       11661    TIP3     H2       HT       0.417000       1.00800           0
     34984 W2       11662    TIP3     OH2      OT      -0.834000       15.9994           0
     34985 W2       11662    TIP3     H1       HT       0.417000       1.00800           0
     34986 W2       11662    TIP3     H2       HT       0.417000       1.00800           0
     34987 W2       11663    TIP3     OH2      OT      -0.834000       15.9994           0
     34988 W2       11663    TIP3     H1       HT       0.417000       1.00800           0
     34989 W2       11663    TIP3     H2       HT       0.417000       1.00800           0
     34990 W2       11664    TIP3     OH2      OT      -0.834000       15.9994           0
     34991 W2       11664    TIP3     H1       HT       0.417000       1.00800           0
     34992 W2       11664    TIP3     H2       HT       0.417000       1.00800           0
     34993 W2       11665    TIP3     OH2      OT      -0.834000       15.9994           0
     34994 W2       11665    TIP3     H1       HT       0.417000       1.00800           0
     34995 W2       11665    TIP3     H2       HT       0.417000       1.00800           0
     34996 W2       11666    TIP3     OH2      OT      -0.834000       15.9994           0
     34997 W2       11666    TIP3     H1       HT       0.417000       1.00800           0
     34998 W2       11666    TIP3     H2       HT       0.417000       1.00800           0
     34999 W2       11667    TIP3     OH2      OT      -0.834000       15.9994           0
     35000 W2       11667    TIP3     H1       HT       0.417000       1.00800           0
     35001 W2       11667    TIP3     H2       HT       0.417000       1.00800           0
     35002 W2       11668    TIP3     OH2      OT      -0.834000       15.9994           0
     35003 W2       11668    TIP3     H1       HT       0.417000       1.00800           0
     35004 W2       11668    TIP3     H2       HT       0.417000       1.00800           0
     35005 W2       11669    TIP3     OH2      OT      -0.834000       15.9994           0
     35006 W2       11669    TIP3     H1       HT       0.417000       1.00800           0
     35007 W2       11669    TIP3     H2       HT       0.417000       1.00800           0
     35008 W2       11670    TIP3     OH2      OT      -0.834000       15.9994           0
     35009 W2       11670    TIP3     H1       HT       0.417000       1.00800           0
     35010 W2       11670    TIP3     H2       HT       0.417000       1.00800           0
     35011 W2       11671    TIP3     OH2      OT      -0.834000       15.9994           0
     35012 W2       11671    TIP3     H1       HT       0.417000       1.00800           0
     35013 W2       11671    TIP3     H2       HT       0.417000       1.00800           0
     35014 W2       11672    TIP3     OH2      OT      -0.834000       15.9994           0
     35015 W2       11672    TIP3     H1       HT       0.417000       1.00800           0
     35016 W2       11672    TIP3     H2       HT       0.417000       1.00800           0
     35017 W2       11673    TIP3     OH2      OT      -0.834000       15.9994           0
     35018 W2       11673    TIP3     H1       HT       0.417000       1.00800           0
     35019 W2       11673    TIP3     H2       HT       0.417000       1.00800           0
     35020 W2       11674    TIP3     OH2      OT      -0.834000       15.9994           0
     35021 W2       11674    TIP3     H1       HT       0.417000       1.00800           0
     35022 W2       11674    TIP3     H2       HT       0.417000       1.00800           0
     35023 W2       11675    TIP3     OH2      OT      -0.834000       15.9994           0
     35024 W2       11675    TIP3     H1       HT       0.417000       1.00800           0
     35025 W2       11675    TIP3     H2       HT       0.417000       1.00800           0
     35026 W2       11676    TIP3     OH2      OT      -0.834000       15.9994           0
     35027 W2       11676    TIP3     H1       HT       0.417000       1.00800           0
     35028 W2       11676    TIP3     H2       HT       0.417000       1.00800           0
     35029 W2       11677    TIP3     OH2      OT      -0.834000       15.9994           0
     35030 W2       11677    TIP3     H1       HT       0.417000       1.00800           0
     35031 W2       11677    TIP3     H2       HT       0.417000       1.00800           0
     35032 W2       11678    TIP3     OH2      OT      -0.834000       15.9994           0
     35033 W2       11678    TIP3     H1       HT       0.417000       1.00800           0
     35034 W2       11678    TIP3     H2       HT       0.417000       1.00800           0
     35035 W2       11679    TIP3     OH2      OT      -0.834000       15.9994           0
     35036 W2       11679    TIP3     H1       HT       0.417000       1.00800           0
     35037 W2       11679    TIP3     H2       HT       0.417000       1.00800           0
     35038 W2       11680    TIP3     OH2      OT      -0.834000       15.9994           0
     35039 W2       11680    TIP3     H1       HT       0.417000       1.00800           0
     35040 W2       11680    TIP3     H2       HT       0.417000       1.00800           0
     35041 W2       11681    TIP3     OH2      OT      -0.834000       15.9994           0
     35042 W2       11681    TIP3     H1       HT       0.417000       1.00800           0
     35043 W2       11681    TIP3     H2       HT       0.417000       1.00800           0
     35044 W2       11682    TIP3     OH2      OT      -0.834000       15.9994           0
     35045 W2       11682    TIP3     H1       HT       0.417000       1.00800           0
     35046 W2       11682    TIP3     H2       HT       0.417000       1.00800           0
     35047 W2       11683    TIP3     OH2      OT      -0.834000       15.9994           0
     35048 W2       11683    TIP3     H1       HT       0.417000       1.00800           0
     35049 W2       11683    TIP3     H2       HT       0.417000       1.00800           0
     35050 W2       11684    TIP3     OH2      OT      -0.834000       15.9994           0
     35051 W2       11684    TIP3     H1       HT       0.417000       1.00800           0
     35052 W2       11684    TIP3     H2       HT       0.417000       1.00800           0
     35053 W2       11685    TIP3     OH2      OT      -0.834000       15.9994           0
     35054 W2       11685    TIP3     H1       HT       0.417000       1.00800           0
     35055 W2       11685    TIP3     H2       HT       0.417000       1.00800           0
     35056 W2       11686    TIP3     OH2      OT      -0.834000       15.9994           0
     35057 W2       11686    TIP3     H1       HT       0.417000       1.00800           0
     35058 W2       11686    TIP3     H2       HT       0.417000       1.00800           0
     35059 W2       11687    TIP3     OH2      OT      -0.834000       15.9994           0
     35060 W2       11687    TIP3     H1       HT       0.417000       1.00800           0
     35061 W2       11687    TIP3     H2       HT       0.417000       1.00800           0
     35062 W2       11688    TIP3     OH2      OT      -0.834000       15.9994           0
     35063 W2       11688    TIP3     H1       HT       0.417000       1.00800           0
     35064 W2       11688    TIP3     H2       HT       0.417000       1.00800           0
     35065 W2       11689    TIP3     OH2      OT      -0.834000       15.9994           0
     35066 W2       11689    TIP3     H1       HT       0.417000       1.00800           0
     35067 W2       11689    TIP3     H2       HT       0.417000       1.00800           0
     35068 W2       11690    TIP3     OH2      OT      -0.834000       15.9994           0
     35069 W2       11690    TIP3     H1       HT       0.417000       1.00800           0
     35070 W2       11690    TIP3     H2       HT       0.417000       1.00800           0
     35071 W2       11691    TIP3     OH2      OT      -0.834000       15.9994           0
     35072 W2       11691    TIP3     H1       HT       0.417000       1.00800           0
     35073 W2       11691    TIP3     H2       HT       0.417000       1.00800           0
     35074 W2       11692    TIP3     OH2      OT      -0.834000       15.9994           0
     35075 W2       11692    TIP3     H1       HT       0.417000       1.00800           0
     35076 W2       11692    TIP3     H2       HT       0.417000       1.00800           0
     35077 W2       11693    TIP3     OH2      OT      -0.834000       15.9994           0
     35078 W2       11693    TIP3     H1       HT       0.417000       1.00800           0
     35079 W2       11693    TIP3     H2       HT       0.417000       1.00800           0
     35080 W2       11694    TIP3     OH2      OT      -0.834000       15.9994           0
     35081 W2       11694    TIP3     H1       HT       0.417000       1.00800           0
     35082 W2       11694    TIP3     H2       HT       0.417000       1.00800           0
     35083 W2       11695    TIP3     OH2      OT      -0.834000       15.9994           0
     35084 W2       11695    TIP3     H1       HT       0.417000       1.00800           0
     35085 W2       11695    TIP3     H2       HT       0.417000       1.00800           0
     35086 W2       11696    TIP3     OH2      OT      -0.834000       15.9994           0
     35087 W2       11696    TIP3     H1       HT       0.417000       1.00800           0
     35088 W2       11696    TIP3     H2       HT       0.417000       1.00800           0
     35089 W2       11697    TIP3     OH2      OT      -0.834000       15.9994           0
     35090 W2       11697    TIP3     H1       HT       0.417000       1.00800           0
     35091 W2       11697    TIP3     H2       HT       0.417000       1.00800           0
     35092 W2       11698    TIP3     OH2      OT      -0.834000       15.9994           0
     35093 W2       11698    TIP3     H1       HT       0.417000       1.00800           0
     35094 W2       11698    TIP3     H2       HT       0.417000       1.00800           0
     35095 W2       11699    TIP3     OH2      OT      -0.834000       15.9994           0
     35096 W2       11699    TIP3     H1       HT       0.417000       1.00800           0
     35097 W2       11699    TIP3     H2       HT       0.417000       1.00800           0
     35098 W2       11700    TIP3     OH2      OT      -0.834000       15.9994           0
     35099 W2       11700    TIP3     H1       HT       0.417000       1.00800           0
     35100 W2       11700    TIP3     H2       HT       0.417000       1.00800           0
     35101 W2       11701    TIP3     OH2      OT      -0.834000       15.9994           0
     35102 W2       11701    TIP3     H1       HT       0.417000       1.00800           0
     35103 W2       11701    TIP3     H2       HT       0.417000       1.00800           0
     35104 W2       11702    TIP3     OH2      OT      -0.834000       15.9994           0
     35105 W2       11702    TIP3     H1       HT       0.417000       1.00800           0
     35106 W2       11702    TIP3     H2       HT       0.417000       1.00800           0
     35107 W2       11703    TIP3     OH2      OT      -0.834000       15.9994           0
     35108 W2       11703    TIP3     H1       HT       0.417000       1.00800           0
     35109 W2       11703    TIP3     H2       HT       0.417000       1.00800           0
     35110 W2       11704    TIP3     OH2      OT      -0.834000       15.9994           0
     35111 W2       11704    TIP3     H1       HT       0.417000       1.00800           0
     35112 W2       11704    TIP3     H2       HT       0.417000       1.00800           0
     35113 W2       11705    TIP3     OH2      OT      -0.834000       15.9994           0
     35114 W2       11705    TIP3     H1       HT       0.417000       1.00800           0
     35115 W2       11705    TIP3     H2       HT       0.417000       1.00800           0
     35116 W2       11706    TIP3     OH2      OT      -0.834000       15.9994           0
     35117 W2       11706    TIP3     H1       HT       0.417000       1.00800           0
     35118 W2       11706    TIP3     H2       HT       0.417000       1.00800           0
     35119 W2       11707    TIP3     OH2      OT      -0.834000       15.9994           0
     35120 W2       11707    TIP3     H1       HT       0.417000       1.00800           0
     35121 W2       11707    TIP3     H2       HT       0.417000       1.00800           0
     35122 W2       11708    TIP3     OH2      OT      -0.834000       15.9994           0
     35123 W2       11708    TIP3     H1       HT       0.417000       1.00800           0
     35124 W2       11708    TIP3     H2       HT       0.417000       1.00800           0
     35125 W2       11709    TIP3     OH2      OT      -0.834000       15.9994           0
     35126 W2       11709    TIP3     H1       HT       0.417000       1.00800           0
     35127 W2       11709    TIP3     H2       HT       0.417000       1.00800           0
     35128 W2       11710    TIP3     OH2      OT      -0.834000       15.9994           0
     35129 W2       11710    TIP3     H1       HT       0.417000       1.00800           0
     35130 W2       11710    TIP3     H2       HT       0.417000       1.00800           0
     35131 W2       11711    TIP3     OH2      OT      -0.834000       15.9994           0
     35132 W2       11711    TIP3     H1       HT       0.417000       1.00800           0
     35133 W2       11711    TIP3     H2       HT       0.417000       1.00800           0
     35134 W2       11712    TIP3     OH2      OT      -0.834000       15.9994           0
     35135 W2       11712    TIP3     H1       HT       0.417000       1.00800           0
     35136 W2       11712    TIP3     H2       HT       0.417000       1.00800           0
     35137 W2       11713    TIP3     OH2      OT      -0.834000       15.9994           0
     35138 W2       11713    TIP3     H1       HT       0.417000       1.00800           0
     35139 W2       11713    TIP3     H2       HT       0.417000       1.00800           0
     35140 W2       11714    TIP3     OH2      OT      -0.834000       15.9994           0
     35141 W2       11714    TIP3     H1       HT       0.417000       1.00800           0
     35142 W2       11714    TIP3     H2       HT       0.417000       1.00800           0
     35143 W2       11715    TIP3     OH2      OT      -0.834000       15.9994           0
     35144 W2       11715    TIP3     H1       HT       0.417000       1.00800           0
     35145 W2       11715    TIP3     H2       HT       0.417000       1.00800           0
     35146 W2       11716    TIP3     OH2      OT      -0.834000       15.9994           0
     35147 W2       11716    TIP3     H1       HT       0.417000       1.00800           0
     35148 W2       11716    TIP3     H2       HT       0.417000       1.00800           0
     35149 W2       11717    TIP3     OH2      OT      -0.834000       15.9994           0
     35150 W2       11717    TIP3     H1       HT       0.417000       1.00800           0
     35151 W2       11717    TIP3     H2       HT       0.417000       1.00800           0
     35152 W2       11718    TIP3     OH2      OT      -0.834000       15.9994           0
     35153 W2       11718    TIP3     H1       HT       0.417000       1.00800           0
     35154 W2       11718    TIP3     H2       HT       0.417000       1.00800           0
     35155 W2       11719    TIP3     OH2      OT      -0.834000       15.9994           0
     35156 W2       11719    TIP3     H1       HT       0.417000       1.00800           0
     35157 W2       11719    TIP3     H2       HT       0.417000       1.00800           0
     35158 W2       11720    TIP3     OH2      OT      -0.834000       15.9994           0
     35159 W2       11720    TIP3     H1       HT       0.417000       1.00800           0
     35160 W2       11720    TIP3     H2       HT       0.417000       1.00800           0
     35161 W2       11721    TIP3     OH2      OT      -0.834000       15.9994           0
     35162 W2       11721    TIP3     H1       HT       0.417000       1.00800           0
     35163 W2       11721    TIP3     H2       HT       0.417000       1.00800           0
     35164 W2       11722    TIP3     OH2      OT      -0.834000       15.9994           0
     35165 W2       11722    TIP3     H1       HT       0.417000       1.00800           0
     35166 W2       11722    TIP3     H2       HT       0.417000       1.00800           0
     35167 W2       11723    TIP3     OH2      OT      -0.834000       15.9994           0
     35168 W2       11723    TIP3     H1       HT       0.417000       1.00800           0
     35169 W2       11723    TIP3     H2       HT       0.417000       1.00800           0
     35170 W2       11724    TIP3     OH2      OT      -0.834000       15.9994           0
     35171 W2       11724    TIP3     H1       HT       0.417000       1.00800           0
     35172 W2       11724    TIP3     H2       HT       0.417000       1.00800           0
     35173 W2       11725    TIP3     OH2      OT      -0.834000       15.9994           0
     35174 W2       11725    TIP3     H1       HT       0.417000       1.00800           0
     35175 W2       11725    TIP3     H2       HT       0.417000       1.00800           0
     35176 W2       11726    TIP3     OH2      OT      -0.834000       15.9994           0
     35177 W2       11726    TIP3     H1       HT       0.417000       1.00800           0
     35178 W2       11726    TIP3     H2       HT       0.417000       1.00800           0
     35179 W2       11727    TIP3     OH2      OT      -0.834000       15.9994           0
     35180 W2       11727    TIP3     H1       HT       0.417000       1.00800           0
     35181 W2       11727    TIP3     H2       HT       0.417000       1.00800           0
     35182 W2       11728    TIP3     OH2      OT      -0.834000       15.9994           0
     35183 W2       11728    TIP3     H1       HT       0.417000       1.00800           0
     35184 W2       11728    TIP3     H2       HT       0.417000       1.00800           0
     35185 W2       11729    TIP3     OH2      OT      -0.834000       15.9994           0
     35186 W2       11729    TIP3     H1       HT       0.417000       1.00800           0
     35187 W2       11729    TIP3     H2       HT       0.417000       1.00800           0
     35188 W2       11730    TIP3     OH2      OT      -0.834000       15.9994           0
     35189 W2       11730    TIP3     H1       HT       0.417000       1.00800           0
     35190 W2       11730    TIP3     H2       HT       0.417000       1.00800           0
     35191 W2       11731    TIP3     OH2      OT      -0.834000       15.9994           0
     35192 W2       11731    TIP3     H1       HT       0.417000       1.00800           0
     35193 W2       11731    TIP3     H2       HT       0.417000       1.00800           0
     35194 W2       11732    TIP3     OH2      OT      -0.834000       15.9994           0
     35195 W2       11732    TIP3     H1       HT       0.417000       1.00800           0
     35196 W2       11732    TIP3     H2       HT       0.417000       1.00800           0
     35197 W2       11733    TIP3     OH2      OT      -0.834000       15.9994           0
     35198 W2       11733    TIP3     H1       HT       0.417000       1.00800           0
     35199 W2       11733    TIP3     H2       HT       0.417000       1.00800           0
     35200 W2       11734    TIP3     OH2      OT      -0.834000       15.9994           0
     35201 W2       11734    TIP3     H1       HT       0.417000       1.00800           0
     35202 W2       11734    TIP3     H2       HT       0.417000       1.00800           0
     35203 W2       11735    TIP3     OH2      OT      -0.834000       15.9994           0
     35204 W2       11735    TIP3     H1       HT       0.417000       1.00800           0
     35205 W2       11735    TIP3     H2       HT       0.417000       1.00800           0
     35206 W2       11736    TIP3     OH2      OT      -0.834000       15.9994           0
     35207 W2       11736    TIP3     H1       HT       0.417000       1.00800           0
     35208 W2       11736    TIP3     H2       HT       0.417000       1.00800           0
     35209 W2       11737    TIP3     OH2      OT      -0.834000       15.9994           0
     35210 W2       11737    TIP3     H1       HT       0.417000       1.00800           0
     35211 W2       11737    TIP3     H2       HT       0.417000       1.00800           0
     35212 W2       11738    TIP3     OH2      OT      -0.834000       15.9994           0
     35213 W2       11738    TIP3     H1       HT       0.417000       1.00800           0
     35214 W2       11738    TIP3     H2       HT       0.417000       1.00800           0
     35215 W2       11739    TIP3     OH2      OT      -0.834000       15.9994           0
     35216 W2       11739    TIP3     H1       HT       0.417000       1.00800           0
     35217 W2       11739    TIP3     H2       HT       0.417000       1.00800           0
     35218 W2       11740    TIP3     OH2      OT      -0.834000       15.9994           0
     35219 W2       11740    TIP3     H1       HT       0.417000       1.00800           0
     35220 W2       11740    TIP3     H2       HT       0.417000       1.00800           0
     35221 W2       11741    TIP3     OH2      OT      -0.834000       15.9994           0
     35222 W2       11741    TIP3     H1       HT       0.417000       1.00800           0
     35223 W2       11741    TIP3     H2       HT       0.417000       1.00800           0
     35224 W2       11742    TIP3     OH2      OT      -0.834000       15.9994           0
     35225 W2       11742    TIP3     H1       HT       0.417000       1.00800           0
     35226 W2       11742    TIP3     H2       HT       0.417000       1.00800           0
     35227 W2       11743    TIP3     OH2      OT      -0.834000       15.9994           0
     35228 W2       11743    TIP3     H1       HT       0.417000       1.00800           0
     35229 W2       11743    TIP3     H2       HT       0.417000       1.00800           0
     35230 W2       11744    TIP3     OH2      OT      -0.834000       15.9994           0
     35231 W2       11744    TIP3     H1       HT       0.417000       1.00800           0
     35232 W2       11744    TIP3     H2       HT       0.417000       1.00800           0
     35233 W2       11745    TIP3     OH2      OT      -0.834000       15.9994           0
     35234 W2       11745    TIP3     H1       HT       0.417000       1.00800           0
     35235 W2       11745    TIP3     H2       HT       0.417000       1.00800           0
     35236 W2       11746    TIP3     OH2      OT      -0.834000       15.9994           0
     35237 W2       11746    TIP3     H1       HT       0.417000       1.00800           0
     35238 W2       11746    TIP3     H2       HT       0.417000       1.00800           0
     35239 W2       11747    TIP3     OH2      OT      -0.834000       15.9994           0
     35240 W2       11747    TIP3     H1       HT       0.417000       1.00800           0
     35241 W2       11747    TIP3     H2       HT       0.417000       1.00800           0
     35242 W2       11748    TIP3     OH2      OT      -0.834000       15.9994           0
     35243 W2       11748    TIP3     H1       HT       0.417000       1.00800           0
     35244 W2       11748    TIP3     H2       HT       0.417000       1.00800           0
     35245 W2       11749    TIP3     OH2      OT      -0.834000       15.9994           0
     35246 W2       11749    TIP3     H1       HT       0.417000       1.00800           0
     35247 W2       11749    TIP3     H2       HT       0.417000       1.00800           0
     35248 W2       11750    TIP3     OH2      OT      -0.834000       15.9994           0
     35249 W2       11750    TIP3     H1       HT       0.417000       1.00800           0
     35250 W2       11750    TIP3     H2       HT       0.417000       1.00800           0
     35251 W2       11751    TIP3     OH2      OT      -0.834000       15.9994           0
     35252 W2       11751    TIP3     H1       HT       0.417000       1.00800           0
     35253 W2       11751    TIP3     H2       HT       0.417000       1.00800           0
     35254 W2       11752    TIP3     OH2      OT      -0.834000       15.9994           0
     35255 W2       11752    TIP3     H1       HT       0.417000       1.00800           0
     35256 W2       11752    TIP3     H2       HT       0.417000       1.00800           0
     35257 W2       11753    TIP3     OH2      OT      -0.834000       15.9994           0
     35258 W2       11753    TIP3     H1       HT       0.417000       1.00800           0
     35259 W2       11753    TIP3     H2       HT       0.417000       1.00800           0
     35260 W2       11754    TIP3     OH2      OT      -0.834000       15.9994           0
     35261 W2       11754    TIP3     H1       HT       0.417000       1.00800           0
     35262 W2       11754    TIP3     H2       HT       0.417000       1.00800           0
     35263 W2       11755    TIP3     OH2      OT      -0.834000       15.9994           0
     35264 W2       11755    TIP3     H1       HT       0.417000       1.00800           0
     35265 W2       11755    TIP3     H2       HT       0.417000       1.00800           0
     35266 W2       11756    TIP3     OH2      OT      -0.834000       15.9994           0
     35267 W2       11756    TIP3     H1       HT       0.417000       1.00800           0
     35268 W2       11756    TIP3     H2       HT       0.417000       1.00800           0
     35269 W2       11757    TIP3     OH2      OT      -0.834000       15.9994           0
     35270 W2       11757    TIP3     H1       HT       0.417000       1.00800           0
     35271 W2       11757    TIP3     H2       HT       0.417000       1.00800           0
     35272 W2       11758    TIP3     OH2      OT      -0.834000       15.9994           0
     35273 W2       11758    TIP3     H1       HT       0.417000       1.00800           0
     35274 W2       11758    TIP3     H2       HT       0.417000       1.00800           0
     35275 W2       11759    TIP3     OH2      OT      -0.834000       15.9994           0
     35276 W2       11759    TIP3     H1       HT       0.417000       1.00800           0
     35277 W2       11759    TIP3     H2       HT       0.417000       1.00800           0
     35278 W2       11760    TIP3     OH2      OT      -0.834000       15.9994           0
     35279 W2       11760    TIP3     H1       HT       0.417000       1.00800           0
     35280 W2       11760    TIP3     H2       HT       0.417000       1.00800           0
     35281 W2       11761    TIP3     OH2      OT      -0.834000       15.9994           0
     35282 W2       11761    TIP3     H1       HT       0.417000       1.00800           0
     35283 W2       11761    TIP3     H2       HT       0.417000       1.00800           0
     35284 W2       11762    TIP3     OH2      OT      -0.834000       15.9994           0
     35285 W2       11762    TIP3     H1       HT       0.417000       1.00800           0
     35286 W2       11762    TIP3     H2       HT       0.417000       1.00800           0
     35287 W2       11763    TIP3     OH2      OT      -0.834000       15.9994           0
     35288 W2       11763    TIP3     H1       HT       0.417000       1.00800           0
     35289 W2       11763    TIP3     H2       HT       0.417000       1.00800           0
     35290 W2       11764    TIP3     OH2      OT      -0.834000       15.9994           0
     35291 W2       11764    TIP3     H1       HT       0.417000       1.00800           0
     35292 W2       11764    TIP3     H2       HT       0.417000       1.00800           0
     35293 W2       11765    TIP3     OH2      OT      -0.834000       15.9994           0
     35294 W2       11765    TIP3     H1       HT       0.417000       1.00800           0
     35295 W2       11765    TIP3     H2       HT       0.417000       1.00800           0
     35296 W2       11766    TIP3     OH2      OT      -0.834000       15.9994           0
     35297 W2       11766    TIP3     H1       HT       0.417000       1.00800           0
     35298 W2       11766    TIP3     H2       HT       0.417000       1.00800           0
     35299 W2       11767    TIP3     OH2      OT      -0.834000       15.9994           0
     35300 W2       11767    TIP3     H1       HT       0.417000       1.00800           0
     35301 W2       11767    TIP3     H2       HT       0.417000       1.00800           0
     35302 W2       11768    TIP3     OH2      OT      -0.834000       15.9994           0
     35303 W2       11768    TIP3     H1       HT       0.417000       1.00800           0
     35304 W2       11768    TIP3     H2       HT       0.417000       1.00800           0
     35305 W2       11769    TIP3     OH2      OT      -0.834000       15.9994           0
     35306 W2       11769    TIP3     H1       HT       0.417000       1.00800           0
     35307 W2       11769    TIP3     H2       HT       0.417000       1.00800           0
     35308 W2       11770    TIP3     OH2      OT      -0.834000       15.9994           0
     35309 W2       11770    TIP3     H1       HT       0.417000       1.00800           0
     35310 W2       11770    TIP3     H2       HT       0.417000       1.00800           0
     35311 W2       11771    TIP3     OH2      OT      -0.834000       15.9994           0
     35312 W2       11771    TIP3     H1       HT       0.417000       1.00800           0
     35313 W2       11771    TIP3     H2       HT       0.417000       1.00800           0
     35314 W2       11772    TIP3     OH2      OT      -0.834000       15.9994           0
     35315 W2       11772    TIP3     H1       HT       0.417000       1.00800           0
     35316 W2       11772    TIP3     H2       HT       0.417000       1.00800           0
     35317 W2       11773    TIP3     OH2      OT      -0.834000       15.9994           0
     35318 W2       11773    TIP3     H1       HT       0.417000       1.00800           0
     35319 W2       11773    TIP3     H2       HT       0.417000       1.00800           0
     35320 W2       11774    TIP3     OH2      OT      -0.834000       15.9994           0
     35321 W2       11774    TIP3     H1       HT       0.417000       1.00800           0
     35322 W2       11774    TIP3     H2       HT       0.417000       1.00800           0
     35323 W2       11775    TIP3     OH2      OT      -0.834000       15.9994           0
     35324 W2       11775    TIP3     H1       HT       0.417000       1.00800           0
     35325 W2       11775    TIP3     H2       HT       0.417000       1.00800           0
     35326 W2       11776    TIP3     OH2      OT      -0.834000       15.9994           0
     35327 W2       11776    TIP3     H1       HT       0.417000       1.00800           0
     35328 W2       11776    TIP3     H2       HT       0.417000       1.00800           0
     35329 W2       11777    TIP3     OH2      OT      -0.834000       15.9994           0
     35330 W2       11777    TIP3     H1       HT       0.417000       1.00800           0
     35331 W2       11777    TIP3     H2       HT       0.417000       1.00800           0
     35332 W2       11778    TIP3     OH2      OT      -0.834000       15.9994           0
     35333 W2       11778    TIP3     H1       HT       0.417000       1.00800           0
     35334 W2       11778    TIP3     H2       HT       0.417000       1.00800           0
     35335 W2       11779    TIP3     OH2      OT      -0.834000       15.9994           0
     35336 W2       11779    TIP3     H1       HT       0.417000       1.00800           0
     35337 W2       11779    TIP3     H2       HT       0.417000       1.00800           0
     35338 W2       11780    TIP3     OH2      OT      -0.834000       15.9994           0
     35339 W2       11780    TIP3     H1       HT       0.417000       1.00800           0
     35340 W2       11780    TIP3     H2       HT       0.417000       1.00800           0
     35341 W2       11781    TIP3     OH2      OT      -0.834000       15.9994           0
     35342 W2       11781    TIP3     H1       HT       0.417000       1.00800           0
     35343 W2       11781    TIP3     H2       HT       0.417000       1.00800           0
     35344 W2       11782    TIP3     OH2      OT      -0.834000       15.9994           0
     35345 W2       11782    TIP3     H1       HT       0.417000       1.00800           0
     35346 W2       11782    TIP3     H2       HT       0.417000       1.00800           0
     35347 W2       11783    TIP3     OH2      OT      -0.834000       15.9994           0
     35348 W2       11783    TIP3     H1       HT       0.417000       1.00800           0
     35349 W2       11783    TIP3     H2       HT       0.417000       1.00800           0
     35350 W2       11784    TIP3     OH2      OT      -0.834000       15.9994           0
     35351 W2       11784    TIP3     H1       HT       0.417000       1.00800           0
     35352 W2       11784    TIP3     H2       HT       0.417000       1.00800           0
     35353 W2       11785    TIP3     OH2      OT      -0.834000       15.9994           0
     35354 W2       11785    TIP3     H1       HT       0.417000       1.00800           0
     35355 W2       11785    TIP3     H2       HT       0.417000       1.00800           0
     35356 W2       11786    TIP3     OH2      OT      -0.834000       15.9994           0
     35357 W2       11786    TIP3     H1       HT       0.417000       1.00800           0
     35358 W2       11786    TIP3     H2       HT       0.417000       1.00800           0
     35359 W2       11787    TIP3     OH2      OT      -0.834000       15.9994           0
     35360 W2       11787    TIP3     H1       HT       0.417000       1.00800           0
     35361 W2       11787    TIP3     H2       HT       0.417000       1.00800           0
     35362 W2       11788    TIP3     OH2      OT      -0.834000       15.9994           0
     35363 W2       11788    TIP3     H1       HT       0.417000       1.00800           0
     35364 W2       11788    TIP3     H2       HT       0.417000       1.00800           0
     35365 W2       11789    TIP3     OH2      OT      -0.834000       15.9994           0
     35366 W2       11789    TIP3     H1       HT       0.417000       1.00800           0
     35367 W2       11789    TIP3     H2       HT       0.417000       1.00800           0
     35368 W2       11790    TIP3     OH2      OT      -0.834000       15.9994           0
     35369 W2       11790    TIP3     H1       HT       0.417000       1.00800           0
     35370 W2       11790    TIP3     H2       HT       0.417000       1.00800           0
     35371 W2       11791    TIP3     OH2      OT      -0.834000       15.9994           0
     35372 W2       11791    TIP3     H1       HT       0.417000       1.00800           0
     35373 W2       11791    TIP3     H2       HT       0.417000       1.00800           0
     35374 W2       11792    TIP3     OH2      OT      -0.834000       15.9994           0
     35375 W2       11792    TIP3     H1       HT       0.417000       1.00800           0
     35376 W2       11792    TIP3     H2       HT       0.417000       1.00800           0
     35377 W2       11793    TIP3     OH2      OT      -0.834000       15.9994           0
     35378 W2       11793    TIP3     H1       HT       0.417000       1.00800           0
     35379 W2       11793    TIP3     H2       HT       0.417000       1.00800           0
     35380 W2       11794    TIP3     OH2      OT      -0.834000       15.9994           0
     35381 W2       11794    TIP3     H1       HT       0.417000       1.00800           0
     35382 W2       11794    TIP3     H2       HT       0.417000       1.00800           0
     35383 W2       11795    TIP3     OH2      OT      -0.834000       15.9994           0
     35384 W2       11795    TIP3     H1       HT       0.417000       1.00800           0
     35385 W2       11795    TIP3     H2       HT       0.417000       1.00800           0
     35386 W2       11796    TIP3     OH2      OT      -0.834000       15.9994           0
     35387 W2       11796    TIP3     H1       HT       0.417000       1.00800           0
     35388 W2       11796    TIP3     H2       HT       0.417000       1.00800           0
     35389 W2       11797    TIP3     OH2      OT      -0.834000       15.9994           0
     35390 W2       11797    TIP3     H1       HT       0.417000       1.00800           0
     35391 W2       11797    TIP3     H2       HT       0.417000       1.00800           0
     35392 W2       11798    TIP3     OH2      OT      -0.834000       15.9994           0
     35393 W2       11798    TIP3     H1       HT       0.417000       1.00800           0
     35394 W2       11798    TIP3     H2       HT       0.417000       1.00800           0
     35395 W2       11799    TIP3     OH2      OT      -0.834000       15.9994           0
     35396 W2       11799    TIP3     H1       HT       0.417000       1.00800           0
     35397 W2       11799    TIP3     H2       HT       0.417000       1.00800           0
     35398 W2       11800    TIP3     OH2      OT      -0.834000       15.9994           0
     35399 W2       11800    TIP3     H1       HT       0.417000       1.00800           0
     35400 W2       11800    TIP3     H2       HT       0.417000       1.00800           0
     35401 W2       11801    TIP3     OH2      OT      -0.834000       15.9994           0
     35402 W2       11801    TIP3     H1       HT       0.417000       1.00800           0
     35403 W2       11801    TIP3     H2       HT       0.417000       1.00800           0
     35404 W2       11802    TIP3     OH2      OT      -0.834000       15.9994           0
     35405 W2       11802    TIP3     H1       HT       0.417000       1.00800           0
     35406 W2       11802    TIP3     H2       HT       0.417000       1.00800           0
     35407 W2       11803    TIP3     OH2      OT      -0.834000       15.9994           0
     35408 W2       11803    TIP3     H1       HT       0.417000       1.00800           0
     35409 W2       11803    TIP3     H2       HT       0.417000       1.00800           0
     35410 W2       11804    TIP3     OH2      OT      -0.834000       15.9994           0
     35411 W2       11804    TIP3     H1       HT       0.417000       1.00800           0
     35412 W2       11804    TIP3     H2       HT       0.417000       1.00800           0
     35413 W2       11805    TIP3     OH2      OT      -0.834000       15.9994           0
     35414 W2       11805    TIP3     H1       HT       0.417000       1.00800           0
     35415 W2       11805    TIP3     H2       HT       0.417000       1.00800           0
     35416 W2       11806    TIP3     OH2      OT      -0.834000       15.9994           0
     35417 W2       11806    TIP3     H1       HT       0.417000       1.00800           0
     35418 W2       11806    TIP3     H2       HT       0.417000       1.00800           0
     35419 W2       11807    TIP3     OH2      OT      -0.834000       15.9994           0
     35420 W2       11807    TIP3     H1       HT       0.417000       1.00800           0
     35421 W2       11807    TIP3     H2       HT       0.417000       1.00800           0
     35422 W2       11808    TIP3     OH2      OT      -0.834000       15.9994           0
     35423 W2       11808    TIP3     H1       HT       0.417000       1.00800           0
     35424 W2       11808    TIP3     H2       HT       0.417000       1.00800           0
     35425 W2       11809    TIP3     OH2      OT      -0.834000       15.9994           0
     35426 W2       11809    TIP3     H1       HT       0.417000       1.00800           0
     35427 W2       11809    TIP3     H2       HT       0.417000       1.00800           0
     35428 W2       11810    TIP3     OH2      OT      -0.834000       15.9994           0
     35429 W2       11810    TIP3     H1       HT       0.417000       1.00800           0
     35430 W2       11810    TIP3     H2       HT       0.417000       1.00800           0
     35431 W2       11811    TIP3     OH2      OT      -0.834000       15.9994           0
     35432 W2       11811    TIP3     H1       HT       0.417000       1.00800           0
     35433 W2       11811    TIP3     H2       HT       0.417000       1.00800           0
     35434 W2       11812    TIP3     OH2      OT      -0.834000       15.9994           0
     35435 W2       11812    TIP3     H1       HT       0.417000       1.00800           0
     35436 W2       11812    TIP3     H2       HT       0.417000       1.00800           0
     35437 W2       11813    TIP3     OH2      OT      -0.834000       15.9994           0
     35438 W2       11813    TIP3     H1       HT       0.417000       1.00800           0
     35439 W2       11813    TIP3     H2       HT       0.417000       1.00800           0
     35440 W2       11814    TIP3     OH2      OT      -0.834000       15.9994           0
     35441 W2       11814    TIP3     H1       HT       0.417000       1.00800           0
     35442 W2       11814    TIP3     H2       HT       0.417000       1.00800           0
     35443 W2       11815    TIP3     OH2      OT      -0.834000       15.9994           0
     35444 W2       11815    TIP3     H1       HT       0.417000       1.00800           0
     35445 W2       11815    TIP3     H2       HT       0.417000       1.00800           0
     35446 W2       11816    TIP3     OH2      OT      -0.834000       15.9994           0
     35447 W2       11816    TIP3     H1       HT       0.417000       1.00800           0
     35448 W2       11816    TIP3     H2       HT       0.417000       1.00800           0
     35449 W2       11817    TIP3     OH2      OT      -0.834000       15.9994           0
     35450 W2       11817    TIP3     H1       HT       0.417000       1.00800           0
     35451 W2       11817    TIP3     H2       HT       0.417000       1.00800           0
     35452 W2       11818    TIP3     OH2      OT      -0.834000       15.9994           0
     35453 W2       11818    TIP3     H1       HT       0.417000       1.00800           0
     35454 W2       11818    TIP3     H2       HT       0.417000       1.00800           0
     35455 W2       11819    TIP3     OH2      OT      -0.834000       15.9994           0
     35456 W2       11819    TIP3     H1       HT       0.417000       1.00800           0
     35457 W2       11819    TIP3     H2       HT       0.417000       1.00800           0
     35458 W2       11820    TIP3     OH2      OT      -0.834000       15.9994           0
     35459 W2       11820    TIP3     H1       HT       0.417000       1.00800           0
     35460 W2       11820    TIP3     H2       HT       0.417000       1.00800           0
     35461 W2       11821    TIP3     OH2      OT      -0.834000       15.9994           0
     35462 W2       11821    TIP3     H1       HT       0.417000       1.00800           0
     35463 W2       11821    TIP3     H2       HT       0.417000       1.00800           0
     35464 W2       11822    TIP3     OH2      OT      -0.834000       15.9994           0
     35465 W2       11822    TIP3     H1       HT       0.417000       1.00800           0
     35466 W2       11822    TIP3     H2       HT       0.417000       1.00800           0
     35467 W2       11823    TIP3     OH2      OT      -0.834000       15.9994           0
     35468 W2       11823    TIP3     H1       HT       0.417000       1.00800           0
     35469 W2       11823    TIP3     H2       HT       0.417000       1.00800           0
     35470 W2       11824    TIP3     OH2      OT      -0.834000       15.9994           0
     35471 W2       11824    TIP3     H1       HT       0.417000       1.00800           0
     35472 W2       11824    TIP3     H2       HT       0.417000       1.00800           0
     35473 W2       11825    TIP3     OH2      OT      -0.834000       15.9994           0
     35474 W2       11825    TIP3     H1       HT       0.417000       1.00800           0
     35475 W2       11825    TIP3     H2       HT       0.417000       1.00800           0
     35476 W2       11826    TIP3     OH2      OT      -0.834000       15.9994           0
     35477 W2       11826    TIP3     H1       HT       0.417000       1.00800           0
     35478 W2       11826    TIP3     H2       HT       0.417000       1.00800           0
     35479 W2       11827    TIP3     OH2      OT      -0.834000       15.9994           0
     35480 W2       11827    TIP3     H1       HT       0.417000       1.00800           0
     35481 W2       11827    TIP3     H2       HT       0.417000       1.00800           0
     35482 W2       11828    TIP3     OH2      OT      -0.834000       15.9994           0
     35483 W2       11828    TIP3     H1       HT       0.417000       1.00800           0
     35484 W2       11828    TIP3     H2       HT       0.417000       1.00800           0
     35485 W2       11829    TIP3     OH2      OT      -0.834000       15.9994           0
     35486 W2       11829    TIP3     H1       HT       0.417000       1.00800           0
     35487 W2       11829    TIP3     H2       HT       0.417000       1.00800           0
     35488 W2       11830    TIP3     OH2      OT      -0.834000       15.9994           0
     35489 W2       11830    TIP3     H1       HT       0.417000       1.00800           0
     35490 W2       11830    TIP3     H2       HT       0.417000       1.00800           0
     35491 W2       11831    TIP3     OH2      OT      -0.834000       15.9994           0
     35492 W2       11831    TIP3     H1       HT       0.417000       1.00800           0
     35493 W2       11831    TIP3     H2       HT       0.417000       1.00800           0
     35494 W2       11832    TIP3     OH2      OT      -0.834000       15.9994           0
     35495 W2       11832    TIP3     H1       HT       0.417000       1.00800           0
     35496 W2       11832    TIP3     H2       HT       0.417000       1.00800           0
     35497 W2       11833    TIP3     OH2      OT      -0.834000       15.9994           0
     35498 W2       11833    TIP3     H1       HT       0.417000       1.00800           0
     35499 W2       11833    TIP3     H2       HT       0.417000       1.00800           0
     35500 W2       11834    TIP3     OH2      OT      -0.834000       15.9994           0
     35501 W2       11834    TIP3     H1       HT       0.417000       1.00800           0
     35502 W2       11834    TIP3     H2       HT       0.417000       1.00800           0
     35503 W2       11835    TIP3     OH2      OT      -0.834000       15.9994           0
     35504 W2       11835    TIP3     H1       HT       0.417000       1.00800           0
     35505 W2       11835    TIP3     H2       HT       0.417000       1.00800           0
     35506 W2       11836    TIP3     OH2      OT      -0.834000       15.9994           0
     35507 W2       11836    TIP3     H1       HT       0.417000       1.00800           0
     35508 W2       11836    TIP3     H2       HT       0.417000       1.00800           0
     35509 W2       11837    TIP3     OH2      OT      -0.834000       15.9994           0
     35510 W2       11837    TIP3     H1       HT       0.417000       1.00800           0
     35511 W2       11837    TIP3     H2       HT       0.417000       1.00800           0
     35512 W2       11838    TIP3     OH2      OT      -0.834000       15.9994           0
     35513 W2       11838    TIP3     H1       HT       0.417000       1.00800           0
     35514 W2       11838    TIP3     H2       HT       0.417000       1.00800           0
     35515 W2       11839    TIP3     OH2      OT      -0.834000       15.9994           0
     35516 W2       11839    TIP3     H1       HT       0.417000       1.00800           0
     35517 W2       11839    TIP3     H2       HT       0.417000       1.00800           0
     35518 W2       11840    TIP3     OH2      OT      -0.834000       15.9994           0
     35519 W2       11840    TIP3     H1       HT       0.417000       1.00800           0
     35520 W2       11840    TIP3     H2       HT       0.417000       1.00800           0
     35521 W2       11841    TIP3     OH2      OT      -0.834000       15.9994           0
     35522 W2       11841    TIP3     H1       HT       0.417000       1.00800           0
     35523 W2       11841    TIP3     H2       HT       0.417000       1.00800           0
     35524 W2       11842    TIP3     OH2      OT      -0.834000       15.9994           0
     35525 W2       11842    TIP3     H1       HT       0.417000       1.00800           0
     35526 W2       11842    TIP3     H2       HT       0.417000       1.00800           0
     35527 W2       11843    TIP3     OH2      OT      -0.834000       15.9994           0
     35528 W2       11843    TIP3     H1       HT       0.417000       1.00800           0
     35529 W2       11843    TIP3     H2       HT       0.417000       1.00800           0
     35530 W2       11844    TIP3     OH2      OT      -0.834000       15.9994           0
     35531 W2       11844    TIP3     H1       HT       0.417000       1.00800           0
     35532 W2       11844    TIP3     H2       HT       0.417000       1.00800           0
     35533 W2       11845    TIP3     OH2      OT      -0.834000       15.9994           0
     35534 W2       11845    TIP3     H1       HT       0.417000       1.00800           0
     35535 W2       11845    TIP3     H2       HT       0.417000       1.00800           0
     35536 W2       11846    TIP3     OH2      OT      -0.834000       15.9994           0
     35537 W2       11846    TIP3     H1       HT       0.417000       1.00800           0
     35538 W2       11846    TIP3     H2       HT       0.417000       1.00800           0
     35539 W2       11847    TIP3     OH2      OT      -0.834000       15.9994           0
     35540 W2       11847    TIP3     H1       HT       0.417000       1.00800           0
     35541 W2       11847    TIP3     H2       HT       0.417000       1.00800           0
     35542 W2       11848    TIP3     OH2      OT      -0.834000       15.9994           0
     35543 W2       11848    TIP3     H1       HT       0.417000       1.00800           0
     35544 W2       11848    TIP3     H2       HT       0.417000       1.00800           0
     35545 W2       11849    TIP3     OH2      OT      -0.834000       15.9994           0
     35546 W2       11849    TIP3     H1       HT       0.417000       1.00800           0
     35547 W2       11849    TIP3     H2       HT       0.417000       1.00800           0
     35548 W2       11850    TIP3     OH2      OT      -0.834000       15.9994           0
     35549 W2       11850    TIP3     H1       HT       0.417000       1.00800           0
     35550 W2       11850    TIP3     H2       HT       0.417000       1.00800           0
     35551 W2       11851    TIP3     OH2      OT      -0.834000       15.9994           0
     35552 W2       11851    TIP3     H1       HT       0.417000       1.00800           0
     35553 W2       11851    TIP3     H2       HT       0.417000       1.00800           0
     35554 W2       11852    TIP3     OH2      OT      -0.834000       15.9994           0
     35555 W2       11852    TIP3     H1       HT       0.417000       1.00800           0
     35556 W2       11852    TIP3     H2       HT       0.417000       1.00800           0
     35557 W2       11853    TIP3     OH2      OT      -0.834000       15.9994           0
     35558 W2       11853    TIP3     H1       HT       0.417000       1.00800           0
     35559 W2       11853    TIP3     H2       HT       0.417000       1.00800           0
     35560 W2       11854    TIP3     OH2      OT      -0.834000       15.9994           0
     35561 W2       11854    TIP3     H1       HT       0.417000       1.00800           0
     35562 W2       11854    TIP3     H2       HT       0.417000       1.00800           0
     35563 W2       11855    TIP3     OH2      OT      -0.834000       15.9994           0
     35564 W2       11855    TIP3     H1       HT       0.417000       1.00800           0
     35565 W2       11855    TIP3     H2       HT       0.417000       1.00800           0
     35566 W2       11856    TIP3     OH2      OT      -0.834000       15.9994           0
     35567 W2       11856    TIP3     H1       HT       0.417000       1.00800           0
     35568 W2       11856    TIP3     H2       HT       0.417000       1.00800           0
     35569 W2       11857    TIP3     OH2      OT      -0.834000       15.9994           0
     35570 W2       11857    TIP3     H1       HT       0.417000       1.00800           0
     35571 W2       11857    TIP3     H2       HT       0.417000       1.00800           0
     35572 W2       11858    TIP3     OH2      OT      -0.834000       15.9994           0
     35573 W2       11858    TIP3     H1       HT       0.417000       1.00800           0
     35574 W2       11858    TIP3     H2       HT       0.417000       1.00800           0
     35575 W2       11859    TIP3     OH2      OT      -0.834000       15.9994           0
     35576 W2       11859    TIP3     H1       HT       0.417000       1.00800           0
     35577 W2       11859    TIP3     H2       HT       0.417000       1.00800           0
     35578 W2       11860    TIP3     OH2      OT      -0.834000       15.9994           0
     35579 W2       11860    TIP3     H1       HT       0.417000       1.00800           0
     35580 W2       11860    TIP3     H2       HT       0.417000       1.00800           0
     35581 W2       11861    TIP3     OH2      OT      -0.834000       15.9994           0
     35582 W2       11861    TIP3     H1       HT       0.417000       1.00800           0
     35583 W2       11861    TIP3     H2       HT       0.417000       1.00800           0
     35584 W2       11862    TIP3     OH2      OT      -0.834000       15.9994           0
     35585 W2       11862    TIP3     H1       HT       0.417000       1.00800           0
     35586 W2       11862    TIP3     H2       HT       0.417000       1.00800           0
     35587 W2       11863    TIP3     OH2      OT      -0.834000       15.9994           0
     35588 W2       11863    TIP3     H1       HT       0.417000       1.00800           0
     35589 W2       11863    TIP3     H2       HT       0.417000       1.00800           0
     35590 W2       11864    TIP3     OH2      OT      -0.834000       15.9994           0
     35591 W2       11864    TIP3     H1       HT       0.417000       1.00800           0
     35592 W2       11864    TIP3     H2       HT       0.417000       1.00800           0
     35593 W2       11865    TIP3     OH2      OT      -0.834000       15.9994           0
     35594 W2       11865    TIP3     H1       HT       0.417000       1.00800           0
     35595 W2       11865    TIP3     H2       HT       0.417000       1.00800           0
     35596 W2       11866    TIP3     OH2      OT      -0.834000       15.9994           0
     35597 W2       11866    TIP3     H1       HT       0.417000       1.00800           0
     35598 W2       11866    TIP3     H2       HT       0.417000       1.00800           0
     35599 W2       11867    TIP3     OH2      OT      -0.834000       15.9994           0
     35600 W2       11867    TIP3     H1       HT       0.417000       1.00800           0
     35601 W2       11867    TIP3     H2       HT       0.417000       1.00800           0
     35602 W2       11868    TIP3     OH2      OT      -0.834000       15.9994           0
     35603 W2       11868    TIP3     H1       HT       0.417000       1.00800           0
     35604 W2       11868    TIP3     H2       HT       0.417000       1.00800           0
     35605 W2       11869    TIP3     OH2      OT      -0.834000       15.9994           0
     35606 W2       11869    TIP3     H1       HT       0.417000       1.00800           0
     35607 W2       11869    TIP3     H2       HT       0.417000       1.00800           0
     35608 W2       11870    TIP3     OH2      OT      -0.834000       15.9994           0
     35609 W2       11870    TIP3     H1       HT       0.417000       1.00800           0
     35610 W2       11870    TIP3     H2       HT       0.417000       1.00800           0
     35611 W2       11871    TIP3     OH2      OT      -0.834000       15.9994           0
     35612 W2       11871    TIP3     H1       HT       0.417000       1.00800           0
     35613 W2       11871    TIP3     H2       HT       0.417000       1.00800           0
     35614 W2       11872    TIP3     OH2      OT      -0.834000       15.9994           0
     35615 W2       11872    TIP3     H1       HT       0.417000       1.00800           0
     35616 W2       11872    TIP3     H2       HT       0.417000       1.00800           0
     35617 W2       11873    TIP3     OH2      OT      -0.834000       15.9994           0
     35618 W2       11873    TIP3     H1       HT       0.417000       1.00800           0
     35619 W2       11873    TIP3     H2       HT       0.417000       1.00800           0
     35620 W2       11874    TIP3     OH2      OT      -0.834000       15.9994           0
     35621 W2       11874    TIP3     H1       HT       0.417000       1.00800           0
     35622 W2       11874    TIP3     H2       HT       0.417000       1.00800           0
     35623 W2       11875    TIP3     OH2      OT      -0.834000       15.9994           0
     35624 W2       11875    TIP3     H1       HT       0.417000       1.00800           0
     35625 W2       11875    TIP3     H2       HT       0.417000       1.00800           0
     35626 W2       11876    TIP3     OH2      OT      -0.834000       15.9994           0
     35627 W2       11876    TIP3     H1       HT       0.417000       1.00800           0
     35628 W2       11876    TIP3     H2       HT       0.417000       1.00800           0
     35629 W2       11877    TIP3     OH2      OT      -0.834000       15.9994           0
     35630 W2       11877    TIP3     H1       HT       0.417000       1.00800           0
     35631 W2       11877    TIP3     H2       HT       0.417000       1.00800           0
     35632 W2       11878    TIP3     OH2      OT      -0.834000       15.9994           0
     35633 W2       11878    TIP3     H1       HT       0.417000       1.00800           0
     35634 W2       11878    TIP3     H2       HT       0.417000       1.00800           0
     35635 W2       11879    TIP3     OH2      OT      -0.834000       15.9994           0
     35636 W2       11879    TIP3     H1       HT       0.417000       1.00800           0
     35637 W2       11879    TIP3     H2       HT       0.417000       1.00800           0
     35638 W2       11880    TIP3     OH2      OT      -0.834000       15.9994           0
     35639 W2       11880    TIP3     H1       HT       0.417000       1.00800           0
     35640 W2       11880    TIP3     H2       HT       0.417000       1.00800           0
     35641 W2       11881    TIP3     OH2      OT      -0.834000       15.9994           0
     35642 W2       11881    TIP3     H1       HT       0.417000       1.00800           0
     35643 W2       11881    TIP3     H2       HT       0.417000       1.00800           0
     35644 W2       11882    TIP3     OH2      OT      -0.834000       15.9994           0
     35645 W2       11882    TIP3     H1       HT       0.417000       1.00800           0
     35646 W2       11882    TIP3     H2       HT       0.417000       1.00800           0
     35647 W2       11883    TIP3     OH2      OT      -0.834000       15.9994           0
     35648 W2       11883    TIP3     H1       HT       0.417000       1.00800           0
     35649 W2       11883    TIP3     H2       HT       0.417000       1.00800           0
     35650 W2       11884    TIP3     OH2      OT      -0.834000       15.9994           0
     35651 W2       11884    TIP3     H1       HT       0.417000       1.00800           0
     35652 W2       11884    TIP3     H2       HT       0.417000       1.00800           0
     35653 W2       11885    TIP3     OH2      OT      -0.834000       15.9994           0
     35654 W2       11885    TIP3     H1       HT       0.417000       1.00800           0
     35655 W2       11885    TIP3     H2       HT       0.417000       1.00800           0
     35656 W2       11886    TIP3     OH2      OT      -0.834000       15.9994           0
     35657 W2       11886    TIP3     H1       HT       0.417000       1.00800           0
     35658 W2       11886    TIP3     H2       HT       0.417000       1.00800           0
     35659 W2       11887    TIP3     OH2      OT      -0.834000       15.9994           0
     35660 W2       11887    TIP3     H1       HT       0.417000       1.00800           0
     35661 W2       11887    TIP3     H2       HT       0.417000       1.00800           0
     35662 W2       11888    TIP3     OH2      OT      -0.834000       15.9994           0
     35663 W2       11888    TIP3     H1       HT       0.417000       1.00800           0
     35664 W2       11888    TIP3     H2       HT       0.417000       1.00800           0
     35665 W2       11889    TIP3     OH2      OT      -0.834000       15.9994           0
     35666 W2       11889    TIP3     H1       HT       0.417000       1.00800           0
     35667 W2       11889    TIP3     H2       HT       0.417000       1.00800           0
     35668 W2       11890    TIP3     OH2      OT      -0.834000       15.9994           0
     35669 W2       11890    TIP3     H1       HT       0.417000       1.00800           0
     35670 W2       11890    TIP3     H2       HT       0.417000       1.00800           0
     35671 W2       11891    TIP3     OH2      OT      -0.834000       15.9994           0
     35672 W2       11891    TIP3     H1       HT       0.417000       1.00800           0
     35673 W2       11891    TIP3     H2       HT       0.417000       1.00800           0
     35674 W2       11892    TIP3     OH2      OT      -0.834000       15.9994           0
     35675 W2       11892    TIP3     H1       HT       0.417000       1.00800           0
     35676 W2       11892    TIP3     H2       HT       0.417000       1.00800           0
     35677 W2       11893    TIP3     OH2      OT      -0.834000       15.9994           0
     35678 W2       11893    TIP3     H1       HT       0.417000       1.00800           0
     35679 W2       11893    TIP3     H2       HT       0.417000       1.00800           0
     35680 W2       11894    TIP3     OH2      OT      -0.834000       15.9994           0
     35681 W2       11894    TIP3     H1       HT       0.417000       1.00800           0
     35682 W2       11894    TIP3     H2       HT       0.417000       1.00800           0
     35683 W2       11895    TIP3     OH2      OT      -0.834000       15.9994           0
     35684 W2       11895    TIP3     H1       HT       0.417000       1.00800           0
     35685 W2       11895    TIP3     H2       HT       0.417000       1.00800           0
     35686 W2       11896    TIP3     OH2      OT      -0.834000       15.9994           0
     35687 W2       11896    TIP3     H1       HT       0.417000       1.00800           0
     35688 W2       11896    TIP3     H2       HT       0.417000       1.00800           0
     35689 W2       11897    TIP3     OH2      OT      -0.834000       15.9994           0
     35690 W2       11897    TIP3     H1       HT       0.417000       1.00800           0
     35691 W2       11897    TIP3     H2       HT       0.417000       1.00800           0
     35692 W2       11898    TIP3     OH2      OT      -0.834000       15.9994           0
     35693 W2       11898    TIP3     H1       HT       0.417000       1.00800           0
     35694 W2       11898    TIP3     H2       HT       0.417000       1.00800           0
     35695 W2       11899    TIP3     OH2      OT      -0.834000       15.9994           0
     35696 W2       11899    TIP3     H1       HT       0.417000       1.00800           0
     35697 W2       11899    TIP3     H2       HT       0.417000       1.00800           0
     35698 W2       11900    TIP3     OH2      OT      -0.834000       15.9994           0
     35699 W2       11900    TIP3     H1       HT       0.417000       1.00800           0
     35700 W2       11900    TIP3     H2       HT       0.417000       1.00800           0
     35701 W2       11901    TIP3     OH2      OT      -0.834000       15.9994           0
     35702 W2       11901    TIP3     H1       HT       0.417000       1.00800           0
     35703 W2       11901    TIP3     H2       HT       0.417000       1.00800           0
     35704 W2       11902    TIP3     OH2      OT      -0.834000       15.9994           0
     35705 W2       11902    TIP3     H1       HT       0.417000       1.00800           0
     35706 W2       11902    TIP3     H2       HT       0.417000       1.00800           0
     35707 W2       11903    TIP3     OH2      OT      -0.834000       15.9994           0
     35708 W2       11903    TIP3     H1       HT       0.417000       1.00800           0
     35709 W2       11903    TIP3     H2       HT       0.417000       1.00800           0
     35710 W2       11904    TIP3     OH2      OT      -0.834000       15.9994           0
     35711 W2       11904    TIP3     H1       HT       0.417000       1.00800           0
     35712 W2       11904    TIP3     H2       HT       0.417000       1.00800           0
     35713 W2       11905    TIP3     OH2      OT      -0.834000       15.9994           0
     35714 W2       11905    TIP3     H1       HT       0.417000       1.00800           0
     35715 W2       11905    TIP3     H2       HT       0.417000       1.00800           0
     35716 W2       11906    TIP3     OH2      OT      -0.834000       15.9994           0
     35717 W2       11906    TIP3     H1       HT       0.417000       1.00800           0
     35718 W2       11906    TIP3     H2       HT       0.417000       1.00800           0
     35719 W2       11907    TIP3     OH2      OT      -0.834000       15.9994           0
     35720 W2       11907    TIP3     H1       HT       0.417000       1.00800           0
     35721 W2       11907    TIP3     H2       HT       0.417000       1.00800           0
     35722 W2       11908    TIP3     OH2      OT      -0.834000       15.9994           0
     35723 W2       11908    TIP3     H1       HT       0.417000       1.00800           0
     35724 W2       11908    TIP3     H2       HT       0.417000       1.00800           0
     35725 W2       11909    TIP3     OH2      OT      -0.834000       15.9994           0
     35726 W2       11909    TIP3     H1       HT       0.417000       1.00800           0
     35727 W2       11909    TIP3     H2       HT       0.417000       1.00800           0
     35728 W2       11910    TIP3     OH2      OT      -0.834000       15.9994           0
     35729 W2       11910    TIP3     H1       HT       0.417000       1.00800           0
     35730 W2       11910    TIP3     H2       HT       0.417000       1.00800           0
     35731 W2       11911    TIP3     OH2      OT      -0.834000       15.9994           0
     35732 W2       11911    TIP3     H1       HT       0.417000       1.00800           0
     35733 W2       11911    TIP3     H2       HT       0.417000       1.00800           0
     35734 W2       11912    TIP3     OH2      OT      -0.834000       15.9994           0
     35735 W2       11912    TIP3     H1       HT       0.417000       1.00800           0
     35736 W2       11912    TIP3     H2       HT       0.417000       1.00800           0
     35737 W2       11913    TIP3     OH2      OT      -0.834000       15.9994           0
     35738 W2       11913    TIP3     H1       HT       0.417000       1.00800           0
     35739 W2       11913    TIP3     H2       HT       0.417000       1.00800           0
     35740 W2       11914    TIP3     OH2      OT      -0.834000       15.9994           0
     35741 W2       11914    TIP3     H1       HT       0.417000       1.00800           0
     35742 W2       11914    TIP3     H2       HT       0.417000       1.00800           0
     35743 W2       11915    TIP3     OH2      OT      -0.834000       15.9994           0
     35744 W2       11915    TIP3     H1       HT       0.417000       1.00800           0
     35745 W2       11915    TIP3     H2       HT       0.417000       1.00800           0
     35746 W2       11916    TIP3     OH2      OT      -0.834000       15.9994           0
     35747 W2       11916    TIP3     H1       HT       0.417000       1.00800           0
     35748 W2       11916    TIP3     H2       HT       0.417000       1.00800           0
     35749 W2       11917    TIP3     OH2      OT      -0.834000       15.9994           0
     35750 W2       11917    TIP3     H1       HT       0.417000       1.00800           0
     35751 W2       11917    TIP3     H2       HT       0.417000       1.00800           0
     35752 W2       11918    TIP3     OH2      OT      -0.834000       15.9994           0
     35753 W2       11918    TIP3     H1       HT       0.417000       1.00800           0
     35754 W2       11918    TIP3     H2       HT       0.417000       1.00800           0
     35755 W2       11919    TIP3     OH2      OT      -0.834000       15.9994           0
     35756 W2       11919    TIP3     H1       HT       0.417000       1.00800           0
     35757 W2       11919    TIP3     H2       HT       0.417000       1.00800           0
     35758 W2       11920    TIP3     OH2      OT      -0.834000       15.9994           0
     35759 W2       11920    TIP3     H1       HT       0.417000       1.00800           0
     35760 W2       11920    TIP3     H2       HT       0.417000       1.00800           0
     35761 W2       11921    TIP3     OH2      OT      -0.834000       15.9994           0
     35762 W2       11921    TIP3     H1       HT       0.417000       1.00800           0
     35763 W2       11921    TIP3     H2       HT       0.417000       1.00800           0
     35764 W2       11922    TIP3     OH2      OT      -0.834000       15.9994           0
     35765 W2       11922    TIP3     H1       HT       0.417000       1.00800           0
     35766 W2       11922    TIP3     H2       HT       0.417000       1.00800           0
     35767 W2       11923    TIP3     OH2      OT      -0.834000       15.9994           0
     35768 W2       11923    TIP3     H1       HT       0.417000       1.00800           0
     35769 W2       11923    TIP3     H2       HT       0.417000       1.00800           0
     35770 W2       11924    TIP3     OH2      OT      -0.834000       15.9994           0
     35771 W2       11924    TIP3     H1       HT       0.417000       1.00800           0
     35772 W2       11924    TIP3     H2       HT       0.417000       1.00800           0
     35773 W2       11925    TIP3     OH2      OT      -0.834000       15.9994           0
     35774 W2       11925    TIP3     H1       HT       0.417000       1.00800           0
     35775 W2       11925    TIP3     H2       HT       0.417000       1.00800           0
     35776 W2       11926    TIP3     OH2      OT      -0.834000       15.9994           0
     35777 W2       11926    TIP3     H1       HT       0.417000       1.00800           0
     35778 W2       11926    TIP3     H2       HT       0.417000       1.00800           0
     35779 W2       11927    TIP3     OH2      OT      -0.834000       15.9994           0
     35780 W2       11927    TIP3     H1       HT       0.417000       1.00800           0
     35781 W2       11927    TIP3     H2       HT       0.417000       1.00800           0
     35782 W2       11928    TIP3     OH2      OT      -0.834000       15.9994           0
     35783 W2       11928    TIP3     H1       HT       0.417000       1.00800           0
     35784 W2       11928    TIP3     H2       HT       0.417000       1.00800           0
     35785 W2       11929    TIP3     OH2      OT      -0.834000       15.9994           0
     35786 W2       11929    TIP3     H1       HT       0.417000       1.00800           0
     35787 W2       11929    TIP3     H2       HT       0.417000       1.00800           0
     35788 W2       11930    TIP3     OH2      OT      -0.834000       15.9994           0
     35789 W2       11930    TIP3     H1       HT       0.417000       1.00800           0
     35790 W2       11930    TIP3     H2       HT       0.417000       1.00800           0
     35791 W2       11931    TIP3     OH2      OT      -0.834000       15.9994           0
     35792 W2       11931    TIP3     H1       HT       0.417000       1.00800           0
     35793 W2       11931    TIP3     H2       HT       0.417000       1.00800           0
     35794 W2       11932    TIP3     OH2      OT      -0.834000       15.9994           0
     35795 W2       11932    TIP3     H1       HT       0.417000       1.00800           0
     35796 W2       11932    TIP3     H2       HT       0.417000       1.00800           0
     35797 W2       11933    TIP3     OH2      OT      -0.834000       15.9994           0
     35798 W2       11933    TIP3     H1       HT       0.417000       1.00800           0
     35799 W2       11933    TIP3     H2       HT       0.417000       1.00800           0
     35800 W2       11934    TIP3     OH2      OT      -0.834000       15.9994           0
     35801 W2       11934    TIP3     H1       HT       0.417000       1.00800           0
     35802 W2       11934    TIP3     H2       HT       0.417000       1.00800           0
     35803 W2       11935    TIP3     OH2      OT      -0.834000       15.9994           0
     35804 W2       11935    TIP3     H1       HT       0.417000       1.00800           0
     35805 W2       11935    TIP3     H2       HT       0.417000       1.00800           0
     35806 W2       11936    TIP3     OH2      OT      -0.834000       15.9994           0
     35807 W2       11936    TIP3     H1       HT       0.417000       1.00800           0
     35808 W2       11936    TIP3     H2       HT       0.417000       1.00800           0
     35809 W2       11937    TIP3     OH2      OT      -0.834000       15.9994           0
     35810 W2       11937    TIP3     H1       HT       0.417000       1.00800           0
     35811 W2       11937    TIP3     H2       HT       0.417000       1.00800           0
     35812 W2       11938    TIP3     OH2      OT      -0.834000       15.9994           0
     35813 W2       11938    TIP3     H1       HT       0.417000       1.00800           0
     35814 W2       11938    TIP3     H2       HT       0.417000       1.00800           0
     35815 W2       11939    TIP3     OH2      OT      -0.834000       15.9994           0
     35816 W2       11939    TIP3     H1       HT       0.417000       1.00800           0
     35817 W2       11939    TIP3     H2       HT       0.417000       1.00800           0
     35818 W2       11940    TIP3     OH2      OT      -0.834000       15.9994           0
     35819 W2       11940    TIP3     H1       HT       0.417000       1.00800           0
     35820 W2       11940    TIP3     H2       HT       0.417000       1.00800           0
     35821 W2       11941    TIP3     OH2      OT      -0.834000       15.9994           0
     35822 W2       11941    TIP3     H1       HT       0.417000       1.00800           0
     35823 W2       11941    TIP3     H2       HT       0.417000       1.00800           0
     35824 W2       11942    TIP3     OH2      OT      -0.834000       15.9994           0
     35825 W2       11942    TIP3     H1       HT       0.417000       1.00800           0
     35826 W2       11942    TIP3     H2       HT       0.417000       1.00800           0
     35827 W2       11943    TIP3     OH2      OT      -0.834000       15.9994           0
     35828 W2       11943    TIP3     H1       HT       0.417000       1.00800           0
     35829 W2       11943    TIP3     H2       HT       0.417000       1.00800           0
     35830 W2       11944    TIP3     OH2      OT      -0.834000       15.9994           0
     35831 W2       11944    TIP3     H1       HT       0.417000       1.00800           0
     35832 W2       11944    TIP3     H2       HT       0.417000       1.00800           0
     35833 W2       11945    TIP3     OH2      OT      -0.834000       15.9994           0
     35834 W2       11945    TIP3     H1       HT       0.417000       1.00800           0
     35835 W2       11945    TIP3     H2       HT       0.417000       1.00800           0
     35836 W2       11946    TIP3     OH2      OT      -0.834000       15.9994           0
     35837 W2       11946    TIP3     H1       HT       0.417000       1.00800           0
     35838 W2       11946    TIP3     H2       HT       0.417000       1.00800           0
     35839 W2       11947    TIP3     OH2      OT      -0.834000       15.9994           0
     35840 W2       11947    TIP3     H1       HT       0.417000       1.00800           0
     35841 W2       11947    TIP3     H2       HT       0.417000       1.00800           0
     35842 W2       11948    TIP3     OH2      OT      -0.834000       15.9994           0
     35843 W2       11948    TIP3     H1       HT       0.417000       1.00800           0
     35844 W2       11948    TIP3     H2       HT       0.417000       1.00800           0
     35845 W2       11949    TIP3     OH2      OT      -0.834000       15.9994           0
     35846 W2       11949    TIP3     H1       HT       0.417000       1.00800           0
     35847 W2       11949    TIP3     H2       HT       0.417000       1.00800           0
     35848 W2       11950    TIP3     OH2      OT      -0.834000       15.9994           0
     35849 W2       11950    TIP3     H1       HT       0.417000       1.00800           0
     35850 W2       11950    TIP3     H2       HT       0.417000       1.00800           0
     35851 W2       11951    TIP3     OH2      OT      -0.834000       15.9994           0
     35852 W2       11951    TIP3     H1       HT       0.417000       1.00800           0
     35853 W2       11951    TIP3     H2       HT       0.417000       1.00800           0
     35854 W2       11952    TIP3     OH2      OT      -0.834000       15.9994           0
     35855 W2       11952    TIP3     H1       HT       0.417000       1.00800           0
     35856 W2       11952    TIP3     H2       HT       0.417000       1.00800           0
     35857 W2       11953    TIP3     OH2      OT      -0.834000       15.9994           0
     35858 W2       11953    TIP3     H1       HT       0.417000       1.00800           0
     35859 W2       11953    TIP3     H2       HT       0.417000       1.00800           0
     35860 W2       11954    TIP3     OH2      OT      -0.834000       15.9994           0
     35861 W2       11954    TIP3     H1       HT       0.417000       1.00800           0
     35862 W2       11954    TIP3     H2       HT       0.417000       1.00800           0
     35863 W2       11955    TIP3     OH2      OT      -0.834000       15.9994           0
     35864 W2       11955    TIP3     H1       HT       0.417000       1.00800           0
     35865 W2       11955    TIP3     H2       HT       0.417000       1.00800           0
     35866 W2       11956    TIP3     OH2      OT      -0.834000       15.9994           0
     35867 W2       11956    TIP3     H1       HT       0.417000       1.00800           0
     35868 W2       11956    TIP3     H2       HT       0.417000       1.00800           0
     35869 W2       11957    TIP3     OH2      OT      -0.834000       15.9994           0
     35870 W2       11957    TIP3     H1       HT       0.417000       1.00800           0
     35871 W2       11957    TIP3     H2       HT       0.417000       1.00800           0
     35872 W2       11958    TIP3     OH2      OT      -0.834000       15.9994           0
     35873 W2       11958    TIP3     H1       HT       0.417000       1.00800           0
     35874 W2       11958    TIP3     H2       HT       0.417000       1.00800           0
     35875 W2       11959    TIP3     OH2      OT      -0.834000       15.9994           0
     35876 W2       11959    TIP3     H1       HT       0.417000       1.00800           0
     35877 W2       11959    TIP3     H2       HT       0.417000       1.00800           0
     35878 W2       11960    TIP3     OH2      OT      -0.834000       15.9994           0
     35879 W2       11960    TIP3     H1       HT       0.417000       1.00800           0
     35880 W2       11960    TIP3     H2       HT       0.417000       1.00800           0
     35881 W2       11961    TIP3     OH2      OT      -0.834000       15.9994           0
     35882 W2       11961    TIP3     H1       HT       0.417000       1.00800           0
     35883 W2       11961    TIP3     H2       HT       0.417000       1.00800           0
     35884 W2       11962    TIP3     OH2      OT      -0.834000       15.9994           0
     35885 W2       11962    TIP3     H1       HT       0.417000       1.00800           0
     35886 W2       11962    TIP3     H2       HT       0.417000       1.00800           0
     35887 W2       11963    TIP3     OH2      OT      -0.834000       15.9994           0
     35888 W2       11963    TIP3     H1       HT       0.417000       1.00800           0
     35889 W2       11963    TIP3     H2       HT       0.417000       1.00800           0
     35890 W2       11964    TIP3     OH2      OT      -0.834000       15.9994           0
     35891 W2       11964    TIP3     H1       HT       0.417000       1.00800           0
     35892 W2       11964    TIP3     H2       HT       0.417000       1.00800           0
     35893 W2       11965    TIP3     OH2      OT      -0.834000       15.9994           0
     35894 W2       11965    TIP3     H1       HT       0.417000       1.00800           0
     35895 W2       11965    TIP3     H2       HT       0.417000       1.00800           0
     35896 W2       11966    TIP3     OH2      OT      -0.834000       15.9994           0
     35897 W2       11966    TIP3     H1       HT       0.417000       1.00800           0
     35898 W2       11966    TIP3     H2       HT       0.417000       1.00800           0
     35899 W2       11967    TIP3     OH2      OT      -0.834000       15.9994           0
     35900 W2       11967    TIP3     H1       HT       0.417000       1.00800           0
     35901 W2       11967    TIP3     H2       HT       0.417000       1.00800           0
     35902 W2       11968    TIP3     OH2      OT      -0.834000       15.9994           0
     35903 W2       11968    TIP3     H1       HT       0.417000       1.00800           0
     35904 W2       11968    TIP3     H2       HT       0.417000       1.00800           0
     35905 W2       11969    TIP3     OH2      OT      -0.834000       15.9994           0
     35906 W2       11969    TIP3     H1       HT       0.417000       1.00800           0
     35907 W2       11969    TIP3     H2       HT       0.417000       1.00800           0
     35908 W2       11970    TIP3     OH2      OT      -0.834000       15.9994           0
     35909 W2       11970    TIP3     H1       HT       0.417000       1.00800           0
     35910 W2       11970    TIP3     H2       HT       0.417000       1.00800           0
     35911 W2       11971    TIP3     OH2      OT      -0.834000       15.9994           0
     35912 W2       11971    TIP3     H1       HT       0.417000       1.00800           0
     35913 W2       11971    TIP3     H2       HT       0.417000       1.00800           0
     35914 W2       11972    TIP3     OH2      OT      -0.834000       15.9994           0
     35915 W2       11972    TIP3     H1       HT       0.417000       1.00800           0
     35916 W2       11972    TIP3     H2       HT       0.417000       1.00800           0
     35917 W2       11973    TIP3     OH2      OT      -0.834000       15.9994           0
     35918 W2       11973    TIP3     H1       HT       0.417000       1.00800           0
     35919 W2       11973    TIP3     H2       HT       0.417000       1.00800           0
     35920 W2       11974    TIP3     OH2      OT      -0.834000       15.9994           0
     35921 W2       11974    TIP3     H1       HT       0.417000       1.00800           0
     35922 W2       11974    TIP3     H2       HT       0.417000       1.00800           0
     35923 W2       11975    TIP3     OH2      OT      -0.834000       15.9994           0
     35924 W2       11975    TIP3     H1       HT       0.417000       1.00800           0
     35925 W2       11975    TIP3     H2       HT       0.417000       1.00800           0
     35926 W2       11976    TIP3     OH2      OT      -0.834000       15.9994           0
     35927 W2       11976    TIP3     H1       HT       0.417000       1.00800           0
     35928 W2       11976    TIP3     H2       HT       0.417000       1.00800           0
     35929 W2       11977    TIP3     OH2      OT      -0.834000       15.9994           0
     35930 W2       11977    TIP3     H1       HT       0.417000       1.00800           0
     35931 W2       11977    TIP3     H2       HT       0.417000       1.00800           0
     35932 W2       11978    TIP3     OH2      OT      -0.834000       15.9994           0
     35933 W2       11978    TIP3     H1       HT       0.417000       1.00800           0
     35934 W2       11978    TIP3     H2       HT       0.417000       1.00800           0
     35935 W2       11979    TIP3     OH2      OT      -0.834000       15.9994           0
     35936 W2       11979    TIP3     H1       HT       0.417000       1.00800           0
     35937 W2       11979    TIP3     H2       HT       0.417000       1.00800           0
     35938 W2       11980    TIP3     OH2      OT      -0.834000       15.9994           0
     35939 W2       11980    TIP3     H1       HT       0.417000       1.00800           0
     35940 W2       11980    TIP3     H2       HT       0.417000       1.00800           0
     35941 W2       11981    TIP3     OH2      OT      -0.834000       15.9994           0
     35942 W2       11981    TIP3     H1       HT       0.417000       1.00800           0
     35943 W2       11981    TIP3     H2       HT       0.417000       1.00800           0
     35944 W2       11982    TIP3     OH2      OT      -0.834000       15.9994           0
     35945 W2       11982    TIP3     H1       HT       0.417000       1.00800           0
     35946 W2       11982    TIP3     H2       HT       0.417000       1.00800           0
     35947 W2       11983    TIP3     OH2      OT      -0.834000       15.9994           0
     35948 W2       11983    TIP3     H1       HT       0.417000       1.00800           0
     35949 W2       11983    TIP3     H2       HT       0.417000       1.00800           0
     35950 W2       11984    TIP3     OH2      OT      -0.834000       15.9994           0
     35951 W2       11984    TIP3     H1       HT       0.417000       1.00800           0
     35952 W2       11984    TIP3     H2       HT       0.417000       1.00800           0
     35953 W2       11985    TIP3     OH2      OT      -0.834000       15.9994           0
     35954 W2       11985    TIP3     H1       HT       0.417000       1.00800           0
     35955 W2       11985    TIP3     H2       HT       0.417000       1.00800           0
     35956 W2       11986    TIP3     OH2      OT      -0.834000       15.9994           0
     35957 W2       11986    TIP3     H1       HT       0.417000       1.00800           0
     35958 W2       11986    TIP3     H2       HT       0.417000       1.00800           0
     35959 W2       11987    TIP3     OH2      OT      -0.834000       15.9994           0
     35960 W2       11987    TIP3     H1       HT       0.417000       1.00800           0
     35961 W2       11987    TIP3     H2       HT       0.417000       1.00800           0
     35962 W2       11988    TIP3     OH2      OT      -0.834000       15.9994           0
     35963 W2       11988    TIP3     H1       HT       0.417000       1.00800           0
     35964 W2       11988    TIP3     H2       HT       0.417000       1.00800           0
     35965 W2       11989    TIP3     OH2      OT      -0.834000       15.9994           0
     35966 W2       11989    TIP3     H1       HT       0.417000       1.00800           0
     35967 W2       11989    TIP3     H2       HT       0.417000       1.00800           0
     35968 W2       11990    TIP3     OH2      OT      -0.834000       15.9994           0
     35969 W2       11990    TIP3     H1       HT       0.417000       1.00800           0
     35970 W2       11990    TIP3     H2       HT       0.417000       1.00800           0
     35971 W2       11991    TIP3     OH2      OT      -0.834000       15.9994           0
     35972 W2       11991    TIP3     H1       HT       0.417000       1.00800           0
     35973 W2       11991    TIP3     H2       HT       0.417000       1.00800           0
     35974 W2       11992    TIP3     OH2      OT      -0.834000       15.9994           0
     35975 W2       11992    TIP3     H1       HT       0.417000       1.00800           0
     35976 W2       11992    TIP3     H2       HT       0.417000       1.00800           0
     35977 W2       11993    TIP3     OH2      OT      -0.834000       15.9994           0
     35978 W2       11993    TIP3     H1       HT       0.417000       1.00800           0
     35979 W2       11993    TIP3     H2       HT       0.417000       1.00800           0
     35980 W2       11994    TIP3     OH2      OT      -0.834000       15.9994           0
     35981 W2       11994    TIP3     H1       HT       0.417000       1.00800           0
     35982 W2       11994    TIP3     H2       HT       0.417000       1.00800           0
     35983 W2       11995    TIP3     OH2      OT      -0.834000       15.9994           0
     35984 W2       11995    TIP3     H1       HT       0.417000       1.00800           0
     35985 W2       11995    TIP3     H2       HT       0.417000       1.00800           0
     35986 W2       11996    TIP3     OH2      OT      -0.834000       15.9994           0
     35987 W2       11996    TIP3     H1       HT       0.417000       1.00800           0
     35988 W2       11996    TIP3     H2       HT       0.417000       1.00800           0
     35989 W2       11997    TIP3     OH2      OT      -0.834000       15.9994           0
     35990 W2       11997    TIP3     H1       HT       0.417000       1.00800           0
     35991 W2       11997    TIP3     H2       HT       0.417000       1.00800           0
     35992 W2       11998    TIP3     OH2      OT      -0.834000       15.9994           0
     35993 W2       11998    TIP3     H1       HT       0.417000       1.00800           0
     35994 W2       11998    TIP3     H2       HT       0.417000       1.00800           0
     35995 W2       11999    TIP3     OH2      OT      -0.834000       15.9994           0
     35996 W2       11999    TIP3     H1       HT       0.417000       1.00800           0
     35997 W2       11999    TIP3     H2       HT       0.417000       1.00800           0
     35998 W2       12000    TIP3     OH2      OT      -0.834000       15.9994           0
     35999 W2       12000    TIP3     H1       HT       0.417000       1.00800           0
     36000 W2       12000    TIP3     H2       HT       0.417000       1.00800           0
     36001 W2       12001    TIP3     OH2      OT      -0.834000       15.9994           0
     36002 W2       12001    TIP3     H1       HT       0.417000       1.00800           0
     36003 W2       12001    TIP3     H2       HT       0.417000       1.00800           0
     36004 W2       12002    TIP3     OH2      OT      -0.834000       15.9994           0
     36005 W2       12002    TIP3     H1       HT       0.417000       1.00800           0
     36006 W2       12002    TIP3     H2       HT       0.417000       1.00800           0
     36007 W2       12003    TIP3     OH2      OT      -0.834000       15.9994           0
     36008 W2       12003    TIP3     H1       HT       0.417000       1.00800           0
     36009 W2       12003    TIP3     H2       HT       0.417000       1.00800           0
     36010 W2       12004    TIP3     OH2      OT      -0.834000       15.9994           0
     36011 W2       12004    TIP3     H1       HT       0.417000       1.00800           0
     36012 W2       12004    TIP3     H2       HT       0.417000       1.00800           0
     36013 W2       12005    TIP3     OH2      OT      -0.834000       15.9994           0
     36014 W2       12005    TIP3     H1       HT       0.417000       1.00800           0
     36015 W2       12005    TIP3     H2       HT       0.417000       1.00800           0
     36016 W2       12006    TIP3     OH2      OT      -0.834000       15.9994           0
     36017 W2       12006    TIP3     H1       HT       0.417000       1.00800           0
     36018 W2       12006    TIP3     H2       HT       0.417000       1.00800           0
     36019 W2       12007    TIP3     OH2      OT      -0.834000       15.9994           0
     36020 W2       12007    TIP3     H1       HT       0.417000       1.00800           0
     36021 W2       12007    TIP3     H2       HT       0.417000       1.00800           0
     36022 W2       12008    TIP3     OH2      OT      -0.834000       15.9994           0
     36023 W2       12008    TIP3     H1       HT       0.417000       1.00800           0
     36024 W2       12008    TIP3     H2       HT       0.417000       1.00800           0
     36025 W2       12009    TIP3     OH2      OT      -0.834000       15.9994           0
     36026 W2       12009    TIP3     H1       HT       0.417000       1.00800           0
     36027 W2       12009    TIP3     H2       HT       0.417000       1.00800           0
     36028 W2       12010    TIP3     OH2      OT      -0.834000       15.9994           0
     36029 W2       12010    TIP3     H1       HT       0.417000       1.00800           0
     36030 W2       12010    TIP3     H2       HT       0.417000       1.00800           0
     36031 W2       12011    TIP3     OH2      OT      -0.834000       15.9994           0
     36032 W2       12011    TIP3     H1       HT       0.417000       1.00800           0
     36033 W2       12011    TIP3     H2       HT       0.417000       1.00800           0
     36034 W2       12012    TIP3     OH2      OT      -0.834000       15.9994           0
     36035 W2       12012    TIP3     H1       HT       0.417000       1.00800           0
     36036 W2       12012    TIP3     H2       HT       0.417000       1.00800           0
     36037 W2       12013    TIP3     OH2      OT      -0.834000       15.9994           0
     36038 W2       12013    TIP3     H1       HT       0.417000       1.00800           0
     36039 W2       12013    TIP3     H2       HT       0.417000       1.00800           0
     36040 W2       12014    TIP3     OH2      OT      -0.834000       15.9994           0
     36041 W2       12014    TIP3     H1       HT       0.417000       1.00800           0
     36042 W2       12014    TIP3     H2       HT       0.417000       1.00800           0
     36043 W2       12015    TIP3     OH2      OT      -0.834000       15.9994           0
     36044 W2       12015    TIP3     H1       HT       0.417000       1.00800           0
     36045 W2       12015    TIP3     H2       HT       0.417000       1.00800           0
     36046 W2       12016    TIP3     OH2      OT      -0.834000       15.9994           0
     36047 W2       12016    TIP3     H1       HT       0.417000       1.00800           0
     36048 W2       12016    TIP3     H2       HT       0.417000       1.00800           0
     36049 W2       12017    TIP3     OH2      OT      -0.834000       15.9994           0
     36050 W2       12017    TIP3     H1       HT       0.417000       1.00800           0
     36051 W2       12017    TIP3     H2       HT       0.417000       1.00800           0
     36052 W2       12018    TIP3     OH2      OT      -0.834000       15.9994           0
     36053 W2       12018    TIP3     H1       HT       0.417000       1.00800           0
     36054 W2       12018    TIP3     H2       HT       0.417000       1.00800           0
     36055 W2       12019    TIP3     OH2      OT      -0.834000       15.9994           0
     36056 W2       12019    TIP3     H1       HT       0.417000       1.00800           0
     36057 W2       12019    TIP3     H2       HT       0.417000       1.00800           0
     36058 W2       12020    TIP3     OH2      OT      -0.834000       15.9994           0
     36059 W2       12020    TIP3     H1       HT       0.417000       1.00800           0
     36060 W2       12020    TIP3     H2       HT       0.417000       1.00800           0
     36061 W2       12021    TIP3     OH2      OT      -0.834000       15.9994           0
     36062 W2       12021    TIP3     H1       HT       0.417000       1.00800           0
     36063 W2       12021    TIP3     H2       HT       0.417000       1.00800           0
     36064 W2       12022    TIP3     OH2      OT      -0.834000       15.9994           0
     36065 W2       12022    TIP3     H1       HT       0.417000       1.00800           0
     36066 W2       12022    TIP3     H2       HT       0.417000       1.00800           0
     36067 W2       12023    TIP3     OH2      OT      -0.834000       15.9994           0
     36068 W2       12023    TIP3     H1       HT       0.417000       1.00800           0
     36069 W2       12023    TIP3     H2       HT       0.417000       1.00800           0
     36070 W2       12024    TIP3     OH2      OT      -0.834000       15.9994           0
     36071 W2       12024    TIP3     H1       HT       0.417000       1.00800           0
     36072 W2       12024    TIP3     H2       HT       0.417000       1.00800           0
     36073 W2       12025    TIP3     OH2      OT      -0.834000       15.9994           0
     36074 W2       12025    TIP3     H1       HT       0.417000       1.00800           0
     36075 W2       12025    TIP3     H2       HT       0.417000       1.00800           0
     36076 W2       12026    TIP3     OH2      OT      -0.834000       15.9994           0
     36077 W2       12026    TIP3     H1       HT       0.417000       1.00800           0
     36078 W2       12026    TIP3     H2       HT       0.417000       1.00800           0
     36079 W2       12027    TIP3     OH2      OT      -0.834000       15.9994           0
     36080 W2       12027    TIP3     H1       HT       0.417000       1.00800           0
     36081 W2       12027    TIP3     H2       HT       0.417000       1.00800           0
     36082 W2       12028    TIP3     OH2      OT      -0.834000       15.9994           0
     36083 W2       12028    TIP3     H1       HT       0.417000       1.00800           0
     36084 W2       12028    TIP3     H2       HT       0.417000       1.00800           0
     36085 W2       12029    TIP3     OH2      OT      -0.834000       15.9994           0
     36086 W2       12029    TIP3     H1       HT       0.417000       1.00800           0
     36087 W2       12029    TIP3     H2       HT       0.417000       1.00800           0
     36088 W2       12030    TIP3     OH2      OT      -0.834000       15.9994           0
     36089 W2       12030    TIP3     H1       HT       0.417000       1.00800           0
     36090 W2       12030    TIP3     H2       HT       0.417000       1.00800           0
     36091 W2       12031    TIP3     OH2      OT      -0.834000       15.9994           0
     36092 W2       12031    TIP3     H1       HT       0.417000       1.00800           0
     36093 W2       12031    TIP3     H2       HT       0.417000       1.00800           0
     36094 W2       12032    TIP3     OH2      OT      -0.834000       15.9994           0
     36095 W2       12032    TIP3     H1       HT       0.417000       1.00800           0
     36096 W2       12032    TIP3     H2       HT       0.417000       1.00800           0
     36097 W2       12033    TIP3     OH2      OT      -0.834000       15.9994           0
     36098 W2       12033    TIP3     H1       HT       0.417000       1.00800           0
     36099 W2       12033    TIP3     H2       HT       0.417000       1.00800           0
     36100 W2       12034    TIP3     OH2      OT      -0.834000       15.9994           0
     36101 W2       12034    TIP3     H1       HT       0.417000       1.00800           0
     36102 W2       12034    TIP3     H2       HT       0.417000       1.00800           0
     36103 W2       12035    TIP3     OH2      OT      -0.834000       15.9994           0
     36104 W2       12035    TIP3     H1       HT       0.417000       1.00800           0
     36105 W2       12035    TIP3     H2       HT       0.417000       1.00800           0
     36106 W2       12036    TIP3     OH2      OT      -0.834000       15.9994           0
     36107 W2       12036    TIP3     H1       HT       0.417000       1.00800           0
     36108 W2       12036    TIP3     H2       HT       0.417000       1.00800           0
     36109 W2       12037    TIP3     OH2      OT      -0.834000       15.9994           0
     36110 W2       12037    TIP3     H1       HT       0.417000       1.00800           0
     36111 W2       12037    TIP3     H2       HT       0.417000       1.00800           0
     36112 W2       12038    TIP3     OH2      OT      -0.834000       15.9994           0
     36113 W2       12038    TIP3     H1       HT       0.417000       1.00800           0
     36114 W2       12038    TIP3     H2       HT       0.417000       1.00800           0
     36115 W2       12039    TIP3     OH2      OT      -0.834000       15.9994           0
     36116 W2       12039    TIP3     H1       HT       0.417000       1.00800           0
     36117 W2       12039    TIP3     H2       HT       0.417000       1.00800           0
     36118 W2       12040    TIP3     OH2      OT      -0.834000       15.9994           0
     36119 W2       12040    TIP3     H1       HT       0.417000       1.00800           0
     36120 W2       12040    TIP3     H2       HT       0.417000       1.00800           0
     36121 W2       12041    TIP3     OH2      OT      -0.834000       15.9994           0
     36122 W2       12041    TIP3     H1       HT       0.417000       1.00800           0
     36123 W2       12041    TIP3     H2       HT       0.417000       1.00800           0
     36124 W2       12042    TIP3     OH2      OT      -0.834000       15.9994           0
     36125 W2       12042    TIP3     H1       HT       0.417000       1.00800           0
     36126 W2       12042    TIP3     H2       HT       0.417000       1.00800           0
     36127 W2       12043    TIP3     OH2      OT      -0.834000       15.9994           0
     36128 W2       12043    TIP3     H1       HT       0.417000       1.00800           0
     36129 W2       12043    TIP3     H2       HT       0.417000       1.00800           0
     36130 W2       12044    TIP3     OH2      OT      -0.834000       15.9994           0
     36131 W2       12044    TIP3     H1       HT       0.417000       1.00800           0
     36132 W2       12044    TIP3     H2       HT       0.417000       1.00800           0
     36133 W2       12045    TIP3     OH2      OT      -0.834000       15.9994           0
     36134 W2       12045    TIP3     H1       HT       0.417000       1.00800           0
     36135 W2       12045    TIP3     H2       HT       0.417000       1.00800           0
     36136 W2       12046    TIP3     OH2      OT      -0.834000       15.9994           0
     36137 W2       12046    TIP3     H1       HT       0.417000       1.00800           0
     36138 W2       12046    TIP3     H2       HT       0.417000       1.00800           0
     36139 W2       12047    TIP3     OH2      OT      -0.834000       15.9994           0
     36140 W2       12047    TIP3     H1       HT       0.417000       1.00800           0
     36141 W2       12047    TIP3     H2       HT       0.417000       1.00800           0
     36142 W2       12048    TIP3     OH2      OT      -0.834000       15.9994           0
     36143 W2       12048    TIP3     H1       HT       0.417000       1.00800           0
     36144 W2       12048    TIP3     H2       HT       0.417000       1.00800           0
     36145 W2       12049    TIP3     OH2      OT      -0.834000       15.9994           0
     36146 W2       12049    TIP3     H1       HT       0.417000       1.00800           0
     36147 W2       12049    TIP3     H2       HT       0.417000       1.00800           0
     36148 W2       12050    TIP3     OH2      OT      -0.834000       15.9994           0
     36149 W2       12050    TIP3     H1       HT       0.417000       1.00800           0
     36150 W2       12050    TIP3     H2       HT       0.417000       1.00800           0
     36151 W2       12051    TIP3     OH2      OT      -0.834000       15.9994           0
     36152 W2       12051    TIP3     H1       HT       0.417000       1.00800           0
     36153 W2       12051    TIP3     H2       HT       0.417000       1.00800           0
     36154 W2       12052    TIP3     OH2      OT      -0.834000       15.9994           0
     36155 W2       12052    TIP3     H1       HT       0.417000       1.00800           0
     36156 W2       12052    TIP3     H2       HT       0.417000       1.00800           0
     36157 W2       12053    TIP3     OH2      OT      -0.834000       15.9994           0
     36158 W2       12053    TIP3     H1       HT       0.417000       1.00800           0
     36159 W2       12053    TIP3     H2       HT       0.417000       1.00800           0
     36160 W2       12054    TIP3     OH2      OT      -0.834000       15.9994           0
     36161 W2       12054    TIP3     H1       HT       0.417000       1.00800           0
     36162 W2       12054    TIP3     H2       HT       0.417000       1.00800           0
     36163 W2       12055    TIP3     OH2      OT      -0.834000       15.9994           0
     36164 W2       12055    TIP3     H1       HT       0.417000       1.00800           0
     36165 W2       12055    TIP3     H2       HT       0.417000       1.00800           0
     36166 W2       12056    TIP3     OH2      OT      -0.834000       15.9994           0
     36167 W2       12056    TIP3     H1       HT       0.417000       1.00800           0
     36168 W2       12056    TIP3     H2       HT       0.417000       1.00800           0
     36169 W2       12057    TIP3     OH2      OT      -0.834000       15.9994           0
     36170 W2       12057    TIP3     H1       HT       0.417000       1.00800           0
     36171 W2       12057    TIP3     H2       HT       0.417000       1.00800           0
     36172 W2       12058    TIP3     OH2      OT      -0.834000       15.9994           0
     36173 W2       12058    TIP3     H1       HT       0.417000       1.00800           0
     36174 W2       12058    TIP3     H2       HT       0.417000       1.00800           0
     36175 W2       12059    TIP3     OH2      OT      -0.834000       15.9994           0
     36176 W2       12059    TIP3     H1       HT       0.417000       1.00800           0
     36177 W2       12059    TIP3     H2       HT       0.417000       1.00800           0
     36178 W2       12060    TIP3     OH2      OT      -0.834000       15.9994           0
     36179 W2       12060    TIP3     H1       HT       0.417000       1.00800           0
     36180 W2       12060    TIP3     H2       HT       0.417000       1.00800           0
     36181 W2       12061    TIP3     OH2      OT      -0.834000       15.9994           0
     36182 W2       12061    TIP3     H1       HT       0.417000       1.00800           0
     36183 W2       12061    TIP3     H2       HT       0.417000       1.00800           0
     36184 W2       12062    TIP3     OH2      OT      -0.834000       15.9994           0
     36185 W2       12062    TIP3     H1       HT       0.417000       1.00800           0
     36186 W2       12062    TIP3     H2       HT       0.417000       1.00800           0
     36187 W2       12063    TIP3     OH2      OT      -0.834000       15.9994           0
     36188 W2       12063    TIP3     H1       HT       0.417000       1.00800           0
     36189 W2       12063    TIP3     H2       HT       0.417000       1.00800           0
     36190 W2       12064    TIP3     OH2      OT      -0.834000       15.9994           0
     36191 W2       12064    TIP3     H1       HT       0.417000       1.00800           0
     36192 W2       12064    TIP3     H2       HT       0.417000       1.00800           0
     36193 W2       12065    TIP3     OH2      OT      -0.834000       15.9994           0
     36194 W2       12065    TIP3     H1       HT       0.417000       1.00800           0
     36195 W2       12065    TIP3     H2       HT       0.417000       1.00800           0
     36196 W2       12066    TIP3     OH2      OT      -0.834000       15.9994           0
     36197 W2       12066    TIP3     H1       HT       0.417000       1.00800           0
     36198 W2       12066    TIP3     H2       HT       0.417000       1.00800           0
     36199 W2       12067    TIP3     OH2      OT      -0.834000       15.9994           0
     36200 W2       12067    TIP3     H1       HT       0.417000       1.00800           0
     36201 W2       12067    TIP3     H2       HT       0.417000       1.00800           0
     36202 W2       12068    TIP3     OH2      OT      -0.834000       15.9994           0
     36203 W2       12068    TIP3     H1       HT       0.417000       1.00800           0
     36204 W2       12068    TIP3     H2       HT       0.417000       1.00800           0
     36205 W2       12069    TIP3     OH2      OT      -0.834000       15.9994           0
     36206 W2       12069    TIP3     H1       HT       0.417000       1.00800           0
     36207 W2       12069    TIP3     H2       HT       0.417000       1.00800           0
     36208 W2       12070    TIP3     OH2      OT      -0.834000       15.9994           0
     36209 W2       12070    TIP3     H1       HT       0.417000       1.00800           0
     36210 W2       12070    TIP3     H2       HT       0.417000       1.00800           0
     36211 W2       12071    TIP3     OH2      OT      -0.834000       15.9994           0
     36212 W2       12071    TIP3     H1       HT       0.417000       1.00800           0
     36213 W2       12071    TIP3     H2       HT       0.417000       1.00800           0
     36214 W2       12072    TIP3     OH2      OT      -0.834000       15.9994           0
     36215 W2       12072    TIP3     H1       HT       0.417000       1.00800           0
     36216 W2       12072    TIP3     H2       HT       0.417000       1.00800           0
     36217 W2       12073    TIP3     OH2      OT      -0.834000       15.9994           0
     36218 W2       12073    TIP3     H1       HT       0.417000       1.00800           0
     36219 W2       12073    TIP3     H2       HT       0.417000       1.00800           0
     36220 W2       12074    TIP3     OH2      OT      -0.834000       15.9994           0
     36221 W2       12074    TIP3     H1       HT       0.417000       1.00800           0
     36222 W2       12074    TIP3     H2       HT       0.417000       1.00800           0
     36223 W2       12075    TIP3     OH2      OT      -0.834000       15.9994           0
     36224 W2       12075    TIP3     H1       HT       0.417000       1.00800           0
     36225 W2       12075    TIP3     H2       HT       0.417000       1.00800           0
     36226 W2       12076    TIP3     OH2      OT      -0.834000       15.9994           0
     36227 W2       12076    TIP3     H1       HT       0.417000       1.00800           0
     36228 W2       12076    TIP3     H2       HT       0.417000       1.00800           0
     36229 W2       12077    TIP3     OH2      OT      -0.834000       15.9994           0
     36230 W2       12077    TIP3     H1       HT       0.417000       1.00800           0
     36231 W2       12077    TIP3     H2       HT       0.417000       1.00800           0
     36232 W2       12078    TIP3     OH2      OT      -0.834000       15.9994           0
     36233 W2       12078    TIP3     H1       HT       0.417000       1.00800           0
     36234 W2       12078    TIP3     H2       HT       0.417000       1.00800           0
     36235 W2       12079    TIP3     OH2      OT      -0.834000       15.9994           0
     36236 W2       12079    TIP3     H1       HT       0.417000       1.00800           0
     36237 W2       12079    TIP3     H2       HT       0.417000       1.00800           0
     36238 W2       12080    TIP3     OH2      OT      -0.834000       15.9994           0
     36239 W2       12080    TIP3     H1       HT       0.417000       1.00800           0
     36240 W2       12080    TIP3     H2       HT       0.417000       1.00800           0
     36241 W2       12081    TIP3     OH2      OT      -0.834000       15.9994           0
     36242 W2       12081    TIP3     H1       HT       0.417000       1.00800           0
     36243 W2       12081    TIP3     H2       HT       0.417000       1.00800           0
     36244 W2       12082    TIP3     OH2      OT      -0.834000       15.9994           0
     36245 W2       12082    TIP3     H1       HT       0.417000       1.00800           0
     36246 W2       12082    TIP3     H2       HT       0.417000       1.00800           0
     36247 W2       12083    TIP3     OH2      OT      -0.834000       15.9994           0
     36248 W2       12083    TIP3     H1       HT       0.417000       1.00800           0
     36249 W2       12083    TIP3     H2       HT       0.417000       1.00800           0
     36250 W2       12084    TIP3     OH2      OT      -0.834000       15.9994           0
     36251 W2       12084    TIP3     H1       HT       0.417000       1.00800           0
     36252 W2       12084    TIP3     H2       HT       0.417000       1.00800           0
     36253 W2       12085    TIP3     OH2      OT      -0.834000       15.9994           0
     36254 W2       12085    TIP3     H1       HT       0.417000       1.00800           0
     36255 W2       12085    TIP3     H2       HT       0.417000       1.00800           0
     36256 W2       12086    TIP3     OH2      OT      -0.834000       15.9994           0
     36257 W2       12086    TIP3     H1       HT       0.417000       1.00800           0
     36258 W2       12086    TIP3     H2       HT       0.417000       1.00800           0
     36259 W2       12087    TIP3     OH2      OT      -0.834000       15.9994           0
     36260 W2       12087    TIP3     H1       HT       0.417000       1.00800           0
     36261 W2       12087    TIP3     H2       HT       0.417000       1.00800           0
     36262 W2       12088    TIP3     OH2      OT      -0.834000       15.9994           0
     36263 W2       12088    TIP3     H1       HT       0.417000       1.00800           0
     36264 W2       12088    TIP3     H2       HT       0.417000       1.00800           0
     36265 W2       12089    TIP3     OH2      OT      -0.834000       15.9994           0
     36266 W2       12089    TIP3     H1       HT       0.417000       1.00800           0
     36267 W2       12089    TIP3     H2       HT       0.417000       1.00800           0
     36268 W2       12090    TIP3     OH2      OT      -0.834000       15.9994           0
     36269 W2       12090    TIP3     H1       HT       0.417000       1.00800           0
     36270 W2       12090    TIP3     H2       HT       0.417000       1.00800           0
     36271 W2       12091    TIP3     OH2      OT      -0.834000       15.9994           0
     36272 W2       12091    TIP3     H1       HT       0.417000       1.00800           0
     36273 W2       12091    TIP3     H2       HT       0.417000       1.00800           0
     36274 W2       12092    TIP3     OH2      OT      -0.834000       15.9994           0
     36275 W2       12092    TIP3     H1       HT       0.417000       1.00800           0
     36276 W2       12092    TIP3     H2       HT       0.417000       1.00800           0
     36277 W2       12093    TIP3     OH2      OT      -0.834000       15.9994           0
     36278 W2       12093    TIP3     H1       HT       0.417000       1.00800           0
     36279 W2       12093    TIP3     H2       HT       0.417000       1.00800           0
     36280 W2       12094    TIP3     OH2      OT      -0.834000       15.9994           0
     36281 W2       12094    TIP3     H1       HT       0.417000       1.00800           0
     36282 W2       12094    TIP3     H2       HT       0.417000       1.00800           0
     36283 W2       12095    TIP3     OH2      OT      -0.834000       15.9994           0
     36284 W2       12095    TIP3     H1       HT       0.417000       1.00800           0
     36285 W2       12095    TIP3     H2       HT       0.417000       1.00800           0
     36286 W2       12096    TIP3     OH2      OT      -0.834000       15.9994           0
     36287 W2       12096    TIP3     H1       HT       0.417000       1.00800           0
     36288 W2       12096    TIP3     H2       HT       0.417000       1.00800           0
     36289 W2       12097    TIP3     OH2      OT      -0.834000       15.9994           0
     36290 W2       12097    TIP3     H1       HT       0.417000       1.00800           0
     36291 W2       12097    TIP3     H2       HT       0.417000       1.00800           0
     36292 W2       12098    TIP3     OH2      OT      -0.834000       15.9994           0
     36293 W2       12098    TIP3     H1       HT       0.417000       1.00800           0
     36294 W2       12098    TIP3     H2       HT       0.417000       1.00800           0
     36295 W2       12099    TIP3     OH2      OT      -0.834000       15.9994           0
     36296 W2       12099    TIP3     H1       HT       0.417000       1.00800           0
     36297 W2       12099    TIP3     H2       HT       0.417000       1.00800           0
     36298 W2       12100    TIP3     OH2      OT      -0.834000       15.9994           0
     36299 W2       12100    TIP3     H1       HT       0.417000       1.00800           0
     36300 W2       12100    TIP3     H2       HT       0.417000       1.00800           0
     36301 W2       12101    TIP3     OH2      OT      -0.834000       15.9994           0
     36302 W2       12101    TIP3     H1       HT       0.417000       1.00800           0
     36303 W2       12101    TIP3     H2       HT       0.417000       1.00800           0
     36304 W2       12102    TIP3     OH2      OT      -0.834000       15.9994           0
     36305 W2       12102    TIP3     H1       HT       0.417000       1.00800           0
     36306 W2       12102    TIP3     H2       HT       0.417000       1.00800           0
     36307 W2       12103    TIP3     OH2      OT      -0.834000       15.9994           0
     36308 W2       12103    TIP3     H1       HT       0.417000       1.00800           0
     36309 W2       12103    TIP3     H2       HT       0.417000       1.00800           0
     36310 W2       12104    TIP3     OH2      OT      -0.834000       15.9994           0
     36311 W2       12104    TIP3     H1       HT       0.417000       1.00800           0
     36312 W2       12104    TIP3     H2       HT       0.417000       1.00800           0
     36313 W2       12105    TIP3     OH2      OT      -0.834000       15.9994           0
     36314 W2       12105    TIP3     H1       HT       0.417000       1.00800           0
     36315 W2       12105    TIP3     H2       HT       0.417000       1.00800           0
     36316 W2       12106    TIP3     OH2      OT      -0.834000       15.9994           0
     36317 W2       12106    TIP3     H1       HT       0.417000       1.00800           0
     36318 W2       12106    TIP3     H2       HT       0.417000       1.00800           0
     36319 W2       12107    TIP3     OH2      OT      -0.834000       15.9994           0
     36320 W2       12107    TIP3     H1       HT       0.417000       1.00800           0
     36321 W2       12107    TIP3     H2       HT       0.417000       1.00800           0
     36322 W2       12108    TIP3     OH2      OT      -0.834000       15.9994           0
     36323 W2       12108    TIP3     H1       HT       0.417000       1.00800           0
     36324 W2       12108    TIP3     H2       HT       0.417000       1.00800           0
     36325 W2       12109    TIP3     OH2      OT      -0.834000       15.9994           0
     36326 W2       12109    TIP3     H1       HT       0.417000       1.00800           0
     36327 W2       12109    TIP3     H2       HT       0.417000       1.00800           0
     36328 W2       12110    TIP3     OH2      OT      -0.834000       15.9994           0
     36329 W2       12110    TIP3     H1       HT       0.417000       1.00800           0
     36330 W2       12110    TIP3     H2       HT       0.417000       1.00800           0
     36331 W2       12111    TIP3     OH2      OT      -0.834000       15.9994           0
     36332 W2       12111    TIP3     H1       HT       0.417000       1.00800           0
     36333 W2       12111    TIP3     H2       HT       0.417000       1.00800           0
     36334 W2       12112    TIP3     OH2      OT      -0.834000       15.9994           0
     36335 W2       12112    TIP3     H1       HT       0.417000       1.00800           0
     36336 W2       12112    TIP3     H2       HT       0.417000       1.00800           0
     36337 W2       12113    TIP3     OH2      OT      -0.834000       15.9994           0
     36338 W2       12113    TIP3     H1       HT       0.417000       1.00800           0
     36339 W2       12113    TIP3     H2       HT       0.417000       1.00800           0
     36340 W2       12114    TIP3     OH2      OT      -0.834000       15.9994           0
     36341 W2       12114    TIP3     H1       HT       0.417000       1.00800           0
     36342 W2       12114    TIP3     H2       HT       0.417000       1.00800           0
     36343 W2       12115    TIP3     OH2      OT      -0.834000       15.9994           0
     36344 W2       12115    TIP3     H1       HT       0.417000       1.00800           0
     36345 W2       12115    TIP3     H2       HT       0.417000       1.00800           0
     36346 W2       12116    TIP3     OH2      OT      -0.834000       15.9994           0
     36347 W2       12116    TIP3     H1       HT       0.417000       1.00800           0
     36348 W2       12116    TIP3     H2       HT       0.417000       1.00800           0
     36349 W2       12117    TIP3     OH2      OT      -0.834000       15.9994           0
     36350 W2       12117    TIP3     H1       HT       0.417000       1.00800           0
     36351 W2       12117    TIP3     H2       HT       0.417000       1.00800           0
     36352 W2       12118    TIP3     OH2      OT      -0.834000       15.9994           0
     36353 W2       12118    TIP3     H1       HT       0.417000       1.00800           0
     36354 W2       12118    TIP3     H2       HT       0.417000       1.00800           0
     36355 W2       12119    TIP3     OH2      OT      -0.834000       15.9994           0
     36356 W2       12119    TIP3     H1       HT       0.417000       1.00800           0
     36357 W2       12119    TIP3     H2       HT       0.417000       1.00800           0
     36358 W2       12120    TIP3     OH2      OT      -0.834000       15.9994           0
     36359 W2       12120    TIP3     H1       HT       0.417000       1.00800           0
     36360 W2       12120    TIP3     H2       HT       0.417000       1.00800           0
     36361 W2       12121    TIP3     OH2      OT      -0.834000       15.9994           0
     36362 W2       12121    TIP3     H1       HT       0.417000       1.00800           0
     36363 W2       12121    TIP3     H2       HT       0.417000       1.00800           0
     36364 W2       12122    TIP3     OH2      OT      -0.834000       15.9994           0
     36365 W2       12122    TIP3     H1       HT       0.417000       1.00800           0
     36366 W2       12122    TIP3     H2       HT       0.417000       1.00800           0
     36367 W2       12123    TIP3     OH2      OT      -0.834000       15.9994           0
     36368 W2       12123    TIP3     H1       HT       0.417000       1.00800           0
     36369 W2       12123    TIP3     H2       HT       0.417000       1.00800           0
     36370 W2       12124    TIP3     OH2      OT      -0.834000       15.9994           0
     36371 W2       12124    TIP3     H1       HT       0.417000       1.00800           0
     36372 W2       12124    TIP3     H2       HT       0.417000       1.00800           0
     36373 W2       12125    TIP3     OH2      OT      -0.834000       15.9994           0
     36374 W2       12125    TIP3     H1       HT       0.417000       1.00800           0
     36375 W2       12125    TIP3     H2       HT       0.417000       1.00800           0
     36376 W2       12126    TIP3     OH2      OT      -0.834000       15.9994           0
     36377 W2       12126    TIP3     H1       HT       0.417000       1.00800           0
     36378 W2       12126    TIP3     H2       HT       0.417000       1.00800           0
     36379 W2       12127    TIP3     OH2      OT      -0.834000       15.9994           0
     36380 W2       12127    TIP3     H1       HT       0.417000       1.00800           0
     36381 W2       12127    TIP3     H2       HT       0.417000       1.00800           0
     36382 W2       12128    TIP3     OH2      OT      -0.834000       15.9994           0
     36383 W2       12128    TIP3     H1       HT       0.417000       1.00800           0
     36384 W2       12128    TIP3     H2       HT       0.417000       1.00800           0
     36385 W2       12129    TIP3     OH2      OT      -0.834000       15.9994           0
     36386 W2       12129    TIP3     H1       HT       0.417000       1.00800           0
     36387 W2       12129    TIP3     H2       HT       0.417000       1.00800           0
     36388 W2       12130    TIP3     OH2      OT      -0.834000       15.9994           0
     36389 W2       12130    TIP3     H1       HT       0.417000       1.00800           0
     36390 W2       12130    TIP3     H2       HT       0.417000       1.00800           0
     36391 W2       12131    TIP3     OH2      OT      -0.834000       15.9994           0
     36392 W2       12131    TIP3     H1       HT       0.417000       1.00800           0
     36393 W2       12131    TIP3     H2       HT       0.417000       1.00800           0
     36394 W2       12132    TIP3     OH2      OT      -0.834000       15.9994           0
     36395 W2       12132    TIP3     H1       HT       0.417000       1.00800           0
     36396 W2       12132    TIP3     H2       HT       0.417000       1.00800           0
     36397 W2       12133    TIP3     OH2      OT      -0.834000       15.9994           0
     36398 W2       12133    TIP3     H1       HT       0.417000       1.00800           0
     36399 W2       12133    TIP3     H2       HT       0.417000       1.00800           0
     36400 W2       12134    TIP3     OH2      OT      -0.834000       15.9994           0
     36401 W2       12134    TIP3     H1       HT       0.417000       1.00800           0
     36402 W2       12134    TIP3     H2       HT       0.417000       1.00800           0
     36403 W2       12135    TIP3     OH2      OT      -0.834000       15.9994           0
     36404 W2       12135    TIP3     H1       HT       0.417000       1.00800           0
     36405 W2       12135    TIP3     H2       HT       0.417000       1.00800           0
     36406 W2       12136    TIP3     OH2      OT      -0.834000       15.9994           0
     36407 W2       12136    TIP3     H1       HT       0.417000       1.00800           0
     36408 W2       12136    TIP3     H2       HT       0.417000       1.00800           0
     36409 W2       12137    TIP3     OH2      OT      -0.834000       15.9994           0
     36410 W2       12137    TIP3     H1       HT       0.417000       1.00800           0
     36411 W2       12137    TIP3     H2       HT       0.417000       1.00800           0
     36412 W2       12138    TIP3     OH2      OT      -0.834000       15.9994           0
     36413 W2       12138    TIP3     H1       HT       0.417000       1.00800           0
     36414 W2       12138    TIP3     H2       HT       0.417000       1.00800           0
     36415 W2       12139    TIP3     OH2      OT      -0.834000       15.9994           0
     36416 W2       12139    TIP3     H1       HT       0.417000       1.00800           0
     36417 W2       12139    TIP3     H2       HT       0.417000       1.00800           0
     36418 W2       12140    TIP3     OH2      OT      -0.834000       15.9994           0
     36419 W2       12140    TIP3     H1       HT       0.417000       1.00800           0
     36420 W2       12140    TIP3     H2       HT       0.417000       1.00800           0
     36421 W2       12141    TIP3     OH2      OT      -0.834000       15.9994           0
     36422 W2       12141    TIP3     H1       HT       0.417000       1.00800           0
     36423 W2       12141    TIP3     H2       HT       0.417000       1.00800           0
     36424 W2       12142    TIP3     OH2      OT      -0.834000       15.9994           0
     36425 W2       12142    TIP3     H1       HT       0.417000       1.00800           0
     36426 W2       12142    TIP3     H2       HT       0.417000       1.00800           0
     36427 W2       12143    TIP3     OH2      OT      -0.834000       15.9994           0
     36428 W2       12143    TIP3     H1       HT       0.417000       1.00800           0
     36429 W2       12143    TIP3     H2       HT       0.417000       1.00800           0
     36430 W2       12144    TIP3     OH2      OT      -0.834000       15.9994           0
     36431 W2       12144    TIP3     H1       HT       0.417000       1.00800           0
     36432 W2       12144    TIP3     H2       HT       0.417000       1.00800           0
     36433 W2       12145    TIP3     OH2      OT      -0.834000       15.9994           0
     36434 W2       12145    TIP3     H1       HT       0.417000       1.00800           0
     36435 W2       12145    TIP3     H2       HT       0.417000       1.00800           0
     36436 W2       12146    TIP3     OH2      OT      -0.834000       15.9994           0
     36437 W2       12146    TIP3     H1       HT       0.417000       1.00800           0
     36438 W2       12146    TIP3     H2       HT       0.417000       1.00800           0
     36439 W2       12147    TIP3     OH2      OT      -0.834000       15.9994           0
     36440 W2       12147    TIP3     H1       HT       0.417000       1.00800           0
     36441 W2       12147    TIP3     H2       HT       0.417000       1.00800           0
     36442 W2       12148    TIP3     OH2      OT      -0.834000       15.9994           0
     36443 W2       12148    TIP3     H1       HT       0.417000       1.00800           0
     36444 W2       12148    TIP3     H2       HT       0.417000       1.00800           0
     36445 W2       12149    TIP3     OH2      OT      -0.834000       15.9994           0
     36446 W2       12149    TIP3     H1       HT       0.417000       1.00800           0
     36447 W2       12149    TIP3     H2       HT       0.417000       1.00800           0
     36448 W2       12150    TIP3     OH2      OT      -0.834000       15.9994           0
     36449 W2       12150    TIP3     H1       HT       0.417000       1.00800           0
     36450 W2       12150    TIP3     H2       HT       0.417000       1.00800           0
     36451 W2       12151    TIP3     OH2      OT      -0.834000       15.9994           0
     36452 W2       12151    TIP3     H1       HT       0.417000       1.00800           0
     36453 W2       12151    TIP3     H2       HT       0.417000       1.00800           0
     36454 W2       12152    TIP3     OH2      OT      -0.834000       15.9994           0
     36455 W2       12152    TIP3     H1       HT       0.417000       1.00800           0
     36456 W2       12152    TIP3     H2       HT       0.417000       1.00800           0
     36457 W2       12153    TIP3     OH2      OT      -0.834000       15.9994           0
     36458 W2       12153    TIP3     H1       HT       0.417000       1.00800           0
     36459 W2       12153    TIP3     H2       HT       0.417000       1.00800           0
     36460 W2       12154    TIP3     OH2      OT      -0.834000       15.9994           0
     36461 W2       12154    TIP3     H1       HT       0.417000       1.00800           0
     36462 W2       12154    TIP3     H2       HT       0.417000       1.00800           0
     36463 W2       12155    TIP3     OH2      OT      -0.834000       15.9994           0
     36464 W2       12155    TIP3     H1       HT       0.417000       1.00800           0
     36465 W2       12155    TIP3     H2       HT       0.417000       1.00800           0
     36466 W2       12156    TIP3     OH2      OT      -0.834000       15.9994           0
     36467 W2       12156    TIP3     H1       HT       0.417000       1.00800           0
     36468 W2       12156    TIP3     H2       HT       0.417000       1.00800           0
     36469 W2       12157    TIP3     OH2      OT      -0.834000       15.9994           0
     36470 W2       12157    TIP3     H1       HT       0.417000       1.00800           0
     36471 W2       12157    TIP3     H2       HT       0.417000       1.00800           0
     36472 W2       12158    TIP3     OH2      OT      -0.834000       15.9994           0
     36473 W2       12158    TIP3     H1       HT       0.417000       1.00800           0
     36474 W2       12158    TIP3     H2       HT       0.417000       1.00800           0
     36475 W2       12159    TIP3     OH2      OT      -0.834000       15.9994           0
     36476 W2       12159    TIP3     H1       HT       0.417000       1.00800           0
     36477 W2       12159    TIP3     H2       HT       0.417000       1.00800           0
     36478 W2       12160    TIP3     OH2      OT      -0.834000       15.9994           0
     36479 W2       12160    TIP3     H1       HT       0.417000       1.00800           0
     36480 W2       12160    TIP3     H2       HT       0.417000       1.00800           0
     36481 W2       12161    TIP3     OH2      OT      -0.834000       15.9994           0
     36482 W2       12161    TIP3     H1       HT       0.417000       1.00800           0
     36483 W2       12161    TIP3     H2       HT       0.417000       1.00800           0
     36484 W2       12162    TIP3     OH2      OT      -0.834000       15.9994           0
     36485 W2       12162    TIP3     H1       HT       0.417000       1.00800           0
     36486 W2       12162    TIP3     H2       HT       0.417000       1.00800           0
     36487 W2       12163    TIP3     OH2      OT      -0.834000       15.9994           0
     36488 W2       12163    TIP3     H1       HT       0.417000       1.00800           0
     36489 W2       12163    TIP3     H2       HT       0.417000       1.00800           0
     36490 W2       12164    TIP3     OH2      OT      -0.834000       15.9994           0
     36491 W2       12164    TIP3     H1       HT       0.417000       1.00800           0
     36492 W2       12164    TIP3     H2       HT       0.417000       1.00800           0
     36493 W2       12165    TIP3     OH2      OT      -0.834000       15.9994           0
     36494 W2       12165    TIP3     H1       HT       0.417000       1.00800           0
     36495 W2       12165    TIP3     H2       HT       0.417000       1.00800           0
     36496 W2       12166    TIP3     OH2      OT      -0.834000       15.9994           0
     36497 W2       12166    TIP3     H1       HT       0.417000       1.00800           0
     36498 W2       12166    TIP3     H2       HT       0.417000       1.00800           0
     36499 W2       12167    TIP3     OH2      OT      -0.834000       15.9994           0
     36500 W2       12167    TIP3     H1       HT       0.417000       1.00800           0
     36501 W2       12167    TIP3     H2       HT       0.417000       1.00800           0
     36502 W2       12168    TIP3     OH2      OT      -0.834000       15.9994           0
     36503 W2       12168    TIP3     H1       HT       0.417000       1.00800           0
     36504 W2       12168    TIP3     H2       HT       0.417000       1.00800           0
     36505 W2       12169    TIP3     OH2      OT      -0.834000       15.9994           0
     36506 W2       12169    TIP3     H1       HT       0.417000       1.00800           0
     36507 W2       12169    TIP3     H2       HT       0.417000       1.00800           0
     36508 W2       12170    TIP3     OH2      OT      -0.834000       15.9994           0
     36509 W2       12170    TIP3     H1       HT       0.417000       1.00800           0
     36510 W2       12170    TIP3     H2       HT       0.417000       1.00800           0
     36511 W2       12171    TIP3     OH2      OT      -0.834000       15.9994           0
     36512 W2       12171    TIP3     H1       HT       0.417000       1.00800           0
     36513 W2       12171    TIP3     H2       HT       0.417000       1.00800           0
     36514 W2       12172    TIP3     OH2      OT      -0.834000       15.9994           0
     36515 W2       12172    TIP3     H1       HT       0.417000       1.00800           0
     36516 W2       12172    TIP3     H2       HT       0.417000       1.00800           0
     36517 W2       12173    TIP3     OH2      OT      -0.834000       15.9994           0
     36518 W2       12173    TIP3     H1       HT       0.417000       1.00800           0
     36519 W2       12173    TIP3     H2       HT       0.417000       1.00800           0
     36520 W2       12174    TIP3     OH2      OT      -0.834000       15.9994           0
     36521 W2       12174    TIP3     H1       HT       0.417000       1.00800           0
     36522 W2       12174    TIP3     H2       HT       0.417000       1.00800           0
     36523 W2       12175    TIP3     OH2      OT      -0.834000       15.9994           0
     36524 W2       12175    TIP3     H1       HT       0.417000       1.00800           0
     36525 W2       12175    TIP3     H2       HT       0.417000       1.00800           0
     36526 W2       12176    TIP3     OH2      OT      -0.834000       15.9994           0
     36527 W2       12176    TIP3     H1       HT       0.417000       1.00800           0
     36528 W2       12176    TIP3     H2       HT       0.417000       1.00800           0
     36529 W2       12177    TIP3     OH2      OT      -0.834000       15.9994           0
     36530 W2       12177    TIP3     H1       HT       0.417000       1.00800           0
     36531 W2       12177    TIP3     H2       HT       0.417000       1.00800           0
     36532 W2       12178    TIP3     OH2      OT      -0.834000       15.9994           0
     36533 W2       12178    TIP3     H1       HT       0.417000       1.00800           0
     36534 W2       12178    TIP3     H2       HT       0.417000       1.00800           0
     36535 W2       12179    TIP3     OH2      OT      -0.834000       15.9994           0
     36536 W2       12179    TIP3     H1       HT       0.417000       1.00800           0
     36537 W2       12179    TIP3     H2       HT       0.417000       1.00800           0
     36538 W2       12180    TIP3     OH2      OT      -0.834000       15.9994           0
     36539 W2       12180    TIP3     H1       HT       0.417000       1.00800           0
     36540 W2       12180    TIP3     H2       HT       0.417000       1.00800           0
     36541 W2       12181    TIP3     OH2      OT      -0.834000       15.9994           0
     36542 W2       12181    TIP3     H1       HT       0.417000       1.00800           0
     36543 W2       12181    TIP3     H2       HT       0.417000       1.00800           0
     36544 W2       12182    TIP3     OH2      OT      -0.834000       15.9994           0
     36545 W2       12182    TIP3     H1       HT       0.417000       1.00800           0
     36546 W2       12182    TIP3     H2       HT       0.417000       1.00800           0
     36547 W2       12183    TIP3     OH2      OT      -0.834000       15.9994           0
     36548 W2       12183    TIP3     H1       HT       0.417000       1.00800           0
     36549 W2       12183    TIP3     H2       HT       0.417000       1.00800           0
     36550 W2       12184    TIP3     OH2      OT      -0.834000       15.9994           0
     36551 W2       12184    TIP3     H1       HT       0.417000       1.00800           0
     36552 W2       12184    TIP3     H2       HT       0.417000       1.00800           0
     36553 W2       12185    TIP3     OH2      OT      -0.834000       15.9994           0
     36554 W2       12185    TIP3     H1       HT       0.417000       1.00800           0
     36555 W2       12185    TIP3     H2       HT       0.417000       1.00800           0
     36556 W2       12186    TIP3     OH2      OT      -0.834000       15.9994           0
     36557 W2       12186    TIP3     H1       HT       0.417000       1.00800           0
     36558 W2       12186    TIP3     H2       HT       0.417000       1.00800           0
     36559 W2       12187    TIP3     OH2      OT      -0.834000       15.9994           0
     36560 W2       12187    TIP3     H1       HT       0.417000       1.00800           0
     36561 W2       12187    TIP3     H2       HT       0.417000       1.00800           0
     36562 W2       12188    TIP3     OH2      OT      -0.834000       15.9994           0
     36563 W2       12188    TIP3     H1       HT       0.417000       1.00800           0
     36564 W2       12188    TIP3     H2       HT       0.417000       1.00800           0
     36565 W2       12189    TIP3     OH2      OT      -0.834000       15.9994           0
     36566 W2       12189    TIP3     H1       HT       0.417000       1.00800           0
     36567 W2       12189    TIP3     H2       HT       0.417000       1.00800           0
     36568 W2       12190    TIP3     OH2      OT      -0.834000       15.9994           0
     36569 W2       12190    TIP3     H1       HT       0.417000       1.00800           0
     36570 W2       12190    TIP3     H2       HT       0.417000       1.00800           0
     36571 W2       12191    TIP3     OH2      OT      -0.834000       15.9994           0
     36572 W2       12191    TIP3     H1       HT       0.417000       1.00800           0
     36573 W2       12191    TIP3     H2       HT       0.417000       1.00800           0
     36574 W2       12192    TIP3     OH2      OT      -0.834000       15.9994           0
     36575 W2       12192    TIP3     H1       HT       0.417000       1.00800           0
     36576 W2       12192    TIP3     H2       HT       0.417000       1.00800           0
     36577 W2       12193    TIP3     OH2      OT      -0.834000       15.9994           0
     36578 W2       12193    TIP3     H1       HT       0.417000       1.00800           0
     36579 W2       12193    TIP3     H2       HT       0.417000       1.00800           0
     36580 W2       12194    TIP3     OH2      OT      -0.834000       15.9994           0
     36581 W2       12194    TIP3     H1       HT       0.417000       1.00800           0
     36582 W2       12194    TIP3     H2       HT       0.417000       1.00800           0
     36583 W2       12195    TIP3     OH2      OT      -0.834000       15.9994           0
     36584 W2       12195    TIP3     H1       HT       0.417000       1.00800           0
     36585 W2       12195    TIP3     H2       HT       0.417000       1.00800           0
     36586 W2       12196    TIP3     OH2      OT      -0.834000       15.9994           0
     36587 W2       12196    TIP3     H1       HT       0.417000       1.00800           0
     36588 W2       12196    TIP3     H2       HT       0.417000       1.00800           0
     36589 W2       12197    TIP3     OH2      OT      -0.834000       15.9994           0
     36590 W2       12197    TIP3     H1       HT       0.417000       1.00800           0
     36591 W2       12197    TIP3     H2       HT       0.417000       1.00800           0
     36592 W2       12198    TIP3     OH2      OT      -0.834000       15.9994           0
     36593 W2       12198    TIP3     H1       HT       0.417000       1.00800           0
     36594 W2       12198    TIP3     H2       HT       0.417000       1.00800           0
     36595 W2       12199    TIP3     OH2      OT      -0.834000       15.9994           0
     36596 W2       12199    TIP3     H1       HT       0.417000       1.00800           0
     36597 W2       12199    TIP3     H2       HT       0.417000       1.00800           0
     36598 W2       12200    TIP3     OH2      OT      -0.834000       15.9994           0
     36599 W2       12200    TIP3     H1       HT       0.417000       1.00800           0
     36600 W2       12200    TIP3     H2       HT       0.417000       1.00800           0
     36601 W2       12201    TIP3     OH2      OT      -0.834000       15.9994           0
     36602 W2       12201    TIP3     H1       HT       0.417000       1.00800           0
     36603 W2       12201    TIP3     H2       HT       0.417000       1.00800           0
     36604 W2       12202    TIP3     OH2      OT      -0.834000       15.9994           0
     36605 W2       12202    TIP3     H1       HT       0.417000       1.00800           0
     36606 W2       12202    TIP3     H2       HT       0.417000       1.00800           0
     36607 W2       12203    TIP3     OH2      OT      -0.834000       15.9994           0
     36608 W2       12203    TIP3     H1       HT       0.417000       1.00800           0
     36609 W2       12203    TIP3     H2       HT       0.417000       1.00800           0
     36610 W2       12204    TIP3     OH2      OT      -0.834000       15.9994           0
     36611 W2       12204    TIP3     H1       HT       0.417000       1.00800           0
     36612 W2       12204    TIP3     H2       HT       0.417000       1.00800           0
     36613 W2       12205    TIP3     OH2      OT      -0.834000       15.9994           0
     36614 W2       12205    TIP3     H1       HT       0.417000       1.00800           0
     36615 W2       12205    TIP3     H2       HT       0.417000       1.00800           0
     36616 W2       12206    TIP3     OH2      OT      -0.834000       15.9994           0
     36617 W2       12206    TIP3     H1       HT       0.417000       1.00800           0
     36618 W2       12206    TIP3     H2       HT       0.417000       1.00800           0
     36619 W2       12207    TIP3     OH2      OT      -0.834000       15.9994           0
     36620 W2       12207    TIP3     H1       HT       0.417000       1.00800           0
     36621 W2       12207    TIP3     H2       HT       0.417000       1.00800           0
     36622 W2       12208    TIP3     OH2      OT      -0.834000       15.9994           0
     36623 W2       12208    TIP3     H1       HT       0.417000       1.00800           0
     36624 W2       12208    TIP3     H2       HT       0.417000       1.00800           0
     36625 W2       12209    TIP3     OH2      OT      -0.834000       15.9994           0
     36626 W2       12209    TIP3     H1       HT       0.417000       1.00800           0
     36627 W2       12209    TIP3     H2       HT       0.417000       1.00800           0
     36628 W2       12210    TIP3     OH2      OT      -0.834000       15.9994           0
     36629 W2       12210    TIP3     H1       HT       0.417000       1.00800           0
     36630 W2       12210    TIP3     H2       HT       0.417000       1.00800           0
     36631 W2       12211    TIP3     OH2      OT      -0.834000       15.9994           0
     36632 W2       12211    TIP3     H1       HT       0.417000       1.00800           0
     36633 W2       12211    TIP3     H2       HT       0.417000       1.00800           0
     36634 W2       12212    TIP3     OH2      OT      -0.834000       15.9994           0
     36635 W2       12212    TIP3     H1       HT       0.417000       1.00800           0
     36636 W2       12212    TIP3     H2       HT       0.417000       1.00800           0
     36637 W2       12213    TIP3     OH2      OT      -0.834000       15.9994           0
     36638 W2       12213    TIP3     H1       HT       0.417000       1.00800           0
     36639 W2       12213    TIP3     H2       HT       0.417000       1.00800           0
     36640 W2       12214    TIP3     OH2      OT      -0.834000       15.9994           0
     36641 W2       12214    TIP3     H1       HT       0.417000       1.00800           0
     36642 W2       12214    TIP3     H2       HT       0.417000       1.00800           0
     36643 W2       12215    TIP3     OH2      OT      -0.834000       15.9994           0
     36644 W2       12215    TIP3     H1       HT       0.417000       1.00800           0
     36645 W2       12215    TIP3     H2       HT       0.417000       1.00800           0
     36646 W2       12216    TIP3     OH2      OT      -0.834000       15.9994           0
     36647 W2       12216    TIP3     H1       HT       0.417000       1.00800           0
     36648 W2       12216    TIP3     H2       HT       0.417000       1.00800           0
     36649 W2       12217    TIP3     OH2      OT      -0.834000       15.9994           0
     36650 W2       12217    TIP3     H1       HT       0.417000       1.00800           0
     36651 W2       12217    TIP3     H2       HT       0.417000       1.00800           0
     36652 W2       12218    TIP3     OH2      OT      -0.834000       15.9994           0
     36653 W2       12218    TIP3     H1       HT       0.417000       1.00800           0
     36654 W2       12218    TIP3     H2       HT       0.417000       1.00800           0
     36655 W2       12219    TIP3     OH2      OT      -0.834000       15.9994           0
     36656 W2       12219    TIP3     H1       HT       0.417000       1.00800           0
     36657 W2       12219    TIP3     H2       HT       0.417000       1.00800           0
     36658 W2       12220    TIP3     OH2      OT      -0.834000       15.9994           0
     36659 W2       12220    TIP3     H1       HT       0.417000       1.00800           0
     36660 W2       12220    TIP3     H2       HT       0.417000       1.00800           0
     36661 W2       12221    TIP3     OH2      OT      -0.834000       15.9994           0
     36662 W2       12221    TIP3     H1       HT       0.417000       1.00800           0
     36663 W2       12221    TIP3     H2       HT       0.417000       1.00800           0
     36664 W2       12222    TIP3     OH2      OT      -0.834000       15.9994           0
     36665 W2       12222    TIP3     H1       HT       0.417000       1.00800           0
     36666 W2       12222    TIP3     H2       HT       0.417000       1.00800           0
     36667 W2       12223    TIP3     OH2      OT      -0.834000       15.9994           0
     36668 W2       12223    TIP3     H1       HT       0.417000       1.00800           0
     36669 W2       12223    TIP3     H2       HT       0.417000       1.00800           0
     36670 W2       12224    TIP3     OH2      OT      -0.834000       15.9994           0
     36671 W2       12224    TIP3     H1       HT       0.417000       1.00800           0
     36672 W2       12224    TIP3     H2       HT       0.417000       1.00800           0
     36673 W2       12225    TIP3     OH2      OT      -0.834000       15.9994           0
     36674 W2       12225    TIP3     H1       HT       0.417000       1.00800           0
     36675 W2       12225    TIP3     H2       HT       0.417000       1.00800           0
     36676 W2       12226    TIP3     OH2      OT      -0.834000       15.9994           0
     36677 W2       12226    TIP3     H1       HT       0.417000       1.00800           0
     36678 W2       12226    TIP3     H2       HT       0.417000       1.00800           0
     36679 W2       12227    TIP3     OH2      OT      -0.834000       15.9994           0
     36680 W2       12227    TIP3     H1       HT       0.417000       1.00800           0
     36681 W2       12227    TIP3     H2       HT       0.417000       1.00800           0
     36682 W2       12228    TIP3     OH2      OT      -0.834000       15.9994           0
     36683 W2       12228    TIP3     H1       HT       0.417000       1.00800           0
     36684 W2       12228    TIP3     H2       HT       0.417000       1.00800           0
     36685 W2       12229    TIP3     OH2      OT      -0.834000       15.9994           0
     36686 W2       12229    TIP3     H1       HT       0.417000       1.00800           0
     36687 W2       12229    TIP3     H2       HT       0.417000       1.00800           0
     36688 W2       12230    TIP3     OH2      OT      -0.834000       15.9994           0
     36689 W2       12230    TIP3     H1       HT       0.417000       1.00800           0
     36690 W2       12230    TIP3     H2       HT       0.417000       1.00800           0
     36691 W2       12231    TIP3     OH2      OT      -0.834000       15.9994           0
     36692 W2       12231    TIP3     H1       HT       0.417000       1.00800           0
     36693 W2       12231    TIP3     H2       HT       0.417000       1.00800           0
     36694 W2       12232    TIP3     OH2      OT      -0.834000       15.9994           0
     36695 W2       12232    TIP3     H1       HT       0.417000       1.00800           0
     36696 W2       12232    TIP3     H2       HT       0.417000       1.00800           0
     36697 W2       12233    TIP3     OH2      OT      -0.834000       15.9994           0
     36698 W2       12233    TIP3     H1       HT       0.417000       1.00800           0
     36699 W2       12233    TIP3     H2       HT       0.417000       1.00800           0
     36700 W2       12234    TIP3     OH2      OT      -0.834000       15.9994           0
     36701 W2       12234    TIP3     H1       HT       0.417000       1.00800           0
     36702 W2       12234    TIP3     H2       HT       0.417000       1.00800           0
     36703 W2       12235    TIP3     OH2      OT      -0.834000       15.9994           0
     36704 W2       12235    TIP3     H1       HT       0.417000       1.00800           0
     36705 W2       12235    TIP3     H2       HT       0.417000       1.00800           0
     36706 W2       12236    TIP3     OH2      OT      -0.834000       15.9994           0
     36707 W2       12236    TIP3     H1       HT       0.417000       1.00800           0
     36708 W2       12236    TIP3     H2       HT       0.417000       1.00800           0
     36709 W2       12237    TIP3     OH2      OT      -0.834000       15.9994           0
     36710 W2       12237    TIP3     H1       HT       0.417000       1.00800           0
     36711 W2       12237    TIP3     H2       HT       0.417000       1.00800           0
     36712 W2       12238    TIP3     OH2      OT      -0.834000       15.9994           0
     36713 W2       12238    TIP3     H1       HT       0.417000       1.00800           0
     36714 W2       12238    TIP3     H2       HT       0.417000       1.00800           0
     36715 W2       12239    TIP3     OH2      OT      -0.834000       15.9994           0
     36716 W2       12239    TIP3     H1       HT       0.417000       1.00800           0
     36717 W2       12239    TIP3     H2       HT       0.417000       1.00800           0
     36718 W2       12240    TIP3     OH2      OT      -0.834000       15.9994           0
     36719 W2       12240    TIP3     H1       HT       0.417000       1.00800           0
     36720 W2       12240    TIP3     H2       HT       0.417000       1.00800           0
     36721 W2       12241    TIP3     OH2      OT      -0.834000       15.9994           0
     36722 W2       12241    TIP3     H1       HT       0.417000       1.00800           0
     36723 W2       12241    TIP3     H2       HT       0.417000       1.00800           0
     36724 W2       12242    TIP3     OH2      OT      -0.834000       15.9994           0
     36725 W2       12242    TIP3     H1       HT       0.417000       1.00800           0
     36726 W2       12242    TIP3     H2       HT       0.417000       1.00800           0
     36727 W2       12243    TIP3     OH2      OT      -0.834000       15.9994           0
     36728 W2       12243    TIP3     H1       HT       0.417000       1.00800           0
     36729 W2       12243    TIP3     H2       HT       0.417000       1.00800           0
     36730 W2       12244    TIP3     OH2      OT      -0.834000       15.9994           0
     36731 W2       12244    TIP3     H1       HT       0.417000       1.00800           0
     36732 W2       12244    TIP3     H2       HT       0.417000       1.00800           0
     36733 W2       12245    TIP3     OH2      OT      -0.834000       15.9994           0
     36734 W2       12245    TIP3     H1       HT       0.417000       1.00800           0
     36735 W2       12245    TIP3     H2       HT       0.417000       1.00800           0
     36736 W2       12246    TIP3     OH2      OT      -0.834000       15.9994           0
     36737 W2       12246    TIP3     H1       HT       0.417000       1.00800           0
     36738 W2       12246    TIP3     H2       HT       0.417000       1.00800           0
     36739 W2       12247    TIP3     OH2      OT      -0.834000       15.9994           0
     36740 W2       12247    TIP3     H1       HT       0.417000       1.00800           0
     36741 W2       12247    TIP3     H2       HT       0.417000       1.00800           0
     36742 W2       12248    TIP3     OH2      OT      -0.834000       15.9994           0
     36743 W2       12248    TIP3     H1       HT       0.417000       1.00800           0
     36744 W2       12248    TIP3     H2       HT       0.417000       1.00800           0
     36745 W2       12249    TIP3     OH2      OT      -0.834000       15.9994           0
     36746 W2       12249    TIP3     H1       HT       0.417000       1.00800           0
     36747 W2       12249    TIP3     H2       HT       0.417000       1.00800           0
     36748 W2       12250    TIP3     OH2      OT      -0.834000       15.9994           0
     36749 W2       12250    TIP3     H1       HT       0.417000       1.00800           0
     36750 W2       12250    TIP3     H2       HT       0.417000       1.00800           0
     36751 W2       12251    TIP3     OH2      OT      -0.834000       15.9994           0
     36752 W2       12251    TIP3     H1       HT       0.417000       1.00800           0
     36753 W2       12251    TIP3     H2       HT       0.417000       1.00800           0
     36754 W2       12252    TIP3     OH2      OT      -0.834000       15.9994           0
     36755 W2       12252    TIP3     H1       HT       0.417000       1.00800           0
     36756 W2       12252    TIP3     H2       HT       0.417000       1.00800           0
     36757 W2       12253    TIP3     OH2      OT      -0.834000       15.9994           0
     36758 W2       12253    TIP3     H1       HT       0.417000       1.00800           0
     36759 W2       12253    TIP3     H2       HT       0.417000       1.00800           0
     36760 W2       12254    TIP3     OH2      OT      -0.834000       15.9994           0
     36761 W2       12254    TIP3     H1       HT       0.417000       1.00800           0
     36762 W2       12254    TIP3     H2       HT       0.417000       1.00800           0
     36763 W2       12255    TIP3     OH2      OT      -0.834000       15.9994           0
     36764 W2       12255    TIP3     H1       HT       0.417000       1.00800           0
     36765 W2       12255    TIP3     H2       HT       0.417000       1.00800           0
     36766 W2       12256    TIP3     OH2      OT      -0.834000       15.9994           0
     36767 W2       12256    TIP3     H1       HT       0.417000       1.00800           0
     36768 W2       12256    TIP3     H2       HT       0.417000       1.00800           0
     36769 W2       12257    TIP3     OH2      OT      -0.834000       15.9994           0
     36770 W2       12257    TIP3     H1       HT       0.417000       1.00800           0
     36771 W2       12257    TIP3     H2       HT       0.417000       1.00800           0
     36772 W2       12258    TIP3     OH2      OT      -0.834000       15.9994           0
     36773 W2       12258    TIP3     H1       HT       0.417000       1.00800           0
     36774 W2       12258    TIP3     H2       HT       0.417000       1.00800           0
     36775 W2       12259    TIP3     OH2      OT      -0.834000       15.9994           0
     36776 W2       12259    TIP3     H1       HT       0.417000       1.00800           0
     36777 W2       12259    TIP3     H2       HT       0.417000       1.00800           0
     36778 W2       12260    TIP3     OH2      OT      -0.834000       15.9994           0
     36779 W2       12260    TIP3     H1       HT       0.417000       1.00800           0
     36780 W2       12260    TIP3     H2       HT       0.417000       1.00800           0
     36781 W2       12261    TIP3     OH2      OT      -0.834000       15.9994           0
     36782 W2       12261    TIP3     H1       HT       0.417000       1.00800           0
     36783 W2       12261    TIP3     H2       HT       0.417000       1.00800           0
     36784 W2       12262    TIP3     OH2      OT      -0.834000       15.9994           0
     36785 W2       12262    TIP3     H1       HT       0.417000       1.00800           0
     36786 W2       12262    TIP3     H2       HT       0.417000       1.00800           0
     36787 W2       12263    TIP3     OH2      OT      -0.834000       15.9994           0
     36788 W2       12263    TIP3     H1       HT       0.417000       1.00800           0
     36789 W2       12263    TIP3     H2       HT       0.417000       1.00800           0
     36790 W2       12264    TIP3     OH2      OT      -0.834000       15.9994           0
     36791 W2       12264    TIP3     H1       HT       0.417000       1.00800           0
     36792 W2       12264    TIP3     H2       HT       0.417000       1.00800           0
     36793 W2       12265    TIP3     OH2      OT      -0.834000       15.9994           0
     36794 W2       12265    TIP3     H1       HT       0.417000       1.00800           0
     36795 W2       12265    TIP3     H2       HT       0.417000       1.00800           0
     36796 W2       12266    TIP3     OH2      OT      -0.834000       15.9994           0
     36797 W2       12266    TIP3     H1       HT       0.417000       1.00800           0
     36798 W2       12266    TIP3     H2       HT       0.417000       1.00800           0
     36799 W2       12267    TIP3     OH2      OT      -0.834000       15.9994           0
     36800 W2       12267    TIP3     H1       HT       0.417000       1.00800           0
     36801 W2       12267    TIP3     H2       HT       0.417000       1.00800           0
     36802 W2       12268    TIP3     OH2      OT      -0.834000       15.9994           0
     36803 W2       12268    TIP3     H1       HT       0.417000       1.00800           0
     36804 W2       12268    TIP3     H2       HT       0.417000       1.00800           0
     36805 W2       12269    TIP3     OH2      OT      -0.834000       15.9994           0
     36806 W2       12269    TIP3     H1       HT       0.417000       1.00800           0
     36807 W2       12269    TIP3     H2       HT       0.417000       1.00800           0
     36808 W2       12270    TIP3     OH2      OT      -0.834000       15.9994           0
     36809 W2       12270    TIP3     H1       HT       0.417000       1.00800           0
     36810 W2       12270    TIP3     H2       HT       0.417000       1.00800           0
     36811 W2       12271    TIP3     OH2      OT      -0.834000       15.9994           0
     36812 W2       12271    TIP3     H1       HT       0.417000       1.00800           0
     36813 W2       12271    TIP3     H2       HT       0.417000       1.00800           0
     36814 W2       12272    TIP3     OH2      OT      -0.834000       15.9994           0
     36815 W2       12272    TIP3     H1       HT       0.417000       1.00800           0
     36816 W2       12272    TIP3     H2       HT       0.417000       1.00800           0
     36817 W2       12273    TIP3     OH2      OT      -0.834000       15.9994           0
     36818 W2       12273    TIP3     H1       HT       0.417000       1.00800           0
     36819 W2       12273    TIP3     H2       HT       0.417000       1.00800           0
     36820 W2       12274    TIP3     OH2      OT      -0.834000       15.9994           0
     36821 W2       12274    TIP3     H1       HT       0.417000       1.00800           0
     36822 W2       12274    TIP3     H2       HT       0.417000       1.00800           0
     36823 W2       12275    TIP3     OH2      OT      -0.834000       15.9994           0
     36824 W2       12275    TIP3     H1       HT       0.417000       1.00800           0
     36825 W2       12275    TIP3     H2       HT       0.417000       1.00800           0
     36826 W2       12276    TIP3     OH2      OT      -0.834000       15.9994           0
     36827 W2       12276    TIP3     H1       HT       0.417000       1.00800           0
     36828 W2       12276    TIP3     H2       HT       0.417000       1.00800           0
     36829 W2       12277    TIP3     OH2      OT      -0.834000       15.9994           0
     36830 W2       12277    TIP3     H1       HT       0.417000       1.00800           0
     36831 W2       12277    TIP3     H2       HT       0.417000       1.00800           0
     36832 W2       12278    TIP3     OH2      OT      -0.834000       15.9994           0
     36833 W2       12278    TIP3     H1       HT       0.417000       1.00800           0
     36834 W2       12278    TIP3     H2       HT       0.417000       1.00800           0
     36835 W2       12279    TIP3     OH2      OT      -0.834000       15.9994           0
     36836 W2       12279    TIP3     H1       HT       0.417000       1.00800           0
     36837 W2       12279    TIP3     H2       HT       0.417000       1.00800           0
     36838 W2       12280    TIP3     OH2      OT      -0.834000       15.9994           0
     36839 W2       12280    TIP3     H1       HT       0.417000       1.00800           0
     36840 W2       12280    TIP3     H2       HT       0.417000       1.00800           0
     36841 W2       12281    TIP3     OH2      OT      -0.834000       15.9994           0
     36842 W2       12281    TIP3     H1       HT       0.417000       1.00800           0
     36843 W2       12281    TIP3     H2       HT       0.417000       1.00800           0
     36844 W2       12282    TIP3     OH2      OT      -0.834000       15.9994           0
     36845 W2       12282    TIP3     H1       HT       0.417000       1.00800           0
     36846 W2       12282    TIP3     H2       HT       0.417000       1.00800           0
     36847 W2       12283    TIP3     OH2      OT      -0.834000       15.9994           0
     36848 W2       12283    TIP3     H1       HT       0.417000       1.00800           0
     36849 W2       12283    TIP3     H2       HT       0.417000       1.00800           0
     36850 W2       12284    TIP3     OH2      OT      -0.834000       15.9994           0
     36851 W2       12284    TIP3     H1       HT       0.417000       1.00800           0
     36852 W2       12284    TIP3     H2       HT       0.417000       1.00800           0
     36853 W2       12285    TIP3     OH2      OT      -0.834000       15.9994           0
     36854 W2       12285    TIP3     H1       HT       0.417000       1.00800           0
     36855 W2       12285    TIP3     H2       HT       0.417000       1.00800           0
     36856 W2       12286    TIP3     OH2      OT      -0.834000       15.9994           0
     36857 W2       12286    TIP3     H1       HT       0.417000       1.00800           0
     36858 W2       12286    TIP3     H2       HT       0.417000       1.00800           0
     36859 W2       12287    TIP3     OH2      OT      -0.834000       15.9994           0
     36860 W2       12287    TIP3     H1       HT       0.417000       1.00800           0
     36861 W2       12287    TIP3     H2       HT       0.417000       1.00800           0
     36862 W2       12288    TIP3     OH2      OT      -0.834000       15.9994           0
     36863 W2       12288    TIP3     H1       HT       0.417000       1.00800           0
     36864 W2       12288    TIP3     H2       HT       0.417000       1.00800           0
     36865 W2       12289    TIP3     OH2      OT      -0.834000       15.9994           0
     36866 W2       12289    TIP3     H1       HT       0.417000       1.00800           0
     36867 W2       12289    TIP3     H2       HT       0.417000       1.00800           0
     36868 W2       12290    TIP3     OH2      OT      -0.834000       15.9994           0
     36869 W2       12290    TIP3     H1       HT       0.417000       1.00800           0
     36870 W2       12290    TIP3     H2       HT       0.417000       1.00800           0
     36871 W2       12291    TIP3     OH2      OT      -0.834000       15.9994           0
     36872 W2       12291    TIP3     H1       HT       0.417000       1.00800           0
     36873 W2       12291    TIP3     H2       HT       0.417000       1.00800           0
     36874 W2       12292    TIP3     OH2      OT      -0.834000       15.9994           0
     36875 W2       12292    TIP3     H1       HT       0.417000       1.00800           0
     36876 W2       12292    TIP3     H2       HT       0.417000       1.00800           0
     36877 W2       12293    TIP3     OH2      OT      -0.834000       15.9994           0
     36878 W2       12293    TIP3     H1       HT       0.417000       1.00800           0
     36879 W2       12293    TIP3     H2       HT       0.417000       1.00800           0
     36880 W2       12294    TIP3     OH2      OT      -0.834000       15.9994           0
     36881 W2       12294    TIP3     H1       HT       0.417000       1.00800           0
     36882 W2       12294    TIP3     H2       HT       0.417000       1.00800           0
     36883 W2       12295    TIP3     OH2      OT      -0.834000       15.9994           0
     36884 W2       12295    TIP3     H1       HT       0.417000       1.00800           0
     36885 W2       12295    TIP3     H2       HT       0.417000       1.00800           0
     36886 W2       12296    TIP3     OH2      OT      -0.834000       15.9994           0
     36887 W2       12296    TIP3     H1       HT       0.417000       1.00800           0
     36888 W2       12296    TIP3     H2       HT       0.417000       1.00800           0
     36889 W2       12297    TIP3     OH2      OT      -0.834000       15.9994           0
     36890 W2       12297    TIP3     H1       HT       0.417000       1.00800           0
     36891 W2       12297    TIP3     H2       HT       0.417000       1.00800           0
     36892 W2       12298    TIP3     OH2      OT      -0.834000       15.9994           0
     36893 W2       12298    TIP3     H1       HT       0.417000       1.00800           0
     36894 W2       12298    TIP3     H2       HT       0.417000       1.00800           0
     36895 W2       12299    TIP3     OH2      OT      -0.834000       15.9994           0
     36896 W2       12299    TIP3     H1       HT       0.417000       1.00800           0
     36897 W2       12299    TIP3     H2       HT       0.417000       1.00800           0
     36898 W2       12300    TIP3     OH2      OT      -0.834000       15.9994           0
     36899 W2       12300    TIP3     H1       HT       0.417000       1.00800           0
     36900 W2       12300    TIP3     H2       HT       0.417000       1.00800           0
     36901 W2       12301    TIP3     OH2      OT      -0.834000       15.9994           0
     36902 W2       12301    TIP3     H1       HT       0.417000       1.00800           0
     36903 W2       12301    TIP3     H2       HT       0.417000       1.00800           0
     36904 W2       12302    TIP3     OH2      OT      -0.834000       15.9994           0
     36905 W2       12302    TIP3     H1       HT       0.417000       1.00800           0
     36906 W2       12302    TIP3     H2       HT       0.417000       1.00800           0
     36907 W2       12303    TIP3     OH2      OT      -0.834000       15.9994           0
     36908 W2       12303    TIP3     H1       HT       0.417000       1.00800           0
     36909 W2       12303    TIP3     H2       HT       0.417000       1.00800           0
     36910 W2       12304    TIP3     OH2      OT      -0.834000       15.9994           0
     36911 W2       12304    TIP3     H1       HT       0.417000       1.00800           0
     36912 W2       12304    TIP3     H2       HT       0.417000       1.00800           0
     36913 W2       12305    TIP3     OH2      OT      -0.834000       15.9994           0
     36914 W2       12305    TIP3     H1       HT       0.417000       1.00800           0
     36915 W2       12305    TIP3     H2       HT       0.417000       1.00800           0
     36916 W2       12306    TIP3     OH2      OT      -0.834000       15.9994           0
     36917 W2       12306    TIP3     H1       HT       0.417000       1.00800           0
     36918 W2       12306    TIP3     H2       HT       0.417000       1.00800           0
     36919 W2       12307    TIP3     OH2      OT      -0.834000       15.9994           0
     36920 W2       12307    TIP3     H1       HT       0.417000       1.00800           0
     36921 W2       12307    TIP3     H2       HT       0.417000       1.00800           0
     36922 W2       12308    TIP3     OH2      OT      -0.834000       15.9994           0
     36923 W2       12308    TIP3     H1       HT       0.417000       1.00800           0
     36924 W2       12308    TIP3     H2       HT       0.417000       1.00800           0
     36925 W2       12309    TIP3     OH2      OT      -0.834000       15.9994           0
     36926 W2       12309    TIP3     H1       HT       0.417000       1.00800           0
     36927 W2       12309    TIP3     H2       HT       0.417000       1.00800           0
     36928 W2       12310    TIP3     OH2      OT      -0.834000       15.9994           0
     36929 W2       12310    TIP3     H1       HT       0.417000       1.00800           0
     36930 W2       12310    TIP3     H2       HT       0.417000       1.00800           0
     36931 W2       12311    TIP3     OH2      OT      -0.834000       15.9994           0
     36932 W2       12311    TIP3     H1       HT       0.417000       1.00800           0
     36933 W2       12311    TIP3     H2       HT       0.417000       1.00800           0
     36934 W2       12312    TIP3     OH2      OT      -0.834000       15.9994           0
     36935 W2       12312    TIP3     H1       HT       0.417000       1.00800           0
     36936 W2       12312    TIP3     H2       HT       0.417000       1.00800           0
     36937 W2       12313    TIP3     OH2      OT      -0.834000       15.9994           0
     36938 W2       12313    TIP3     H1       HT       0.417000       1.00800           0
     36939 W2       12313    TIP3     H2       HT       0.417000       1.00800           0
     36940 W2       12314    TIP3     OH2      OT      -0.834000       15.9994           0
     36941 W2       12314    TIP3     H1       HT       0.417000       1.00800           0
     36942 W2       12314    TIP3     H2       HT       0.417000       1.00800           0
     36943 W2       12315    TIP3     OH2      OT      -0.834000       15.9994           0
     36944 W2       12315    TIP3     H1       HT       0.417000       1.00800           0
     36945 W2       12315    TIP3     H2       HT       0.417000       1.00800           0
     36946 W2       12316    TIP3     OH2      OT      -0.834000       15.9994           0
     36947 W2       12316    TIP3     H1       HT       0.417000       1.00800           0
     36948 W2       12316    TIP3     H2       HT       0.417000       1.00800           0
     36949 W2       12317    TIP3     OH2      OT      -0.834000       15.9994           0
     36950 W2       12317    TIP3     H1       HT       0.417000       1.00800           0
     36951 W2       12317    TIP3     H2       HT       0.417000       1.00800           0
     36952 W2       12318    TIP3     OH2      OT      -0.834000       15.9994           0
     36953 W2       12318    TIP3     H1       HT       0.417000       1.00800           0
     36954 W2       12318    TIP3     H2       HT       0.417000       1.00800           0
     36955 W2       12319    TIP3     OH2      OT      -0.834000       15.9994           0
     36956 W2       12319    TIP3     H1       HT       0.417000       1.00800           0
     36957 W2       12319    TIP3     H2       HT       0.417000       1.00800           0
     36958 W2       12320    TIP3     OH2      OT      -0.834000       15.9994           0
     36959 W2       12320    TIP3     H1       HT       0.417000       1.00800           0
     36960 W2       12320    TIP3     H2       HT       0.417000       1.00800           0
     36961 W2       12321    TIP3     OH2      OT      -0.834000       15.9994           0
     36962 W2       12321    TIP3     H1       HT       0.417000       1.00800           0
     36963 W2       12321    TIP3     H2       HT       0.417000       1.00800           0
     36964 W2       12322    TIP3     OH2      OT      -0.834000       15.9994           0
     36965 W2       12322    TIP3     H1       HT       0.417000       1.00800           0
     36966 W2       12322    TIP3     H2       HT       0.417000       1.00800           0
     36967 W2       12323    TIP3     OH2      OT      -0.834000       15.9994           0
     36968 W2       12323    TIP3     H1       HT       0.417000       1.00800           0
     36969 W2       12323    TIP3     H2       HT       0.417000       1.00800           0
     36970 W2       12324    TIP3     OH2      OT      -0.834000       15.9994           0
     36971 W2       12324    TIP3     H1       HT       0.417000       1.00800           0
     36972 W2       12324    TIP3     H2       HT       0.417000       1.00800           0
     36973 W2       12325    TIP3     OH2      OT      -0.834000       15.9994           0
     36974 W2       12325    TIP3     H1       HT       0.417000       1.00800           0
     36975 W2       12325    TIP3     H2       HT       0.417000       1.00800           0
     36976 W2       12326    TIP3     OH2      OT      -0.834000       15.9994           0
     36977 W2       12326    TIP3     H1       HT       0.417000       1.00800           0
     36978 W2       12326    TIP3     H2       HT       0.417000       1.00800           0
     36979 W2       12327    TIP3     OH2      OT      -0.834000       15.9994           0
     36980 W2       12327    TIP3     H1       HT       0.417000       1.00800           0
     36981 W2       12327    TIP3     H2       HT       0.417000       1.00800           0
     36982 W2       12328    TIP3     OH2      OT      -0.834000       15.9994           0
     36983 W2       12328    TIP3     H1       HT       0.417000       1.00800           0
     36984 W2       12328    TIP3     H2       HT       0.417000       1.00800           0
     36985 W2       12329    TIP3     OH2      OT      -0.834000       15.9994           0
     36986 W2       12329    TIP3     H1       HT       0.417000       1.00800           0
     36987 W2       12329    TIP3     H2       HT       0.417000       1.00800           0
     36988 W2       12330    TIP3     OH2      OT      -0.834000       15.9994           0
     36989 W2       12330    TIP3     H1       HT       0.417000       1.00800           0
     36990 W2       12330    TIP3     H2       HT       0.417000       1.00800           0
     36991 W2       12331    TIP3     OH2      OT      -0.834000       15.9994           0
     36992 W2       12331    TIP3     H1       HT       0.417000       1.00800           0
     36993 W2       12331    TIP3     H2       HT       0.417000       1.00800           0
     36994 W2       12332    TIP3     OH2      OT      -0.834000       15.9994           0
     36995 W2       12332    TIP3     H1       HT       0.417000       1.00800           0
     36996 W2       12332    TIP3     H2       HT       0.417000       1.00800           0
     36997 W2       12333    TIP3     OH2      OT      -0.834000       15.9994           0
     36998 W2       12333    TIP3     H1       HT       0.417000       1.00800           0
     36999 W2       12333    TIP3     H2       HT       0.417000       1.00800           0
     37000 W2       12334    TIP3     OH2      OT      -0.834000       15.9994           0
     37001 W2       12334    TIP3     H1       HT       0.417000       1.00800           0
     37002 W2       12334    TIP3     H2       HT       0.417000       1.00800           0
     37003 W2       12335    TIP3     OH2      OT      -0.834000       15.9994           0
     37004 W2       12335    TIP3     H1       HT       0.417000       1.00800           0
     37005 W2       12335    TIP3     H2       HT       0.417000       1.00800           0
     37006 W2       12336    TIP3     OH2      OT      -0.834000       15.9994           0
     37007 W2       12336    TIP3     H1       HT       0.417000       1.00800           0
     37008 W2       12336    TIP3     H2       HT       0.417000       1.00800           0
     37009 W2       12337    TIP3     OH2      OT      -0.834000       15.9994           0
     37010 W2       12337    TIP3     H1       HT       0.417000       1.00800           0
     37011 W2       12337    TIP3     H2       HT       0.417000       1.00800           0
     37012 W2       12338    TIP3     OH2      OT      -0.834000       15.9994           0
     37013 W2       12338    TIP3     H1       HT       0.417000       1.00800           0
     37014 W2       12338    TIP3     H2       HT       0.417000       1.00800           0
     37015 W2       12339    TIP3     OH2      OT      -0.834000       15.9994           0
     37016 W2       12339    TIP3     H1       HT       0.417000       1.00800           0
     37017 W2       12339    TIP3     H2       HT       0.417000       1.00800           0
     37018 W2       12340    TIP3     OH2      OT      -0.834000       15.9994           0
     37019 W2       12340    TIP3     H1       HT       0.417000       1.00800           0
     37020 W2       12340    TIP3     H2       HT       0.417000       1.00800           0
     37021 W2       12341    TIP3     OH2      OT      -0.834000       15.9994           0
     37022 W2       12341    TIP3     H1       HT       0.417000       1.00800           0
     37023 W2       12341    TIP3     H2       HT       0.417000       1.00800           0
     37024 W2       12342    TIP3     OH2      OT      -0.834000       15.9994           0
     37025 W2       12342    TIP3     H1       HT       0.417000       1.00800           0
     37026 W2       12342    TIP3     H2       HT       0.417000       1.00800           0
     37027 W2       12343    TIP3     OH2      OT      -0.834000       15.9994           0
     37028 W2       12343    TIP3     H1       HT       0.417000       1.00800           0
     37029 W2       12343    TIP3     H2       HT       0.417000       1.00800           0
     37030 W2       12344    TIP3     OH2      OT      -0.834000       15.9994           0
     37031 W2       12344    TIP3     H1       HT       0.417000       1.00800           0
     37032 W2       12344    TIP3     H2       HT       0.417000       1.00800           0
     37033 W2       12345    TIP3     OH2      OT      -0.834000       15.9994           0
     37034 W2       12345    TIP3     H1       HT       0.417000       1.00800           0
     37035 W2       12345    TIP3     H2       HT       0.417000       1.00800           0
     37036 W2       12346    TIP3     OH2      OT      -0.834000       15.9994           0
     37037 W2       12346    TIP3     H1       HT       0.417000       1.00800           0
     37038 W2       12346    TIP3     H2       HT       0.417000       1.00800           0
     37039 W2       12347    TIP3     OH2      OT      -0.834000       15.9994           0
     37040 W2       12347    TIP3     H1       HT       0.417000       1.00800           0
     37041 W2       12347    TIP3     H2       HT       0.417000       1.00800           0
     37042 W2       12348    TIP3     OH2      OT      -0.834000       15.9994           0
     37043 W2       12348    TIP3     H1       HT       0.417000       1.00800           0
     37044 W2       12348    TIP3     H2       HT       0.417000       1.00800           0
     37045 W2       12349    TIP3     OH2      OT      -0.834000       15.9994           0
     37046 W2       12349    TIP3     H1       HT       0.417000       1.00800           0
     37047 W2       12349    TIP3     H2       HT       0.417000       1.00800           0
     37048 W2       12350    TIP3     OH2      OT      -0.834000       15.9994           0
     37049 W2       12350    TIP3     H1       HT       0.417000       1.00800           0
     37050 W2       12350    TIP3     H2       HT       0.417000       1.00800           0
     37051 W2       12351    TIP3     OH2      OT      -0.834000       15.9994           0
     37052 W2       12351    TIP3     H1       HT       0.417000       1.00800           0
     37053 W2       12351    TIP3     H2       HT       0.417000       1.00800           0
     37054 W2       12352    TIP3     OH2      OT      -0.834000       15.9994           0
     37055 W2       12352    TIP3     H1       HT       0.417000       1.00800           0
     37056 W2       12352    TIP3     H2       HT       0.417000       1.00800           0
     37057 W2       12353    TIP3     OH2      OT      -0.834000       15.9994           0
     37058 W2       12353    TIP3     H1       HT       0.417000       1.00800           0
     37059 W2       12353    TIP3     H2       HT       0.417000       1.00800           0
     37060 W2       12354    TIP3     OH2      OT      -0.834000       15.9994           0
     37061 W2       12354    TIP3     H1       HT       0.417000       1.00800           0
     37062 W2       12354    TIP3     H2       HT       0.417000       1.00800           0
     37063 W2       12355    TIP3     OH2      OT      -0.834000       15.9994           0
     37064 W2       12355    TIP3     H1       HT       0.417000       1.00800           0
     37065 W2       12355    TIP3     H2       HT       0.417000       1.00800           0
     37066 W2       12356    TIP3     OH2      OT      -0.834000       15.9994           0
     37067 W2       12356    TIP3     H1       HT       0.417000       1.00800           0
     37068 W2       12356    TIP3     H2       HT       0.417000       1.00800           0
     37069 W2       12357    TIP3     OH2      OT      -0.834000       15.9994           0
     37070 W2       12357    TIP3     H1       HT       0.417000       1.00800           0
     37071 W2       12357    TIP3     H2       HT       0.417000       1.00800           0
     37072 W2       12358    TIP3     OH2      OT      -0.834000       15.9994           0
     37073 W2       12358    TIP3     H1       HT       0.417000       1.00800           0
     37074 W2       12358    TIP3     H2       HT       0.417000       1.00800           0
     37075 W2       12359    TIP3     OH2      OT      -0.834000       15.9994           0
     37076 W2       12359    TIP3     H1       HT       0.417000       1.00800           0
     37077 W2       12359    TIP3     H2       HT       0.417000       1.00800           0
     37078 W2       12360    TIP3     OH2      OT      -0.834000       15.9994           0
     37079 W2       12360    TIP3     H1       HT       0.417000       1.00800           0
     37080 W2       12360    TIP3     H2       HT       0.417000       1.00800           0
     37081 W2       12361    TIP3     OH2      OT      -0.834000       15.9994           0
     37082 W2       12361    TIP3     H1       HT       0.417000       1.00800           0
     37083 W2       12361    TIP3     H2       HT       0.417000       1.00800           0
     37084 W2       12362    TIP3     OH2      OT      -0.834000       15.9994           0
     37085 W2       12362    TIP3     H1       HT       0.417000       1.00800           0
     37086 W2       12362    TIP3     H2       HT       0.417000       1.00800           0
     37087 W2       12363    TIP3     OH2      OT      -0.834000       15.9994           0
     37088 W2       12363    TIP3     H1       HT       0.417000       1.00800           0
     37089 W2       12363    TIP3     H2       HT       0.417000       1.00800           0
     37090 W2       12364    TIP3     OH2      OT      -0.834000       15.9994           0
     37091 W2       12364    TIP3     H1       HT       0.417000       1.00800           0
     37092 W2       12364    TIP3     H2       HT       0.417000       1.00800           0
     37093 W2       12365    TIP3     OH2      OT      -0.834000       15.9994           0
     37094 W2       12365    TIP3     H1       HT       0.417000       1.00800           0
     37095 W2       12365    TIP3     H2       HT       0.417000       1.00800           0
     37096 W2       12366    TIP3     OH2      OT      -0.834000       15.9994           0
     37097 W2       12366    TIP3     H1       HT       0.417000       1.00800           0
     37098 W2       12366    TIP3     H2       HT       0.417000       1.00800           0
     37099 W2       12367    TIP3     OH2      OT      -0.834000       15.9994           0
     37100 W2       12367    TIP3     H1       HT       0.417000       1.00800           0
     37101 W2       12367    TIP3     H2       HT       0.417000       1.00800           0
     37102 W2       12368    TIP3     OH2      OT      -0.834000       15.9994           0
     37103 W2       12368    TIP3     H1       HT       0.417000       1.00800           0
     37104 W2       12368    TIP3     H2       HT       0.417000       1.00800           0
     37105 W2       12369    TIP3     OH2      OT      -0.834000       15.9994           0
     37106 W2       12369    TIP3     H1       HT       0.417000       1.00800           0
     37107 W2       12369    TIP3     H2       HT       0.417000       1.00800           0
     37108 W2       12370    TIP3     OH2      OT      -0.834000       15.9994           0
     37109 W2       12370    TIP3     H1       HT       0.417000       1.00800           0
     37110 W2       12370    TIP3     H2       HT       0.417000       1.00800           0
     37111 W2       12371    TIP3     OH2      OT      -0.834000       15.9994           0
     37112 W2       12371    TIP3     H1       HT       0.417000       1.00800           0
     37113 W2       12371    TIP3     H2       HT       0.417000       1.00800           0
     37114 W2       12372    TIP3     OH2      OT      -0.834000       15.9994           0
     37115 W2       12372    TIP3     H1       HT       0.417000       1.00800           0
     37116 W2       12372    TIP3     H2       HT       0.417000       1.00800           0
     37117 W2       12373    TIP3     OH2      OT      -0.834000       15.9994           0
     37118 W2       12373    TIP3     H1       HT       0.417000       1.00800           0
     37119 W2       12373    TIP3     H2       HT       0.417000       1.00800           0
     37120 W2       12374    TIP3     OH2      OT      -0.834000       15.9994           0
     37121 W2       12374    TIP3     H1       HT       0.417000       1.00800           0
     37122 W2       12374    TIP3     H2       HT       0.417000       1.00800           0
     37123 W2       12375    TIP3     OH2      OT      -0.834000       15.9994           0
     37124 W2       12375    TIP3     H1       HT       0.417000       1.00800           0
     37125 W2       12375    TIP3     H2       HT       0.417000       1.00800           0
     37126 W2       12376    TIP3     OH2      OT      -0.834000       15.9994           0
     37127 W2       12376    TIP3     H1       HT       0.417000       1.00800           0
     37128 W2       12376    TIP3     H2       HT       0.417000       1.00800           0
     37129 W2       12377    TIP3     OH2      OT      -0.834000       15.9994           0
     37130 W2       12377    TIP3     H1       HT       0.417000       1.00800           0
     37131 W2       12377    TIP3     H2       HT       0.417000       1.00800           0
     37132 W2       12378    TIP3     OH2      OT      -0.834000       15.9994           0
     37133 W2       12378    TIP3     H1       HT       0.417000       1.00800           0
     37134 W2       12378    TIP3     H2       HT       0.417000       1.00800           0
     37135 W2       12379    TIP3     OH2      OT      -0.834000       15.9994           0
     37136 W2       12379    TIP3     H1       HT       0.417000       1.00800           0
     37137 W2       12379    TIP3     H2       HT       0.417000       1.00800           0
     37138 W2       12380    TIP3     OH2      OT      -0.834000       15.9994           0
     37139 W2       12380    TIP3     H1       HT       0.417000       1.00800           0
     37140 W2       12380    TIP3     H2       HT       0.417000       1.00800           0
     37141 W2       12381    TIP3     OH2      OT      -0.834000       15.9994           0
     37142 W2       12381    TIP3     H1       HT       0.417000       1.00800           0
     37143 W2       12381    TIP3     H2       HT       0.417000       1.00800           0
     37144 W2       12382    TIP3     OH2      OT      -0.834000       15.9994           0
     37145 W2       12382    TIP3     H1       HT       0.417000       1.00800           0
     37146 W2       12382    TIP3     H2       HT       0.417000       1.00800           0
     37147 W2       12383    TIP3     OH2      OT      -0.834000       15.9994           0
     37148 W2       12383    TIP3     H1       HT       0.417000       1.00800           0
     37149 W2       12383    TIP3     H2       HT       0.417000       1.00800           0
     37150 W2       12384    TIP3     OH2      OT      -0.834000       15.9994           0
     37151 W2       12384    TIP3     H1       HT       0.417000       1.00800           0
     37152 W2       12384    TIP3     H2       HT       0.417000       1.00800           0
     37153 W2       12385    TIP3     OH2      OT      -0.834000       15.9994           0
     37154 W2       12385    TIP3     H1       HT       0.417000       1.00800           0
     37155 W2       12385    TIP3     H2       HT       0.417000       1.00800           0
     37156 W2       12386    TIP3     OH2      OT      -0.834000       15.9994           0
     37157 W2       12386    TIP3     H1       HT       0.417000       1.00800           0
     37158 W2       12386    TIP3     H2       HT       0.417000       1.00800           0
     37159 W2       12387    TIP3     OH2      OT      -0.834000       15.9994           0
     37160 W2       12387    TIP3     H1       HT       0.417000       1.00800           0
     37161 W2       12387    TIP3     H2       HT       0.417000       1.00800           0
     37162 W2       12388    TIP3     OH2      OT      -0.834000       15.9994           0
     37163 W2       12388    TIP3     H1       HT       0.417000       1.00800           0
     37164 W2       12388    TIP3     H2       HT       0.417000       1.00800           0
     37165 W2       12389    TIP3     OH2      OT      -0.834000       15.9994           0
     37166 W2       12389    TIP3     H1       HT       0.417000       1.00800           0
     37167 W2       12389    TIP3     H2       HT       0.417000       1.00800           0
     37168 W2       12390    TIP3     OH2      OT      -0.834000       15.9994           0
     37169 W2       12390    TIP3     H1       HT       0.417000       1.00800           0
     37170 W2       12390    TIP3     H2       HT       0.417000       1.00800           0
     37171 W2       12391    TIP3     OH2      OT      -0.834000       15.9994           0
     37172 W2       12391    TIP3     H1       HT       0.417000       1.00800           0
     37173 W2       12391    TIP3     H2       HT       0.417000       1.00800           0
     37174 W2       12392    TIP3     OH2      OT      -0.834000       15.9994           0
     37175 W2       12392    TIP3     H1       HT       0.417000       1.00800           0
     37176 W2       12392    TIP3     H2       HT       0.417000       1.00800           0
     37177 W2       12393    TIP3     OH2      OT      -0.834000       15.9994           0
     37178 W2       12393    TIP3     H1       HT       0.417000       1.00800           0
     37179 W2       12393    TIP3     H2       HT       0.417000       1.00800           0
     37180 W2       12394    TIP3     OH2      OT      -0.834000       15.9994           0
     37181 W2       12394    TIP3     H1       HT       0.417000       1.00800           0
     37182 W2       12394    TIP3     H2       HT       0.417000       1.00800           0
     37183 W2       12395    TIP3     OH2      OT      -0.834000       15.9994           0
     37184 W2       12395    TIP3     H1       HT       0.417000       1.00800           0
     37185 W2       12395    TIP3     H2       HT       0.417000       1.00800           0
     37186 W2       12396    TIP3     OH2      OT      -0.834000       15.9994           0
     37187 W2       12396    TIP3     H1       HT       0.417000       1.00800           0
     37188 W2       12396    TIP3     H2       HT       0.417000       1.00800           0
     37189 W2       12397    TIP3     OH2      OT      -0.834000       15.9994           0
     37190 W2       12397    TIP3     H1       HT       0.417000       1.00800           0
     37191 W2       12397    TIP3     H2       HT       0.417000       1.00800           0
     37192 W2       12398    TIP3     OH2      OT      -0.834000       15.9994           0
     37193 W2       12398    TIP3     H1       HT       0.417000       1.00800           0
     37194 W2       12398    TIP3     H2       HT       0.417000       1.00800           0
     37195 W2       12399    TIP3     OH2      OT      -0.834000       15.9994           0
     37196 W2       12399    TIP3     H1       HT       0.417000       1.00800           0
     37197 W2       12399    TIP3     H2       HT       0.417000       1.00800           0
     37198 W2       12400    TIP3     OH2      OT      -0.834000       15.9994           0
     37199 W2       12400    TIP3     H1       HT       0.417000       1.00800           0
     37200 W2       12400    TIP3     H2       HT       0.417000       1.00800           0
     37201 W2       12401    TIP3     OH2      OT      -0.834000       15.9994           0
     37202 W2       12401    TIP3     H1       HT       0.417000       1.00800           0
     37203 W2       12401    TIP3     H2       HT       0.417000       1.00800           0
     37204 W2       12402    TIP3     OH2      OT      -0.834000       15.9994           0
     37205 W2       12402    TIP3     H1       HT       0.417000       1.00800           0
     37206 W2       12402    TIP3     H2       HT       0.417000       1.00800           0
     37207 W2       12403    TIP3     OH2      OT      -0.834000       15.9994           0
     37208 W2       12403    TIP3     H1       HT       0.417000       1.00800           0
     37209 W2       12403    TIP3     H2       HT       0.417000       1.00800           0
     37210 W2       12404    TIP3     OH2      OT      -0.834000       15.9994           0
     37211 W2       12404    TIP3     H1       HT       0.417000       1.00800           0
     37212 W2       12404    TIP3     H2       HT       0.417000       1.00800           0
     37213 W2       12405    TIP3     OH2      OT      -0.834000       15.9994           0
     37214 W2       12405    TIP3     H1       HT       0.417000       1.00800           0
     37215 W2       12405    TIP3     H2       HT       0.417000       1.00800           0
     37216 W2       12406    TIP3     OH2      OT      -0.834000       15.9994           0
     37217 W2       12406    TIP3     H1       HT       0.417000       1.00800           0
     37218 W2       12406    TIP3     H2       HT       0.417000       1.00800           0
     37219 W2       12407    TIP3     OH2      OT      -0.834000       15.9994           0
     37220 W2       12407    TIP3     H1       HT       0.417000       1.00800           0
     37221 W2       12407    TIP3     H2       HT       0.417000       1.00800           0
     37222 W2       12408    TIP3     OH2      OT      -0.834000       15.9994           0
     37223 W2       12408    TIP3     H1       HT       0.417000       1.00800           0
     37224 W2       12408    TIP3     H2       HT       0.417000       1.00800           0
     37225 W2       12409    TIP3     OH2      OT      -0.834000       15.9994           0
     37226 W2       12409    TIP3     H1       HT       0.417000       1.00800           0
     37227 W2       12409    TIP3     H2       HT       0.417000       1.00800           0
     37228 W2       12410    TIP3     OH2      OT      -0.834000       15.9994           0
     37229 W2       12410    TIP3     H1       HT       0.417000       1.00800           0
     37230 W2       12410    TIP3     H2       HT       0.417000       1.00800           0
     37231 W2       12411    TIP3     OH2      OT      -0.834000       15.9994           0
     37232 W2       12411    TIP3     H1       HT       0.417000       1.00800           0
     37233 W2       12411    TIP3     H2       HT       0.417000       1.00800           0
     37234 W2       12412    TIP3     OH2      OT      -0.834000       15.9994           0
     37235 W2       12412    TIP3     H1       HT       0.417000       1.00800           0
     37236 W2       12412    TIP3     H2       HT       0.417000       1.00800           0
     37237 W2       12413    TIP3     OH2      OT      -0.834000       15.9994           0
     37238 W2       12413    TIP3     H1       HT       0.417000       1.00800           0
     37239 W2       12413    TIP3     H2       HT       0.417000       1.00800           0
     37240 W2       12414    TIP3     OH2      OT      -0.834000       15.9994           0
     37241 W2       12414    TIP3     H1       HT       0.417000       1.00800           0
     37242 W2       12414    TIP3     H2       HT       0.417000       1.00800           0
     37243 W2       12415    TIP3     OH2      OT      -0.834000       15.9994           0
     37244 W2       12415    TIP3     H1       HT       0.417000       1.00800           0
     37245 W2       12415    TIP3     H2       HT       0.417000       1.00800           0
     37246 W2       12416    TIP3     OH2      OT      -0.834000       15.9994           0
     37247 W2       12416    TIP3     H1       HT       0.417000       1.00800           0
     37248 W2       12416    TIP3     H2       HT       0.417000       1.00800           0
     37249 W2       12417    TIP3     OH2      OT      -0.834000       15.9994           0
     37250 W2       12417    TIP3     H1       HT       0.417000       1.00800           0
     37251 W2       12417    TIP3     H2       HT       0.417000       1.00800           0
     37252 W2       12418    TIP3     OH2      OT      -0.834000       15.9994           0
     37253 W2       12418    TIP3     H1       HT       0.417000       1.00800           0
     37254 W2       12418    TIP3     H2       HT       0.417000       1.00800           0
     37255 W2       12419    TIP3     OH2      OT      -0.834000       15.9994           0
     37256 W2       12419    TIP3     H1       HT       0.417000       1.00800           0
     37257 W2       12419    TIP3     H2       HT       0.417000       1.00800           0
     37258 W2       12420    TIP3     OH2      OT      -0.834000       15.9994           0
     37259 W2       12420    TIP3     H1       HT       0.417000       1.00800           0
     37260 W2       12420    TIP3     H2       HT       0.417000       1.00800           0
     37261 W2       12421    TIP3     OH2      OT      -0.834000       15.9994           0
     37262 W2       12421    TIP3     H1       HT       0.417000       1.00800           0
     37263 W2       12421    TIP3     H2       HT       0.417000       1.00800           0
     37264 W2       12422    TIP3     OH2      OT      -0.834000       15.9994           0
     37265 W2       12422    TIP3     H1       HT       0.417000       1.00800           0
     37266 W2       12422    TIP3     H2       HT       0.417000       1.00800           0
     37267 W2       12423    TIP3     OH2      OT      -0.834000       15.9994           0
     37268 W2       12423    TIP3     H1       HT       0.417000       1.00800           0
     37269 W2       12423    TIP3     H2       HT       0.417000       1.00800           0
     37270 W2       12424    TIP3     OH2      OT      -0.834000       15.9994           0
     37271 W2       12424    TIP3     H1       HT       0.417000       1.00800           0
     37272 W2       12424    TIP3     H2       HT       0.417000       1.00800           0
     37273 W2       12425    TIP3     OH2      OT      -0.834000       15.9994           0
     37274 W2       12425    TIP3     H1       HT       0.417000       1.00800           0
     37275 W2       12425    TIP3     H2       HT       0.417000       1.00800           0
     37276 W2       12426    TIP3     OH2      OT      -0.834000       15.9994           0
     37277 W2       12426    TIP3     H1       HT       0.417000       1.00800           0
     37278 W2       12426    TIP3     H2       HT       0.417000       1.00800           0
     37279 W2       12427    TIP3     OH2      OT      -0.834000       15.9994           0
     37280 W2       12427    TIP3     H1       HT       0.417000       1.00800           0
     37281 W2       12427    TIP3     H2       HT       0.417000       1.00800           0
     37282 W2       12428    TIP3     OH2      OT      -0.834000       15.9994           0
     37283 W2       12428    TIP3     H1       HT       0.417000       1.00800           0
     37284 W2       12428    TIP3     H2       HT       0.417000       1.00800           0
     37285 W2       12429    TIP3     OH2      OT      -0.834000       15.9994           0
     37286 W2       12429    TIP3     H1       HT       0.417000       1.00800           0
     37287 W2       12429    TIP3     H2       HT       0.417000       1.00800           0
     37288 W2       12430    TIP3     OH2      OT      -0.834000       15.9994           0
     37289 W2       12430    TIP3     H1       HT       0.417000       1.00800           0
     37290 W2       12430    TIP3     H2       HT       0.417000       1.00800           0
     37291 W2       12431    TIP3     OH2      OT      -0.834000       15.9994           0
     37292 W2       12431    TIP3     H1       HT       0.417000       1.00800           0
     37293 W2       12431    TIP3     H2       HT       0.417000       1.00800           0
     37294 W2       12432    TIP3     OH2      OT      -0.834000       15.9994           0
     37295 W2       12432    TIP3     H1       HT       0.417000       1.00800           0
     37296 W2       12432    TIP3     H2       HT       0.417000       1.00800           0
     37297 W2       12433    TIP3     OH2      OT      -0.834000       15.9994           0
     37298 W2       12433    TIP3     H1       HT       0.417000       1.00800           0
     37299 W2       12433    TIP3     H2       HT       0.417000       1.00800           0
     37300 W2       12434    TIP3     OH2      OT      -0.834000       15.9994           0
     37301 W2       12434    TIP3     H1       HT       0.417000       1.00800           0
     37302 W2       12434    TIP3     H2       HT       0.417000       1.00800           0
     37303 W2       12435    TIP3     OH2      OT      -0.834000       15.9994           0
     37304 W2       12435    TIP3     H1       HT       0.417000       1.00800           0
     37305 W2       12435    TIP3     H2       HT       0.417000       1.00800           0
     37306 W2       12436    TIP3     OH2      OT      -0.834000       15.9994           0
     37307 W2       12436    TIP3     H1       HT       0.417000       1.00800           0
     37308 W2       12436    TIP3     H2       HT       0.417000       1.00800           0
     37309 W2       12437    TIP3     OH2      OT      -0.834000       15.9994           0
     37310 W2       12437    TIP3     H1       HT       0.417000       1.00800           0
     37311 W2       12437    TIP3     H2       HT       0.417000       1.00800           0
     37312 W2       12438    TIP3     OH2      OT      -0.834000       15.9994           0
     37313 W2       12438    TIP3     H1       HT       0.417000       1.00800           0
     37314 W2       12438    TIP3     H2       HT       0.417000       1.00800           0
     37315 W2       12439    TIP3     OH2      OT      -0.834000       15.9994           0
     37316 W2       12439    TIP3     H1       HT       0.417000       1.00800           0
     37317 W2       12439    TIP3     H2       HT       0.417000       1.00800           0
     37318 W2       12440    TIP3     OH2      OT      -0.834000       15.9994           0
     37319 W2       12440    TIP3     H1       HT       0.417000       1.00800           0
     37320 W2       12440    TIP3     H2       HT       0.417000       1.00800           0
     37321 W2       12441    TIP3     OH2      OT      -0.834000       15.9994           0
     37322 W2       12441    TIP3     H1       HT       0.417000       1.00800           0
     37323 W2       12441    TIP3     H2       HT       0.417000       1.00800           0
     37324 W2       12442    TIP3     OH2      OT      -0.834000       15.9994           0
     37325 W2       12442    TIP3     H1       HT       0.417000       1.00800           0
     37326 W2       12442    TIP3     H2       HT       0.417000       1.00800           0
     37327 W2       12443    TIP3     OH2      OT      -0.834000       15.9994           0
     37328 W2       12443    TIP3     H1       HT       0.417000       1.00800           0
     37329 W2       12443    TIP3     H2       HT       0.417000       1.00800           0
     37330 W2       12444    TIP3     OH2      OT      -0.834000       15.9994           0
     37331 W2       12444    TIP3     H1       HT       0.417000       1.00800           0
     37332 W2       12444    TIP3     H2       HT       0.417000       1.00800           0
     37333 W2       12445    TIP3     OH2      OT      -0.834000       15.9994           0
     37334 W2       12445    TIP3     H1       HT       0.417000       1.00800           0
     37335 W2       12445    TIP3     H2       HT       0.417000       1.00800           0
     37336 W2       12446    TIP3     OH2      OT      -0.834000       15.9994           0
     37337 W2       12446    TIP3     H1       HT       0.417000       1.00800           0
     37338 W2       12446    TIP3     H2       HT       0.417000       1.00800           0
     37339 W2       12447    TIP3     OH2      OT      -0.834000       15.9994           0
     37340 W2       12447    TIP3     H1       HT       0.417000       1.00800           0
     37341 W2       12447    TIP3     H2       HT       0.417000       1.00800           0
     37342 W2       12448    TIP3     OH2      OT      -0.834000       15.9994           0
     37343 W2       12448    TIP3     H1       HT       0.417000       1.00800           0
     37344 W2       12448    TIP3     H2       HT       0.417000       1.00800           0
     37345 W2       12449    TIP3     OH2      OT      -0.834000       15.9994           0
     37346 W2       12449    TIP3     H1       HT       0.417000       1.00800           0
     37347 W2       12449    TIP3     H2       HT       0.417000       1.00800           0
     37348 W2       12450    TIP3     OH2      OT      -0.834000       15.9994           0
     37349 W2       12450    TIP3     H1       HT       0.417000       1.00800           0
     37350 W2       12450    TIP3     H2       HT       0.417000       1.00800           0
     37351 W2       12451    TIP3     OH2      OT      -0.834000       15.9994           0
     37352 W2       12451    TIP3     H1       HT       0.417000       1.00800           0
     37353 W2       12451    TIP3     H2       HT       0.417000       1.00800           0
     37354 W2       12452    TIP3     OH2      OT      -0.834000       15.9994           0
     37355 W2       12452    TIP3     H1       HT       0.417000       1.00800           0
     37356 W2       12452    TIP3     H2       HT       0.417000       1.00800           0
     37357 W2       12453    TIP3     OH2      OT      -0.834000       15.9994           0
     37358 W2       12453    TIP3     H1       HT       0.417000       1.00800           0
     37359 W2       12453    TIP3     H2       HT       0.417000       1.00800           0
     37360 W2       12454    TIP3     OH2      OT      -0.834000       15.9994           0
     37361 W2       12454    TIP3     H1       HT       0.417000       1.00800           0
     37362 W2       12454    TIP3     H2       HT       0.417000       1.00800           0
     37363 W2       12455    TIP3     OH2      OT      -0.834000       15.9994           0
     37364 W2       12455    TIP3     H1       HT       0.417000       1.00800           0
     37365 W2       12455    TIP3     H2       HT       0.417000       1.00800           0
     37366 W2       12456    TIP3     OH2      OT      -0.834000       15.9994           0
     37367 W2       12456    TIP3     H1       HT       0.417000       1.00800           0
     37368 W2       12456    TIP3     H2       HT       0.417000       1.00800           0
     37369 W2       12457    TIP3     OH2      OT      -0.834000       15.9994           0
     37370 W2       12457    TIP3     H1       HT       0.417000       1.00800           0
     37371 W2       12457    TIP3     H2       HT       0.417000       1.00800           0
     37372 W2       12458    TIP3     OH2      OT      -0.834000       15.9994           0
     37373 W2       12458    TIP3     H1       HT       0.417000       1.00800           0
     37374 W2       12458    TIP3     H2       HT       0.417000       1.00800           0
     37375 W2       12459    TIP3     OH2      OT      -0.834000       15.9994           0
     37376 W2       12459    TIP3     H1       HT       0.417000       1.00800           0
     37377 W2       12459    TIP3     H2       HT       0.417000       1.00800           0
     37378 W2       12460    TIP3     OH2      OT      -0.834000       15.9994           0
     37379 W2       12460    TIP3     H1       HT       0.417000       1.00800           0
     37380 W2       12460    TIP3     H2       HT       0.417000       1.00800           0
     37381 W2       12461    TIP3     OH2      OT      -0.834000       15.9994           0
     37382 W2       12461    TIP3     H1       HT       0.417000       1.00800           0
     37383 W2       12461    TIP3     H2       HT       0.417000       1.00800           0
     37384 W2       12462    TIP3     OH2      OT      -0.834000       15.9994           0
     37385 W2       12462    TIP3     H1       HT       0.417000       1.00800           0
     37386 W2       12462    TIP3     H2       HT       0.417000       1.00800           0
     37387 W2       12463    TIP3     OH2      OT      -0.834000       15.9994           0
     37388 W2       12463    TIP3     H1       HT       0.417000       1.00800           0
     37389 W2       12463    TIP3     H2       HT       0.417000       1.00800           0
     37390 W2       12464    TIP3     OH2      OT      -0.834000       15.9994           0
     37391 W2       12464    TIP3     H1       HT       0.417000       1.00800           0
     37392 W2       12464    TIP3     H2       HT       0.417000       1.00800           0
     37393 W2       12465    TIP3     OH2      OT      -0.834000       15.9994           0
     37394 W2       12465    TIP3     H1       HT       0.417000       1.00800           0
     37395 W2       12465    TIP3     H2       HT       0.417000       1.00800           0
     37396 W2       12466    TIP3     OH2      OT      -0.834000       15.9994           0
     37397 W2       12466    TIP3     H1       HT       0.417000       1.00800           0
     37398 W2       12466    TIP3     H2       HT       0.417000       1.00800           0
     37399 W2       12467    TIP3     OH2      OT      -0.834000       15.9994           0
     37400 W2       12467    TIP3     H1       HT       0.417000       1.00800           0
     37401 W2       12467    TIP3     H2       HT       0.417000       1.00800           0
     37402 W2       12468    TIP3     OH2      OT      -0.834000       15.9994           0
     37403 W2       12468    TIP3     H1       HT       0.417000       1.00800           0
     37404 W2       12468    TIP3     H2       HT       0.417000       1.00800           0
     37405 W2       12469    TIP3     OH2      OT      -0.834000       15.9994           0
     37406 W2       12469    TIP3     H1       HT       0.417000       1.00800           0
     37407 W2       12469    TIP3     H2       HT       0.417000       1.00800           0
     37408 W2       12470    TIP3     OH2      OT      -0.834000       15.9994           0
     37409 W2       12470    TIP3     H1       HT       0.417000       1.00800           0
     37410 W2       12470    TIP3     H2       HT       0.417000       1.00800           0
     37411 W2       12471    TIP3     OH2      OT      -0.834000       15.9994           0
     37412 W2       12471    TIP3     H1       HT       0.417000       1.00800           0
     37413 W2       12471    TIP3     H2       HT       0.417000       1.00800           0
     37414 W2       12472    TIP3     OH2      OT      -0.834000       15.9994           0
     37415 W2       12472    TIP3     H1       HT       0.417000       1.00800           0
     37416 W2       12472    TIP3     H2       HT       0.417000       1.00800           0
     37417 W2       12473    TIP3     OH2      OT      -0.834000       15.9994           0
     37418 W2       12473    TIP3     H1       HT       0.417000       1.00800           0
     37419 W2       12473    TIP3     H2       HT       0.417000       1.00800           0
     37420 W2       12474    TIP3     OH2      OT      -0.834000       15.9994           0
     37421 W2       12474    TIP3     H1       HT       0.417000       1.00800           0
     37422 W2       12474    TIP3     H2       HT       0.417000       1.00800           0
     37423 W2       12475    TIP3     OH2      OT      -0.834000       15.9994           0
     37424 W2       12475    TIP3     H1       HT       0.417000       1.00800           0
     37425 W2       12475    TIP3     H2       HT       0.417000       1.00800           0
     37426 W2       12476    TIP3     OH2      OT      -0.834000       15.9994           0
     37427 W2       12476    TIP3     H1       HT       0.417000       1.00800           0
     37428 W2       12476    TIP3     H2       HT       0.417000       1.00800           0
     37429 W2       12477    TIP3     OH2      OT      -0.834000       15.9994           0
     37430 W2       12477    TIP3     H1       HT       0.417000       1.00800           0
     37431 W2       12477    TIP3     H2       HT       0.417000       1.00800           0
     37432 W2       12478    TIP3     OH2      OT      -0.834000       15.9994           0
     37433 W2       12478    TIP3     H1       HT       0.417000       1.00800           0
     37434 W2       12478    TIP3     H2       HT       0.417000       1.00800           0
     37435 W2       12479    TIP3     OH2      OT      -0.834000       15.9994           0
     37436 W2       12479    TIP3     H1       HT       0.417000       1.00800           0
     37437 W2       12479    TIP3     H2       HT       0.417000       1.00800           0
     37438 W2       12480    TIP3     OH2      OT      -0.834000       15.9994           0
     37439 W2       12480    TIP3     H1       HT       0.417000       1.00800           0
     37440 W2       12480    TIP3     H2       HT       0.417000       1.00800           0
     37441 W2       12481    TIP3     OH2      OT      -0.834000       15.9994           0
     37442 W2       12481    TIP3     H1       HT       0.417000       1.00800           0
     37443 W2       12481    TIP3     H2       HT       0.417000       1.00800           0
     37444 W2       12482    TIP3     OH2      OT      -0.834000       15.9994           0
     37445 W2       12482    TIP3     H1       HT       0.417000       1.00800           0
     37446 W2       12482    TIP3     H2       HT       0.417000       1.00800           0
     37447 W2       12483    TIP3     OH2      OT      -0.834000       15.9994           0
     37448 W2       12483    TIP3     H1       HT       0.417000       1.00800           0
     37449 W2       12483    TIP3     H2       HT       0.417000       1.00800           0
     37450 W2       12484    TIP3     OH2      OT      -0.834000       15.9994           0
     37451 W2       12484    TIP3     H1       HT       0.417000       1.00800           0
     37452 W2       12484    TIP3     H2       HT       0.417000       1.00800           0
     37453 W2       12485    TIP3     OH2      OT      -0.834000       15.9994           0
     37454 W2       12485    TIP3     H1       HT       0.417000       1.00800           0
     37455 W2       12485    TIP3     H2       HT       0.417000       1.00800           0
     37456 W2       12486    TIP3     OH2      OT      -0.834000       15.9994           0
     37457 W2       12486    TIP3     H1       HT       0.417000       1.00800           0
     37458 W2       12486    TIP3     H2       HT       0.417000       1.00800           0
     37459 W2       12487    TIP3     OH2      OT      -0.834000       15.9994           0
     37460 W2       12487    TIP3     H1       HT       0.417000       1.00800           0
     37461 W2       12487    TIP3     H2       HT       0.417000       1.00800           0
     37462 W2       12488    TIP3     OH2      OT      -0.834000       15.9994           0
     37463 W2       12488    TIP3     H1       HT       0.417000       1.00800           0
     37464 W2       12488    TIP3     H2       HT       0.417000       1.00800           0
     37465 W2       12489    TIP3     OH2      OT      -0.834000       15.9994           0
     37466 W2       12489    TIP3     H1       HT       0.417000       1.00800           0
     37467 W2       12489    TIP3     H2       HT       0.417000       1.00800           0
     37468 W2       12490    TIP3     OH2      OT      -0.834000       15.9994           0
     37469 W2       12490    TIP3     H1       HT       0.417000       1.00800           0
     37470 W2       12490    TIP3     H2       HT       0.417000       1.00800           0
     37471 W2       12491    TIP3     OH2      OT      -0.834000       15.9994           0
     37472 W2       12491    TIP3     H1       HT       0.417000       1.00800           0
     37473 W2       12491    TIP3     H2       HT       0.417000       1.00800           0
     37474 W2       12492    TIP3     OH2      OT      -0.834000       15.9994           0
     37475 W2       12492    TIP3     H1       HT       0.417000       1.00800           0
     37476 W2       12492    TIP3     H2       HT       0.417000       1.00800           0
     37477 W2       12493    TIP3     OH2      OT      -0.834000       15.9994           0
     37478 W2       12493    TIP3     H1       HT       0.417000       1.00800           0
     37479 W2       12493    TIP3     H2       HT       0.417000       1.00800           0
     37480 W2       12494    TIP3     OH2      OT      -0.834000       15.9994           0
     37481 W2       12494    TIP3     H1       HT       0.417000       1.00800           0
     37482 W2       12494    TIP3     H2       HT       0.417000       1.00800           0
     37483 W2       12495    TIP3     OH2      OT      -0.834000       15.9994           0
     37484 W2       12495    TIP3     H1       HT       0.417000       1.00800           0
     37485 W2       12495    TIP3     H2       HT       0.417000       1.00800           0
     37486 W2       12496    TIP3     OH2      OT      -0.834000       15.9994           0
     37487 W2       12496    TIP3     H1       HT       0.417000       1.00800           0
     37488 W2       12496    TIP3     H2       HT       0.417000       1.00800           0
     37489 W2       12497    TIP3     OH2      OT      -0.834000       15.9994           0
     37490 W2       12497    TIP3     H1       HT       0.417000       1.00800           0
     37491 W2       12497    TIP3     H2       HT       0.417000       1.00800           0
     37492 W2       12498    TIP3     OH2      OT      -0.834000       15.9994           0
     37493 W2       12498    TIP3     H1       HT       0.417000       1.00800           0
     37494 W2       12498    TIP3     H2       HT       0.417000       1.00800           0
     37495 W2       12499    TIP3     OH2      OT      -0.834000       15.9994           0
     37496 W2       12499    TIP3     H1       HT       0.417000       1.00800           0
     37497 W2       12499    TIP3     H2       HT       0.417000       1.00800           0
     37498 W2       12500    TIP3     OH2      OT      -0.834000       15.9994           0
     37499 W2       12500    TIP3     H1       HT       0.417000       1.00800           0
     37500 W2       12500    TIP3     H2       HT       0.417000       1.00800           0
     37501 W2       12501    TIP3     OH2      OT      -0.834000       15.9994           0
     37502 W2       12501    TIP3     H1       HT       0.417000       1.00800           0
     37503 W2       12501    TIP3     H2       HT       0.417000       1.00800           0
     37504 W2       12502    TIP3     OH2      OT      -0.834000       15.9994           0
     37505 W2       12502    TIP3     H1       HT       0.417000       1.00800           0
     37506 W2       12502    TIP3     H2       HT       0.417000       1.00800           0
     37507 W2       12503    TIP3     OH2      OT      -0.834000       15.9994           0
     37508 W2       12503    TIP3     H1       HT       0.417000       1.00800           0
     37509 W2       12503    TIP3     H2       HT       0.417000       1.00800           0
     37510 W2       12504    TIP3     OH2      OT      -0.834000       15.9994           0
     37511 W2       12504    TIP3     H1       HT       0.417000       1.00800           0
     37512 W2       12504    TIP3     H2       HT       0.417000       1.00800           0
     37513 W2       12505    TIP3     OH2      OT      -0.834000       15.9994           0
     37514 W2       12505    TIP3     H1       HT       0.417000       1.00800           0
     37515 W2       12505    TIP3     H2       HT       0.417000       1.00800           0
     37516 W2       12506    TIP3     OH2      OT      -0.834000       15.9994           0
     37517 W2       12506    TIP3     H1       HT       0.417000       1.00800           0
     37518 W2       12506    TIP3     H2       HT       0.417000       1.00800           0
     37519 W2       12507    TIP3     OH2      OT      -0.834000       15.9994           0
     37520 W2       12507    TIP3     H1       HT       0.417000       1.00800           0
     37521 W2       12507    TIP3     H2       HT       0.417000       1.00800           0
     37522 W2       12508    TIP3     OH2      OT      -0.834000       15.9994           0
     37523 W2       12508    TIP3     H1       HT       0.417000       1.00800           0
     37524 W2       12508    TIP3     H2       HT       0.417000       1.00800           0
     37525 W2       12509    TIP3     OH2      OT      -0.834000       15.9994           0
     37526 W2       12509    TIP3     H1       HT       0.417000       1.00800           0
     37527 W2       12509    TIP3     H2       HT       0.417000       1.00800           0
     37528 W2       12510    TIP3     OH2      OT      -0.834000       15.9994           0
     37529 W2       12510    TIP3     H1       HT       0.417000       1.00800           0
     37530 W2       12510    TIP3     H2       HT       0.417000       1.00800           0
     37531 W2       12511    TIP3     OH2      OT      -0.834000       15.9994           0
     37532 W2       12511    TIP3     H1       HT       0.417000       1.00800           0
     37533 W2       12511    TIP3     H2       HT       0.417000       1.00800           0
     37534 W2       12512    TIP3     OH2      OT      -0.834000       15.9994           0
     37535 W2       12512    TIP3     H1       HT       0.417000       1.00800           0
     37536 W2       12512    TIP3     H2       HT       0.417000       1.00800           0
     37537 W2       12513    TIP3     OH2      OT      -0.834000       15.9994           0
     37538 W2       12513    TIP3     H1       HT       0.417000       1.00800           0
     37539 W2       12513    TIP3     H2       HT       0.417000       1.00800           0
     37540 W2       12514    TIP3     OH2      OT      -0.834000       15.9994           0
     37541 W2       12514    TIP3     H1       HT       0.417000       1.00800           0
     37542 W2       12514    TIP3     H2       HT       0.417000       1.00800           0
     37543 W2       12515    TIP3     OH2      OT      -0.834000       15.9994           0
     37544 W2       12515    TIP3     H1       HT       0.417000       1.00800           0
     37545 W2       12515    TIP3     H2       HT       0.417000       1.00800           0
     37546 W2       12516    TIP3     OH2      OT      -0.834000       15.9994           0
     37547 W2       12516    TIP3     H1       HT       0.417000       1.00800           0
     37548 W2       12516    TIP3     H2       HT       0.417000       1.00800           0
     37549 W2       12517    TIP3     OH2      OT      -0.834000       15.9994           0
     37550 W2       12517    TIP3     H1       HT       0.417000       1.00800           0
     37551 W2       12517    TIP3     H2       HT       0.417000       1.00800           0
     37552 W2       12518    TIP3     OH2      OT      -0.834000       15.9994           0
     37553 W2       12518    TIP3     H1       HT       0.417000       1.00800           0
     37554 W2       12518    TIP3     H2       HT       0.417000       1.00800           0
     37555 W2       12519    TIP3     OH2      OT      -0.834000       15.9994           0
     37556 W2       12519    TIP3     H1       HT       0.417000       1.00800           0
     37557 W2       12519    TIP3     H2       HT       0.417000       1.00800           0
     37558 W2       12520    TIP3     OH2      OT      -0.834000       15.9994           0
     37559 W2       12520    TIP3     H1       HT       0.417000       1.00800           0
     37560 W2       12520    TIP3     H2       HT       0.417000       1.00800           0
     37561 W2       12521    TIP3     OH2      OT      -0.834000       15.9994           0
     37562 W2       12521    TIP3     H1       HT       0.417000       1.00800           0
     37563 W2       12521    TIP3     H2       HT       0.417000       1.00800           0
     37564 W2       12522    TIP3     OH2      OT      -0.834000       15.9994           0
     37565 W2       12522    TIP3     H1       HT       0.417000       1.00800           0
     37566 W2       12522    TIP3     H2       HT       0.417000       1.00800           0
     37567 W2       12523    TIP3     OH2      OT      -0.834000       15.9994           0
     37568 W2       12523    TIP3     H1       HT       0.417000       1.00800           0
     37569 W2       12523    TIP3     H2       HT       0.417000       1.00800           0
     37570 W2       12524    TIP3     OH2      OT      -0.834000       15.9994           0
     37571 W2       12524    TIP3     H1       HT       0.417000       1.00800           0
     37572 W2       12524    TIP3     H2       HT       0.417000       1.00800           0
     37573 W2       12525    TIP3     OH2      OT      -0.834000       15.9994           0
     37574 W2       12525    TIP3     H1       HT       0.417000       1.00800           0
     37575 W2       12525    TIP3     H2       HT       0.417000       1.00800           0
     37576 W2       12526    TIP3     OH2      OT      -0.834000       15.9994           0
     37577 W2       12526    TIP3     H1       HT       0.417000       1.00800           0
     37578 W2       12526    TIP3     H2       HT       0.417000       1.00800           0
     37579 W2       12527    TIP3     OH2      OT      -0.834000       15.9994           0
     37580 W2       12527    TIP3     H1       HT       0.417000       1.00800           0
     37581 W2       12527    TIP3     H2       HT       0.417000       1.00800           0
     37582 W2       12528    TIP3     OH2      OT      -0.834000       15.9994           0
     37583 W2       12528    TIP3     H1       HT       0.417000       1.00800           0
     37584 W2       12528    TIP3     H2       HT       0.417000       1.00800           0
     37585 W2       12529    TIP3     OH2      OT      -0.834000       15.9994           0
     37586 W2       12529    TIP3     H1       HT       0.417000       1.00800           0
     37587 W2       12529    TIP3     H2       HT       0.417000       1.00800           0
     37588 W2       12530    TIP3     OH2      OT      -0.834000       15.9994           0
     37589 W2       12530    TIP3     H1       HT       0.417000       1.00800           0
     37590 W2       12530    TIP3     H2       HT       0.417000       1.00800           0
     37591 W2       12531    TIP3     OH2      OT      -0.834000       15.9994           0
     37592 W2       12531    TIP3     H1       HT       0.417000       1.00800           0
     37593 W2       12531    TIP3     H2       HT       0.417000       1.00800           0
     37594 W2       12532    TIP3     OH2      OT      -0.834000       15.9994           0
     37595 W2       12532    TIP3     H1       HT       0.417000       1.00800           0
     37596 W2       12532    TIP3     H2       HT       0.417000       1.00800           0
     37597 W2       12533    TIP3     OH2      OT      -0.834000       15.9994           0
     37598 W2       12533    TIP3     H1       HT       0.417000       1.00800           0
     37599 W2       12533    TIP3     H2       HT       0.417000       1.00800           0
     37600 W2       12534    TIP3     OH2      OT      -0.834000       15.9994           0
     37601 W2       12534    TIP3     H1       HT       0.417000       1.00800           0
     37602 W2       12534    TIP3     H2       HT       0.417000       1.00800           0
     37603 W2       12535    TIP3     OH2      OT      -0.834000       15.9994           0
     37604 W2       12535    TIP3     H1       HT       0.417000       1.00800           0
     37605 W2       12535    TIP3     H2       HT       0.417000       1.00800           0
     37606 W2       12536    TIP3     OH2      OT      -0.834000       15.9994           0
     37607 W2       12536    TIP3     H1       HT       0.417000       1.00800           0
     37608 W2       12536    TIP3     H2       HT       0.417000       1.00800           0
     37609 W2       12537    TIP3     OH2      OT      -0.834000       15.9994           0
     37610 W2       12537    TIP3     H1       HT       0.417000       1.00800           0
     37611 W2       12537    TIP3     H2       HT       0.417000       1.00800           0
     37612 W2       12538    TIP3     OH2      OT      -0.834000       15.9994           0
     37613 W2       12538    TIP3     H1       HT       0.417000       1.00800           0
     37614 W2       12538    TIP3     H2       HT       0.417000       1.00800           0
     37615 W2       12539    TIP3     OH2      OT      -0.834000       15.9994           0
     37616 W2       12539    TIP3     H1       HT       0.417000       1.00800           0
     37617 W2       12539    TIP3     H2       HT       0.417000       1.00800           0
     37618 W2       12540    TIP3     OH2      OT      -0.834000       15.9994           0
     37619 W2       12540    TIP3     H1       HT       0.417000       1.00800           0
     37620 W2       12540    TIP3     H2       HT       0.417000       1.00800           0
     37621 W2       12541    TIP3     OH2      OT      -0.834000       15.9994           0
     37622 W2       12541    TIP3     H1       HT       0.417000       1.00800           0
     37623 W2       12541    TIP3     H2       HT       0.417000       1.00800           0
     37624 W2       12542    TIP3     OH2      OT      -0.834000       15.9994           0
     37625 W2       12542    TIP3     H1       HT       0.417000       1.00800           0
     37626 W2       12542    TIP3     H2       HT       0.417000       1.00800           0
     37627 W2       12543    TIP3     OH2      OT      -0.834000       15.9994           0
     37628 W2       12543    TIP3     H1       HT       0.417000       1.00800           0
     37629 W2       12543    TIP3     H2       HT       0.417000       1.00800           0
     37630 W2       12544    TIP3     OH2      OT      -0.834000       15.9994           0
     37631 W2       12544    TIP3     H1       HT       0.417000       1.00800           0
     37632 W2       12544    TIP3     H2       HT       0.417000       1.00800           0
     37633 W2       12545    TIP3     OH2      OT      -0.834000       15.9994           0
     37634 W2       12545    TIP3     H1       HT       0.417000       1.00800           0
     37635 W2       12545    TIP3     H2       HT       0.417000       1.00800           0
     37636 W2       12546    TIP3     OH2      OT      -0.834000       15.9994           0
     37637 W2       12546    TIP3     H1       HT       0.417000       1.00800           0
     37638 W2       12546    TIP3     H2       HT       0.417000       1.00800           0
     37639 W2       12547    TIP3     OH2      OT      -0.834000       15.9994           0
     37640 W2       12547    TIP3     H1       HT       0.417000       1.00800           0
     37641 W2       12547    TIP3     H2       HT       0.417000       1.00800           0
     37642 W2       12548    TIP3     OH2      OT      -0.834000       15.9994           0
     37643 W2       12548    TIP3     H1       HT       0.417000       1.00800           0
     37644 W2       12548    TIP3     H2       HT       0.417000       1.00800           0
     37645 W2       12549    TIP3     OH2      OT      -0.834000       15.9994           0
     37646 W2       12549    TIP3     H1       HT       0.417000       1.00800           0
     37647 W2       12549    TIP3     H2       HT       0.417000       1.00800           0
     37648 W2       12550    TIP3     OH2      OT      -0.834000       15.9994           0
     37649 W2       12550    TIP3     H1       HT       0.417000       1.00800           0
     37650 W2       12550    TIP3     H2       HT       0.417000       1.00800           0
     37651 W2       12551    TIP3     OH2      OT      -0.834000       15.9994           0
     37652 W2       12551    TIP3     H1       HT       0.417000       1.00800           0
     37653 W2       12551    TIP3     H2       HT       0.417000       1.00800           0
     37654 W2       12552    TIP3     OH2      OT      -0.834000       15.9994           0
     37655 W2       12552    TIP3     H1       HT       0.417000       1.00800           0
     37656 W2       12552    TIP3     H2       HT       0.417000       1.00800           0
     37657 W2       12553    TIP3     OH2      OT      -0.834000       15.9994           0
     37658 W2       12553    TIP3     H1       HT       0.417000       1.00800           0
     37659 W2       12553    TIP3     H2       HT       0.417000       1.00800           0
     37660 W2       12554    TIP3     OH2      OT      -0.834000       15.9994           0
     37661 W2       12554    TIP3     H1       HT       0.417000       1.00800           0
     37662 W2       12554    TIP3     H2       HT       0.417000       1.00800           0
     37663 W2       12555    TIP3     OH2      OT      -0.834000       15.9994           0
     37664 W2       12555    TIP3     H1       HT       0.417000       1.00800           0
     37665 W2       12555    TIP3     H2       HT       0.417000       1.00800           0
     37666 W2       12556    TIP3     OH2      OT      -0.834000       15.9994           0
     37667 W2       12556    TIP3     H1       HT       0.417000       1.00800           0
     37668 W2       12556    TIP3     H2       HT       0.417000       1.00800           0
     37669 W2       12557    TIP3     OH2      OT      -0.834000       15.9994           0
     37670 W2       12557    TIP3     H1       HT       0.417000       1.00800           0
     37671 W2       12557    TIP3     H2       HT       0.417000       1.00800           0
     37672 W2       12558    TIP3     OH2      OT      -0.834000       15.9994           0
     37673 W2       12558    TIP3     H1       HT       0.417000       1.00800           0
     37674 W2       12558    TIP3     H2       HT       0.417000       1.00800           0
     37675 W2       12559    TIP3     OH2      OT      -0.834000       15.9994           0
     37676 W2       12559    TIP3     H1       HT       0.417000       1.00800           0
     37677 W2       12559    TIP3     H2       HT       0.417000       1.00800           0
     37678 W2       12560    TIP3     OH2      OT      -0.834000       15.9994           0
     37679 W2       12560    TIP3     H1       HT       0.417000       1.00800           0
     37680 W2       12560    TIP3     H2       HT       0.417000       1.00800           0
     37681 W2       12561    TIP3     OH2      OT      -0.834000       15.9994           0
     37682 W2       12561    TIP3     H1       HT       0.417000       1.00800           0
     37683 W2       12561    TIP3     H2       HT       0.417000       1.00800           0
     37684 W2       12562    TIP3     OH2      OT      -0.834000       15.9994           0
     37685 W2       12562    TIP3     H1       HT       0.417000       1.00800           0
     37686 W2       12562    TIP3     H2       HT       0.417000       1.00800           0
     37687 W2       12563    TIP3     OH2      OT      -0.834000       15.9994           0
     37688 W2       12563    TIP3     H1       HT       0.417000       1.00800           0
     37689 W2       12563    TIP3     H2       HT       0.417000       1.00800           0
     37690 W2       12564    TIP3     OH2      OT      -0.834000       15.9994           0
     37691 W2       12564    TIP3     H1       HT       0.417000       1.00800           0
     37692 W2       12564    TIP3     H2       HT       0.417000       1.00800           0
     37693 W2       12565    TIP3     OH2      OT      -0.834000       15.9994           0
     37694 W2       12565    TIP3     H1       HT       0.417000       1.00800           0
     37695 W2       12565    TIP3     H2       HT       0.417000       1.00800           0
     37696 W2       12566    TIP3     OH2      OT      -0.834000       15.9994           0
     37697 W2       12566    TIP3     H1       HT       0.417000       1.00800           0
     37698 W2       12566    TIP3     H2       HT       0.417000       1.00800           0
     37699 W2       12567    TIP3     OH2      OT      -0.834000       15.9994           0
     37700 W2       12567    TIP3     H1       HT       0.417000       1.00800           0
     37701 W2       12567    TIP3     H2       HT       0.417000       1.00800           0
     37702 W2       12568    TIP3     OH2      OT      -0.834000       15.9994           0
     37703 W2       12568    TIP3     H1       HT       0.417000       1.00800           0
     37704 W2       12568    TIP3     H2       HT       0.417000       1.00800           0
     37705 W2       12569    TIP3     OH2      OT      -0.834000       15.9994           0
     37706 W2       12569    TIP3     H1       HT       0.417000       1.00800           0
     37707 W2       12569    TIP3     H2       HT       0.417000       1.00800           0
     37708 W2       12570    TIP3     OH2      OT      -0.834000       15.9994           0
     37709 W2       12570    TIP3     H1       HT       0.417000       1.00800           0
     37710 W2       12570    TIP3     H2       HT       0.417000       1.00800           0
     37711 W2       12571    TIP3     OH2      OT      -0.834000       15.9994           0
     37712 W2       12571    TIP3     H1       HT       0.417000       1.00800           0
     37713 W2       12571    TIP3     H2       HT       0.417000       1.00800           0
     37714 W2       12572    TIP3     OH2      OT      -0.834000       15.9994           0
     37715 W2       12572    TIP3     H1       HT       0.417000       1.00800           0
     37716 W2       12572    TIP3     H2       HT       0.417000       1.00800           0
     37717 W2       12573    TIP3     OH2      OT      -0.834000       15.9994           0
     37718 W2       12573    TIP3     H1       HT       0.417000       1.00800           0
     37719 W2       12573    TIP3     H2       HT       0.417000       1.00800           0
     37720 W2       12574    TIP3     OH2      OT      -0.834000       15.9994           0
     37721 W2       12574    TIP3     H1       HT       0.417000       1.00800           0
     37722 W2       12574    TIP3     H2       HT       0.417000       1.00800           0
     37723 W2       12575    TIP3     OH2      OT      -0.834000       15.9994           0
     37724 W2       12575    TIP3     H1       HT       0.417000       1.00800           0
     37725 W2       12575    TIP3     H2       HT       0.417000       1.00800           0
     37726 W2       12576    TIP3     OH2      OT      -0.834000       15.9994           0
     37727 W2       12576    TIP3     H1       HT       0.417000       1.00800           0
     37728 W2       12576    TIP3     H2       HT       0.417000       1.00800           0
     37729 W2       12577    TIP3     OH2      OT      -0.834000       15.9994           0
     37730 W2       12577    TIP3     H1       HT       0.417000       1.00800           0
     37731 W2       12577    TIP3     H2       HT       0.417000       1.00800           0
     37732 W2       12578    TIP3     OH2      OT      -0.834000       15.9994           0
     37733 W2       12578    TIP3     H1       HT       0.417000       1.00800           0
     37734 W2       12578    TIP3     H2       HT       0.417000       1.00800           0
     37735 W2       12579    TIP3     OH2      OT      -0.834000       15.9994           0
     37736 W2       12579    TIP3     H1       HT       0.417000       1.00800           0
     37737 W2       12579    TIP3     H2       HT       0.417000       1.00800           0
     37738 W2       12580    TIP3     OH2      OT      -0.834000       15.9994           0
     37739 W2       12580    TIP3     H1       HT       0.417000       1.00800           0
     37740 W2       12580    TIP3     H2       HT       0.417000       1.00800           0
     37741 W2       12581    TIP3     OH2      OT      -0.834000       15.9994           0
     37742 W2       12581    TIP3     H1       HT       0.417000       1.00800           0
     37743 W2       12581    TIP3     H2       HT       0.417000       1.00800           0
     37744 W2       12582    TIP3     OH2      OT      -0.834000       15.9994           0
     37745 W2       12582    TIP3     H1       HT       0.417000       1.00800           0
     37746 W2       12582    TIP3     H2       HT       0.417000       1.00800           0
     37747 W2       12583    TIP3     OH2      OT      -0.834000       15.9994           0
     37748 W2       12583    TIP3     H1       HT       0.417000       1.00800           0
     37749 W2       12583    TIP3     H2       HT       0.417000       1.00800           0
     37750 W2       12584    TIP3     OH2      OT      -0.834000       15.9994           0
     37751 W2       12584    TIP3     H1       HT       0.417000       1.00800           0
     37752 W2       12584    TIP3     H2       HT       0.417000       1.00800           0
     37753 W2       12585    TIP3     OH2      OT      -0.834000       15.9994           0
     37754 W2       12585    TIP3     H1       HT       0.417000       1.00800           0
     37755 W2       12585    TIP3     H2       HT       0.417000       1.00800           0
     37756 W2       12586    TIP3     OH2      OT      -0.834000       15.9994           0
     37757 W2       12586    TIP3     H1       HT       0.417000       1.00800           0
     37758 W2       12586    TIP3     H2       HT       0.417000       1.00800           0
     37759 W2       12587    TIP3     OH2      OT      -0.834000       15.9994           0
     37760 W2       12587    TIP3     H1       HT       0.417000       1.00800           0
     37761 W2       12587    TIP3     H2       HT       0.417000       1.00800           0
     37762 W2       12588    TIP3     OH2      OT      -0.834000       15.9994           0
     37763 W2       12588    TIP3     H1       HT       0.417000       1.00800           0
     37764 W2       12588    TIP3     H2       HT       0.417000       1.00800           0
     37765 W2       12589    TIP3     OH2      OT      -0.834000       15.9994           0
     37766 W2       12589    TIP3     H1       HT       0.417000       1.00800           0
     37767 W2       12589    TIP3     H2       HT       0.417000       1.00800           0
     37768 W2       12590    TIP3     OH2      OT      -0.834000       15.9994           0
     37769 W2       12590    TIP3     H1       HT       0.417000       1.00800           0
     37770 W2       12590    TIP3     H2       HT       0.417000       1.00800           0
     37771 W2       12591    TIP3     OH2      OT      -0.834000       15.9994           0
     37772 W2       12591    TIP3     H1       HT       0.417000       1.00800           0
     37773 W2       12591    TIP3     H2       HT       0.417000       1.00800           0
     37774 W2       12592    TIP3     OH2      OT      -0.834000       15.9994           0
     37775 W2       12592    TIP3     H1       HT       0.417000       1.00800           0
     37776 W2       12592    TIP3     H2       HT       0.417000       1.00800           0
     37777 W2       12593    TIP3     OH2      OT      -0.834000       15.9994           0
     37778 W2       12593    TIP3     H1       HT       0.417000       1.00800           0
     37779 W2       12593    TIP3     H2       HT       0.417000       1.00800           0
     37780 W2       12594    TIP3     OH2      OT      -0.834000       15.9994           0
     37781 W2       12594    TIP3     H1       HT       0.417000       1.00800           0
     37782 W2       12594    TIP3     H2       HT       0.417000       1.00800           0
     37783 W2       12595    TIP3     OH2      OT      -0.834000       15.9994           0
     37784 W2       12595    TIP3     H1       HT       0.417000       1.00800           0
     37785 W2       12595    TIP3     H2       HT       0.417000       1.00800           0
     37786 W2       12596    TIP3     OH2      OT      -0.834000       15.9994           0
     37787 W2       12596    TIP3     H1       HT       0.417000       1.00800           0
     37788 W2       12596    TIP3     H2       HT       0.417000       1.00800           0
     37789 W2       12597    TIP3     OH2      OT      -0.834000       15.9994           0
     37790 W2       12597    TIP3     H1       HT       0.417000       1.00800           0
     37791 W2       12597    TIP3     H2       HT       0.417000       1.00800           0
     37792 W2       12598    TIP3     OH2      OT      -0.834000       15.9994           0
     37793 W2       12598    TIP3     H1       HT       0.417000       1.00800           0
     37794 W2       12598    TIP3     H2       HT       0.417000       1.00800           0
     37795 W2       12599    TIP3     OH2      OT      -0.834000       15.9994           0
     37796 W2       12599    TIP3     H1       HT       0.417000       1.00800           0
     37797 W2       12599    TIP3     H2       HT       0.417000       1.00800           0
     37798 W2       12600    TIP3     OH2      OT      -0.834000       15.9994           0
     37799 W2       12600    TIP3     H1       HT       0.417000       1.00800           0
     37800 W2       12600    TIP3     H2       HT       0.417000       1.00800           0
     37801 W2       12601    TIP3     OH2      OT      -0.834000       15.9994           0
     37802 W2       12601    TIP3     H1       HT       0.417000       1.00800           0
     37803 W2       12601    TIP3     H2       HT       0.417000       1.00800           0
     37804 W2       12602    TIP3     OH2      OT      -0.834000       15.9994           0
     37805 W2       12602    TIP3     H1       HT       0.417000       1.00800           0
     37806 W2       12602    TIP3     H2       HT       0.417000       1.00800           0
     37807 W2       12603    TIP3     OH2      OT      -0.834000       15.9994           0
     37808 W2       12603    TIP3     H1       HT       0.417000       1.00800           0
     37809 W2       12603    TIP3     H2       HT       0.417000       1.00800           0
     37810 W2       12604    TIP3     OH2      OT      -0.834000       15.9994           0
     37811 W2       12604    TIP3     H1       HT       0.417000       1.00800           0
     37812 W2       12604    TIP3     H2       HT       0.417000       1.00800           0
     37813 W2       12605    TIP3     OH2      OT      -0.834000       15.9994           0
     37814 W2       12605    TIP3     H1       HT       0.417000       1.00800           0
     37815 W2       12605    TIP3     H2       HT       0.417000       1.00800           0
     37816 W2       12606    TIP3     OH2      OT      -0.834000       15.9994           0
     37817 W2       12606    TIP3     H1       HT       0.417000       1.00800           0
     37818 W2       12606    TIP3     H2       HT       0.417000       1.00800           0
     37819 W2       12607    TIP3     OH2      OT      -0.834000       15.9994           0
     37820 W2       12607    TIP3     H1       HT       0.417000       1.00800           0
     37821 W2       12607    TIP3     H2       HT       0.417000       1.00800           0
     37822 W2       12608    TIP3     OH2      OT      -0.834000       15.9994           0
     37823 W2       12608    TIP3     H1       HT       0.417000       1.00800           0
     37824 W2       12608    TIP3     H2       HT       0.417000       1.00800           0
     37825 W2       12609    TIP3     OH2      OT      -0.834000       15.9994           0
     37826 W2       12609    TIP3     H1       HT       0.417000       1.00800           0
     37827 W2       12609    TIP3     H2       HT       0.417000       1.00800           0
     37828 W2       12610    TIP3     OH2      OT      -0.834000       15.9994           0
     37829 W2       12610    TIP3     H1       HT       0.417000       1.00800           0
     37830 W2       12610    TIP3     H2       HT       0.417000       1.00800           0
     37831 W2       12611    TIP3     OH2      OT      -0.834000       15.9994           0
     37832 W2       12611    TIP3     H1       HT       0.417000       1.00800           0
     37833 W2       12611    TIP3     H2       HT       0.417000       1.00800           0
     37834 W2       12612    TIP3     OH2      OT      -0.834000       15.9994           0
     37835 W2       12612    TIP3     H1       HT       0.417000       1.00800           0
     37836 W2       12612    TIP3     H2       HT       0.417000       1.00800           0
     37837 W2       12613    TIP3     OH2      OT      -0.834000       15.9994           0
     37838 W2       12613    TIP3     H1       HT       0.417000       1.00800           0
     37839 W2       12613    TIP3     H2       HT       0.417000       1.00800           0
     37840 W2       12614    TIP3     OH2      OT      -0.834000       15.9994           0
     37841 W2       12614    TIP3     H1       HT       0.417000       1.00800           0
     37842 W2       12614    TIP3     H2       HT       0.417000       1.00800           0
     37843 W2       12615    TIP3     OH2      OT      -0.834000       15.9994           0
     37844 W2       12615    TIP3     H1       HT       0.417000       1.00800           0
     37845 W2       12615    TIP3     H2       HT       0.417000       1.00800           0
     37846 W2       12616    TIP3     OH2      OT      -0.834000       15.9994           0
     37847 W2       12616    TIP3     H1       HT       0.417000       1.00800           0
     37848 W2       12616    TIP3     H2       HT       0.417000       1.00800           0
     37849 W2       12617    TIP3     OH2      OT      -0.834000       15.9994           0
     37850 W2       12617    TIP3     H1       HT       0.417000       1.00800           0
     37851 W2       12617    TIP3     H2       HT       0.417000       1.00800           0
     37852 W2       12618    TIP3     OH2      OT      -0.834000       15.9994           0
     37853 W2       12618    TIP3     H1       HT       0.417000       1.00800           0
     37854 W2       12618    TIP3     H2       HT       0.417000       1.00800           0
     37855 W2       12619    TIP3     OH2      OT      -0.834000       15.9994           0
     37856 W2       12619    TIP3     H1       HT       0.417000       1.00800           0
     37857 W2       12619    TIP3     H2       HT       0.417000       1.00800           0
     37858 W2       12620    TIP3     OH2      OT      -0.834000       15.9994           0
     37859 W2       12620    TIP3     H1       HT       0.417000       1.00800           0
     37860 W2       12620    TIP3     H2       HT       0.417000       1.00800           0
     37861 W2       12621    TIP3     OH2      OT      -0.834000       15.9994           0
     37862 W2       12621    TIP3     H1       HT       0.417000       1.00800           0
     37863 W2       12621    TIP3     H2       HT       0.417000       1.00800           0
     37864 W2       12622    TIP3     OH2      OT      -0.834000       15.9994           0
     37865 W2       12622    TIP3     H1       HT       0.417000       1.00800           0
     37866 W2       12622    TIP3     H2       HT       0.417000       1.00800           0
     37867 W2       12623    TIP3     OH2      OT      -0.834000       15.9994           0
     37868 W2       12623    TIP3     H1       HT       0.417000       1.00800           0
     37869 W2       12623    TIP3     H2       HT       0.417000       1.00800           0
     37870 W2       12624    TIP3     OH2      OT      -0.834000       15.9994           0
     37871 W2       12624    TIP3     H1       HT       0.417000       1.00800           0
     37872 W2       12624    TIP3     H2       HT       0.417000       1.00800           0
     37873 W2       12625    TIP3     OH2      OT      -0.834000       15.9994           0
     37874 W2       12625    TIP3     H1       HT       0.417000       1.00800           0
     37875 W2       12625    TIP3     H2       HT       0.417000       1.00800           0
     37876 W2       12626    TIP3     OH2      OT      -0.834000       15.9994           0
     37877 W2       12626    TIP3     H1       HT       0.417000       1.00800           0
     37878 W2       12626    TIP3     H2       HT       0.417000       1.00800           0
     37879 W2       12627    TIP3     OH2      OT      -0.834000       15.9994           0
     37880 W2       12627    TIP3     H1       HT       0.417000       1.00800           0
     37881 W2       12627    TIP3     H2       HT       0.417000       1.00800           0
     37882 W2       12628    TIP3     OH2      OT      -0.834000       15.9994           0
     37883 W2       12628    TIP3     H1       HT       0.417000       1.00800           0
     37884 W2       12628    TIP3     H2       HT       0.417000       1.00800           0
     37885 W2       12629    TIP3     OH2      OT      -0.834000       15.9994           0
     37886 W2       12629    TIP3     H1       HT       0.417000       1.00800           0
     37887 W2       12629    TIP3     H2       HT       0.417000       1.00800           0
     37888 W2       12630    TIP3     OH2      OT      -0.834000       15.9994           0
     37889 W2       12630    TIP3     H1       HT       0.417000       1.00800           0
     37890 W2       12630    TIP3     H2       HT       0.417000       1.00800           0
     37891 W2       12631    TIP3     OH2      OT      -0.834000       15.9994           0
     37892 W2       12631    TIP3     H1       HT       0.417000       1.00800           0
     37893 W2       12631    TIP3     H2       HT       0.417000       1.00800           0
     37894 W2       12632    TIP3     OH2      OT      -0.834000       15.9994           0
     37895 W2       12632    TIP3     H1       HT       0.417000       1.00800           0
     37896 W2       12632    TIP3     H2       HT       0.417000       1.00800           0
     37897 W2       12633    TIP3     OH2      OT      -0.834000       15.9994           0
     37898 W2       12633    TIP3     H1       HT       0.417000       1.00800           0
     37899 W2       12633    TIP3     H2       HT       0.417000       1.00800           0
     37900 W2       12634    TIP3     OH2      OT      -0.834000       15.9994           0
     37901 W2       12634    TIP3     H1       HT       0.417000       1.00800           0
     37902 W2       12634    TIP3     H2       HT       0.417000       1.00800           0
     37903 W2       12635    TIP3     OH2      OT      -0.834000       15.9994           0
     37904 W2       12635    TIP3     H1       HT       0.417000       1.00800           0
     37905 W2       12635    TIP3     H2       HT       0.417000       1.00800           0
     37906 W2       12636    TIP3     OH2      OT      -0.834000       15.9994           0
     37907 W2       12636    TIP3     H1       HT       0.417000       1.00800           0
     37908 W2       12636    TIP3     H2       HT       0.417000       1.00800           0
     37909 W2       12637    TIP3     OH2      OT      -0.834000       15.9994           0
     37910 W2       12637    TIP3     H1       HT       0.417000       1.00800           0
     37911 W2       12637    TIP3     H2       HT       0.417000       1.00800           0
     37912 W2       12638    TIP3     OH2      OT      -0.834000       15.9994           0
     37913 W2       12638    TIP3     H1       HT       0.417000       1.00800           0
     37914 W2       12638    TIP3     H2       HT       0.417000       1.00800           0
     37915 W2       12639    TIP3     OH2      OT      -0.834000       15.9994           0
     37916 W2       12639    TIP3     H1       HT       0.417000       1.00800           0
     37917 W2       12639    TIP3     H2       HT       0.417000       1.00800           0
     37918 W2       12640    TIP3     OH2      OT      -0.834000       15.9994           0
     37919 W2       12640    TIP3     H1       HT       0.417000       1.00800           0
     37920 W2       12640    TIP3     H2       HT       0.417000       1.00800           0
     37921 W2       12641    TIP3     OH2      OT      -0.834000       15.9994           0
     37922 W2       12641    TIP3     H1       HT       0.417000       1.00800           0
     37923 W2       12641    TIP3     H2       HT       0.417000       1.00800           0
     37924 W2       12642    TIP3     OH2      OT      -0.834000       15.9994           0
     37925 W2       12642    TIP3     H1       HT       0.417000       1.00800           0
     37926 W2       12642    TIP3     H2       HT       0.417000       1.00800           0
     37927 W2       12643    TIP3     OH2      OT      -0.834000       15.9994           0
     37928 W2       12643    TIP3     H1       HT       0.417000       1.00800           0
     37929 W2       12643    TIP3     H2       HT       0.417000       1.00800           0
     37930 W2       12644    TIP3     OH2      OT      -0.834000       15.9994           0
     37931 W2       12644    TIP3     H1       HT       0.417000       1.00800           0
     37932 W2       12644    TIP3     H2       HT       0.417000       1.00800           0
     37933 W2       12645    TIP3     OH2      OT      -0.834000       15.9994           0
     37934 W2       12645    TIP3     H1       HT       0.417000       1.00800           0
     37935 W2       12645    TIP3     H2       HT       0.417000       1.00800           0
     37936 W2       12646    TIP3     OH2      OT      -0.834000       15.9994           0
     37937 W2       12646    TIP3     H1       HT       0.417000       1.00800           0
     37938 W2       12646    TIP3     H2       HT       0.417000       1.00800           0
     37939 W2       12647    TIP3     OH2      OT      -0.834000       15.9994           0
     37940 W2       12647    TIP3     H1       HT       0.417000       1.00800           0
     37941 W2       12647    TIP3     H2       HT       0.417000       1.00800           0
     37942 W2       12648    TIP3     OH2      OT      -0.834000       15.9994           0
     37943 W2       12648    TIP3     H1       HT       0.417000       1.00800           0
     37944 W2       12648    TIP3     H2       HT       0.417000       1.00800           0
     37945 W2       12649    TIP3     OH2      OT      -0.834000       15.9994           0
     37946 W2       12649    TIP3     H1       HT       0.417000       1.00800           0
     37947 W2       12649    TIP3     H2       HT       0.417000       1.00800           0
     37948 W2       12650    TIP3     OH2      OT      -0.834000       15.9994           0
     37949 W2       12650    TIP3     H1       HT       0.417000       1.00800           0
     37950 W2       12650    TIP3     H2       HT       0.417000       1.00800           0
     37951 W2       12651    TIP3     OH2      OT      -0.834000       15.9994           0
     37952 W2       12651    TIP3     H1       HT       0.417000       1.00800           0
     37953 W2       12651    TIP3     H2       HT       0.417000       1.00800           0
     37954 W2       12652    TIP3     OH2      OT      -0.834000       15.9994           0
     37955 W2       12652    TIP3     H1       HT       0.417000       1.00800           0
     37956 W2       12652    TIP3     H2       HT       0.417000       1.00800           0
     37957 W2       12653    TIP3     OH2      OT      -0.834000       15.9994           0
     37958 W2       12653    TIP3     H1       HT       0.417000       1.00800           0
     37959 W2       12653    TIP3     H2       HT       0.417000       1.00800           0
     37960 W2       12654    TIP3     OH2      OT      -0.834000       15.9994           0
     37961 W2       12654    TIP3     H1       HT       0.417000       1.00800           0
     37962 W2       12654    TIP3     H2       HT       0.417000       1.00800           0
     37963 W2       12655    TIP3     OH2      OT      -0.834000       15.9994           0
     37964 W2       12655    TIP3     H1       HT       0.417000       1.00800           0
     37965 W2       12655    TIP3     H2       HT       0.417000       1.00800           0
     37966 W2       12656    TIP3     OH2      OT      -0.834000       15.9994           0
     37967 W2       12656    TIP3     H1       HT       0.417000       1.00800           0
     37968 W2       12656    TIP3     H2       HT       0.417000       1.00800           0
     37969 W2       12657    TIP3     OH2      OT      -0.834000       15.9994           0
     37970 W2       12657    TIP3     H1       HT       0.417000       1.00800           0
     37971 W2       12657    TIP3     H2       HT       0.417000       1.00800           0
     37972 W2       12658    TIP3     OH2      OT      -0.834000       15.9994           0
     37973 W2       12658    TIP3     H1       HT       0.417000       1.00800           0
     37974 W2       12658    TIP3     H2       HT       0.417000       1.00800           0
     37975 W2       12659    TIP3     OH2      OT      -0.834000       15.9994           0
     37976 W2       12659    TIP3     H1       HT       0.417000       1.00800           0
     37977 W2       12659    TIP3     H2       HT       0.417000       1.00800           0
     37978 W2       12660    TIP3     OH2      OT      -0.834000       15.9994           0
     37979 W2       12660    TIP3     H1       HT       0.417000       1.00800           0
     37980 W2       12660    TIP3     H2       HT       0.417000       1.00800           0
     37981 W2       12661    TIP3     OH2      OT      -0.834000       15.9994           0
     37982 W2       12661    TIP3     H1       HT       0.417000       1.00800           0
     37983 W2       12661    TIP3     H2       HT       0.417000       1.00800           0
     37984 W2       12662    TIP3     OH2      OT      -0.834000       15.9994           0
     37985 W2       12662    TIP3     H1       HT       0.417000       1.00800           0
     37986 W2       12662    TIP3     H2       HT       0.417000       1.00800           0
     37987 W2       12663    TIP3     OH2      OT      -0.834000       15.9994           0
     37988 W2       12663    TIP3     H1       HT       0.417000       1.00800           0
     37989 W2       12663    TIP3     H2       HT       0.417000       1.00800           0
     37990 W2       12664    TIP3     OH2      OT      -0.834000       15.9994           0
     37991 W2       12664    TIP3     H1       HT       0.417000       1.00800           0
     37992 W2       12664    TIP3     H2       HT       0.417000       1.00800           0
     37993 W2       12665    TIP3     OH2      OT      -0.834000       15.9994           0
     37994 W2       12665    TIP3     H1       HT       0.417000       1.00800           0
     37995 W2       12665    TIP3     H2       HT       0.417000       1.00800           0
     37996 W2       12666    TIP3     OH2      OT      -0.834000       15.9994           0
     37997 W2       12666    TIP3     H1       HT       0.417000       1.00800           0
     37998 W2       12666    TIP3     H2       HT       0.417000       1.00800           0
     37999 W2       12667    TIP3     OH2      OT      -0.834000       15.9994           0
     38000 W2       12667    TIP3     H1       HT       0.417000       1.00800           0
     38001 W2       12667    TIP3     H2       HT       0.417000       1.00800           0
     38002 W2       12668    TIP3     OH2      OT      -0.834000       15.9994           0
     38003 W2       12668    TIP3     H1       HT       0.417000       1.00800           0
     38004 W2       12668    TIP3     H2       HT       0.417000       1.00800           0
     38005 W2       12669    TIP3     OH2      OT      -0.834000       15.9994           0
     38006 W2       12669    TIP3     H1       HT       0.417000       1.00800           0
     38007 W2       12669    TIP3     H2       HT       0.417000       1.00800           0
     38008 W2       12670    TIP3     OH2      OT      -0.834000       15.9994           0
     38009 W2       12670    TIP3     H1       HT       0.417000       1.00800           0
     38010 W2       12670    TIP3     H2       HT       0.417000       1.00800           0
     38011 W2       12671    TIP3     OH2      OT      -0.834000       15.9994           0
     38012 W2       12671    TIP3     H1       HT       0.417000       1.00800           0
     38013 W2       12671    TIP3     H2       HT       0.417000       1.00800           0
     38014 W2       12672    TIP3     OH2      OT      -0.834000       15.9994           0
     38015 W2       12672    TIP3     H1       HT       0.417000       1.00800           0
     38016 W2       12672    TIP3     H2       HT       0.417000       1.00800           0
     38017 W2       12673    TIP3     OH2      OT      -0.834000       15.9994           0
     38018 W2       12673    TIP3     H1       HT       0.417000       1.00800           0
     38019 W2       12673    TIP3     H2       HT       0.417000       1.00800           0
     38020 W2       12674    TIP3     OH2      OT      -0.834000       15.9994           0
     38021 W2       12674    TIP3     H1       HT       0.417000       1.00800           0
     38022 W2       12674    TIP3     H2       HT       0.417000       1.00800           0
     38023 W2       12675    TIP3     OH2      OT      -0.834000       15.9994           0
     38024 W2       12675    TIP3     H1       HT       0.417000       1.00800           0
     38025 W2       12675    TIP3     H2       HT       0.417000       1.00800           0
     38026 W2       12676    TIP3     OH2      OT      -0.834000       15.9994           0
     38027 W2       12676    TIP3     H1       HT       0.417000       1.00800           0
     38028 W2       12676    TIP3     H2       HT       0.417000       1.00800           0
     38029 W2       12677    TIP3     OH2      OT      -0.834000       15.9994           0
     38030 W2       12677    TIP3     H1       HT       0.417000       1.00800           0
     38031 W2       12677    TIP3     H2       HT       0.417000       1.00800           0
     38032 W2       12678    TIP3     OH2      OT      -0.834000       15.9994           0
     38033 W2       12678    TIP3     H1       HT       0.417000       1.00800           0
     38034 W2       12678    TIP3     H2       HT       0.417000       1.00800           0
     38035 W2       12679    TIP3     OH2      OT      -0.834000       15.9994           0
     38036 W2       12679    TIP3     H1       HT       0.417000       1.00800           0
     38037 W2       12679    TIP3     H2       HT       0.417000       1.00800           0
     38038 W2       12680    TIP3     OH2      OT      -0.834000       15.9994           0
     38039 W2       12680    TIP3     H1       HT       0.417000       1.00800           0
     38040 W2       12680    TIP3     H2       HT       0.417000       1.00800           0
     38041 W2       12681    TIP3     OH2      OT      -0.834000       15.9994           0
     38042 W2       12681    TIP3     H1       HT       0.417000       1.00800           0
     38043 W2       12681    TIP3     H2       HT       0.417000       1.00800           0
     38044 W2       12682    TIP3     OH2      OT      -0.834000       15.9994           0
     38045 W2       12682    TIP3     H1       HT       0.417000       1.00800           0
     38046 W2       12682    TIP3     H2       HT       0.417000       1.00800           0
     38047 W2       12683    TIP3     OH2      OT      -0.834000       15.9994           0
     38048 W2       12683    TIP3     H1       HT       0.417000       1.00800           0
     38049 W2       12683    TIP3     H2       HT       0.417000       1.00800           0
     38050 W2       12684    TIP3     OH2      OT      -0.834000       15.9994           0
     38051 W2       12684    TIP3     H1       HT       0.417000       1.00800           0
     38052 W2       12684    TIP3     H2       HT       0.417000       1.00800           0
     38053 W2       12685    TIP3     OH2      OT      -0.834000       15.9994           0
     38054 W2       12685    TIP3     H1       HT       0.417000       1.00800           0
     38055 W2       12685    TIP3     H2       HT       0.417000       1.00800           0
     38056 W2       12686    TIP3     OH2      OT      -0.834000       15.9994           0
     38057 W2       12686    TIP3     H1       HT       0.417000       1.00800           0
     38058 W2       12686    TIP3     H2       HT       0.417000       1.00800           0
     38059 W2       12687    TIP3     OH2      OT      -0.834000       15.9994           0
     38060 W2       12687    TIP3     H1       HT       0.417000       1.00800           0
     38061 W2       12687    TIP3     H2       HT       0.417000       1.00800           0
     38062 W2       12688    TIP3     OH2      OT      -0.834000       15.9994           0
     38063 W2       12688    TIP3     H1       HT       0.417000       1.00800           0
     38064 W2       12688    TIP3     H2       HT       0.417000       1.00800           0
     38065 W2       12689    TIP3     OH2      OT      -0.834000       15.9994           0
     38066 W2       12689    TIP3     H1       HT       0.417000       1.00800           0
     38067 W2       12689    TIP3     H2       HT       0.417000       1.00800           0
     38068 W2       12690    TIP3     OH2      OT      -0.834000       15.9994           0
     38069 W2       12690    TIP3     H1       HT       0.417000       1.00800           0
     38070 W2       12690    TIP3     H2       HT       0.417000       1.00800           0
     38071 W2       12691    TIP3     OH2      OT      -0.834000       15.9994           0
     38072 W2       12691    TIP3     H1       HT       0.417000       1.00800           0
     38073 W2       12691    TIP3     H2       HT       0.417000       1.00800           0
     38074 W2       12692    TIP3     OH2      OT      -0.834000       15.9994           0
     38075 W2       12692    TIP3     H1       HT       0.417000       1.00800           0
     38076 W2       12692    TIP3     H2       HT       0.417000       1.00800           0
     38077 W2       12693    TIP3     OH2      OT      -0.834000       15.9994           0
     38078 W2       12693    TIP3     H1       HT       0.417000       1.00800           0
     38079 W2       12693    TIP3     H2       HT       0.417000       1.00800           0
     38080 W2       12694    TIP3     OH2      OT      -0.834000       15.9994           0
     38081 W2       12694    TIP3     H1       HT       0.417000       1.00800           0
     38082 W2       12694    TIP3     H2       HT       0.417000       1.00800           0
     38083 W2       12695    TIP3     OH2      OT      -0.834000       15.9994           0
     38084 W2       12695    TIP3     H1       HT       0.417000       1.00800           0
     38085 W2       12695    TIP3     H2       HT       0.417000       1.00800           0
     38086 W2       12696    TIP3     OH2      OT      -0.834000       15.9994           0
     38087 W2       12696    TIP3     H1       HT       0.417000       1.00800           0
     38088 W2       12696    TIP3     H2       HT       0.417000       1.00800           0
     38089 W2       12697    TIP3     OH2      OT      -0.834000       15.9994           0
     38090 W2       12697    TIP3     H1       HT       0.417000       1.00800           0
     38091 W2       12697    TIP3     H2       HT       0.417000       1.00800           0
     38092 W2       12698    TIP3     OH2      OT      -0.834000       15.9994           0
     38093 W2       12698    TIP3     H1       HT       0.417000       1.00800           0
     38094 W2       12698    TIP3     H2       HT       0.417000       1.00800           0
     38095 W2       12699    TIP3     OH2      OT      -0.834000       15.9994           0
     38096 W2       12699    TIP3     H1       HT       0.417000       1.00800           0
     38097 W2       12699    TIP3     H2       HT       0.417000       1.00800           0
     38098 W2       12700    TIP3     OH2      OT      -0.834000       15.9994           0
     38099 W2       12700    TIP3     H1       HT       0.417000       1.00800           0
     38100 W2       12700    TIP3     H2       HT       0.417000       1.00800           0
     38101 W2       12701    TIP3     OH2      OT      -0.834000       15.9994           0
     38102 W2       12701    TIP3     H1       HT       0.417000       1.00800           0
     38103 W2       12701    TIP3     H2       HT       0.417000       1.00800           0
     38104 W2       12702    TIP3     OH2      OT      -0.834000       15.9994           0
     38105 W2       12702    TIP3     H1       HT       0.417000       1.00800           0
     38106 W2       12702    TIP3     H2       HT       0.417000       1.00800           0
     38107 W2       12703    TIP3     OH2      OT      -0.834000       15.9994           0
     38108 W2       12703    TIP3     H1       HT       0.417000       1.00800           0
     38109 W2       12703    TIP3     H2       HT       0.417000       1.00800           0
     38110 W2       12704    TIP3     OH2      OT      -0.834000       15.9994           0
     38111 W2       12704    TIP3     H1       HT       0.417000       1.00800           0
     38112 W2       12704    TIP3     H2       HT       0.417000       1.00800           0
     38113 W2       12705    TIP3     OH2      OT      -0.834000       15.9994           0
     38114 W2       12705    TIP3     H1       HT       0.417000       1.00800           0
     38115 W2       12705    TIP3     H2       HT       0.417000       1.00800           0
     38116 W2       12706    TIP3     OH2      OT      -0.834000       15.9994           0
     38117 W2       12706    TIP3     H1       HT       0.417000       1.00800           0
     38118 W2       12706    TIP3     H2       HT       0.417000       1.00800           0
     38119 W2       12707    TIP3     OH2      OT      -0.834000       15.9994           0
     38120 W2       12707    TIP3     H1       HT       0.417000       1.00800           0
     38121 W2       12707    TIP3     H2       HT       0.417000       1.00800           0
     38122 W2       12708    TIP3     OH2      OT      -0.834000       15.9994           0
     38123 W2       12708    TIP3     H1       HT       0.417000       1.00800           0
     38124 W2       12708    TIP3     H2       HT       0.417000       1.00800           0
     38125 W2       12709    TIP3     OH2      OT      -0.834000       15.9994           0
     38126 W2       12709    TIP3     H1       HT       0.417000       1.00800           0
     38127 W2       12709    TIP3     H2       HT       0.417000       1.00800           0
     38128 W2       12710    TIP3     OH2      OT      -0.834000       15.9994           0
     38129 W2       12710    TIP3     H1       HT       0.417000       1.00800           0
     38130 W2       12710    TIP3     H2       HT       0.417000       1.00800           0
     38131 W2       12711    TIP3     OH2      OT      -0.834000       15.9994           0
     38132 W2       12711    TIP3     H1       HT       0.417000       1.00800           0
     38133 W2       12711    TIP3     H2       HT       0.417000       1.00800           0
     38134 W2       12712    TIP3     OH2      OT      -0.834000       15.9994           0
     38135 W2       12712    TIP3     H1       HT       0.417000       1.00800           0
     38136 W2       12712    TIP3     H2       HT       0.417000       1.00800           0
     38137 W2       12713    TIP3     OH2      OT      -0.834000       15.9994           0
     38138 W2       12713    TIP3     H1       HT       0.417000       1.00800           0
     38139 W2       12713    TIP3     H2       HT       0.417000       1.00800           0
     38140 W2       12714    TIP3     OH2      OT      -0.834000       15.9994           0
     38141 W2       12714    TIP3     H1       HT       0.417000       1.00800           0
     38142 W2       12714    TIP3     H2       HT       0.417000       1.00800           0
     38143 W2       12715    TIP3     OH2      OT      -0.834000       15.9994           0
     38144 W2       12715    TIP3     H1       HT       0.417000       1.00800           0
     38145 W2       12715    TIP3     H2       HT       0.417000       1.00800           0
     38146 W2       12716    TIP3     OH2      OT      -0.834000       15.9994           0
     38147 W2       12716    TIP3     H1       HT       0.417000       1.00800           0
     38148 W2       12716    TIP3     H2       HT       0.417000       1.00800           0
     38149 W2       12717    TIP3     OH2      OT      -0.834000       15.9994           0
     38150 W2       12717    TIP3     H1       HT       0.417000       1.00800           0
     38151 W2       12717    TIP3     H2       HT       0.417000       1.00800           0
     38152 W2       12718    TIP3     OH2      OT      -0.834000       15.9994           0
     38153 W2       12718    TIP3     H1       HT       0.417000       1.00800           0
     38154 W2       12718    TIP3     H2       HT       0.417000       1.00800           0
     38155 W2       12719    TIP3     OH2      OT      -0.834000       15.9994           0
     38156 W2       12719    TIP3     H1       HT       0.417000       1.00800           0
     38157 W2       12719    TIP3     H2       HT       0.417000       1.00800           0
     38158 W2       12720    TIP3     OH2      OT      -0.834000       15.9994           0
     38159 W2       12720    TIP3     H1       HT       0.417000       1.00800           0
     38160 W2       12720    TIP3     H2       HT       0.417000       1.00800           0
     38161 W2       12721    TIP3     OH2      OT      -0.834000       15.9994           0
     38162 W2       12721    TIP3     H1       HT       0.417000       1.00800           0
     38163 W2       12721    TIP3     H2       HT       0.417000       1.00800           0
     38164 W2       12722    TIP3     OH2      OT      -0.834000       15.9994           0
     38165 W2       12722    TIP3     H1       HT       0.417000       1.00800           0
     38166 W2       12722    TIP3     H2       HT       0.417000       1.00800           0
     38167 W2       12723    TIP3     OH2      OT      -0.834000       15.9994           0
     38168 W2       12723    TIP3     H1       HT       0.417000       1.00800           0
     38169 W2       12723    TIP3     H2       HT       0.417000       1.00800           0
     38170 W2       12724    TIP3     OH2      OT      -0.834000       15.9994           0
     38171 W2       12724    TIP3     H1       HT       0.417000       1.00800           0
     38172 W2       12724    TIP3     H2       HT       0.417000       1.00800           0
     38173 W2       12725    TIP3     OH2      OT      -0.834000       15.9994           0
     38174 W2       12725    TIP3     H1       HT       0.417000       1.00800           0
     38175 W2       12725    TIP3     H2       HT       0.417000       1.00800           0
     38176 W2       12726    TIP3     OH2      OT      -0.834000       15.9994           0
     38177 W2       12726    TIP3     H1       HT       0.417000       1.00800           0
     38178 W2       12726    TIP3     H2       HT       0.417000       1.00800           0
     38179 W2       12727    TIP3     OH2      OT      -0.834000       15.9994           0
     38180 W2       12727    TIP3     H1       HT       0.417000       1.00800           0
     38181 W2       12727    TIP3     H2       HT       0.417000       1.00800           0
     38182 W2       12728    TIP3     OH2      OT      -0.834000       15.9994           0
     38183 W2       12728    TIP3     H1       HT       0.417000       1.00800           0
     38184 W2       12728    TIP3     H2       HT       0.417000       1.00800           0
     38185 W2       12729    TIP3     OH2      OT      -0.834000       15.9994           0
     38186 W2       12729    TIP3     H1       HT       0.417000       1.00800           0
     38187 W2       12729    TIP3     H2       HT       0.417000       1.00800           0
     38188 W2       12730    TIP3     OH2      OT      -0.834000       15.9994           0
     38189 W2       12730    TIP3     H1       HT       0.417000       1.00800           0
     38190 W2       12730    TIP3     H2       HT       0.417000       1.00800           0
     38191 W2       12731    TIP3     OH2      OT      -0.834000       15.9994           0
     38192 W2       12731    TIP3     H1       HT       0.417000       1.00800           0
     38193 W2       12731    TIP3     H2       HT       0.417000       1.00800           0
     38194 W2       12732    TIP3     OH2      OT      -0.834000       15.9994           0
     38195 W2       12732    TIP3     H1       HT       0.417000       1.00800           0
     38196 W2       12732    TIP3     H2       HT       0.417000       1.00800           0
     38197 W2       12733    TIP3     OH2      OT      -0.834000       15.9994           0
     38198 W2       12733    TIP3     H1       HT       0.417000       1.00800           0
     38199 W2       12733    TIP3     H2       HT       0.417000       1.00800           0
     38200 W2       12734    TIP3     OH2      OT      -0.834000       15.9994           0
     38201 W2       12734    TIP3     H1       HT       0.417000       1.00800           0
     38202 W2       12734    TIP3     H2       HT       0.417000       1.00800           0
     38203 W2       12735    TIP3     OH2      OT      -0.834000       15.9994           0
     38204 W2       12735    TIP3     H1       HT       0.417000       1.00800           0
     38205 W2       12735    TIP3     H2       HT       0.417000       1.00800           0
     38206 W2       12736    TIP3     OH2      OT      -0.834000       15.9994           0
     38207 W2       12736    TIP3     H1       HT       0.417000       1.00800           0
     38208 W2       12736    TIP3     H2       HT       0.417000       1.00800           0
     38209 W2       12737    TIP3     OH2      OT      -0.834000       15.9994           0
     38210 W2       12737    TIP3     H1       HT       0.417000       1.00800           0
     38211 W2       12737    TIP3     H2       HT       0.417000       1.00800           0
     38212 W2       12738    TIP3     OH2      OT      -0.834000       15.9994           0
     38213 W2       12738    TIP3     H1       HT       0.417000       1.00800           0
     38214 W2       12738    TIP3     H2       HT       0.417000       1.00800           0
     38215 W2       12739    TIP3     OH2      OT      -0.834000       15.9994           0
     38216 W2       12739    TIP3     H1       HT       0.417000       1.00800           0
     38217 W2       12739    TIP3     H2       HT       0.417000       1.00800           0
     38218 W2       12740    TIP3     OH2      OT      -0.834000       15.9994           0
     38219 W2       12740    TIP3     H1       HT       0.417000       1.00800           0
     38220 W2       12740    TIP3     H2       HT       0.417000       1.00800           0
     38221 W2       12741    TIP3     OH2      OT      -0.834000       15.9994           0
     38222 W2       12741    TIP3     H1       HT       0.417000       1.00800           0
     38223 W2       12741    TIP3     H2       HT       0.417000       1.00800           0
     38224 W2       12742    TIP3     OH2      OT      -0.834000       15.9994           0
     38225 W2       12742    TIP3     H1       HT       0.417000       1.00800           0
     38226 W2       12742    TIP3     H2       HT       0.417000       1.00800           0
     38227 W2       12743    TIP3     OH2      OT      -0.834000       15.9994           0
     38228 W2       12743    TIP3     H1       HT       0.417000       1.00800           0
     38229 W2       12743    TIP3     H2       HT       0.417000       1.00800           0
     38230 W2       12744    TIP3     OH2      OT      -0.834000       15.9994           0
     38231 W2       12744    TIP3     H1       HT       0.417000       1.00800           0
     38232 W2       12744    TIP3     H2       HT       0.417000       1.00800           0
     38233 W2       12745    TIP3     OH2      OT      -0.834000       15.9994           0
     38234 W2       12745    TIP3     H1       HT       0.417000       1.00800           0
     38235 W2       12745    TIP3     H2       HT       0.417000       1.00800           0
     38236 W2       12746    TIP3     OH2      OT      -0.834000       15.9994           0
     38237 W2       12746    TIP3     H1       HT       0.417000       1.00800           0
     38238 W2       12746    TIP3     H2       HT       0.417000       1.00800           0
     38239 W2       12747    TIP3     OH2      OT      -0.834000       15.9994           0
     38240 W2       12747    TIP3     H1       HT       0.417000       1.00800           0
     38241 W2       12747    TIP3     H2       HT       0.417000       1.00800           0
     38242 W2       12748    TIP3     OH2      OT      -0.834000       15.9994           0
     38243 W2       12748    TIP3     H1       HT       0.417000       1.00800           0
     38244 W2       12748    TIP3     H2       HT       0.417000       1.00800           0
     38245 W2       12749    TIP3     OH2      OT      -0.834000       15.9994           0
     38246 W2       12749    TIP3     H1       HT       0.417000       1.00800           0
     38247 W2       12749    TIP3     H2       HT       0.417000       1.00800           0
     38248 W2       12750    TIP3     OH2      OT      -0.834000       15.9994           0
     38249 W2       12750    TIP3     H1       HT       0.417000       1.00800           0
     38250 W2       12750    TIP3     H2       HT       0.417000       1.00800           0
     38251 W2       12751    TIP3     OH2      OT      -0.834000       15.9994           0
     38252 W2       12751    TIP3     H1       HT       0.417000       1.00800           0
     38253 W2       12751    TIP3     H2       HT       0.417000       1.00800           0
     38254 W2       12752    TIP3     OH2      OT      -0.834000       15.9994           0
     38255 W2       12752    TIP3     H1       HT       0.417000       1.00800           0
     38256 W2       12752    TIP3     H2       HT       0.417000       1.00800           0
     38257 W2       12753    TIP3     OH2      OT      -0.834000       15.9994           0
     38258 W2       12753    TIP3     H1       HT       0.417000       1.00800           0
     38259 W2       12753    TIP3     H2       HT       0.417000       1.00800           0
     38260 W2       12754    TIP3     OH2      OT      -0.834000       15.9994           0
     38261 W2       12754    TIP3     H1       HT       0.417000       1.00800           0
     38262 W2       12754    TIP3     H2       HT       0.417000       1.00800           0
     38263 W2       12755    TIP3     OH2      OT      -0.834000       15.9994           0
     38264 W2       12755    TIP3     H1       HT       0.417000       1.00800           0
     38265 W2       12755    TIP3     H2       HT       0.417000       1.00800           0
     38266 W2       12756    TIP3     OH2      OT      -0.834000       15.9994           0
     38267 W2       12756    TIP3     H1       HT       0.417000       1.00800           0
     38268 W2       12756    TIP3     H2       HT       0.417000       1.00800           0
     38269 W2       12757    TIP3     OH2      OT      -0.834000       15.9994           0
     38270 W2       12757    TIP3     H1       HT       0.417000       1.00800           0
     38271 W2       12757    TIP3     H2       HT       0.417000       1.00800           0
     38272 W2       12758    TIP3     OH2      OT      -0.834000       15.9994           0
     38273 W2       12758    TIP3     H1       HT       0.417000       1.00800           0
     38274 W2       12758    TIP3     H2       HT       0.417000       1.00800           0
     38275 W2       12759    TIP3     OH2      OT      -0.834000       15.9994           0
     38276 W2       12759    TIP3     H1       HT       0.417000       1.00800           0
     38277 W2       12759    TIP3     H2       HT       0.417000       1.00800           0
     38278 W2       12760    TIP3     OH2      OT      -0.834000       15.9994           0
     38279 W2       12760    TIP3     H1       HT       0.417000       1.00800           0
     38280 W2       12760    TIP3     H2       HT       0.417000       1.00800           0
     38281 W2       12761    TIP3     OH2      OT      -0.834000       15.9994           0
     38282 W2       12761    TIP3     H1       HT       0.417000       1.00800           0
     38283 W2       12761    TIP3     H2       HT       0.417000       1.00800           0
     38284 W2       12762    TIP3     OH2      OT      -0.834000       15.9994           0
     38285 W2       12762    TIP3     H1       HT       0.417000       1.00800           0
     38286 W2       12762    TIP3     H2       HT       0.417000       1.00800           0
     38287 W2       12763    TIP3     OH2      OT      -0.834000       15.9994           0
     38288 W2       12763    TIP3     H1       HT       0.417000       1.00800           0
     38289 W2       12763    TIP3     H2       HT       0.417000       1.00800           0
     38290 W2       12764    TIP3     OH2      OT      -0.834000       15.9994           0
     38291 W2       12764    TIP3     H1       HT       0.417000       1.00800           0
     38292 W2       12764    TIP3     H2       HT       0.417000       1.00800           0
     38293 W2       12765    TIP3     OH2      OT      -0.834000       15.9994           0
     38294 W2       12765    TIP3     H1       HT       0.417000       1.00800           0
     38295 W2       12765    TIP3     H2       HT       0.417000       1.00800           0
     38296 W2       12766    TIP3     OH2      OT      -0.834000       15.9994           0
     38297 W2       12766    TIP3     H1       HT       0.417000       1.00800           0
     38298 W2       12766    TIP3     H2       HT       0.417000       1.00800           0
     38299 W2       12767    TIP3     OH2      OT      -0.834000       15.9994           0
     38300 W2       12767    TIP3     H1       HT       0.417000       1.00800           0
     38301 W2       12767    TIP3     H2       HT       0.417000       1.00800           0
     38302 W2       12768    TIP3     OH2      OT      -0.834000       15.9994           0
     38303 W2       12768    TIP3     H1       HT       0.417000       1.00800           0
     38304 W2       12768    TIP3     H2       HT       0.417000       1.00800           0
     38305 W2       12769    TIP3     OH2      OT      -0.834000       15.9994           0
     38306 W2       12769    TIP3     H1       HT       0.417000       1.00800           0
     38307 W2       12769    TIP3     H2       HT       0.417000       1.00800           0
     38308 W2       12770    TIP3     OH2      OT      -0.834000       15.9994           0
     38309 W2       12770    TIP3     H1       HT       0.417000       1.00800           0
     38310 W2       12770    TIP3     H2       HT       0.417000       1.00800           0
     38311 W2       12771    TIP3     OH2      OT      -0.834000       15.9994           0
     38312 W2       12771    TIP3     H1       HT       0.417000       1.00800           0
     38313 W2       12771    TIP3     H2       HT       0.417000       1.00800           0
     38314 W2       12772    TIP3     OH2      OT      -0.834000       15.9994           0
     38315 W2       12772    TIP3     H1       HT       0.417000       1.00800           0
     38316 W2       12772    TIP3     H2       HT       0.417000       1.00800           0
     38317 W2       12773    TIP3     OH2      OT      -0.834000       15.9994           0
     38318 W2       12773    TIP3     H1       HT       0.417000       1.00800           0
     38319 W2       12773    TIP3     H2       HT       0.417000       1.00800           0
     38320 W2       12774    TIP3     OH2      OT      -0.834000       15.9994           0
     38321 W2       12774    TIP3     H1       HT       0.417000       1.00800           0
     38322 W2       12774    TIP3     H2       HT       0.417000       1.00800           0
     38323 W2       12775    TIP3     OH2      OT      -0.834000       15.9994           0
     38324 W2       12775    TIP3     H1       HT       0.417000       1.00800           0
     38325 W2       12775    TIP3     H2       HT       0.417000       1.00800           0
     38326 W2       12776    TIP3     OH2      OT      -0.834000       15.9994           0
     38327 W2       12776    TIP3     H1       HT       0.417000       1.00800           0
     38328 W2       12776    TIP3     H2       HT       0.417000       1.00800           0
     38329 W2       12777    TIP3     OH2      OT      -0.834000       15.9994           0
     38330 W2       12777    TIP3     H1       HT       0.417000       1.00800           0
     38331 W2       12777    TIP3     H2       HT       0.417000       1.00800           0
     38332 W2       12778    TIP3     OH2      OT      -0.834000       15.9994           0
     38333 W2       12778    TIP3     H1       HT       0.417000       1.00800           0
     38334 W2       12778    TIP3     H2       HT       0.417000       1.00800           0
     38335 W2       12779    TIP3     OH2      OT      -0.834000       15.9994           0
     38336 W2       12779    TIP3     H1       HT       0.417000       1.00800           0
     38337 W2       12779    TIP3     H2       HT       0.417000       1.00800           0
     38338 W2       12780    TIP3     OH2      OT      -0.834000       15.9994           0
     38339 W2       12780    TIP3     H1       HT       0.417000       1.00800           0
     38340 W2       12780    TIP3     H2       HT       0.417000       1.00800           0
     38341 W2       12781    TIP3     OH2      OT      -0.834000       15.9994           0
     38342 W2       12781    TIP3     H1       HT       0.417000       1.00800           0
     38343 W2       12781    TIP3     H2       HT       0.417000       1.00800           0
     38344 W2       12782    TIP3     OH2      OT      -0.834000       15.9994           0
     38345 W2       12782    TIP3     H1       HT       0.417000       1.00800           0
     38346 W2       12782    TIP3     H2       HT       0.417000       1.00800           0
     38347 W2       12783    TIP3     OH2      OT      -0.834000       15.9994           0
     38348 W2       12783    TIP3     H1       HT       0.417000       1.00800           0
     38349 W2       12783    TIP3     H2       HT       0.417000       1.00800           0
     38350 W2       12784    TIP3     OH2      OT      -0.834000       15.9994           0
     38351 W2       12784    TIP3     H1       HT       0.417000       1.00800           0
     38352 W2       12784    TIP3     H2       HT       0.417000       1.00800           0
     38353 W2       12785    TIP3     OH2      OT      -0.834000       15.9994           0
     38354 W2       12785    TIP3     H1       HT       0.417000       1.00800           0
     38355 W2       12785    TIP3     H2       HT       0.417000       1.00800           0
     38356 W2       12786    TIP3     OH2      OT      -0.834000       15.9994           0
     38357 W2       12786    TIP3     H1       HT       0.417000       1.00800           0
     38358 W2       12786    TIP3     H2       HT       0.417000       1.00800           0
     38359 W2       12787    TIP3     OH2      OT      -0.834000       15.9994           0
     38360 W2       12787    TIP3     H1       HT       0.417000       1.00800           0
     38361 W2       12787    TIP3     H2       HT       0.417000       1.00800           0
     38362 W2       12788    TIP3     OH2      OT      -0.834000       15.9994           0
     38363 W2       12788    TIP3     H1       HT       0.417000       1.00800           0
     38364 W2       12788    TIP3     H2       HT       0.417000       1.00800           0
     38365 W2       12789    TIP3     OH2      OT      -0.834000       15.9994           0
     38366 W2       12789    TIP3     H1       HT       0.417000       1.00800           0
     38367 W2       12789    TIP3     H2       HT       0.417000       1.00800           0
     38368 W2       12790    TIP3     OH2      OT      -0.834000       15.9994           0
     38369 W2       12790    TIP3     H1       HT       0.417000       1.00800           0
     38370 W2       12790    TIP3     H2       HT       0.417000       1.00800           0
     38371 W2       12791    TIP3     OH2      OT      -0.834000       15.9994           0
     38372 W2       12791    TIP3     H1       HT       0.417000       1.00800           0
     38373 W2       12791    TIP3     H2       HT       0.417000       1.00800           0
     38374 W2       12792    TIP3     OH2      OT      -0.834000       15.9994           0
     38375 W2       12792    TIP3     H1       HT       0.417000       1.00800           0
     38376 W2       12792    TIP3     H2       HT       0.417000       1.00800           0
     38377 W2       12793    TIP3     OH2      OT      -0.834000       15.9994           0
     38378 W2       12793    TIP3     H1       HT       0.417000       1.00800           0
     38379 W2       12793    TIP3     H2       HT       0.417000       1.00800           0
     38380 W2       12794    TIP3     OH2      OT      -0.834000       15.9994           0
     38381 W2       12794    TIP3     H1       HT       0.417000       1.00800           0
     38382 W2       12794    TIP3     H2       HT       0.417000       1.00800           0
     38383 W2       12795    TIP3     OH2      OT      -0.834000       15.9994           0
     38384 W2       12795    TIP3     H1       HT       0.417000       1.00800           0
     38385 W2       12795    TIP3     H2       HT       0.417000       1.00800           0
     38386 W2       12796    TIP3     OH2      OT      -0.834000       15.9994           0
     38387 W2       12796    TIP3     H1       HT       0.417000       1.00800           0
     38388 W2       12796    TIP3     H2       HT       0.417000       1.00800           0
     38389 W2       12797    TIP3     OH2      OT      -0.834000       15.9994           0
     38390 W2       12797    TIP3     H1       HT       0.417000       1.00800           0
     38391 W2       12797    TIP3     H2       HT       0.417000       1.00800           0
     38392 W2       12798    TIP3     OH2      OT      -0.834000       15.9994           0
     38393 W2       12798    TIP3     H1       HT       0.417000       1.00800           0
     38394 W2       12798    TIP3     H2       HT       0.417000       1.00800           0
     38395 W2       12799    TIP3     OH2      OT      -0.834000       15.9994           0
     38396 W2       12799    TIP3     H1       HT       0.417000       1.00800           0
     38397 W2       12799    TIP3     H2       HT       0.417000       1.00800           0
     38398 W2       12800    TIP3     OH2      OT      -0.834000       15.9994           0
     38399 W2       12800    TIP3     H1       HT       0.417000       1.00800           0
     38400 W2       12800    TIP3     H2       HT       0.417000       1.00800           0
     38401 W2       12801    TIP3     OH2      OT      -0.834000       15.9994           0
     38402 W2       12801    TIP3     H1       HT       0.417000       1.00800           0
     38403 W2       12801    TIP3     H2       HT       0.417000       1.00800           0
     38404 W2       12802    TIP3     OH2      OT      -0.834000       15.9994           0
     38405 W2       12802    TIP3     H1       HT       0.417000       1.00800           0
     38406 W2       12802    TIP3     H2       HT       0.417000       1.00800           0
     38407 W2       12803    TIP3     OH2      OT      -0.834000       15.9994           0
     38408 W2       12803    TIP3     H1       HT       0.417000       1.00800           0
     38409 W2       12803    TIP3     H2       HT       0.417000       1.00800           0
     38410 W2       12804    TIP3     OH2      OT      -0.834000       15.9994           0
     38411 W2       12804    TIP3     H1       HT       0.417000       1.00800           0
     38412 W2       12804    TIP3     H2       HT       0.417000       1.00800           0
     38413 W2       12805    TIP3     OH2      OT      -0.834000       15.9994           0
     38414 W2       12805    TIP3     H1       HT       0.417000       1.00800           0
     38415 W2       12805    TIP3     H2       HT       0.417000       1.00800           0
     38416 W2       12806    TIP3     OH2      OT      -0.834000       15.9994           0
     38417 W2       12806    TIP3     H1       HT       0.417000       1.00800           0
     38418 W2       12806    TIP3     H2       HT       0.417000       1.00800           0
     38419 W2       12807    TIP3     OH2      OT      -0.834000       15.9994           0
     38420 W2       12807    TIP3     H1       HT       0.417000       1.00800           0
     38421 W2       12807    TIP3     H2       HT       0.417000       1.00800           0
     38422 W2       12808    TIP3     OH2      OT      -0.834000       15.9994           0
     38423 W2       12808    TIP3     H1       HT       0.417000       1.00800           0
     38424 W2       12808    TIP3     H2       HT       0.417000       1.00800           0
     38425 W2       12809    TIP3     OH2      OT      -0.834000       15.9994           0
     38426 W2       12809    TIP3     H1       HT       0.417000       1.00800           0
     38427 W2       12809    TIP3     H2       HT       0.417000       1.00800           0
     38428 W2       12810    TIP3     OH2      OT      -0.834000       15.9994           0
     38429 W2       12810    TIP3     H1       HT       0.417000       1.00800           0
     38430 W2       12810    TIP3     H2       HT       0.417000       1.00800           0
     38431 W2       12811    TIP3     OH2      OT      -0.834000       15.9994           0
     38432 W2       12811    TIP3     H1       HT       0.417000       1.00800           0
     38433 W2       12811    TIP3     H2       HT       0.417000       1.00800           0
     38434 W2       12812    TIP3     OH2      OT      -0.834000       15.9994           0
     38435 W2       12812    TIP3     H1       HT       0.417000       1.00800           0
     38436 W2       12812    TIP3     H2       HT       0.417000       1.00800           0
     38437 W2       12813    TIP3     OH2      OT      -0.834000       15.9994           0
     38438 W2       12813    TIP3     H1       HT       0.417000       1.00800           0
     38439 W2       12813    TIP3     H2       HT       0.417000       1.00800           0
     38440 W2       12814    TIP3     OH2      OT      -0.834000       15.9994           0
     38441 W2       12814    TIP3     H1       HT       0.417000       1.00800           0
     38442 W2       12814    TIP3     H2       HT       0.417000       1.00800           0
     38443 W2       12815    TIP3     OH2      OT      -0.834000       15.9994           0
     38444 W2       12815    TIP3     H1       HT       0.417000       1.00800           0
     38445 W2       12815    TIP3     H2       HT       0.417000       1.00800           0
     38446 W2       12816    TIP3     OH2      OT      -0.834000       15.9994           0
     38447 W2       12816    TIP3     H1       HT       0.417000       1.00800           0
     38448 W2       12816    TIP3     H2       HT       0.417000       1.00800           0
     38449 W2       12817    TIP3     OH2      OT      -0.834000       15.9994           0
     38450 W2       12817    TIP3     H1       HT       0.417000       1.00800           0
     38451 W2       12817    TIP3     H2       HT       0.417000       1.00800           0
     38452 W2       12818    TIP3     OH2      OT      -0.834000       15.9994           0
     38453 W2       12818    TIP3     H1       HT       0.417000       1.00800           0
     38454 W2       12818    TIP3     H2       HT       0.417000       1.00800           0
     38455 W2       12819    TIP3     OH2      OT      -0.834000       15.9994           0
     38456 W2       12819    TIP3     H1       HT       0.417000       1.00800           0
     38457 W2       12819    TIP3     H2       HT       0.417000       1.00800           0
     38458 W2       12820    TIP3     OH2      OT      -0.834000       15.9994           0
     38459 W2       12820    TIP3     H1       HT       0.417000       1.00800           0
     38460 W2       12820    TIP3     H2       HT       0.417000       1.00800           0
     38461 W2       12821    TIP3     OH2      OT      -0.834000       15.9994           0
     38462 W2       12821    TIP3     H1       HT       0.417000       1.00800           0
     38463 W2       12821    TIP3     H2       HT       0.417000       1.00800           0
     38464 W2       12822    TIP3     OH2      OT      -0.834000       15.9994           0
     38465 W2       12822    TIP3     H1       HT       0.417000       1.00800           0
     38466 W2       12822    TIP3     H2       HT       0.417000       1.00800           0
     38467 W2       12823    TIP3     OH2      OT      -0.834000       15.9994           0
     38468 W2       12823    TIP3     H1       HT       0.417000       1.00800           0
     38469 W2       12823    TIP3     H2       HT       0.417000       1.00800           0
     38470 W2       12824    TIP3     OH2      OT      -0.834000       15.9994           0
     38471 W2       12824    TIP3     H1       HT       0.417000       1.00800           0
     38472 W2       12824    TIP3     H2       HT       0.417000       1.00800           0
     38473 W2       12825    TIP3     OH2      OT      -0.834000       15.9994           0
     38474 W2       12825    TIP3     H1       HT       0.417000       1.00800           0
     38475 W2       12825    TIP3     H2       HT       0.417000       1.00800           0
     38476 W2       12826    TIP3     OH2      OT      -0.834000       15.9994           0
     38477 W2       12826    TIP3     H1       HT       0.417000       1.00800           0
     38478 W2       12826    TIP3     H2       HT       0.417000       1.00800           0
     38479 W2       12827    TIP3     OH2      OT      -0.834000       15.9994           0
     38480 W2       12827    TIP3     H1       HT       0.417000       1.00800           0
     38481 W2       12827    TIP3     H2       HT       0.417000       1.00800           0
     38482 W2       12828    TIP3     OH2      OT      -0.834000       15.9994           0
     38483 W2       12828    TIP3     H1       HT       0.417000       1.00800           0
     38484 W2       12828    TIP3     H2       HT       0.417000       1.00800           0
     38485 W2       12829    TIP3     OH2      OT      -0.834000       15.9994           0
     38486 W2       12829    TIP3     H1       HT       0.417000       1.00800           0
     38487 W2       12829    TIP3     H2       HT       0.417000       1.00800           0
     38488 W2       12830    TIP3     OH2      OT      -0.834000       15.9994           0
     38489 W2       12830    TIP3     H1       HT       0.417000       1.00800           0
     38490 W2       12830    TIP3     H2       HT       0.417000       1.00800           0
     38491 W2       12831    TIP3     OH2      OT      -0.834000       15.9994           0
     38492 W2       12831    TIP3     H1       HT       0.417000       1.00800           0
     38493 W2       12831    TIP3     H2       HT       0.417000       1.00800           0
     38494 W2       12832    TIP3     OH2      OT      -0.834000       15.9994           0
     38495 W2       12832    TIP3     H1       HT       0.417000       1.00800           0
     38496 W2       12832    TIP3     H2       HT       0.417000       1.00800           0
     38497 W2       12833    TIP3     OH2      OT      -0.834000       15.9994           0
     38498 W2       12833    TIP3     H1       HT       0.417000       1.00800           0
     38499 W2       12833    TIP3     H2       HT       0.417000       1.00800           0
     38500 W2       12834    TIP3     OH2      OT      -0.834000       15.9994           0
     38501 W2       12834    TIP3     H1       HT       0.417000       1.00800           0
     38502 W2       12834    TIP3     H2       HT       0.417000       1.00800           0
     38503 W2       12835    TIP3     OH2      OT      -0.834000       15.9994           0
     38504 W2       12835    TIP3     H1       HT       0.417000       1.00800           0
     38505 W2       12835    TIP3     H2       HT       0.417000       1.00800           0
     38506 W2       12836    TIP3     OH2      OT      -0.834000       15.9994           0
     38507 W2       12836    TIP3     H1       HT       0.417000       1.00800           0
     38508 W2       12836    TIP3     H2       HT       0.417000       1.00800           0
     38509 W2       12837    TIP3     OH2      OT      -0.834000       15.9994           0
     38510 W2       12837    TIP3     H1       HT       0.417000       1.00800           0
     38511 W2       12837    TIP3     H2       HT       0.417000       1.00800           0
     38512 W2       12838    TIP3     OH2      OT      -0.834000       15.9994           0
     38513 W2       12838    TIP3     H1       HT       0.417000       1.00800           0
     38514 W2       12838    TIP3     H2       HT       0.417000       1.00800           0
     38515 W2       12839    TIP3     OH2      OT      -0.834000       15.9994           0
     38516 W2       12839    TIP3     H1       HT       0.417000       1.00800           0
     38517 W2       12839    TIP3     H2       HT       0.417000       1.00800           0
     38518 W2       12840    TIP3     OH2      OT      -0.834000       15.9994           0
     38519 W2       12840    TIP3     H1       HT       0.417000       1.00800           0
     38520 W2       12840    TIP3     H2       HT       0.417000       1.00800           0
     38521 W2       12841    TIP3     OH2      OT      -0.834000       15.9994           0
     38522 W2       12841    TIP3     H1       HT       0.417000       1.00800           0
     38523 W2       12841    TIP3     H2       HT       0.417000       1.00800           0
     38524 W2       12842    TIP3     OH2      OT      -0.834000       15.9994           0
     38525 W2       12842    TIP3     H1       HT       0.417000       1.00800           0
     38526 W2       12842    TIP3     H2       HT       0.417000       1.00800           0
     38527 W2       12843    TIP3     OH2      OT      -0.834000       15.9994           0
     38528 W2       12843    TIP3     H1       HT       0.417000       1.00800           0
     38529 W2       12843    TIP3     H2       HT       0.417000       1.00800           0
     38530 W2       12844    TIP3     OH2      OT      -0.834000       15.9994           0
     38531 W2       12844    TIP3     H1       HT       0.417000       1.00800           0
     38532 W2       12844    TIP3     H2       HT       0.417000       1.00800           0
     38533 W2       12845    TIP3     OH2      OT      -0.834000       15.9994           0
     38534 W2       12845    TIP3     H1       HT       0.417000       1.00800           0
     38535 W2       12845    TIP3     H2       HT       0.417000       1.00800           0
     38536 W2       12846    TIP3     OH2      OT      -0.834000       15.9994           0
     38537 W2       12846    TIP3     H1       HT       0.417000       1.00800           0
     38538 W2       12846    TIP3     H2       HT       0.417000       1.00800           0
     38539 W2       12847    TIP3     OH2      OT      -0.834000       15.9994           0
     38540 W2       12847    TIP3     H1       HT       0.417000       1.00800           0
     38541 W2       12847    TIP3     H2       HT       0.417000       1.00800           0
     38542 W2       12848    TIP3     OH2      OT      -0.834000       15.9994           0
     38543 W2       12848    TIP3     H1       HT       0.417000       1.00800           0
     38544 W2       12848    TIP3     H2       HT       0.417000       1.00800           0
     38545 W2       12849    TIP3     OH2      OT      -0.834000       15.9994           0
     38546 W2       12849    TIP3     H1       HT       0.417000       1.00800           0
     38547 W2       12849    TIP3     H2       HT       0.417000       1.00800           0
     38548 W2       12850    TIP3     OH2      OT      -0.834000       15.9994           0
     38549 W2       12850    TIP3     H1       HT       0.417000       1.00800           0
     38550 W2       12850    TIP3     H2       HT       0.417000       1.00800           0
     38551 W2       12851    TIP3     OH2      OT      -0.834000       15.9994           0
     38552 W2       12851    TIP3     H1       HT       0.417000       1.00800           0
     38553 W2       12851    TIP3     H2       HT       0.417000       1.00800           0
     38554 W2       12852    TIP3     OH2      OT      -0.834000       15.9994           0
     38555 W2       12852    TIP3     H1       HT       0.417000       1.00800           0
     38556 W2       12852    TIP3     H2       HT       0.417000       1.00800           0
     38557 W2       12853    TIP3     OH2      OT      -0.834000       15.9994           0
     38558 W2       12853    TIP3     H1       HT       0.417000       1.00800           0
     38559 W2       12853    TIP3     H2       HT       0.417000       1.00800           0
     38560 W2       12854    TIP3     OH2      OT      -0.834000       15.9994           0
     38561 W2       12854    TIP3     H1       HT       0.417000       1.00800           0
     38562 W2       12854    TIP3     H2       HT       0.417000       1.00800           0
     38563 W2       12855    TIP3     OH2      OT      -0.834000       15.9994           0
     38564 W2       12855    TIP3     H1       HT       0.417000       1.00800           0
     38565 W2       12855    TIP3     H2       HT       0.417000       1.00800           0
     38566 W2       12856    TIP3     OH2      OT      -0.834000       15.9994           0
     38567 W2       12856    TIP3     H1       HT       0.417000       1.00800           0
     38568 W2       12856    TIP3     H2       HT       0.417000       1.00800           0
     38569 W2       12857    TIP3     OH2      OT      -0.834000       15.9994           0
     38570 W2       12857    TIP3     H1       HT       0.417000       1.00800           0
     38571 W2       12857    TIP3     H2       HT       0.417000       1.00800           0
     38572 W2       12858    TIP3     OH2      OT      -0.834000       15.9994           0
     38573 W2       12858    TIP3     H1       HT       0.417000       1.00800           0
     38574 W2       12858    TIP3     H2       HT       0.417000       1.00800           0
     38575 W2       12859    TIP3     OH2      OT      -0.834000       15.9994           0
     38576 W2       12859    TIP3     H1       HT       0.417000       1.00800           0
     38577 W2       12859    TIP3     H2       HT       0.417000       1.00800           0
     38578 W2       12860    TIP3     OH2      OT      -0.834000       15.9994           0
     38579 W2       12860    TIP3     H1       HT       0.417000       1.00800           0
     38580 W2       12860    TIP3     H2       HT       0.417000       1.00800           0
     38581 W2       12861    TIP3     OH2      OT      -0.834000       15.9994           0
     38582 W2       12861    TIP3     H1       HT       0.417000       1.00800           0
     38583 W2       12861    TIP3     H2       HT       0.417000       1.00800           0
     38584 W2       12862    TIP3     OH2      OT      -0.834000       15.9994           0
     38585 W2       12862    TIP3     H1       HT       0.417000       1.00800           0
     38586 W2       12862    TIP3     H2       HT       0.417000       1.00800           0
     38587 W2       12863    TIP3     OH2      OT      -0.834000       15.9994           0
     38588 W2       12863    TIP3     H1       HT       0.417000       1.00800           0
     38589 W2       12863    TIP3     H2       HT       0.417000       1.00800           0
     38590 W2       12864    TIP3     OH2      OT      -0.834000       15.9994           0
     38591 W2       12864    TIP3     H1       HT       0.417000       1.00800           0
     38592 W2       12864    TIP3     H2       HT       0.417000       1.00800           0
     38593 W2       12865    TIP3     OH2      OT      -0.834000       15.9994           0
     38594 W2       12865    TIP3     H1       HT       0.417000       1.00800           0
     38595 W2       12865    TIP3     H2       HT       0.417000       1.00800           0
     38596 W2       12866    TIP3     OH2      OT      -0.834000       15.9994           0
     38597 W2       12866    TIP3     H1       HT       0.417000       1.00800           0
     38598 W2       12866    TIP3     H2       HT       0.417000       1.00800           0
     38599 W2       12867    TIP3     OH2      OT      -0.834000       15.9994           0
     38600 W2       12867    TIP3     H1       HT       0.417000       1.00800           0
     38601 W2       12867    TIP3     H2       HT       0.417000       1.00800           0
     38602 W2       12868    TIP3     OH2      OT      -0.834000       15.9994           0
     38603 W2       12868    TIP3     H1       HT       0.417000       1.00800           0
     38604 W2       12868    TIP3     H2       HT       0.417000       1.00800           0
     38605 W2       12869    TIP3     OH2      OT      -0.834000       15.9994           0
     38606 W2       12869    TIP3     H1       HT       0.417000       1.00800           0
     38607 W2       12869    TIP3     H2       HT       0.417000       1.00800           0
     38608 W2       12870    TIP3     OH2      OT      -0.834000       15.9994           0
     38609 W2       12870    TIP3     H1       HT       0.417000       1.00800           0
     38610 W2       12870    TIP3     H2       HT       0.417000       1.00800           0
     38611 W2       12871    TIP3     OH2      OT      -0.834000       15.9994           0
     38612 W2       12871    TIP3     H1       HT       0.417000       1.00800           0
     38613 W2       12871    TIP3     H2       HT       0.417000       1.00800           0
     38614 W2       12872    TIP3     OH2      OT      -0.834000       15.9994           0
     38615 W2       12872    TIP3     H1       HT       0.417000       1.00800           0
     38616 W2       12872    TIP3     H2       HT       0.417000       1.00800           0
     38617 W2       12873    TIP3     OH2      OT      -0.834000       15.9994           0
     38618 W2       12873    TIP3     H1       HT       0.417000       1.00800           0
     38619 W2       12873    TIP3     H2       HT       0.417000       1.00800           0
     38620 W2       12874    TIP3     OH2      OT      -0.834000       15.9994           0
     38621 W2       12874    TIP3     H1       HT       0.417000       1.00800           0
     38622 W2       12874    TIP3     H2       HT       0.417000       1.00800           0
     38623 W2       12875    TIP3     OH2      OT      -0.834000       15.9994           0
     38624 W2       12875    TIP3     H1       HT       0.417000       1.00800           0
     38625 W2       12875    TIP3     H2       HT       0.417000       1.00800           0
     38626 W2       12876    TIP3     OH2      OT      -0.834000       15.9994           0
     38627 W2       12876    TIP3     H1       HT       0.417000       1.00800           0
     38628 W2       12876    TIP3     H2       HT       0.417000       1.00800           0
     38629 W2       12877    TIP3     OH2      OT      -0.834000       15.9994           0
     38630 W2       12877    TIP3     H1       HT       0.417000       1.00800           0
     38631 W2       12877    TIP3     H2       HT       0.417000       1.00800           0
     38632 W2       12878    TIP3     OH2      OT      -0.834000       15.9994           0
     38633 W2       12878    TIP3     H1       HT       0.417000       1.00800           0
     38634 W2       12878    TIP3     H2       HT       0.417000       1.00800           0
     38635 W2       12879    TIP3     OH2      OT      -0.834000       15.9994           0
     38636 W2       12879    TIP3     H1       HT       0.417000       1.00800           0
     38637 W2       12879    TIP3     H2       HT       0.417000       1.00800           0
     38638 W2       12880    TIP3     OH2      OT      -0.834000       15.9994           0
     38639 W2       12880    TIP3     H1       HT       0.417000       1.00800           0
     38640 W2       12880    TIP3     H2       HT       0.417000       1.00800           0
     38641 W2       12881    TIP3     OH2      OT      -0.834000       15.9994           0
     38642 W2       12881    TIP3     H1       HT       0.417000       1.00800           0
     38643 W2       12881    TIP3     H2       HT       0.417000       1.00800           0
     38644 W2       12882    TIP3     OH2      OT      -0.834000       15.9994           0
     38645 W2       12882    TIP3     H1       HT       0.417000       1.00800           0
     38646 W2       12882    TIP3     H2       HT       0.417000       1.00800           0
     38647 W2       12883    TIP3     OH2      OT      -0.834000       15.9994           0
     38648 W2       12883    TIP3     H1       HT       0.417000       1.00800           0
     38649 W2       12883    TIP3     H2       HT       0.417000       1.00800           0
     38650 W2       12884    TIP3     OH2      OT      -0.834000       15.9994           0
     38651 W2       12884    TIP3     H1       HT       0.417000       1.00800           0
     38652 W2       12884    TIP3     H2       HT       0.417000       1.00800           0
     38653 W2       12885    TIP3     OH2      OT      -0.834000       15.9994           0
     38654 W2       12885    TIP3     H1       HT       0.417000       1.00800           0
     38655 W2       12885    TIP3     H2       HT       0.417000       1.00800           0
     38656 W2       12886    TIP3     OH2      OT      -0.834000       15.9994           0
     38657 W2       12886    TIP3     H1       HT       0.417000       1.00800           0
     38658 W2       12886    TIP3     H2       HT       0.417000       1.00800           0
     38659 W2       12887    TIP3     OH2      OT      -0.834000       15.9994           0
     38660 W2       12887    TIP3     H1       HT       0.417000       1.00800           0
     38661 W2       12887    TIP3     H2       HT       0.417000       1.00800           0
     38662 W2       12888    TIP3     OH2      OT      -0.834000       15.9994           0
     38663 W2       12888    TIP3     H1       HT       0.417000       1.00800           0
     38664 W2       12888    TIP3     H2       HT       0.417000       1.00800           0
     38665 W2       12889    TIP3     OH2      OT      -0.834000       15.9994           0
     38666 W2       12889    TIP3     H1       HT       0.417000       1.00800           0
     38667 W2       12889    TIP3     H2       HT       0.417000       1.00800           0
     38668 W2       12890    TIP3     OH2      OT      -0.834000       15.9994           0
     38669 W2       12890    TIP3     H1       HT       0.417000       1.00800           0
     38670 W2       12890    TIP3     H2       HT       0.417000       1.00800           0
     38671 W2       12891    TIP3     OH2      OT      -0.834000       15.9994           0
     38672 W2       12891    TIP3     H1       HT       0.417000       1.00800           0
     38673 W2       12891    TIP3     H2       HT       0.417000       1.00800           0
     38674 W2       12892    TIP3     OH2      OT      -0.834000       15.9994           0
     38675 W2       12892    TIP3     H1       HT       0.417000       1.00800           0
     38676 W2       12892    TIP3     H2       HT       0.417000       1.00800           0
     38677 W2       12893    TIP3     OH2      OT      -0.834000       15.9994           0
     38678 W2       12893    TIP3     H1       HT       0.417000       1.00800           0
     38679 W2       12893    TIP3     H2       HT       0.417000       1.00800           0
     38680 W2       12894    TIP3     OH2      OT      -0.834000       15.9994           0
     38681 W2       12894    TIP3     H1       HT       0.417000       1.00800           0
     38682 W2       12894    TIP3     H2       HT       0.417000       1.00800           0
     38683 W2       12895    TIP3     OH2      OT      -0.834000       15.9994           0
     38684 W2       12895    TIP3     H1       HT       0.417000       1.00800           0
     38685 W2       12895    TIP3     H2       HT       0.417000       1.00800           0
     38686 W2       12896    TIP3     OH2      OT      -0.834000       15.9994           0
     38687 W2       12896    TIP3     H1       HT       0.417000       1.00800           0
     38688 W2       12896    TIP3     H2       HT       0.417000       1.00800           0
     38689 W2       12897    TIP3     OH2      OT      -0.834000       15.9994           0
     38690 W2       12897    TIP3     H1       HT       0.417000       1.00800           0
     38691 W2       12897    TIP3     H2       HT       0.417000       1.00800           0
     38692 W2       12898    TIP3     OH2      OT      -0.834000       15.9994           0
     38693 W2       12898    TIP3     H1       HT       0.417000       1.00800           0
     38694 W2       12898    TIP3     H2       HT       0.417000       1.00800           0
     38695 W2       12899    TIP3     OH2      OT      -0.834000       15.9994           0
     38696 W2       12899    TIP3     H1       HT       0.417000       1.00800           0
     38697 W2       12899    TIP3     H2       HT       0.417000       1.00800           0
     38698 W2       12900    TIP3     OH2      OT      -0.834000       15.9994           0
     38699 W2       12900    TIP3     H1       HT       0.417000       1.00800           0
     38700 W2       12900    TIP3     H2       HT       0.417000       1.00800           0
     38701 W2       12901    TIP3     OH2      OT      -0.834000       15.9994           0
     38702 W2       12901    TIP3     H1       HT       0.417000       1.00800           0
     38703 W2       12901    TIP3     H2       HT       0.417000       1.00800           0
     38704 W2       12902    TIP3     OH2      OT      -0.834000       15.9994           0
     38705 W2       12902    TIP3     H1       HT       0.417000       1.00800           0
     38706 W2       12902    TIP3     H2       HT       0.417000       1.00800           0
     38707 W2       12903    TIP3     OH2      OT      -0.834000       15.9994           0
     38708 W2       12903    TIP3     H1       HT       0.417000       1.00800           0
     38709 W2       12903    TIP3     H2       HT       0.417000       1.00800           0
     38710 W2       12904    TIP3     OH2      OT      -0.834000       15.9994           0
     38711 W2       12904    TIP3     H1       HT       0.417000       1.00800           0
     38712 W2       12904    TIP3     H2       HT       0.417000       1.00800           0
     38713 W2       12905    TIP3     OH2      OT      -0.834000       15.9994           0
     38714 W2       12905    TIP3     H1       HT       0.417000       1.00800           0
     38715 W2       12905    TIP3     H2       HT       0.417000       1.00800           0
     38716 W2       12906    TIP3     OH2      OT      -0.834000       15.9994           0
     38717 W2       12906    TIP3     H1       HT       0.417000       1.00800           0
     38718 W2       12906    TIP3     H2       HT       0.417000       1.00800           0
     38719 W2       12907    TIP3     OH2      OT      -0.834000       15.9994           0
     38720 W2       12907    TIP3     H1       HT       0.417000       1.00800           0
     38721 W2       12907    TIP3     H2       HT       0.417000       1.00800           0
     38722 W2       12908    TIP3     OH2      OT      -0.834000       15.9994           0
     38723 W2       12908    TIP3     H1       HT       0.417000       1.00800           0
     38724 W2       12908    TIP3     H2       HT       0.417000       1.00800           0
     38725 W2       12909    TIP3     OH2      OT      -0.834000       15.9994           0
     38726 W2       12909    TIP3     H1       HT       0.417000       1.00800           0
     38727 W2       12909    TIP3     H2       HT       0.417000       1.00800           0
     38728 W2       12910    TIP3     OH2      OT      -0.834000       15.9994           0
     38729 W2       12910    TIP3     H1       HT       0.417000       1.00800           0
     38730 W2       12910    TIP3     H2       HT       0.417000       1.00800           0
     38731 W2       12911    TIP3     OH2      OT      -0.834000       15.9994           0
     38732 W2       12911    TIP3     H1       HT       0.417000       1.00800           0
     38733 W2       12911    TIP3     H2       HT       0.417000       1.00800           0
     38734 W2       12912    TIP3     OH2      OT      -0.834000       15.9994           0
     38735 W2       12912    TIP3     H1       HT       0.417000       1.00800           0
     38736 W2       12912    TIP3     H2       HT       0.417000       1.00800           0
     38737 W2       12913    TIP3     OH2      OT      -0.834000       15.9994           0
     38738 W2       12913    TIP3     H1       HT       0.417000       1.00800           0
     38739 W2       12913    TIP3     H2       HT       0.417000       1.00800           0
     38740 W2       12914    TIP3     OH2      OT      -0.834000       15.9994           0
     38741 W2       12914    TIP3     H1       HT       0.417000       1.00800           0
     38742 W2       12914    TIP3     H2       HT       0.417000       1.00800           0
     38743 W2       12915    TIP3     OH2      OT      -0.834000       15.9994           0
     38744 W2       12915    TIP3     H1       HT       0.417000       1.00800           0
     38745 W2       12915    TIP3     H2       HT       0.417000       1.00800           0
     38746 W2       12916    TIP3     OH2      OT      -0.834000       15.9994           0
     38747 W2       12916    TIP3     H1       HT       0.417000       1.00800           0
     38748 W2       12916    TIP3     H2       HT       0.417000       1.00800           0
     38749 W2       12917    TIP3     OH2      OT      -0.834000       15.9994           0
     38750 W2       12917    TIP3     H1       HT       0.417000       1.00800           0
     38751 W2       12917    TIP3     H2       HT       0.417000       1.00800           0
     38752 W2       12918    TIP3     OH2      OT      -0.834000       15.9994           0
     38753 W2       12918    TIP3     H1       HT       0.417000       1.00800           0
     38754 W2       12918    TIP3     H2       HT       0.417000       1.00800           0
     38755 W2       12919    TIP3     OH2      OT      -0.834000       15.9994           0
     38756 W2       12919    TIP3     H1       HT       0.417000       1.00800           0
     38757 W2       12919    TIP3     H2       HT       0.417000       1.00800           0
     38758 W2       12920    TIP3     OH2      OT      -0.834000       15.9994           0
     38759 W2       12920    TIP3     H1       HT       0.417000       1.00800           0
     38760 W2       12920    TIP3     H2       HT       0.417000       1.00800           0
     38761 W2       12921    TIP3     OH2      OT      -0.834000       15.9994           0
     38762 W2       12921    TIP3     H1       HT       0.417000       1.00800           0
     38763 W2       12921    TIP3     H2       HT       0.417000       1.00800           0
     38764 W2       12922    TIP3     OH2      OT      -0.834000       15.9994           0
     38765 W2       12922    TIP3     H1       HT       0.417000       1.00800           0
     38766 W2       12922    TIP3     H2       HT       0.417000       1.00800           0
     38767 W2       12923    TIP3     OH2      OT      -0.834000       15.9994           0
     38768 W2       12923    TIP3     H1       HT       0.417000       1.00800           0
     38769 W2       12923    TIP3     H2       HT       0.417000       1.00800           0
     38770 W2       12924    TIP3     OH2      OT      -0.834000       15.9994           0
     38771 W2       12924    TIP3     H1       HT       0.417000       1.00800           0
     38772 W2       12924    TIP3     H2       HT       0.417000       1.00800           0
     38773 W2       12925    TIP3     OH2      OT      -0.834000       15.9994           0
     38774 W2       12925    TIP3     H1       HT       0.417000       1.00800           0
     38775 W2       12925    TIP3     H2       HT       0.417000       1.00800           0
     38776 W2       12926    TIP3     OH2      OT      -0.834000       15.9994           0
     38777 W2       12926    TIP3     H1       HT       0.417000       1.00800           0
     38778 W2       12926    TIP3     H2       HT       0.417000       1.00800           0
     38779 W2       12927    TIP3     OH2      OT      -0.834000       15.9994           0
     38780 W2       12927    TIP3     H1       HT       0.417000       1.00800           0
     38781 W2       12927    TIP3     H2       HT       0.417000       1.00800           0
     38782 W2       12928    TIP3     OH2      OT      -0.834000       15.9994           0
     38783 W2       12928    TIP3     H1       HT       0.417000       1.00800           0
     38784 W2       12928    TIP3     H2       HT       0.417000       1.00800           0
     38785 W2       12929    TIP3     OH2      OT      -0.834000       15.9994           0
     38786 W2       12929    TIP3     H1       HT       0.417000       1.00800           0
     38787 W2       12929    TIP3     H2       HT       0.417000       1.00800           0
     38788 W2       12930    TIP3     OH2      OT      -0.834000       15.9994           0
     38789 W2       12930    TIP3     H1       HT       0.417000       1.00800           0
     38790 W2       12930    TIP3     H2       HT       0.417000       1.00800           0
     38791 W2       12931    TIP3     OH2      OT      -0.834000       15.9994           0
     38792 W2       12931    TIP3     H1       HT       0.417000       1.00800           0
     38793 W2       12931    TIP3     H2       HT       0.417000       1.00800           0
     38794 W2       12932    TIP3     OH2      OT      -0.834000       15.9994           0
     38795 W2       12932    TIP3     H1       HT       0.417000       1.00800           0
     38796 W2       12932    TIP3     H2       HT       0.417000       1.00800           0
     38797 W2       12933    TIP3     OH2      OT      -0.834000       15.9994           0
     38798 W2       12933    TIP3     H1       HT       0.417000       1.00800           0
     38799 W2       12933    TIP3     H2       HT       0.417000       1.00800           0
     38800 W2       12934    TIP3     OH2      OT      -0.834000       15.9994           0
     38801 W2       12934    TIP3     H1       HT       0.417000       1.00800           0
     38802 W2       12934    TIP3     H2       HT       0.417000       1.00800           0
     38803 W2       12935    TIP3     OH2      OT      -0.834000       15.9994           0
     38804 W2       12935    TIP3     H1       HT       0.417000       1.00800           0
     38805 W2       12935    TIP3     H2       HT       0.417000       1.00800           0
     38806 W2       12936    TIP3     OH2      OT      -0.834000       15.9994           0
     38807 W2       12936    TIP3     H1       HT       0.417000       1.00800           0
     38808 W2       12936    TIP3     H2       HT       0.417000       1.00800           0
     38809 W2       12937    TIP3     OH2      OT      -0.834000       15.9994           0
     38810 W2       12937    TIP3     H1       HT       0.417000       1.00800           0
     38811 W2       12937    TIP3     H2       HT       0.417000       1.00800           0
     38812 W2       12938    TIP3     OH2      OT      -0.834000       15.9994           0
     38813 W2       12938    TIP3     H1       HT       0.417000       1.00800           0
     38814 W2       12938    TIP3     H2       HT       0.417000       1.00800           0
     38815 W2       12939    TIP3     OH2      OT      -0.834000       15.9994           0
     38816 W2       12939    TIP3     H1       HT       0.417000       1.00800           0
     38817 W2       12939    TIP3     H2       HT       0.417000       1.00800           0
     38818 W2       12940    TIP3     OH2      OT      -0.834000       15.9994           0
     38819 W2       12940    TIP3     H1       HT       0.417000       1.00800           0
     38820 W2       12940    TIP3     H2       HT       0.417000       1.00800           0
     38821 W2       12941    TIP3     OH2      OT      -0.834000       15.9994           0
     38822 W2       12941    TIP3     H1       HT       0.417000       1.00800           0
     38823 W2       12941    TIP3     H2       HT       0.417000       1.00800           0
     38824 W2       12942    TIP3     OH2      OT      -0.834000       15.9994           0
     38825 W2       12942    TIP3     H1       HT       0.417000       1.00800           0
     38826 W2       12942    TIP3     H2       HT       0.417000       1.00800           0
     38827 W2       12943    TIP3     OH2      OT      -0.834000       15.9994           0
     38828 W2       12943    TIP3     H1       HT       0.417000       1.00800           0
     38829 W2       12943    TIP3     H2       HT       0.417000       1.00800           0
     38830 W2       12944    TIP3     OH2      OT      -0.834000       15.9994           0
     38831 W2       12944    TIP3     H1       HT       0.417000       1.00800           0
     38832 W2       12944    TIP3     H2       HT       0.417000       1.00800           0
     38833 W2       12945    TIP3     OH2      OT      -0.834000       15.9994           0
     38834 W2       12945    TIP3     H1       HT       0.417000       1.00800           0
     38835 W2       12945    TIP3     H2       HT       0.417000       1.00800           0
     38836 W2       12946    TIP3     OH2      OT      -0.834000       15.9994           0
     38837 W2       12946    TIP3     H1       HT       0.417000       1.00800           0
     38838 W2       12946    TIP3     H2       HT       0.417000       1.00800           0
     38839 W2       12947    TIP3     OH2      OT      -0.834000       15.9994           0
     38840 W2       12947    TIP3     H1       HT       0.417000       1.00800           0
     38841 W2       12947    TIP3     H2       HT       0.417000       1.00800           0
     38842 W2       12948    TIP3     OH2      OT      -0.834000       15.9994           0
     38843 W2       12948    TIP3     H1       HT       0.417000       1.00800           0
     38844 W2       12948    TIP3     H2       HT       0.417000       1.00800           0
     38845 W2       12949    TIP3     OH2      OT      -0.834000       15.9994           0
     38846 W2       12949    TIP3     H1       HT       0.417000       1.00800           0
     38847 W2       12949    TIP3     H2       HT       0.417000       1.00800           0
     38848 W2       12950    TIP3     OH2      OT      -0.834000       15.9994           0
     38849 W2       12950    TIP3     H1       HT       0.417000       1.00800           0
     38850 W2       12950    TIP3     H2       HT       0.417000       1.00800           0
     38851 W2       12951    TIP3     OH2      OT      -0.834000       15.9994           0
     38852 W2       12951    TIP3     H1       HT       0.417000       1.00800           0
     38853 W2       12951    TIP3     H2       HT       0.417000       1.00800           0
     38854 W2       12952    TIP3     OH2      OT      -0.834000       15.9994           0
     38855 W2       12952    TIP3     H1       HT       0.417000       1.00800           0
     38856 W2       12952    TIP3     H2       HT       0.417000       1.00800           0
     38857 W2       12953    TIP3     OH2      OT      -0.834000       15.9994           0
     38858 W2       12953    TIP3     H1       HT       0.417000       1.00800           0
     38859 W2       12953    TIP3     H2       HT       0.417000       1.00800           0
     38860 W2       12954    TIP3     OH2      OT      -0.834000       15.9994           0
     38861 W2       12954    TIP3     H1       HT       0.417000       1.00800           0
     38862 W2       12954    TIP3     H2       HT       0.417000       1.00800           0
     38863 W2       12955    TIP3     OH2      OT      -0.834000       15.9994           0
     38864 W2       12955    TIP3     H1       HT       0.417000       1.00800           0
     38865 W2       12955    TIP3     H2       HT       0.417000       1.00800           0
     38866 W2       12956    TIP3     OH2      OT      -0.834000       15.9994           0
     38867 W2       12956    TIP3     H1       HT       0.417000       1.00800           0
     38868 W2       12956    TIP3     H2       HT       0.417000       1.00800           0
     38869 W2       12957    TIP3     OH2      OT      -0.834000       15.9994           0
     38870 W2       12957    TIP3     H1       HT       0.417000       1.00800           0
     38871 W2       12957    TIP3     H2       HT       0.417000       1.00800           0
     38872 W2       12958    TIP3     OH2      OT      -0.834000       15.9994           0
     38873 W2       12958    TIP3     H1       HT       0.417000       1.00800           0
     38874 W2       12958    TIP3     H2       HT       0.417000       1.00800           0
     38875 W2       12959    TIP3     OH2      OT      -0.834000       15.9994           0
     38876 W2       12959    TIP3     H1       HT       0.417000       1.00800           0
     38877 W2       12959    TIP3     H2       HT       0.417000       1.00800           0
     38878 W2       12960    TIP3     OH2      OT      -0.834000       15.9994           0
     38879 W2       12960    TIP3     H1       HT       0.417000       1.00800           0
     38880 W2       12960    TIP3     H2       HT       0.417000       1.00800           0
     38881 W2       12961    TIP3     OH2      OT      -0.834000       15.9994           0
     38882 W2       12961    TIP3     H1       HT       0.417000       1.00800           0
     38883 W2       12961    TIP3     H2       HT       0.417000       1.00800           0
     38884 W2       12962    TIP3     OH2      OT      -0.834000       15.9994           0
     38885 W2       12962    TIP3     H1       HT       0.417000       1.00800           0
     38886 W2       12962    TIP3     H2       HT       0.417000       1.00800           0
     38887 W2       12963    TIP3     OH2      OT      -0.834000       15.9994           0
     38888 W2       12963    TIP3     H1       HT       0.417000       1.00800           0
     38889 W2       12963    TIP3     H2       HT       0.417000       1.00800           0
     38890 W2       12964    TIP3     OH2      OT      -0.834000       15.9994           0
     38891 W2       12964    TIP3     H1       HT       0.417000       1.00800           0
     38892 W2       12964    TIP3     H2       HT       0.417000       1.00800           0
     38893 W2       12965    TIP3     OH2      OT      -0.834000       15.9994           0
     38894 W2       12965    TIP3     H1       HT       0.417000       1.00800           0
     38895 W2       12965    TIP3     H2       HT       0.417000       1.00800           0
     38896 W2       12966    TIP3     OH2      OT      -0.834000       15.9994           0
     38897 W2       12966    TIP3     H1       HT       0.417000       1.00800           0
     38898 W2       12966    TIP3     H2       HT       0.417000       1.00800           0
     38899 W2       12967    TIP3     OH2      OT      -0.834000       15.9994           0
     38900 W2       12967    TIP3     H1       HT       0.417000       1.00800           0
     38901 W2       12967    TIP3     H2       HT       0.417000       1.00800           0
     38902 W2       12968    TIP3     OH2      OT      -0.834000       15.9994           0
     38903 W2       12968    TIP3     H1       HT       0.417000       1.00800           0
     38904 W2       12968    TIP3     H2       HT       0.417000       1.00800           0
     38905 W2       12969    TIP3     OH2      OT      -0.834000       15.9994           0
     38906 W2       12969    TIP3     H1       HT       0.417000       1.00800           0
     38907 W2       12969    TIP3     H2       HT       0.417000       1.00800           0
     38908 W2       12970    TIP3     OH2      OT      -0.834000       15.9994           0
     38909 W2       12970    TIP3     H1       HT       0.417000       1.00800           0
     38910 W2       12970    TIP3     H2       HT       0.417000       1.00800           0
     38911 W2       12971    TIP3     OH2      OT      -0.834000       15.9994           0
     38912 W2       12971    TIP3     H1       HT       0.417000       1.00800           0
     38913 W2       12971    TIP3     H2       HT       0.417000       1.00800           0
     38914 W2       12972    TIP3     OH2      OT      -0.834000       15.9994           0
     38915 W2       12972    TIP3     H1       HT       0.417000       1.00800           0
     38916 W2       12972    TIP3     H2       HT       0.417000       1.00800           0
     38917 W2       12973    TIP3     OH2      OT      -0.834000       15.9994           0
     38918 W2       12973    TIP3     H1       HT       0.417000       1.00800           0
     38919 W2       12973    TIP3     H2       HT       0.417000       1.00800           0
     38920 W2       12974    TIP3     OH2      OT      -0.834000       15.9994           0
     38921 W2       12974    TIP3     H1       HT       0.417000       1.00800           0
     38922 W2       12974    TIP3     H2       HT       0.417000       1.00800           0
     38923 W2       12975    TIP3     OH2      OT      -0.834000       15.9994           0
     38924 W2       12975    TIP3     H1       HT       0.417000       1.00800           0
     38925 W2       12975    TIP3     H2       HT       0.417000       1.00800           0
     38926 W2       12976    TIP3     OH2      OT      -0.834000       15.9994           0
     38927 W2       12976    TIP3     H1       HT       0.417000       1.00800           0
     38928 W2       12976    TIP3     H2       HT       0.417000       1.00800           0
     38929 W2       12977    TIP3     OH2      OT      -0.834000       15.9994           0
     38930 W2       12977    TIP3     H1       HT       0.417000       1.00800           0
     38931 W2       12977    TIP3     H2       HT       0.417000       1.00800           0
     38932 W2       12978    TIP3     OH2      OT      -0.834000       15.9994           0
     38933 W2       12978    TIP3     H1       HT       0.417000       1.00800           0
     38934 W2       12978    TIP3     H2       HT       0.417000       1.00800           0
     38935 W2       12979    TIP3     OH2      OT      -0.834000       15.9994           0
     38936 W2       12979    TIP3     H1       HT       0.417000       1.00800           0
     38937 W2       12979    TIP3     H2       HT       0.417000       1.00800           0
     38938 W2       12980    TIP3     OH2      OT      -0.834000       15.9994           0
     38939 W2       12980    TIP3     H1       HT       0.417000       1.00800           0
     38940 W2       12980    TIP3     H2       HT       0.417000       1.00800           0
     38941 W2       12981    TIP3     OH2      OT      -0.834000       15.9994           0
     38942 W2       12981    TIP3     H1       HT       0.417000       1.00800           0
     38943 W2       12981    TIP3     H2       HT       0.417000       1.00800           0
     38944 W2       12982    TIP3     OH2      OT      -0.834000       15.9994           0
     38945 W2       12982    TIP3     H1       HT       0.417000       1.00800           0
     38946 W2       12982    TIP3     H2       HT       0.417000       1.00800           0
     38947 W2       12983    TIP3     OH2      OT      -0.834000       15.9994           0
     38948 W2       12983    TIP3     H1       HT       0.417000       1.00800           0
     38949 W2       12983    TIP3     H2       HT       0.417000       1.00800           0
     38950 W2       12984    TIP3     OH2      OT      -0.834000       15.9994           0
     38951 W2       12984    TIP3     H1       HT       0.417000       1.00800           0
     38952 W2       12984    TIP3     H2       HT       0.417000       1.00800           0
     38953 W2       12985    TIP3     OH2      OT      -0.834000       15.9994           0
     38954 W2       12985    TIP3     H1       HT       0.417000       1.00800           0
     38955 W2       12985    TIP3     H2       HT       0.417000       1.00800           0
     38956 W2       12986    TIP3     OH2      OT      -0.834000       15.9994           0
     38957 W2       12986    TIP3     H1       HT       0.417000       1.00800           0
     38958 W2       12986    TIP3     H2       HT       0.417000       1.00800           0
     38959 W2       12987    TIP3     OH2      OT      -0.834000       15.9994           0
     38960 W2       12987    TIP3     H1       HT       0.417000       1.00800           0
     38961 W2       12987    TIP3     H2       HT       0.417000       1.00800           0
     38962 W2       12988    TIP3     OH2      OT      -0.834000       15.9994           0
     38963 W2       12988    TIP3     H1       HT       0.417000       1.00800           0
     38964 W2       12988    TIP3     H2       HT       0.417000       1.00800           0
     38965 W2       12989    TIP3     OH2      OT      -0.834000       15.9994           0
     38966 W2       12989    TIP3     H1       HT       0.417000       1.00800           0
     38967 W2       12989    TIP3     H2       HT       0.417000       1.00800           0
     38968 W2       12990    TIP3     OH2      OT      -0.834000       15.9994           0
     38969 W2       12990    TIP3     H1       HT       0.417000       1.00800           0
     38970 W2       12990    TIP3     H2       HT       0.417000       1.00800           0
     38971 W2       12991    TIP3     OH2      OT      -0.834000       15.9994           0
     38972 W2       12991    TIP3     H1       HT       0.417000       1.00800           0
     38973 W2       12991    TIP3     H2       HT       0.417000       1.00800           0
     38974 W2       12992    TIP3     OH2      OT      -0.834000       15.9994           0
     38975 W2       12992    TIP3     H1       HT       0.417000       1.00800           0
     38976 W2       12992    TIP3     H2       HT       0.417000       1.00800           0
     38977 W2       12993    TIP3     OH2      OT      -0.834000       15.9994           0
     38978 W2       12993    TIP3     H1       HT       0.417000       1.00800           0
     38979 W2       12993    TIP3     H2       HT       0.417000       1.00800           0
     38980 W2       12994    TIP3     OH2      OT      -0.834000       15.9994           0
     38981 W2       12994    TIP3     H1       HT       0.417000       1.00800           0
     38982 W2       12994    TIP3     H2       HT       0.417000       1.00800           0
     38983 W2       12995    TIP3     OH2      OT      -0.834000       15.9994           0
     38984 W2       12995    TIP3     H1       HT       0.417000       1.00800           0
     38985 W2       12995    TIP3     H2       HT       0.417000       1.00800           0
     38986 W2       12996    TIP3     OH2      OT      -0.834000       15.9994           0
     38987 W2       12996    TIP3     H1       HT       0.417000       1.00800           0
     38988 W2       12996    TIP3     H2       HT       0.417000       1.00800           0
     38989 W2       12997    TIP3     OH2      OT      -0.834000       15.9994           0
     38990 W2       12997    TIP3     H1       HT       0.417000       1.00800           0
     38991 W2       12997    TIP3     H2       HT       0.417000       1.00800           0
     38992 W2       12998    TIP3     OH2      OT      -0.834000       15.9994           0
     38993 W2       12998    TIP3     H1       HT       0.417000       1.00800           0
     38994 W2       12998    TIP3     H2       HT       0.417000       1.00800           0
     38995 W2       12999    TIP3     OH2      OT      -0.834000       15.9994           0
     38996 W2       12999    TIP3     H1       HT       0.417000       1.00800           0
     38997 W2       12999    TIP3     H2       HT       0.417000       1.00800           0
     38998 W2       13000    TIP3     OH2      OT      -0.834000       15.9994           0
     38999 W2       13000    TIP3     H1       HT       0.417000       1.00800           0
     39000 W2       13000    TIP3     H2       HT       0.417000       1.00800           0
     39001 W2       13001    TIP3     OH2      OT      -0.834000       15.9994           0
     39002 W2       13001    TIP3     H1       HT       0.417000       1.00800           0
     39003 W2       13001    TIP3     H2       HT       0.417000       1.00800           0
     39004 W2       13002    TIP3     OH2      OT      -0.834000       15.9994           0
     39005 W2       13002    TIP3     H1       HT       0.417000       1.00800           0
     39006 W2       13002    TIP3     H2       HT       0.417000       1.00800           0
     39007 W2       13003    TIP3     OH2      OT      -0.834000       15.9994           0
     39008 W2       13003    TIP3     H1       HT       0.417000       1.00800           0
     39009 W2       13003    TIP3     H2       HT       0.417000       1.00800           0
     39010 W2       13004    TIP3     OH2      OT      -0.834000       15.9994           0
     39011 W2       13004    TIP3     H1       HT       0.417000       1.00800           0
     39012 W2       13004    TIP3     H2       HT       0.417000       1.00800           0
     39013 W2       13005    TIP3     OH2      OT      -0.834000       15.9994           0
     39014 W2       13005    TIP3     H1       HT       0.417000       1.00800           0
     39015 W2       13005    TIP3     H2       HT       0.417000       1.00800           0
     39016 W2       13006    TIP3     OH2      OT      -0.834000       15.9994           0
     39017 W2       13006    TIP3     H1       HT       0.417000       1.00800           0
     39018 W2       13006    TIP3     H2       HT       0.417000       1.00800           0
     39019 W2       13007    TIP3     OH2      OT      -0.834000       15.9994           0
     39020 W2       13007    TIP3     H1       HT       0.417000       1.00800           0
     39021 W2       13007    TIP3     H2       HT       0.417000       1.00800           0
     39022 W2       13008    TIP3     OH2      OT      -0.834000       15.9994           0
     39023 W2       13008    TIP3     H1       HT       0.417000       1.00800           0
     39024 W2       13008    TIP3     H2       HT       0.417000       1.00800           0
     39025 W2       13009    TIP3     OH2      OT      -0.834000       15.9994           0
     39026 W2       13009    TIP3     H1       HT       0.417000       1.00800           0
     39027 W2       13009    TIP3     H2       HT       0.417000       1.00800           0
     39028 W2       13010    TIP3     OH2      OT      -0.834000       15.9994           0
     39029 W2       13010    TIP3     H1       HT       0.417000       1.00800           0
     39030 W2       13010    TIP3     H2       HT       0.417000       1.00800           0
     39031 W2       13011    TIP3     OH2      OT      -0.834000       15.9994           0
     39032 W2       13011    TIP3     H1       HT       0.417000       1.00800           0
     39033 W2       13011    TIP3     H2       HT       0.417000       1.00800           0
     39034 W2       13012    TIP3     OH2      OT      -0.834000       15.9994           0
     39035 W2       13012    TIP3     H1       HT       0.417000       1.00800           0
     39036 W2       13012    TIP3     H2       HT       0.417000       1.00800           0
     39037 W2       13013    TIP3     OH2      OT      -0.834000       15.9994           0
     39038 W2       13013    TIP3     H1       HT       0.417000       1.00800           0
     39039 W2       13013    TIP3     H2       HT       0.417000       1.00800           0
     39040 W2       13014    TIP3     OH2      OT      -0.834000       15.9994           0
     39041 W2       13014    TIP3     H1       HT       0.417000       1.00800           0
     39042 W2       13014    TIP3     H2       HT       0.417000       1.00800           0
     39043 W2       13015    TIP3     OH2      OT      -0.834000       15.9994           0
     39044 W2       13015    TIP3     H1       HT       0.417000       1.00800           0
     39045 W2       13015    TIP3     H2       HT       0.417000       1.00800           0
     39046 W2       13016    TIP3     OH2      OT      -0.834000       15.9994           0
     39047 W2       13016    TIP3     H1       HT       0.417000       1.00800           0
     39048 W2       13016    TIP3     H2       HT       0.417000       1.00800           0
     39049 W2       13017    TIP3     OH2      OT      -0.834000       15.9994           0
     39050 W2       13017    TIP3     H1       HT       0.417000       1.00800           0
     39051 W2       13017    TIP3     H2       HT       0.417000       1.00800           0
     39052 W2       13018    TIP3     OH2      OT      -0.834000       15.9994           0
     39053 W2       13018    TIP3     H1       HT       0.417000       1.00800           0
     39054 W2       13018    TIP3     H2       HT       0.417000       1.00800           0
     39055 W2       13019    TIP3     OH2      OT      -0.834000       15.9994           0
     39056 W2       13019    TIP3     H1       HT       0.417000       1.00800           0
     39057 W2       13019    TIP3     H2       HT       0.417000       1.00800           0
     39058 W2       13020    TIP3     OH2      OT      -0.834000       15.9994           0
     39059 W2       13020    TIP3     H1       HT       0.417000       1.00800           0
     39060 W2       13020    TIP3     H2       HT       0.417000       1.00800           0
     39061 W2       13021    TIP3     OH2      OT      -0.834000       15.9994           0
     39062 W2       13021    TIP3     H1       HT       0.417000       1.00800           0
     39063 W2       13021    TIP3     H2       HT       0.417000       1.00800           0
     39064 W2       13022    TIP3     OH2      OT      -0.834000       15.9994           0
     39065 W2       13022    TIP3     H1       HT       0.417000       1.00800           0
     39066 W2       13022    TIP3     H2       HT       0.417000       1.00800           0
     39067 W2       13023    TIP3     OH2      OT      -0.834000       15.9994           0
     39068 W2       13023    TIP3     H1       HT       0.417000       1.00800           0
     39069 W2       13023    TIP3     H2       HT       0.417000       1.00800           0
     39070 W2       13024    TIP3     OH2      OT      -0.834000       15.9994           0
     39071 W2       13024    TIP3     H1       HT       0.417000       1.00800           0
     39072 W2       13024    TIP3     H2       HT       0.417000       1.00800           0
     39073 W2       13025    TIP3     OH2      OT      -0.834000       15.9994           0
     39074 W2       13025    TIP3     H1       HT       0.417000       1.00800           0
     39075 W2       13025    TIP3     H2       HT       0.417000       1.00800           0
     39076 W2       13026    TIP3     OH2      OT      -0.834000       15.9994           0
     39077 W2       13026    TIP3     H1       HT       0.417000       1.00800           0
     39078 W2       13026    TIP3     H2       HT       0.417000       1.00800           0
     39079 W2       13027    TIP3     OH2      OT      -0.834000       15.9994           0
     39080 W2       13027    TIP3     H1       HT       0.417000       1.00800           0
     39081 W2       13027    TIP3     H2       HT       0.417000       1.00800           0
     39082 W2       13028    TIP3     OH2      OT      -0.834000       15.9994           0
     39083 W2       13028    TIP3     H1       HT       0.417000       1.00800           0
     39084 W2       13028    TIP3     H2       HT       0.417000       1.00800           0
     39085 W2       13029    TIP3     OH2      OT      -0.834000       15.9994           0
     39086 W2       13029    TIP3     H1       HT       0.417000       1.00800           0
     39087 W2       13029    TIP3     H2       HT       0.417000       1.00800           0
     39088 W2       13030    TIP3     OH2      OT      -0.834000       15.9994           0
     39089 W2       13030    TIP3     H1       HT       0.417000       1.00800           0
     39090 W2       13030    TIP3     H2       HT       0.417000       1.00800           0
     39091 W2       13031    TIP3     OH2      OT      -0.834000       15.9994           0
     39092 W2       13031    TIP3     H1       HT       0.417000       1.00800           0
     39093 W2       13031    TIP3     H2       HT       0.417000       1.00800           0
     39094 W2       13032    TIP3     OH2      OT      -0.834000       15.9994           0
     39095 W2       13032    TIP3     H1       HT       0.417000       1.00800           0
     39096 W2       13032    TIP3     H2       HT       0.417000       1.00800           0
     39097 W2       13033    TIP3     OH2      OT      -0.834000       15.9994           0
     39098 W2       13033    TIP3     H1       HT       0.417000       1.00800           0
     39099 W2       13033    TIP3     H2       HT       0.417000       1.00800           0
     39100 W2       13034    TIP3     OH2      OT      -0.834000       15.9994           0
     39101 W2       13034    TIP3     H1       HT       0.417000       1.00800           0
     39102 W2       13034    TIP3     H2       HT       0.417000       1.00800           0
     39103 W2       13035    TIP3     OH2      OT      -0.834000       15.9994           0
     39104 W2       13035    TIP3     H1       HT       0.417000       1.00800           0
     39105 W2       13035    TIP3     H2       HT       0.417000       1.00800           0
     39106 W2       13036    TIP3     OH2      OT      -0.834000       15.9994           0
     39107 W2       13036    TIP3     H1       HT       0.417000       1.00800           0
     39108 W2       13036    TIP3     H2       HT       0.417000       1.00800           0
     39109 W2       13037    TIP3     OH2      OT      -0.834000       15.9994           0
     39110 W2       13037    TIP3     H1       HT       0.417000       1.00800           0
     39111 W2       13037    TIP3     H2       HT       0.417000       1.00800           0
     39112 W2       13038    TIP3     OH2      OT      -0.834000       15.9994           0
     39113 W2       13038    TIP3     H1       HT       0.417000       1.00800           0
     39114 W2       13038    TIP3     H2       HT       0.417000       1.00800           0
     39115 W2       13039    TIP3     OH2      OT      -0.834000       15.9994           0
     39116 W2       13039    TIP3     H1       HT       0.417000       1.00800           0
     39117 W2       13039    TIP3     H2       HT       0.417000       1.00800           0
     39118 W2       13040    TIP3     OH2      OT      -0.834000       15.9994           0
     39119 W2       13040    TIP3     H1       HT       0.417000       1.00800           0
     39120 W2       13040    TIP3     H2       HT       0.417000       1.00800           0
     39121 W2       13041    TIP3     OH2      OT      -0.834000       15.9994           0
     39122 W2       13041    TIP3     H1       HT       0.417000       1.00800           0
     39123 W2       13041    TIP3     H2       HT       0.417000       1.00800           0
     39124 W2       13042    TIP3     OH2      OT      -0.834000       15.9994           0
     39125 W2       13042    TIP3     H1       HT       0.417000       1.00800           0
     39126 W2       13042    TIP3     H2       HT       0.417000       1.00800           0
     39127 W2       13043    TIP3     OH2      OT      -0.834000       15.9994           0
     39128 W2       13043    TIP3     H1       HT       0.417000       1.00800           0
     39129 W2       13043    TIP3     H2       HT       0.417000       1.00800           0
     39130 W2       13044    TIP3     OH2      OT      -0.834000       15.9994           0
     39131 W2       13044    TIP3     H1       HT       0.417000       1.00800           0
     39132 W2       13044    TIP3     H2       HT       0.417000       1.00800           0
     39133 W2       13045    TIP3     OH2      OT      -0.834000       15.9994           0
     39134 W2       13045    TIP3     H1       HT       0.417000       1.00800           0
     39135 W2       13045    TIP3     H2       HT       0.417000       1.00800           0
     39136 W2       13046    TIP3     OH2      OT      -0.834000       15.9994           0
     39137 W2       13046    TIP3     H1       HT       0.417000       1.00800           0
     39138 W2       13046    TIP3     H2       HT       0.417000       1.00800           0
     39139 W2       13047    TIP3     OH2      OT      -0.834000       15.9994           0
     39140 W2       13047    TIP3     H1       HT       0.417000       1.00800           0
     39141 W2       13047    TIP3     H2       HT       0.417000       1.00800           0
     39142 W2       13048    TIP3     OH2      OT      -0.834000       15.9994           0
     39143 W2       13048    TIP3     H1       HT       0.417000       1.00800           0
     39144 W2       13048    TIP3     H2       HT       0.417000       1.00800           0
     39145 W2       13049    TIP3     OH2      OT      -0.834000       15.9994           0
     39146 W2       13049    TIP3     H1       HT       0.417000       1.00800           0
     39147 W2       13049    TIP3     H2       HT       0.417000       1.00800           0
     39148 W2       13050    TIP3     OH2      OT      -0.834000       15.9994           0
     39149 W2       13050    TIP3     H1       HT       0.417000       1.00800           0
     39150 W2       13050    TIP3     H2       HT       0.417000       1.00800           0
     39151 W2       13051    TIP3     OH2      OT      -0.834000       15.9994           0
     39152 W2       13051    TIP3     H1       HT       0.417000       1.00800           0
     39153 W2       13051    TIP3     H2       HT       0.417000       1.00800           0
     39154 W2       13052    TIP3     OH2      OT      -0.834000       15.9994           0
     39155 W2       13052    TIP3     H1       HT       0.417000       1.00800           0
     39156 W2       13052    TIP3     H2       HT       0.417000       1.00800           0
     39157 W2       13053    TIP3     OH2      OT      -0.834000       15.9994           0
     39158 W2       13053    TIP3     H1       HT       0.417000       1.00800           0
     39159 W2       13053    TIP3     H2       HT       0.417000       1.00800           0
     39160 W2       13054    TIP3     OH2      OT      -0.834000       15.9994           0
     39161 W2       13054    TIP3     H1       HT       0.417000       1.00800           0
     39162 W2       13054    TIP3     H2       HT       0.417000       1.00800           0
     39163 W2       13055    TIP3     OH2      OT      -0.834000       15.9994           0
     39164 W2       13055    TIP3     H1       HT       0.417000       1.00800           0
     39165 W2       13055    TIP3     H2       HT       0.417000       1.00800           0
     39166 W2       13056    TIP3     OH2      OT      -0.834000       15.9994           0
     39167 W2       13056    TIP3     H1       HT       0.417000       1.00800           0
     39168 W2       13056    TIP3     H2       HT       0.417000       1.00800           0
     39169 W2       13057    TIP3     OH2      OT      -0.834000       15.9994           0
     39170 W2       13057    TIP3     H1       HT       0.417000       1.00800           0
     39171 W2       13057    TIP3     H2       HT       0.417000       1.00800           0
     39172 W2       13058    TIP3     OH2      OT      -0.834000       15.9994           0
     39173 W2       13058    TIP3     H1       HT       0.417000       1.00800           0
     39174 W2       13058    TIP3     H2       HT       0.417000       1.00800           0
     39175 W2       13059    TIP3     OH2      OT      -0.834000       15.9994           0
     39176 W2       13059    TIP3     H1       HT       0.417000       1.00800           0
     39177 W2       13059    TIP3     H2       HT       0.417000       1.00800           0
     39178 W2       13060    TIP3     OH2      OT      -0.834000       15.9994           0
     39179 W2       13060    TIP3     H1       HT       0.417000       1.00800           0
     39180 W2       13060    TIP3     H2       HT       0.417000       1.00800           0
     39181 W2       13061    TIP3     OH2      OT      -0.834000       15.9994           0
     39182 W2       13061    TIP3     H1       HT       0.417000       1.00800           0
     39183 W2       13061    TIP3     H2       HT       0.417000       1.00800           0
     39184 W2       13062    TIP3     OH2      OT      -0.834000       15.9994           0
     39185 W2       13062    TIP3     H1       HT       0.417000       1.00800           0
     39186 W2       13062    TIP3     H2       HT       0.417000       1.00800           0
     39187 W2       13063    TIP3     OH2      OT      -0.834000       15.9994           0
     39188 W2       13063    TIP3     H1       HT       0.417000       1.00800           0
     39189 W2       13063    TIP3     H2       HT       0.417000       1.00800           0
     39190 W2       13064    TIP3     OH2      OT      -0.834000       15.9994           0
     39191 W2       13064    TIP3     H1       HT       0.417000       1.00800           0
     39192 W2       13064    TIP3     H2       HT       0.417000       1.00800           0
     39193 W2       13065    TIP3     OH2      OT      -0.834000       15.9994           0
     39194 W2       13065    TIP3     H1       HT       0.417000       1.00800           0
     39195 W2       13065    TIP3     H2       HT       0.417000       1.00800           0
     39196 W2       13066    TIP3     OH2      OT      -0.834000       15.9994           0
     39197 W2       13066    TIP3     H1       HT       0.417000       1.00800           0
     39198 W2       13066    TIP3     H2       HT       0.417000       1.00800           0
     39199 W2       13067    TIP3     OH2      OT      -0.834000       15.9994           0
     39200 W2       13067    TIP3     H1       HT       0.417000       1.00800           0
     39201 W2       13067    TIP3     H2       HT       0.417000       1.00800           0
     39202 W2       13068    TIP3     OH2      OT      -0.834000       15.9994           0
     39203 W2       13068    TIP3     H1       HT       0.417000       1.00800           0
     39204 W2       13068    TIP3     H2       HT       0.417000       1.00800           0
     39205 W2       13069    TIP3     OH2      OT      -0.834000       15.9994           0
     39206 W2       13069    TIP3     H1       HT       0.417000       1.00800           0
     39207 W2       13069    TIP3     H2       HT       0.417000       1.00800           0
     39208 W2       13070    TIP3     OH2      OT      -0.834000       15.9994           0
     39209 W2       13070    TIP3     H1       HT       0.417000       1.00800           0
     39210 W2       13070    TIP3     H2       HT       0.417000       1.00800           0
     39211 W2       13071    TIP3     OH2      OT      -0.834000       15.9994           0
     39212 W2       13071    TIP3     H1       HT       0.417000       1.00800           0
     39213 W2       13071    TIP3     H2       HT       0.417000       1.00800           0
     39214 W2       13072    TIP3     OH2      OT      -0.834000       15.9994           0
     39215 W2       13072    TIP3     H1       HT       0.417000       1.00800           0
     39216 W2       13072    TIP3     H2       HT       0.417000       1.00800           0
     39217 W2       13073    TIP3     OH2      OT      -0.834000       15.9994           0
     39218 W2       13073    TIP3     H1       HT       0.417000       1.00800           0
     39219 W2       13073    TIP3     H2       HT       0.417000       1.00800           0
     39220 W2       13074    TIP3     OH2      OT      -0.834000       15.9994           0
     39221 W2       13074    TIP3     H1       HT       0.417000       1.00800           0
     39222 W2       13074    TIP3     H2       HT       0.417000       1.00800           0
     39223 W2       13075    TIP3     OH2      OT      -0.834000       15.9994           0
     39224 W2       13075    TIP3     H1       HT       0.417000       1.00800           0
     39225 W2       13075    TIP3     H2       HT       0.417000       1.00800           0
     39226 W2       13076    TIP3     OH2      OT      -0.834000       15.9994           0
     39227 W2       13076    TIP3     H1       HT       0.417000       1.00800           0
     39228 W2       13076    TIP3     H2       HT       0.417000       1.00800           0
     39229 W2       13077    TIP3     OH2      OT      -0.834000       15.9994           0
     39230 W2       13077    TIP3     H1       HT       0.417000       1.00800           0
     39231 W2       13077    TIP3     H2       HT       0.417000       1.00800           0
     39232 W2       13078    TIP3     OH2      OT      -0.834000       15.9994           0
     39233 W2       13078    TIP3     H1       HT       0.417000       1.00800           0
     39234 W2       13078    TIP3     H2       HT       0.417000       1.00800           0
     39235 W2       13079    TIP3     OH2      OT      -0.834000       15.9994           0
     39236 W2       13079    TIP3     H1       HT       0.417000       1.00800           0
     39237 W2       13079    TIP3     H2       HT       0.417000       1.00800           0
     39238 W2       13080    TIP3     OH2      OT      -0.834000       15.9994           0
     39239 W2       13080    TIP3     H1       HT       0.417000       1.00800           0
     39240 W2       13080    TIP3     H2       HT       0.417000       1.00800           0
     39241 W2       13081    TIP3     OH2      OT      -0.834000       15.9994           0
     39242 W2       13081    TIP3     H1       HT       0.417000       1.00800           0
     39243 W2       13081    TIP3     H2       HT       0.417000       1.00800           0
     39244 W2       13082    TIP3     OH2      OT      -0.834000       15.9994           0
     39245 W2       13082    TIP3     H1       HT       0.417000       1.00800           0
     39246 W2       13082    TIP3     H2       HT       0.417000       1.00800           0
     39247 W2       13083    TIP3     OH2      OT      -0.834000       15.9994           0
     39248 W2       13083    TIP3     H1       HT       0.417000       1.00800           0
     39249 W2       13083    TIP3     H2       HT       0.417000       1.00800           0
     39250 W2       13084    TIP3     OH2      OT      -0.834000       15.9994           0
     39251 W2       13084    TIP3     H1       HT       0.417000       1.00800           0
     39252 W2       13084    TIP3     H2       HT       0.417000       1.00800           0
     39253 W2       13085    TIP3     OH2      OT      -0.834000       15.9994           0
     39254 W2       13085    TIP3     H1       HT       0.417000       1.00800           0
     39255 W2       13085    TIP3     H2       HT       0.417000       1.00800           0
     39256 W2       13086    TIP3     OH2      OT      -0.834000       15.9994           0
     39257 W2       13086    TIP3     H1       HT       0.417000       1.00800           0
     39258 W2       13086    TIP3     H2       HT       0.417000       1.00800           0
     39259 W2       13087    TIP3     OH2      OT      -0.834000       15.9994           0
     39260 W2       13087    TIP3     H1       HT       0.417000       1.00800           0
     39261 W2       13087    TIP3     H2       HT       0.417000       1.00800           0
     39262 W2       13088    TIP3     OH2      OT      -0.834000       15.9994           0
     39263 W2       13088    TIP3     H1       HT       0.417000       1.00800           0
     39264 W2       13088    TIP3     H2       HT       0.417000       1.00800           0
     39265 W2       13089    TIP3     OH2      OT      -0.834000       15.9994           0
     39266 W2       13089    TIP3     H1       HT       0.417000       1.00800           0
     39267 W2       13089    TIP3     H2       HT       0.417000       1.00800           0
     39268 W2       13090    TIP3     OH2      OT      -0.834000       15.9994           0
     39269 W2       13090    TIP3     H1       HT       0.417000       1.00800           0
     39270 W2       13090    TIP3     H2       HT       0.417000       1.00800           0
     39271 W2       13091    TIP3     OH2      OT      -0.834000       15.9994           0
     39272 W2       13091    TIP3     H1       HT       0.417000       1.00800           0
     39273 W2       13091    TIP3     H2       HT       0.417000       1.00800           0
     39274 W2       13092    TIP3     OH2      OT      -0.834000       15.9994           0
     39275 W2       13092    TIP3     H1       HT       0.417000       1.00800           0
     39276 W2       13092    TIP3     H2       HT       0.417000       1.00800           0
     39277 W2       13093    TIP3     OH2      OT      -0.834000       15.9994           0
     39278 W2       13093    TIP3     H1       HT       0.417000       1.00800           0
     39279 W2       13093    TIP3     H2       HT       0.417000       1.00800           0
     39280 W2       13094    TIP3     OH2      OT      -0.834000       15.9994           0
     39281 W2       13094    TIP3     H1       HT       0.417000       1.00800           0
     39282 W2       13094    TIP3     H2       HT       0.417000       1.00800           0
     39283 W2       13095    TIP3     OH2      OT      -0.834000       15.9994           0
     39284 W2       13095    TIP3     H1       HT       0.417000       1.00800           0
     39285 W2       13095    TIP3     H2       HT       0.417000       1.00800           0
     39286 W2       13096    TIP3     OH2      OT      -0.834000       15.9994           0
     39287 W2       13096    TIP3     H1       HT       0.417000       1.00800           0
     39288 W2       13096    TIP3     H2       HT       0.417000       1.00800           0
     39289 W2       13097    TIP3     OH2      OT      -0.834000       15.9994           0
     39290 W2       13097    TIP3     H1       HT       0.417000       1.00800           0
     39291 W2       13097    TIP3     H2       HT       0.417000       1.00800           0
     39292 W2       13098    TIP3     OH2      OT      -0.834000       15.9994           0
     39293 W2       13098    TIP3     H1       HT       0.417000       1.00800           0
     39294 W2       13098    TIP3     H2       HT       0.417000       1.00800           0
     39295 W2       13099    TIP3     OH2      OT      -0.834000       15.9994           0
     39296 W2       13099    TIP3     H1       HT       0.417000       1.00800           0
     39297 W2       13099    TIP3     H2       HT       0.417000       1.00800           0
     39298 W2       13100    TIP3     OH2      OT      -0.834000       15.9994           0
     39299 W2       13100    TIP3     H1       HT       0.417000       1.00800           0
     39300 W2       13100    TIP3     H2       HT       0.417000       1.00800           0
     39301 W2       13101    TIP3     OH2      OT      -0.834000       15.9994           0
     39302 W2       13101    TIP3     H1       HT       0.417000       1.00800           0
     39303 W2       13101    TIP3     H2       HT       0.417000       1.00800           0
     39304 W2       13102    TIP3     OH2      OT      -0.834000       15.9994           0
     39305 W2       13102    TIP3     H1       HT       0.417000       1.00800           0
     39306 W2       13102    TIP3     H2       HT       0.417000       1.00800           0
     39307 W2       13103    TIP3     OH2      OT      -0.834000       15.9994           0
     39308 W2       13103    TIP3     H1       HT       0.417000       1.00800           0
     39309 W2       13103    TIP3     H2       HT       0.417000       1.00800           0
     39310 W2       13104    TIP3     OH2      OT      -0.834000       15.9994           0
     39311 W2       13104    TIP3     H1       HT       0.417000       1.00800           0
     39312 W2       13104    TIP3     H2       HT       0.417000       1.00800           0
     39313 W2       13105    TIP3     OH2      OT      -0.834000       15.9994           0
     39314 W2       13105    TIP3     H1       HT       0.417000       1.00800           0
     39315 W2       13105    TIP3     H2       HT       0.417000       1.00800           0
     39316 W2       13106    TIP3     OH2      OT      -0.834000       15.9994           0
     39317 W2       13106    TIP3     H1       HT       0.417000       1.00800           0
     39318 W2       13106    TIP3     H2       HT       0.417000       1.00800           0
     39319 W2       13107    TIP3     OH2      OT      -0.834000       15.9994           0
     39320 W2       13107    TIP3     H1       HT       0.417000       1.00800           0
     39321 W2       13107    TIP3     H2       HT       0.417000       1.00800           0
     39322 W2       13108    TIP3     OH2      OT      -0.834000       15.9994           0
     39323 W2       13108    TIP3     H1       HT       0.417000       1.00800           0
     39324 W2       13108    TIP3     H2       HT       0.417000       1.00800           0
     39325 W2       13109    TIP3     OH2      OT      -0.834000       15.9994           0
     39326 W2       13109    TIP3     H1       HT       0.417000       1.00800           0
     39327 W2       13109    TIP3     H2       HT       0.417000       1.00800           0
     39328 W2       13110    TIP3     OH2      OT      -0.834000       15.9994           0
     39329 W2       13110    TIP3     H1       HT       0.417000       1.00800           0
     39330 W2       13110    TIP3     H2       HT       0.417000       1.00800           0
     39331 W2       13111    TIP3     OH2      OT      -0.834000       15.9994           0
     39332 W2       13111    TIP3     H1       HT       0.417000       1.00800           0
     39333 W2       13111    TIP3     H2       HT       0.417000       1.00800           0
     39334 W2       13112    TIP3     OH2      OT      -0.834000       15.9994           0
     39335 W2       13112    TIP3     H1       HT       0.417000       1.00800           0
     39336 W2       13112    TIP3     H2       HT       0.417000       1.00800           0
     39337 W2       13113    TIP3     OH2      OT      -0.834000       15.9994           0
     39338 W2       13113    TIP3     H1       HT       0.417000       1.00800           0
     39339 W2       13113    TIP3     H2       HT       0.417000       1.00800           0
     39340 W2       13114    TIP3     OH2      OT      -0.834000       15.9994           0
     39341 W2       13114    TIP3     H1       HT       0.417000       1.00800           0
     39342 W2       13114    TIP3     H2       HT       0.417000       1.00800           0
     39343 W2       13115    TIP3     OH2      OT      -0.834000       15.9994           0
     39344 W2       13115    TIP3     H1       HT       0.417000       1.00800           0
     39345 W2       13115    TIP3     H2       HT       0.417000       1.00800           0
     39346 W2       13116    TIP3     OH2      OT      -0.834000       15.9994           0
     39347 W2       13116    TIP3     H1       HT       0.417000       1.00800           0
     39348 W2       13116    TIP3     H2       HT       0.417000       1.00800           0
     39349 W2       13117    TIP3     OH2      OT      -0.834000       15.9994           0
     39350 W2       13117    TIP3     H1       HT       0.417000       1.00800           0
     39351 W2       13117    TIP3     H2       HT       0.417000       1.00800           0
     39352 W2       13118    TIP3     OH2      OT      -0.834000       15.9994           0
     39353 W2       13118    TIP3     H1       HT       0.417000       1.00800           0
     39354 W2       13118    TIP3     H2       HT       0.417000       1.00800           0
     39355 W2       13119    TIP3     OH2      OT      -0.834000       15.9994           0
     39356 W2       13119    TIP3     H1       HT       0.417000       1.00800           0
     39357 W2       13119    TIP3     H2       HT       0.417000       1.00800           0
     39358 W2       13120    TIP3     OH2      OT      -0.834000       15.9994           0
     39359 W2       13120    TIP3     H1       HT       0.417000       1.00800           0
     39360 W2       13120    TIP3     H2       HT       0.417000       1.00800           0
     39361 W2       13121    TIP3     OH2      OT      -0.834000       15.9994           0
     39362 W2       13121    TIP3     H1       HT       0.417000       1.00800           0
     39363 W2       13121    TIP3     H2       HT       0.417000       1.00800           0
     39364 W2       13122    TIP3     OH2      OT      -0.834000       15.9994           0
     39365 W2       13122    TIP3     H1       HT       0.417000       1.00800           0
     39366 W2       13122    TIP3     H2       HT       0.417000       1.00800           0
     39367 W2       13123    TIP3     OH2      OT      -0.834000       15.9994           0
     39368 W2       13123    TIP3     H1       HT       0.417000       1.00800           0
     39369 W2       13123    TIP3     H2       HT       0.417000       1.00800           0
     39370 W2       13124    TIP3     OH2      OT      -0.834000       15.9994           0
     39371 W2       13124    TIP3     H1       HT       0.417000       1.00800           0
     39372 W2       13124    TIP3     H2       HT       0.417000       1.00800           0
     39373 W2       13125    TIP3     OH2      OT      -0.834000       15.9994           0
     39374 W2       13125    TIP3     H1       HT       0.417000       1.00800           0
     39375 W2       13125    TIP3     H2       HT       0.417000       1.00800           0
     39376 W2       13126    TIP3     OH2      OT      -0.834000       15.9994           0
     39377 W2       13126    TIP3     H1       HT       0.417000       1.00800           0
     39378 W2       13126    TIP3     H2       HT       0.417000       1.00800           0
     39379 W2       13127    TIP3     OH2      OT      -0.834000       15.9994           0
     39380 W2       13127    TIP3     H1       HT       0.417000       1.00800           0
     39381 W2       13127    TIP3     H2       HT       0.417000       1.00800           0
     39382 W2       13128    TIP3     OH2      OT      -0.834000       15.9994           0
     39383 W2       13128    TIP3     H1       HT       0.417000       1.00800           0
     39384 W2       13128    TIP3     H2       HT       0.417000       1.00800           0
     39385 W2       13129    TIP3     OH2      OT      -0.834000       15.9994           0
     39386 W2       13129    TIP3     H1       HT       0.417000       1.00800           0
     39387 W2       13129    TIP3     H2       HT       0.417000       1.00800           0
     39388 W2       13130    TIP3     OH2      OT      -0.834000       15.9994           0
     39389 W2       13130    TIP3     H1       HT       0.417000       1.00800           0
     39390 W2       13130    TIP3     H2       HT       0.417000       1.00800           0
     39391 W2       13131    TIP3     OH2      OT      -0.834000       15.9994           0
     39392 W2       13131    TIP3     H1       HT       0.417000       1.00800           0
     39393 W2       13131    TIP3     H2       HT       0.417000       1.00800           0
     39394 W2       13132    TIP3     OH2      OT      -0.834000       15.9994           0
     39395 W2       13132    TIP3     H1       HT       0.417000       1.00800           0
     39396 W2       13132    TIP3     H2       HT       0.417000       1.00800           0
     39397 W2       13133    TIP3     OH2      OT      -0.834000       15.9994           0
     39398 W2       13133    TIP3     H1       HT       0.417000       1.00800           0
     39399 W2       13133    TIP3     H2       HT       0.417000       1.00800           0
     39400 W2       13134    TIP3     OH2      OT      -0.834000       15.9994           0
     39401 W2       13134    TIP3     H1       HT       0.417000       1.00800           0
     39402 W2       13134    TIP3     H2       HT       0.417000       1.00800           0
     39403 W2       13135    TIP3     OH2      OT      -0.834000       15.9994           0
     39404 W2       13135    TIP3     H1       HT       0.417000       1.00800           0
     39405 W2       13135    TIP3     H2       HT       0.417000       1.00800           0
     39406 W2       13136    TIP3     OH2      OT      -0.834000       15.9994           0
     39407 W2       13136    TIP3     H1       HT       0.417000       1.00800           0
     39408 W2       13136    TIP3     H2       HT       0.417000       1.00800           0
     39409 W2       13137    TIP3     OH2      OT      -0.834000       15.9994           0
     39410 W2       13137    TIP3     H1       HT       0.417000       1.00800           0
     39411 W2       13137    TIP3     H2       HT       0.417000       1.00800           0
     39412 W2       13138    TIP3     OH2      OT      -0.834000       15.9994           0
     39413 W2       13138    TIP3     H1       HT       0.417000       1.00800           0
     39414 W2       13138    TIP3     H2       HT       0.417000       1.00800           0
     39415 W2       13139    TIP3     OH2      OT      -0.834000       15.9994           0
     39416 W2       13139    TIP3     H1       HT       0.417000       1.00800           0
     39417 W2       13139    TIP3     H2       HT       0.417000       1.00800           0
     39418 W2       13140    TIP3     OH2      OT      -0.834000       15.9994           0
     39419 W2       13140    TIP3     H1       HT       0.417000       1.00800           0
     39420 W2       13140    TIP3     H2       HT       0.417000       1.00800           0
     39421 W2       13141    TIP3     OH2      OT      -0.834000       15.9994           0
     39422 W2       13141    TIP3     H1       HT       0.417000       1.00800           0
     39423 W2       13141    TIP3     H2       HT       0.417000       1.00800           0
     39424 W2       13142    TIP3     OH2      OT      -0.834000       15.9994           0
     39425 W2       13142    TIP3     H1       HT       0.417000       1.00800           0
     39426 W2       13142    TIP3     H2       HT       0.417000       1.00800           0
     39427 W2       13143    TIP3     OH2      OT      -0.834000       15.9994           0
     39428 W2       13143    TIP3     H1       HT       0.417000       1.00800           0
     39429 W2       13143    TIP3     H2       HT       0.417000       1.00800           0
     39430 W2       13144    TIP3     OH2      OT      -0.834000       15.9994           0
     39431 W2       13144    TIP3     H1       HT       0.417000       1.00800           0
     39432 W2       13144    TIP3     H2       HT       0.417000       1.00800           0
     39433 W2       13145    TIP3     OH2      OT      -0.834000       15.9994           0
     39434 W2       13145    TIP3     H1       HT       0.417000       1.00800           0
     39435 W2       13145    TIP3     H2       HT       0.417000       1.00800           0
     39436 W2       13146    TIP3     OH2      OT      -0.834000       15.9994           0
     39437 W2       13146    TIP3     H1       HT       0.417000       1.00800           0
     39438 W2       13146    TIP3     H2       HT       0.417000       1.00800           0
     39439 W2       13147    TIP3     OH2      OT      -0.834000       15.9994           0
     39440 W2       13147    TIP3     H1       HT       0.417000       1.00800           0
     39441 W2       13147    TIP3     H2       HT       0.417000       1.00800           0
     39442 W2       13148    TIP3     OH2      OT      -0.834000       15.9994           0
     39443 W2       13148    TIP3     H1       HT       0.417000       1.00800           0
     39444 W2       13148    TIP3     H2       HT       0.417000       1.00800           0
     39445 W2       13149    TIP3     OH2      OT      -0.834000       15.9994           0
     39446 W2       13149    TIP3     H1       HT       0.417000       1.00800           0
     39447 W2       13149    TIP3     H2       HT       0.417000       1.00800           0
     39448 W2       13150    TIP3     OH2      OT      -0.834000       15.9994           0
     39449 W2       13150    TIP3     H1       HT       0.417000       1.00800           0
     39450 W2       13150    TIP3     H2       HT       0.417000       1.00800           0
     39451 W2       13151    TIP3     OH2      OT      -0.834000       15.9994           0
     39452 W2       13151    TIP3     H1       HT       0.417000       1.00800           0
     39453 W2       13151    TIP3     H2       HT       0.417000       1.00800           0
     39454 W2       13152    TIP3     OH2      OT      -0.834000       15.9994           0
     39455 W2       13152    TIP3     H1       HT       0.417000       1.00800           0
     39456 W2       13152    TIP3     H2       HT       0.417000       1.00800           0
     39457 W2       13153    TIP3     OH2      OT      -0.834000       15.9994           0
     39458 W2       13153    TIP3     H1       HT       0.417000       1.00800           0
     39459 W2       13153    TIP3     H2       HT       0.417000       1.00800           0
     39460 W2       13154    TIP3     OH2      OT      -0.834000       15.9994           0
     39461 W2       13154    TIP3     H1       HT       0.417000       1.00800           0
     39462 W2       13154    TIP3     H2       HT       0.417000       1.00800           0
     39463 W2       13155    TIP3     OH2      OT      -0.834000       15.9994           0
     39464 W2       13155    TIP3     H1       HT       0.417000       1.00800           0
     39465 W2       13155    TIP3     H2       HT       0.417000       1.00800           0
     39466 W2       13156    TIP3     OH2      OT      -0.834000       15.9994           0
     39467 W2       13156    TIP3     H1       HT       0.417000       1.00800           0
     39468 W2       13156    TIP3     H2       HT       0.417000       1.00800           0
     39469 W2       13157    TIP3     OH2      OT      -0.834000       15.9994           0
     39470 W2       13157    TIP3     H1       HT       0.417000       1.00800           0
     39471 W2       13157    TIP3     H2       HT       0.417000       1.00800           0
     39472 W2       13158    TIP3     OH2      OT      -0.834000       15.9994           0
     39473 W2       13158    TIP3     H1       HT       0.417000       1.00800           0
     39474 W2       13158    TIP3     H2       HT       0.417000       1.00800           0
     39475 W2       13159    TIP3     OH2      OT      -0.834000       15.9994           0
     39476 W2       13159    TIP3     H1       HT       0.417000       1.00800           0
     39477 W2       13159    TIP3     H2       HT       0.417000       1.00800           0
     39478 W2       13160    TIP3     OH2      OT      -0.834000       15.9994           0
     39479 W2       13160    TIP3     H1       HT       0.417000       1.00800           0
     39480 W2       13160    TIP3     H2       HT       0.417000       1.00800           0
     39481 W2       13161    TIP3     OH2      OT      -0.834000       15.9994           0
     39482 W2       13161    TIP3     H1       HT       0.417000       1.00800           0
     39483 W2       13161    TIP3     H2       HT       0.417000       1.00800           0
     39484 W2       13162    TIP3     OH2      OT      -0.834000       15.9994           0
     39485 W2       13162    TIP3     H1       HT       0.417000       1.00800           0
     39486 W2       13162    TIP3     H2       HT       0.417000       1.00800           0
     39487 W2       13163    TIP3     OH2      OT      -0.834000       15.9994           0
     39488 W2       13163    TIP3     H1       HT       0.417000       1.00800           0
     39489 W2       13163    TIP3     H2       HT       0.417000       1.00800           0
     39490 W2       13164    TIP3     OH2      OT      -0.834000       15.9994           0
     39491 W2       13164    TIP3     H1       HT       0.417000       1.00800           0
     39492 W2       13164    TIP3     H2       HT       0.417000       1.00800           0
     39493 W2       13165    TIP3     OH2      OT      -0.834000       15.9994           0
     39494 W2       13165    TIP3     H1       HT       0.417000       1.00800           0
     39495 W2       13165    TIP3     H2       HT       0.417000       1.00800           0
     39496 W2       13166    TIP3     OH2      OT      -0.834000       15.9994           0
     39497 W2       13166    TIP3     H1       HT       0.417000       1.00800           0
     39498 W2       13166    TIP3     H2       HT       0.417000       1.00800           0
     39499 W2       13167    TIP3     OH2      OT      -0.834000       15.9994           0
     39500 W2       13167    TIP3     H1       HT       0.417000       1.00800           0
     39501 W2       13167    TIP3     H2       HT       0.417000       1.00800           0
     39502 W2       13168    TIP3     OH2      OT      -0.834000       15.9994           0
     39503 W2       13168    TIP3     H1       HT       0.417000       1.00800           0
     39504 W2       13168    TIP3     H2       HT       0.417000       1.00800           0
     39505 W2       13169    TIP3     OH2      OT      -0.834000       15.9994           0
     39506 W2       13169    TIP3     H1       HT       0.417000       1.00800           0
     39507 W2       13169    TIP3     H2       HT       0.417000       1.00800           0
     39508 W2       13170    TIP3     OH2      OT      -0.834000       15.9994           0
     39509 W2       13170    TIP3     H1       HT       0.417000       1.00800           0
     39510 W2       13170    TIP3     H2       HT       0.417000       1.00800           0
     39511 W2       13171    TIP3     OH2      OT      -0.834000       15.9994           0
     39512 W2       13171    TIP3     H1       HT       0.417000       1.00800           0
     39513 W2       13171    TIP3     H2       HT       0.417000       1.00800           0
     39514 W2       13172    TIP3     OH2      OT      -0.834000       15.9994           0
     39515 W2       13172    TIP3     H1       HT       0.417000       1.00800           0
     39516 W2       13172    TIP3     H2       HT       0.417000       1.00800           0
     39517 W2       13173    TIP3     OH2      OT      -0.834000       15.9994           0
     39518 W2       13173    TIP3     H1       HT       0.417000       1.00800           0
     39519 W2       13173    TIP3     H2       HT       0.417000       1.00800           0
     39520 W2       13174    TIP3     OH2      OT      -0.834000       15.9994           0
     39521 W2       13174    TIP3     H1       HT       0.417000       1.00800           0
     39522 W2       13174    TIP3     H2       HT       0.417000       1.00800           0
     39523 W2       13175    TIP3     OH2      OT      -0.834000       15.9994           0
     39524 W2       13175    TIP3     H1       HT       0.417000       1.00800           0
     39525 W2       13175    TIP3     H2       HT       0.417000       1.00800           0
     39526 W2       13176    TIP3     OH2      OT      -0.834000       15.9994           0
     39527 W2       13176    TIP3     H1       HT       0.417000       1.00800           0
     39528 W2       13176    TIP3     H2       HT       0.417000       1.00800           0
     39529 W2       13177    TIP3     OH2      OT      -0.834000       15.9994           0
     39530 W2       13177    TIP3     H1       HT       0.417000       1.00800           0
     39531 W2       13177    TIP3     H2       HT       0.417000       1.00800           0
     39532 W2       13178    TIP3     OH2      OT      -0.834000       15.9994           0
     39533 W2       13178    TIP3     H1       HT       0.417000       1.00800           0
     39534 W2       13178    TIP3     H2       HT       0.417000       1.00800           0
     39535 W2       13179    TIP3     OH2      OT      -0.834000       15.9994           0
     39536 W2       13179    TIP3     H1       HT       0.417000       1.00800           0
     39537 W2       13179    TIP3     H2       HT       0.417000       1.00800           0
     39538 W2       13180    TIP3     OH2      OT      -0.834000       15.9994           0
     39539 W2       13180    TIP3     H1       HT       0.417000       1.00800           0
     39540 W2       13180    TIP3     H2       HT       0.417000       1.00800           0
     39541 W2       13181    TIP3     OH2      OT      -0.834000       15.9994           0
     39542 W2       13181    TIP3     H1       HT       0.417000       1.00800           0
     39543 W2       13181    TIP3     H2       HT       0.417000       1.00800           0
     39544 W2       13182    TIP3     OH2      OT      -0.834000       15.9994           0
     39545 W2       13182    TIP3     H1       HT       0.417000       1.00800           0
     39546 W2       13182    TIP3     H2       HT       0.417000       1.00800           0
     39547 W2       13183    TIP3     OH2      OT      -0.834000       15.9994           0
     39548 W2       13183    TIP3     H1       HT       0.417000       1.00800           0
     39549 W2       13183    TIP3     H2       HT       0.417000       1.00800           0
     39550 W2       13184    TIP3     OH2      OT      -0.834000       15.9994           0
     39551 W2       13184    TIP3     H1       HT       0.417000       1.00800           0
     39552 W2       13184    TIP3     H2       HT       0.417000       1.00800           0
     39553 W2       13185    TIP3     OH2      OT      -0.834000       15.9994           0
     39554 W2       13185    TIP3     H1       HT       0.417000       1.00800           0
     39555 W2       13185    TIP3     H2       HT       0.417000       1.00800           0
     39556 W2       13186    TIP3     OH2      OT      -0.834000       15.9994           0
     39557 W2       13186    TIP3     H1       HT       0.417000       1.00800           0
     39558 W2       13186    TIP3     H2       HT       0.417000       1.00800           0
     39559 W2       13187    TIP3     OH2      OT      -0.834000       15.9994           0
     39560 W2       13187    TIP3     H1       HT       0.417000       1.00800           0
     39561 W2       13187    TIP3     H2       HT       0.417000       1.00800           0
     39562 W2       13188    TIP3     OH2      OT      -0.834000       15.9994           0
     39563 W2       13188    TIP3     H1       HT       0.417000       1.00800           0
     39564 W2       13188    TIP3     H2       HT       0.417000       1.00800           0
     39565 W2       13189    TIP3     OH2      OT      -0.834000       15.9994           0
     39566 W2       13189    TIP3     H1       HT       0.417000       1.00800           0
     39567 W2       13189    TIP3     H2       HT       0.417000       1.00800           0
     39568 W2       13190    TIP3     OH2      OT      -0.834000       15.9994           0
     39569 W2       13190    TIP3     H1       HT       0.417000       1.00800           0
     39570 W2       13190    TIP3     H2       HT       0.417000       1.00800           0
     39571 W2       13191    TIP3     OH2      OT      -0.834000       15.9994           0
     39572 W2       13191    TIP3     H1       HT       0.417000       1.00800           0
     39573 W2       13191    TIP3     H2       HT       0.417000       1.00800           0
     39574 W2       13192    TIP3     OH2      OT      -0.834000       15.9994           0
     39575 W2       13192    TIP3     H1       HT       0.417000       1.00800           0
     39576 W2       13192    TIP3     H2       HT       0.417000       1.00800           0
     39577 W2       13193    TIP3     OH2      OT      -0.834000       15.9994           0
     39578 W2       13193    TIP3     H1       HT       0.417000       1.00800           0
     39579 W2       13193    TIP3     H2       HT       0.417000       1.00800           0
     39580 W2       13194    TIP3     OH2      OT      -0.834000       15.9994           0
     39581 W2       13194    TIP3     H1       HT       0.417000       1.00800           0
     39582 W2       13194    TIP3     H2       HT       0.417000       1.00800           0
     39583 W2       13195    TIP3     OH2      OT      -0.834000       15.9994           0
     39584 W2       13195    TIP3     H1       HT       0.417000       1.00800           0
     39585 W2       13195    TIP3     H2       HT       0.417000       1.00800           0
     39586 W2       13196    TIP3     OH2      OT      -0.834000       15.9994           0
     39587 W2       13196    TIP3     H1       HT       0.417000       1.00800           0
     39588 W2       13196    TIP3     H2       HT       0.417000       1.00800           0
     39589 W2       13197    TIP3     OH2      OT      -0.834000       15.9994           0
     39590 W2       13197    TIP3     H1       HT       0.417000       1.00800           0
     39591 W2       13197    TIP3     H2       HT       0.417000       1.00800           0
     39592 W2       13198    TIP3     OH2      OT      -0.834000       15.9994           0
     39593 W2       13198    TIP3     H1       HT       0.417000       1.00800           0
     39594 W2       13198    TIP3     H2       HT       0.417000       1.00800           0
     39595 W2       13199    TIP3     OH2      OT      -0.834000       15.9994           0
     39596 W2       13199    TIP3     H1       HT       0.417000       1.00800           0
     39597 W2       13199    TIP3     H2       HT       0.417000       1.00800           0
     39598 W2       13200    TIP3     OH2      OT      -0.834000       15.9994           0
     39599 W2       13200    TIP3     H1       HT       0.417000       1.00800           0
     39600 W2       13200    TIP3     H2       HT       0.417000       1.00800           0
     39601 W2       13201    TIP3     OH2      OT      -0.834000       15.9994           0
     39602 W2       13201    TIP3     H1       HT       0.417000       1.00800           0
     39603 W2       13201    TIP3     H2       HT       0.417000       1.00800           0
     39604 W2       13202    TIP3     OH2      OT      -0.834000       15.9994           0
     39605 W2       13202    TIP3     H1       HT       0.417000       1.00800           0
     39606 W2       13202    TIP3     H2       HT       0.417000       1.00800           0
     39607 W2       13203    TIP3     OH2      OT      -0.834000       15.9994           0
     39608 W2       13203    TIP3     H1       HT       0.417000       1.00800           0
     39609 W2       13203    TIP3     H2       HT       0.417000       1.00800           0
     39610 W2       13204    TIP3     OH2      OT      -0.834000       15.9994           0
     39611 W2       13204    TIP3     H1       HT       0.417000       1.00800           0
     39612 W2       13204    TIP3     H2       HT       0.417000       1.00800           0
     39613 W2       13205    TIP3     OH2      OT      -0.834000       15.9994           0
     39614 W2       13205    TIP3     H1       HT       0.417000       1.00800           0
     39615 W2       13205    TIP3     H2       HT       0.417000       1.00800           0
     39616 W2       13206    TIP3     OH2      OT      -0.834000       15.9994           0
     39617 W2       13206    TIP3     H1       HT       0.417000       1.00800           0
     39618 W2       13206    TIP3     H2       HT       0.417000       1.00800           0
     39619 W2       13207    TIP3     OH2      OT      -0.834000       15.9994           0
     39620 W2       13207    TIP3     H1       HT       0.417000       1.00800           0
     39621 W2       13207    TIP3     H2       HT       0.417000       1.00800           0
     39622 W2       13208    TIP3     OH2      OT      -0.834000       15.9994           0
     39623 W2       13208    TIP3     H1       HT       0.417000       1.00800           0
     39624 W2       13208    TIP3     H2       HT       0.417000       1.00800           0
     39625 W2       13209    TIP3     OH2      OT      -0.834000       15.9994           0
     39626 W2       13209    TIP3     H1       HT       0.417000       1.00800           0
     39627 W2       13209    TIP3     H2       HT       0.417000       1.00800           0
     39628 W2       13210    TIP3     OH2      OT      -0.834000       15.9994           0
     39629 W2       13210    TIP3     H1       HT       0.417000       1.00800           0
     39630 W2       13210    TIP3     H2       HT       0.417000       1.00800           0
     39631 W2       13211    TIP3     OH2      OT      -0.834000       15.9994           0
     39632 W2       13211    TIP3     H1       HT       0.417000       1.00800           0
     39633 W2       13211    TIP3     H2       HT       0.417000       1.00800           0
     39634 W2       13212    TIP3     OH2      OT      -0.834000       15.9994           0
     39635 W2       13212    TIP3     H1       HT       0.417000       1.00800           0
     39636 W2       13212    TIP3     H2       HT       0.417000       1.00800           0
     39637 W2       13213    TIP3     OH2      OT      -0.834000       15.9994           0
     39638 W2       13213    TIP3     H1       HT       0.417000       1.00800           0
     39639 W2       13213    TIP3     H2       HT       0.417000       1.00800           0
     39640 W2       13214    TIP3     OH2      OT      -0.834000       15.9994           0
     39641 W2       13214    TIP3     H1       HT       0.417000       1.00800           0
     39642 W2       13214    TIP3     H2       HT       0.417000       1.00800           0
     39643 W2       13215    TIP3     OH2      OT      -0.834000       15.9994           0
     39644 W2       13215    TIP3     H1       HT       0.417000       1.00800           0
     39645 W2       13215    TIP3     H2       HT       0.417000       1.00800           0
     39646 W2       13216    TIP3     OH2      OT      -0.834000       15.9994           0
     39647 W2       13216    TIP3     H1       HT       0.417000       1.00800           0
     39648 W2       13216    TIP3     H2       HT       0.417000       1.00800           0
     39649 W2       13217    TIP3     OH2      OT      -0.834000       15.9994           0
     39650 W2       13217    TIP3     H1       HT       0.417000       1.00800           0
     39651 W2       13217    TIP3     H2       HT       0.417000       1.00800           0
     39652 W2       13218    TIP3     OH2      OT      -0.834000       15.9994           0
     39653 W2       13218    TIP3     H1       HT       0.417000       1.00800           0
     39654 W2       13218    TIP3     H2       HT       0.417000       1.00800           0
     39655 W2       13219    TIP3     OH2      OT      -0.834000       15.9994           0
     39656 W2       13219    TIP3     H1       HT       0.417000       1.00800           0
     39657 W2       13219    TIP3     H2       HT       0.417000       1.00800           0
     39658 W2       13220    TIP3     OH2      OT      -0.834000       15.9994           0
     39659 W2       13220    TIP3     H1       HT       0.417000       1.00800           0
     39660 W2       13220    TIP3     H2       HT       0.417000       1.00800           0
     39661 W2       13221    TIP3     OH2      OT      -0.834000       15.9994           0
     39662 W2       13221    TIP3     H1       HT       0.417000       1.00800           0
     39663 W2       13221    TIP3     H2       HT       0.417000       1.00800           0
     39664 W2       13222    TIP3     OH2      OT      -0.834000       15.9994           0
     39665 W2       13222    TIP3     H1       HT       0.417000       1.00800           0
     39666 W2       13222    TIP3     H2       HT       0.417000       1.00800           0
     39667 W2       13223    TIP3     OH2      OT      -0.834000       15.9994           0
     39668 W2       13223    TIP3     H1       HT       0.417000       1.00800           0
     39669 W2       13223    TIP3     H2       HT       0.417000       1.00800           0
     39670 W2       13224    TIP3     OH2      OT      -0.834000       15.9994           0
     39671 W2       13224    TIP3     H1       HT       0.417000       1.00800           0
     39672 W2       13224    TIP3     H2       HT       0.417000       1.00800           0
     39673 W2       13225    TIP3     OH2      OT      -0.834000       15.9994           0
     39674 W2       13225    TIP3     H1       HT       0.417000       1.00800           0
     39675 W2       13225    TIP3     H2       HT       0.417000       1.00800           0
     39676 W2       13226    TIP3     OH2      OT      -0.834000       15.9994           0
     39677 W2       13226    TIP3     H1       HT       0.417000       1.00800           0
     39678 W2       13226    TIP3     H2       HT       0.417000       1.00800           0
     39679 W2       13227    TIP3     OH2      OT      -0.834000       15.9994           0
     39680 W2       13227    TIP3     H1       HT       0.417000       1.00800           0
     39681 W2       13227    TIP3     H2       HT       0.417000       1.00800           0
     39682 W2       13228    TIP3     OH2      OT      -0.834000       15.9994           0
     39683 W2       13228    TIP3     H1       HT       0.417000       1.00800           0
     39684 W2       13228    TIP3     H2       HT       0.417000       1.00800           0
     39685 W2       13229    TIP3     OH2      OT      -0.834000       15.9994           0
     39686 W2       13229    TIP3     H1       HT       0.417000       1.00800           0
     39687 W2       13229    TIP3     H2       HT       0.417000       1.00800           0
     39688 W2       13230    TIP3     OH2      OT      -0.834000       15.9994           0
     39689 W2       13230    TIP3     H1       HT       0.417000       1.00800           0
     39690 W2       13230    TIP3     H2       HT       0.417000       1.00800           0
     39691 W2       13231    TIP3     OH2      OT      -0.834000       15.9994           0
     39692 W2       13231    TIP3     H1       HT       0.417000       1.00800           0
     39693 W2       13231    TIP3     H2       HT       0.417000       1.00800           0
     39694 W2       13232    TIP3     OH2      OT      -0.834000       15.9994           0
     39695 W2       13232    TIP3     H1       HT       0.417000       1.00800           0
     39696 W2       13232    TIP3     H2       HT       0.417000       1.00800           0
     39697 W2       13233    TIP3     OH2      OT      -0.834000       15.9994           0
     39698 W2       13233    TIP3     H1       HT       0.417000       1.00800           0
     39699 W2       13233    TIP3     H2       HT       0.417000       1.00800           0
     39700 W2       13234    TIP3     OH2      OT      -0.834000       15.9994           0
     39701 W2       13234    TIP3     H1       HT       0.417000       1.00800           0
     39702 W2       13234    TIP3     H2       HT       0.417000       1.00800           0
     39703 W2       13235    TIP3     OH2      OT      -0.834000       15.9994           0
     39704 W2       13235    TIP3     H1       HT       0.417000       1.00800           0
     39705 W2       13235    TIP3     H2       HT       0.417000       1.00800           0
     39706 W2       13236    TIP3     OH2      OT      -0.834000       15.9994           0
     39707 W2       13236    TIP3     H1       HT       0.417000       1.00800           0
     39708 W2       13236    TIP3     H2       HT       0.417000       1.00800           0
     39709 W2       13237    TIP3     OH2      OT      -0.834000       15.9994           0
     39710 W2       13237    TIP3     H1       HT       0.417000       1.00800           0
     39711 W2       13237    TIP3     H2       HT       0.417000       1.00800           0
     39712 W2       13238    TIP3     OH2      OT      -0.834000       15.9994           0
     39713 W2       13238    TIP3     H1       HT       0.417000       1.00800           0
     39714 W2       13238    TIP3     H2       HT       0.417000       1.00800           0
     39715 W2       13239    TIP3     OH2      OT      -0.834000       15.9994           0
     39716 W2       13239    TIP3     H1       HT       0.417000       1.00800           0
     39717 W2       13239    TIP3     H2       HT       0.417000       1.00800           0
     39718 W2       13240    TIP3     OH2      OT      -0.834000       15.9994           0
     39719 W2       13240    TIP3     H1       HT       0.417000       1.00800           0
     39720 W2       13240    TIP3     H2       HT       0.417000       1.00800           0
     39721 W2       13241    TIP3     OH2      OT      -0.834000       15.9994           0
     39722 W2       13241    TIP3     H1       HT       0.417000       1.00800           0
     39723 W2       13241    TIP3     H2       HT       0.417000       1.00800           0
     39724 W2       13242    TIP3     OH2      OT      -0.834000       15.9994           0
     39725 W2       13242    TIP3     H1       HT       0.417000       1.00800           0
     39726 W2       13242    TIP3     H2       HT       0.417000       1.00800           0
     39727 W2       13243    TIP3     OH2      OT      -0.834000       15.9994           0
     39728 W2       13243    TIP3     H1       HT       0.417000       1.00800           0
     39729 W2       13243    TIP3     H2       HT       0.417000       1.00800           0
     39730 W2       13244    TIP3     OH2      OT      -0.834000       15.9994           0
     39731 W2       13244    TIP3     H1       HT       0.417000       1.00800           0
     39732 W2       13244    TIP3     H2       HT       0.417000       1.00800           0
     39733 W2       13245    TIP3     OH2      OT      -0.834000       15.9994           0
     39734 W2       13245    TIP3     H1       HT       0.417000       1.00800           0
     39735 W2       13245    TIP3     H2       HT       0.417000       1.00800           0
     39736 W2       13246    TIP3     OH2      OT      -0.834000       15.9994           0
     39737 W2       13246    TIP3     H1       HT       0.417000       1.00800           0
     39738 W2       13246    TIP3     H2       HT       0.417000       1.00800           0
     39739 W2       13247    TIP3     OH2      OT      -0.834000       15.9994           0
     39740 W2       13247    TIP3     H1       HT       0.417000       1.00800           0
     39741 W2       13247    TIP3     H2       HT       0.417000       1.00800           0
     39742 W2       13248    TIP3     OH2      OT      -0.834000       15.9994           0
     39743 W2       13248    TIP3     H1       HT       0.417000       1.00800           0
     39744 W2       13248    TIP3     H2       HT       0.417000       1.00800           0
     39745 W2       13249    TIP3     OH2      OT      -0.834000       15.9994           0
     39746 W2       13249    TIP3     H1       HT       0.417000       1.00800           0
     39747 W2       13249    TIP3     H2       HT       0.417000       1.00800           0
     39748 W2       13250    TIP3     OH2      OT      -0.834000       15.9994           0
     39749 W2       13250    TIP3     H1       HT       0.417000       1.00800           0
     39750 W2       13250    TIP3     H2       HT       0.417000       1.00800           0
     39751 W2       13251    TIP3     OH2      OT      -0.834000       15.9994           0
     39752 W2       13251    TIP3     H1       HT       0.417000       1.00800           0
     39753 W2       13251    TIP3     H2       HT       0.417000       1.00800           0
     39754 W2       13252    TIP3     OH2      OT      -0.834000       15.9994           0
     39755 W2       13252    TIP3     H1       HT       0.417000       1.00800           0
     39756 W2       13252    TIP3     H2       HT       0.417000       1.00800           0
     39757 W2       13253    TIP3     OH2      OT      -0.834000       15.9994           0
     39758 W2       13253    TIP3     H1       HT       0.417000       1.00800           0
     39759 W2       13253    TIP3     H2       HT       0.417000       1.00800           0
     39760 W2       13254    TIP3     OH2      OT      -0.834000       15.9994           0
     39761 W2       13254    TIP3     H1       HT       0.417000       1.00800           0
     39762 W2       13254    TIP3     H2       HT       0.417000       1.00800           0
     39763 W2       13255    TIP3     OH2      OT      -0.834000       15.9994           0
     39764 W2       13255    TIP3     H1       HT       0.417000       1.00800           0
     39765 W2       13255    TIP3     H2       HT       0.417000       1.00800           0
     39766 W2       13256    TIP3     OH2      OT      -0.834000       15.9994           0
     39767 W2       13256    TIP3     H1       HT       0.417000       1.00800           0
     39768 W2       13256    TIP3     H2       HT       0.417000       1.00800           0
     39769 W2       13257    TIP3     OH2      OT      -0.834000       15.9994           0
     39770 W2       13257    TIP3     H1       HT       0.417000       1.00800           0
     39771 W2       13257    TIP3     H2       HT       0.417000       1.00800           0
     39772 W2       13258    TIP3     OH2      OT      -0.834000       15.9994           0
     39773 W2       13258    TIP3     H1       HT       0.417000       1.00800           0
     39774 W2       13258    TIP3     H2       HT       0.417000       1.00800           0
     39775 W2       13259    TIP3     OH2      OT      -0.834000       15.9994           0
     39776 W2       13259    TIP3     H1       HT       0.417000       1.00800           0
     39777 W2       13259    TIP3     H2       HT       0.417000       1.00800           0
     39778 W2       13260    TIP3     OH2      OT      -0.834000       15.9994           0
     39779 W2       13260    TIP3     H1       HT       0.417000       1.00800           0
     39780 W2       13260    TIP3     H2       HT       0.417000       1.00800           0
     39781 W2       13261    TIP3     OH2      OT      -0.834000       15.9994           0
     39782 W2       13261    TIP3     H1       HT       0.417000       1.00800           0
     39783 W2       13261    TIP3     H2       HT       0.417000       1.00800           0
     39784 W2       13262    TIP3     OH2      OT      -0.834000       15.9994           0
     39785 W2       13262    TIP3     H1       HT       0.417000       1.00800           0
     39786 W2       13262    TIP3     H2       HT       0.417000       1.00800           0
     39787 W2       13263    TIP3     OH2      OT      -0.834000       15.9994           0
     39788 W2       13263    TIP3     H1       HT       0.417000       1.00800           0
     39789 W2       13263    TIP3     H2       HT       0.417000       1.00800           0
     39790 W2       13264    TIP3     OH2      OT      -0.834000       15.9994           0
     39791 W2       13264    TIP3     H1       HT       0.417000       1.00800           0
     39792 W2       13264    TIP3     H2       HT       0.417000       1.00800           0
     39793 W2       13265    TIP3     OH2      OT      -0.834000       15.9994           0
     39794 W2       13265    TIP3     H1       HT       0.417000       1.00800           0
     39795 W2       13265    TIP3     H2       HT       0.417000       1.00800           0
     39796 W2       13266    TIP3     OH2      OT      -0.834000       15.9994           0
     39797 W2       13266    TIP3     H1       HT       0.417000       1.00800           0
     39798 W2       13266    TIP3     H2       HT       0.417000       1.00800           0
     39799 W2       13267    TIP3     OH2      OT      -0.834000       15.9994           0
     39800 W2       13267    TIP3     H1       HT       0.417000       1.00800           0
     39801 W2       13267    TIP3     H2       HT       0.417000       1.00800           0
     39802 W2       13268    TIP3     OH2      OT      -0.834000       15.9994           0
     39803 W2       13268    TIP3     H1       HT       0.417000       1.00800           0
     39804 W2       13268    TIP3     H2       HT       0.417000       1.00800           0
     39805 W2       13269    TIP3     OH2      OT      -0.834000       15.9994           0
     39806 W2       13269    TIP3     H1       HT       0.417000       1.00800           0
     39807 W2       13269    TIP3     H2       HT       0.417000       1.00800           0
     39808 W2       13270    TIP3     OH2      OT      -0.834000       15.9994           0
     39809 W2       13270    TIP3     H1       HT       0.417000       1.00800           0
     39810 W2       13270    TIP3     H2       HT       0.417000       1.00800           0
     39811 W2       13271    TIP3     OH2      OT      -0.834000       15.9994           0
     39812 W2       13271    TIP3     H1       HT       0.417000       1.00800           0
     39813 W2       13271    TIP3     H2       HT       0.417000       1.00800           0
     39814 W2       13272    TIP3     OH2      OT      -0.834000       15.9994           0
     39815 W2       13272    TIP3     H1       HT       0.417000       1.00800           0
     39816 W2       13272    TIP3     H2       HT       0.417000       1.00800           0
     39817 W2       13273    TIP3     OH2      OT      -0.834000       15.9994           0
     39818 W2       13273    TIP3     H1       HT       0.417000       1.00800           0
     39819 W2       13273    TIP3     H2       HT       0.417000       1.00800           0
     39820 W2       13274    TIP3     OH2      OT      -0.834000       15.9994           0
     39821 W2       13274    TIP3     H1       HT       0.417000       1.00800           0
     39822 W2       13274    TIP3     H2       HT       0.417000       1.00800           0
     39823 W2       13275    TIP3     OH2      OT      -0.834000       15.9994           0
     39824 W2       13275    TIP3     H1       HT       0.417000       1.00800           0
     39825 W2       13275    TIP3     H2       HT       0.417000       1.00800           0
     39826 W2       13276    TIP3     OH2      OT      -0.834000       15.9994           0
     39827 W2       13276    TIP3     H1       HT       0.417000       1.00800           0
     39828 W2       13276    TIP3     H2       HT       0.417000       1.00800           0
     39829 W2       13277    TIP3     OH2      OT      -0.834000       15.9994           0
     39830 W2       13277    TIP3     H1       HT       0.417000       1.00800           0
     39831 W2       13277    TIP3     H2       HT       0.417000       1.00800           0
     39832 W2       13278    TIP3     OH2      OT      -0.834000       15.9994           0
     39833 W2       13278    TIP3     H1       HT       0.417000       1.00800           0
     39834 W2       13278    TIP3     H2       HT       0.417000       1.00800           0
     39835 W2       13279    TIP3     OH2      OT      -0.834000       15.9994           0
     39836 W2       13279    TIP3     H1       HT       0.417000       1.00800           0
     39837 W2       13279    TIP3     H2       HT       0.417000       1.00800           0
     39838 W2       13280    TIP3     OH2      OT      -0.834000       15.9994           0
     39839 W2       13280    TIP3     H1       HT       0.417000       1.00800           0
     39840 W2       13280    TIP3     H2       HT       0.417000       1.00800           0
     39841 W2       13281    TIP3     OH2      OT      -0.834000       15.9994           0
     39842 W2       13281    TIP3     H1       HT       0.417000       1.00800           0
     39843 W2       13281    TIP3     H2       HT       0.417000       1.00800           0
     39844 W2       13282    TIP3     OH2      OT      -0.834000       15.9994           0
     39845 W2       13282    TIP3     H1       HT       0.417000       1.00800           0
     39846 W2       13282    TIP3     H2       HT       0.417000       1.00800           0
     39847 W2       13283    TIP3     OH2      OT      -0.834000       15.9994           0
     39848 W2       13283    TIP3     H1       HT       0.417000       1.00800           0
     39849 W2       13283    TIP3     H2       HT       0.417000       1.00800           0
     39850 W2       13284    TIP3     OH2      OT      -0.834000       15.9994           0
     39851 W2       13284    TIP3     H1       HT       0.417000       1.00800           0
     39852 W2       13284    TIP3     H2       HT       0.417000       1.00800           0
     39853 W2       13285    TIP3     OH2      OT      -0.834000       15.9994           0
     39854 W2       13285    TIP3     H1       HT       0.417000       1.00800           0
     39855 W2       13285    TIP3     H2       HT       0.417000       1.00800           0
     39856 W2       13286    TIP3     OH2      OT      -0.834000       15.9994           0
     39857 W2       13286    TIP3     H1       HT       0.417000       1.00800           0
     39858 W2       13286    TIP3     H2       HT       0.417000       1.00800           0
     39859 W2       13287    TIP3     OH2      OT      -0.834000       15.9994           0
     39860 W2       13287    TIP3     H1       HT       0.417000       1.00800           0
     39861 W2       13287    TIP3     H2       HT       0.417000       1.00800           0
     39862 W2       13288    TIP3     OH2      OT      -0.834000       15.9994           0
     39863 W2       13288    TIP3     H1       HT       0.417000       1.00800           0
     39864 W2       13288    TIP3     H2       HT       0.417000       1.00800           0
     39865 W2       13289    TIP3     OH2      OT      -0.834000       15.9994           0
     39866 W2       13289    TIP3     H1       HT       0.417000       1.00800           0
     39867 W2       13289    TIP3     H2       HT       0.417000       1.00800           0
     39868 W2       13290    TIP3     OH2      OT      -0.834000       15.9994           0
     39869 W2       13290    TIP3     H1       HT       0.417000       1.00800           0
     39870 W2       13290    TIP3     H2       HT       0.417000       1.00800           0
     39871 W2       13291    TIP3     OH2      OT      -0.834000       15.9994           0
     39872 W2       13291    TIP3     H1       HT       0.417000       1.00800           0
     39873 W2       13291    TIP3     H2       HT       0.417000       1.00800           0
     39874 W2       13292    TIP3     OH2      OT      -0.834000       15.9994           0
     39875 W2       13292    TIP3     H1       HT       0.417000       1.00800           0
     39876 W2       13292    TIP3     H2       HT       0.417000       1.00800           0
     39877 W2       13293    TIP3     OH2      OT      -0.834000       15.9994           0
     39878 W2       13293    TIP3     H1       HT       0.417000       1.00800           0
     39879 W2       13293    TIP3     H2       HT       0.417000       1.00800           0
     39880 W2       13294    TIP3     OH2      OT      -0.834000       15.9994           0
     39881 W2       13294    TIP3     H1       HT       0.417000       1.00800           0
     39882 W2       13294    TIP3     H2       HT       0.417000       1.00800           0
     39883 W2       13295    TIP3     OH2      OT      -0.834000       15.9994           0
     39884 W2       13295    TIP3     H1       HT       0.417000       1.00800           0
     39885 W2       13295    TIP3     H2       HT       0.417000       1.00800           0
     39886 W2       13296    TIP3     OH2      OT      -0.834000       15.9994           0
     39887 W2       13296    TIP3     H1       HT       0.417000       1.00800           0
     39888 W2       13296    TIP3     H2       HT       0.417000       1.00800           0
     39889 W2       13297    TIP3     OH2      OT      -0.834000       15.9994           0
     39890 W2       13297    TIP3     H1       HT       0.417000       1.00800           0
     39891 W2       13297    TIP3     H2       HT       0.417000       1.00800           0
     39892 W2       13298    TIP3     OH2      OT      -0.834000       15.9994           0
     39893 W2       13298    TIP3     H1       HT       0.417000       1.00800           0
     39894 W2       13298    TIP3     H2       HT       0.417000       1.00800           0
     39895 W2       13299    TIP3     OH2      OT      -0.834000       15.9994           0
     39896 W2       13299    TIP3     H1       HT       0.417000       1.00800           0
     39897 W2       13299    TIP3     H2       HT       0.417000       1.00800           0
     39898 W2       13300    TIP3     OH2      OT      -0.834000       15.9994           0
     39899 W2       13300    TIP3     H1       HT       0.417000       1.00800           0
     39900 W2       13300    TIP3     H2       HT       0.417000       1.00800           0
     39901 W2       13301    TIP3     OH2      OT      -0.834000       15.9994           0
     39902 W2       13301    TIP3     H1       HT       0.417000       1.00800           0
     39903 W2       13301    TIP3     H2       HT       0.417000       1.00800           0
     39904 W2       13302    TIP3     OH2      OT      -0.834000       15.9994           0
     39905 W2       13302    TIP3     H1       HT       0.417000       1.00800           0
     39906 W2       13302    TIP3     H2       HT       0.417000       1.00800           0
     39907 W2       13303    TIP3     OH2      OT      -0.834000       15.9994           0
     39908 W2       13303    TIP3     H1       HT       0.417000       1.00800           0
     39909 W2       13303    TIP3     H2       HT       0.417000       1.00800           0
     39910 W2       13304    TIP3     OH2      OT      -0.834000       15.9994           0
     39911 W2       13304    TIP3     H1       HT       0.417000       1.00800           0
     39912 W2       13304    TIP3     H2       HT       0.417000       1.00800           0
     39913 W2       13305    TIP3     OH2      OT      -0.834000       15.9994           0
     39914 W2       13305    TIP3     H1       HT       0.417000       1.00800           0
     39915 W2       13305    TIP3     H2       HT       0.417000       1.00800           0
     39916 W2       13306    TIP3     OH2      OT      -0.834000       15.9994           0
     39917 W2       13306    TIP3     H1       HT       0.417000       1.00800           0
     39918 W2       13306    TIP3     H2       HT       0.417000       1.00800           0
     39919 W2       13307    TIP3     OH2      OT      -0.834000       15.9994           0
     39920 W2       13307    TIP3     H1       HT       0.417000       1.00800           0
     39921 W2       13307    TIP3     H2       HT       0.417000       1.00800           0
     39922 W2       13308    TIP3     OH2      OT      -0.834000       15.9994           0
     39923 W2       13308    TIP3     H1       HT       0.417000       1.00800           0
     39924 W2       13308    TIP3     H2       HT       0.417000       1.00800           0
     39925 W2       13309    TIP3     OH2      OT      -0.834000       15.9994           0
     39926 W2       13309    TIP3     H1       HT       0.417000       1.00800           0
     39927 W2       13309    TIP3     H2       HT       0.417000       1.00800           0
     39928 W2       13310    TIP3     OH2      OT      -0.834000       15.9994           0
     39929 W2       13310    TIP3     H1       HT       0.417000       1.00800           0
     39930 W2       13310    TIP3     H2       HT       0.417000       1.00800           0
     39931 W2       13311    TIP3     OH2      OT      -0.834000       15.9994           0
     39932 W2       13311    TIP3     H1       HT       0.417000       1.00800           0
     39933 W2       13311    TIP3     H2       HT       0.417000       1.00800           0
     39934 W2       13312    TIP3     OH2      OT      -0.834000       15.9994           0
     39935 W2       13312    TIP3     H1       HT       0.417000       1.00800           0
     39936 W2       13312    TIP3     H2       HT       0.417000       1.00800           0
     39937 W2       13313    TIP3     OH2      OT      -0.834000       15.9994           0
     39938 W2       13313    TIP3     H1       HT       0.417000       1.00800           0
     39939 W2       13313    TIP3     H2       HT       0.417000       1.00800           0
     39940 W2       13314    TIP3     OH2      OT      -0.834000       15.9994           0
     39941 W2       13314    TIP3     H1       HT       0.417000       1.00800           0
     39942 W2       13314    TIP3     H2       HT       0.417000       1.00800           0
     39943 W2       13315    TIP3     OH2      OT      -0.834000       15.9994           0
     39944 W2       13315    TIP3     H1       HT       0.417000       1.00800           0
     39945 W2       13315    TIP3     H2       HT       0.417000       1.00800           0
     39946 W2       13316    TIP3     OH2      OT      -0.834000       15.9994           0
     39947 W2       13316    TIP3     H1       HT       0.417000       1.00800           0
     39948 W2       13316    TIP3     H2       HT       0.417000       1.00800           0
     39949 W2       13317    TIP3     OH2      OT      -0.834000       15.9994           0
     39950 W2       13317    TIP3     H1       HT       0.417000       1.00800           0
     39951 W2       13317    TIP3     H2       HT       0.417000       1.00800           0
     39952 W2       13318    TIP3     OH2      OT      -0.834000       15.9994           0
     39953 W2       13318    TIP3     H1       HT       0.417000       1.00800           0
     39954 W2       13318    TIP3     H2       HT       0.417000       1.00800           0
     39955 W2       13319    TIP3     OH2      OT      -0.834000       15.9994           0
     39956 W2       13319    TIP3     H1       HT       0.417000       1.00800           0
     39957 W2       13319    TIP3     H2       HT       0.417000       1.00800           0
     39958 W2       13320    TIP3     OH2      OT      -0.834000       15.9994           0
     39959 W2       13320    TIP3     H1       HT       0.417000       1.00800           0
     39960 W2       13320    TIP3     H2       HT       0.417000       1.00800           0
     39961 W2       13321    TIP3     OH2      OT      -0.834000       15.9994           0
     39962 W2       13321    TIP3     H1       HT       0.417000       1.00800           0
     39963 W2       13321    TIP3     H2       HT       0.417000       1.00800           0
     39964 W2       13322    TIP3     OH2      OT      -0.834000       15.9994           0
     39965 W2       13322    TIP3     H1       HT       0.417000       1.00800           0
     39966 W2       13322    TIP3     H2       HT       0.417000       1.00800           0
     39967 W2       13323    TIP3     OH2      OT      -0.834000       15.9994           0
     39968 W2       13323    TIP3     H1       HT       0.417000       1.00800           0
     39969 W2       13323    TIP3     H2       HT       0.417000       1.00800           0
     39970 W2       13324    TIP3     OH2      OT      -0.834000       15.9994           0
     39971 W2       13324    TIP3     H1       HT       0.417000       1.00800           0
     39972 W2       13324    TIP3     H2       HT       0.417000       1.00800           0
     39973 W2       13325    TIP3     OH2      OT      -0.834000       15.9994           0
     39974 W2       13325    TIP3     H1       HT       0.417000       1.00800           0
     39975 W2       13325    TIP3     H2       HT       0.417000       1.00800           0
     39976 W2       13326    TIP3     OH2      OT      -0.834000       15.9994           0
     39977 W2       13326    TIP3     H1       HT       0.417000       1.00800           0
     39978 W2       13326    TIP3     H2       HT       0.417000       1.00800           0
     39979 W2       13327    TIP3     OH2      OT      -0.834000       15.9994           0
     39980 W2       13327    TIP3     H1       HT       0.417000       1.00800           0
     39981 W2       13327    TIP3     H2       HT       0.417000       1.00800           0
     39982 W2       13328    TIP3     OH2      OT      -0.834000       15.9994           0
     39983 W2       13328    TIP3     H1       HT       0.417000       1.00800           0
     39984 W2       13328    TIP3     H2       HT       0.417000       1.00800           0
     39985 W2       13329    TIP3     OH2      OT      -0.834000       15.9994           0
     39986 W2       13329    TIP3     H1       HT       0.417000       1.00800           0
     39987 W2       13329    TIP3     H2       HT       0.417000       1.00800           0
     39988 W2       13330    TIP3     OH2      OT      -0.834000       15.9994           0
     39989 W2       13330    TIP3     H1       HT       0.417000       1.00800           0
     39990 W2       13330    TIP3     H2       HT       0.417000       1.00800           0
     39991 W2       13331    TIP3     OH2      OT      -0.834000       15.9994           0
     39992 W2       13331    TIP3     H1       HT       0.417000       1.00800           0
     39993 W2       13331    TIP3     H2       HT       0.417000       1.00800           0
     39994 W2       13332    TIP3     OH2      OT      -0.834000       15.9994           0
     39995 W2       13332    TIP3     H1       HT       0.417000       1.00800           0
     39996 W2       13332    TIP3     H2       HT       0.417000       1.00800           0
     39997 W2       13333    TIP3     OH2      OT      -0.834000       15.9994           0
     39998 W2       13333    TIP3     H1       HT       0.417000       1.00800           0
     39999 W2       13333    TIP3     H2       HT       0.417000       1.00800           0
     40000 W2       13334    TIP3     OH2      OT      -0.834000       15.9994           0
     40001 W2       13334    TIP3     H1       HT       0.417000       1.00800           0
     40002 W2       13334    TIP3     H2       HT       0.417000       1.00800           0
     40003 W2       13335    TIP3     OH2      OT      -0.834000       15.9994           0
     40004 W2       13335    TIP3     H1       HT       0.417000       1.00800           0
     40005 W2       13335    TIP3     H2       HT       0.417000       1.00800           0
     40006 W2       13336    TIP3     OH2      OT      -0.834000       15.9994           0
     40007 W2       13336    TIP3     H1       HT       0.417000       1.00800           0
     40008 W2       13336    TIP3     H2       HT       0.417000       1.00800           0
     40009 W2       13337    TIP3     OH2      OT      -0.834000       15.9994           0
     40010 W2       13337    TIP3     H1       HT       0.417000       1.00800           0
     40011 W2       13337    TIP3     H2       HT       0.417000       1.00800           0
     40012 W2       13338    TIP3     OH2      OT      -0.834000       15.9994           0
     40013 W2       13338    TIP3     H1       HT       0.417000       1.00800           0
     40014 W2       13338    TIP3     H2       HT       0.417000       1.00800           0
     40015 W2       13339    TIP3     OH2      OT      -0.834000       15.9994           0
     40016 W2       13339    TIP3     H1       HT       0.417000       1.00800           0
     40017 W2       13339    TIP3     H2       HT       0.417000       1.00800           0
     40018 W2       13340    TIP3     OH2      OT      -0.834000       15.9994           0
     40019 W2       13340    TIP3     H1       HT       0.417000       1.00800           0
     40020 W2       13340    TIP3     H2       HT       0.417000       1.00800           0
     40021 W2       13341    TIP3     OH2      OT      -0.834000       15.9994           0
     40022 W2       13341    TIP3     H1       HT       0.417000       1.00800           0
     40023 W2       13341    TIP3     H2       HT       0.417000       1.00800           0
     40024 W2       13342    TIP3     OH2      OT      -0.834000       15.9994           0
     40025 W2       13342    TIP3     H1       HT       0.417000       1.00800           0
     40026 W2       13342    TIP3     H2       HT       0.417000       1.00800           0
     40027 W2       13343    TIP3     OH2      OT      -0.834000       15.9994           0
     40028 W2       13343    TIP3     H1       HT       0.417000       1.00800           0
     40029 W2       13343    TIP3     H2       HT       0.417000       1.00800           0
     40030 W2       13344    TIP3     OH2      OT      -0.834000       15.9994           0
     40031 W2       13344    TIP3     H1       HT       0.417000       1.00800           0
     40032 W2       13344    TIP3     H2       HT       0.417000       1.00800           0
     40033 W2       13345    TIP3     OH2      OT      -0.834000       15.9994           0
     40034 W2       13345    TIP3     H1       HT       0.417000       1.00800           0
     40035 W2       13345    TIP3     H2       HT       0.417000       1.00800           0
     40036 W2       13346    TIP3     OH2      OT      -0.834000       15.9994           0
     40037 W2       13346    TIP3     H1       HT       0.417000       1.00800           0
     40038 W2       13346    TIP3     H2       HT       0.417000       1.00800           0
     40039 W2       13347    TIP3     OH2      OT      -0.834000       15.9994           0
     40040 W2       13347    TIP3     H1       HT       0.417000       1.00800           0
     40041 W2       13347    TIP3     H2       HT       0.417000       1.00800           0
     40042 W2       13348    TIP3     OH2      OT      -0.834000       15.9994           0
     40043 W2       13348    TIP3     H1       HT       0.417000       1.00800           0
     40044 W2       13348    TIP3     H2       HT       0.417000       1.00800           0
     40045 W2       13349    TIP3     OH2      OT      -0.834000       15.9994           0
     40046 W2       13349    TIP3     H1       HT       0.417000       1.00800           0
     40047 W2       13349    TIP3     H2       HT       0.417000       1.00800           0
     40048 W2       13350    TIP3     OH2      OT      -0.834000       15.9994           0
     40049 W2       13350    TIP3     H1       HT       0.417000       1.00800           0
     40050 W2       13350    TIP3     H2       HT       0.417000       1.00800           0
     40051 W2       13351    TIP3     OH2      OT      -0.834000       15.9994           0
     40052 W2       13351    TIP3     H1       HT       0.417000       1.00800           0
     40053 W2       13351    TIP3     H2       HT       0.417000       1.00800           0
     40054 W2       13352    TIP3     OH2      OT      -0.834000       15.9994           0
     40055 W2       13352    TIP3     H1       HT       0.417000       1.00800           0
     40056 W2       13352    TIP3     H2       HT       0.417000       1.00800           0
     40057 W2       13353    TIP3     OH2      OT      -0.834000       15.9994           0
     40058 W2       13353    TIP3     H1       HT       0.417000       1.00800           0
     40059 W2       13353    TIP3     H2       HT       0.417000       1.00800           0
     40060 W2       13354    TIP3     OH2      OT      -0.834000       15.9994           0
     40061 W2       13354    TIP3     H1       HT       0.417000       1.00800           0
     40062 W2       13354    TIP3     H2       HT       0.417000       1.00800           0
     40063 W2       13355    TIP3     OH2      OT      -0.834000       15.9994           0
     40064 W2       13355    TIP3     H1       HT       0.417000       1.00800           0
     40065 W2       13355    TIP3     H2       HT       0.417000       1.00800           0
     40066 W2       13356    TIP3     OH2      OT      -0.834000       15.9994           0
     40067 W2       13356    TIP3     H1       HT       0.417000       1.00800           0
     40068 W2       13356    TIP3     H2       HT       0.417000       1.00800           0
     40069 W2       13357    TIP3     OH2      OT      -0.834000       15.9994           0
     40070 W2       13357    TIP3     H1       HT       0.417000       1.00800           0
     40071 W2       13357    TIP3     H2       HT       0.417000       1.00800           0
     40072 W2       13358    TIP3     OH2      OT      -0.834000       15.9994           0
     40073 W2       13358    TIP3     H1       HT       0.417000       1.00800           0
     40074 W2       13358    TIP3     H2       HT       0.417000       1.00800           0
     40075 W2       13359    TIP3     OH2      OT      -0.834000       15.9994           0
     40076 W2       13359    TIP3     H1       HT       0.417000       1.00800           0
     40077 W2       13359    TIP3     H2       HT       0.417000       1.00800           0
     40078 W2       13360    TIP3     OH2      OT      -0.834000       15.9994           0
     40079 W2       13360    TIP3     H1       HT       0.417000       1.00800           0
     40080 W2       13360    TIP3     H2       HT       0.417000       1.00800           0
     40081 W2       13361    TIP3     OH2      OT      -0.834000       15.9994           0
     40082 W2       13361    TIP3     H1       HT       0.417000       1.00800           0
     40083 W2       13361    TIP3     H2       HT       0.417000       1.00800           0
     40084 W2       13362    TIP3     OH2      OT      -0.834000       15.9994           0
     40085 W2       13362    TIP3     H1       HT       0.417000       1.00800           0
     40086 W2       13362    TIP3     H2       HT       0.417000       1.00800           0
     40087 W2       13363    TIP3     OH2      OT      -0.834000       15.9994           0
     40088 W2       13363    TIP3     H1       HT       0.417000       1.00800           0
     40089 W2       13363    TIP3     H2       HT       0.417000       1.00800           0
     40090 W2       13364    TIP3     OH2      OT      -0.834000       15.9994           0
     40091 W2       13364    TIP3     H1       HT       0.417000       1.00800           0
     40092 W2       13364    TIP3     H2       HT       0.417000       1.00800           0
     40093 W2       13365    TIP3     OH2      OT      -0.834000       15.9994           0
     40094 W2       13365    TIP3     H1       HT       0.417000       1.00800           0
     40095 W2       13365    TIP3     H2       HT       0.417000       1.00800           0
     40096 W2       13366    TIP3     OH2      OT      -0.834000       15.9994           0
     40097 W2       13366    TIP3     H1       HT       0.417000       1.00800           0
     40098 W2       13366    TIP3     H2       HT       0.417000       1.00800           0
     40099 W2       13367    TIP3     OH2      OT      -0.834000       15.9994           0
     40100 W2       13367    TIP3     H1       HT       0.417000       1.00800           0
     40101 W2       13367    TIP3     H2       HT       0.417000       1.00800           0
     40102 W2       13368    TIP3     OH2      OT      -0.834000       15.9994           0
     40103 W2       13368    TIP3     H1       HT       0.417000       1.00800           0
     40104 W2       13368    TIP3     H2       HT       0.417000       1.00800           0
     40105 W2       13369    TIP3     OH2      OT      -0.834000       15.9994           0
     40106 W2       13369    TIP3     H1       HT       0.417000       1.00800           0
     40107 W2       13369    TIP3     H2       HT       0.417000       1.00800           0
     40108 W2       13370    TIP3     OH2      OT      -0.834000       15.9994           0
     40109 W2       13370    TIP3     H1       HT       0.417000       1.00800           0
     40110 W2       13370    TIP3     H2       HT       0.417000       1.00800           0
     40111 W2       13371    TIP3     OH2      OT      -0.834000       15.9994           0
     40112 W2       13371    TIP3     H1       HT       0.417000       1.00800           0
     40113 W2       13371    TIP3     H2       HT       0.417000       1.00800           0
     40114 W2       13372    TIP3     OH2      OT      -0.834000       15.9994           0
     40115 W2       13372    TIP3     H1       HT       0.417000       1.00800           0
     40116 W2       13372    TIP3     H2       HT       0.417000       1.00800           0
     40117 W2       13373    TIP3     OH2      OT      -0.834000       15.9994           0
     40118 W2       13373    TIP3     H1       HT       0.417000       1.00800           0
     40119 W2       13373    TIP3     H2       HT       0.417000       1.00800           0
     40120 W2       13374    TIP3     OH2      OT      -0.834000       15.9994           0
     40121 W2       13374    TIP3     H1       HT       0.417000       1.00800           0
     40122 W2       13374    TIP3     H2       HT       0.417000       1.00800           0
     40123 W2       13375    TIP3     OH2      OT      -0.834000       15.9994           0
     40124 W2       13375    TIP3     H1       HT       0.417000       1.00800           0
     40125 W2       13375    TIP3     H2       HT       0.417000       1.00800           0
     40126 W2       13376    TIP3     OH2      OT      -0.834000       15.9994           0
     40127 W2       13376    TIP3     H1       HT       0.417000       1.00800           0
     40128 W2       13376    TIP3     H2       HT       0.417000       1.00800           0
     40129 W2       13377    TIP3     OH2      OT      -0.834000       15.9994           0
     40130 W2       13377    TIP3     H1       HT       0.417000       1.00800           0
     40131 W2       13377    TIP3     H2       HT       0.417000       1.00800           0
     40132 W2       13378    TIP3     OH2      OT      -0.834000       15.9994           0
     40133 W2       13378    TIP3     H1       HT       0.417000       1.00800           0
     40134 W2       13378    TIP3     H2       HT       0.417000       1.00800           0
     40135 W2       13379    TIP3     OH2      OT      -0.834000       15.9994           0
     40136 W2       13379    TIP3     H1       HT       0.417000       1.00800           0
     40137 W2       13379    TIP3     H2       HT       0.417000       1.00800           0
     40138 W2       13380    TIP3     OH2      OT      -0.834000       15.9994           0
     40139 W2       13380    TIP3     H1       HT       0.417000       1.00800           0
     40140 W2       13380    TIP3     H2       HT       0.417000       1.00800           0
     40141 W2       13381    TIP3     OH2      OT      -0.834000       15.9994           0
     40142 W2       13381    TIP3     H1       HT       0.417000       1.00800           0
     40143 W2       13381    TIP3     H2       HT       0.417000       1.00800           0
     40144 W2       13382    TIP3     OH2      OT      -0.834000       15.9994           0
     40145 W2       13382    TIP3     H1       HT       0.417000       1.00800           0
     40146 W2       13382    TIP3     H2       HT       0.417000       1.00800           0
     40147 W2       13383    TIP3     OH2      OT      -0.834000       15.9994           0
     40148 W2       13383    TIP3     H1       HT       0.417000       1.00800           0
     40149 W2       13383    TIP3     H2       HT       0.417000       1.00800           0
     40150 W2       13384    TIP3     OH2      OT      -0.834000       15.9994           0
     40151 W2       13384    TIP3     H1       HT       0.417000       1.00800           0
     40152 W2       13384    TIP3     H2       HT       0.417000       1.00800           0
     40153 W2       13385    TIP3     OH2      OT      -0.834000       15.9994           0
     40154 W2       13385    TIP3     H1       HT       0.417000       1.00800           0
     40155 W2       13385    TIP3     H2       HT       0.417000       1.00800           0
     40156 W2       13386    TIP3     OH2      OT      -0.834000       15.9994           0
     40157 W2       13386    TIP3     H1       HT       0.417000       1.00800           0
     40158 W2       13386    TIP3     H2       HT       0.417000       1.00800           0
     40159 W2       13387    TIP3     OH2      OT      -0.834000       15.9994           0
     40160 W2       13387    TIP3     H1       HT       0.417000       1.00800           0
     40161 W2       13387    TIP3     H2       HT       0.417000       1.00800           0
     40162 W2       13388    TIP3     OH2      OT      -0.834000       15.9994           0
     40163 W2       13388    TIP3     H1       HT       0.417000       1.00800           0
     40164 W2       13388    TIP3     H2       HT       0.417000       1.00800           0
     40165 W2       13389    TIP3     OH2      OT      -0.834000       15.9994           0
     40166 W2       13389    TIP3     H1       HT       0.417000       1.00800           0
     40167 W2       13389    TIP3     H2       HT       0.417000       1.00800           0
     40168 W2       13390    TIP3     OH2      OT      -0.834000       15.9994           0
     40169 W2       13390    TIP3     H1       HT       0.417000       1.00800           0
     40170 W2       13390    TIP3     H2       HT       0.417000       1.00800           0
     40171 W2       13391    TIP3     OH2      OT      -0.834000       15.9994           0
     40172 W2       13391    TIP3     H1       HT       0.417000       1.00800           0
     40173 W2       13391    TIP3     H2       HT       0.417000       1.00800           0
     40174 W2       13392    TIP3     OH2      OT      -0.834000       15.9994           0
     40175 W2       13392    TIP3     H1       HT       0.417000       1.00800           0
     40176 W2       13392    TIP3     H2       HT       0.417000       1.00800           0
     40177 W2       13393    TIP3     OH2      OT      -0.834000       15.9994           0
     40178 W2       13393    TIP3     H1       HT       0.417000       1.00800           0
     40179 W2       13393    TIP3     H2       HT       0.417000       1.00800           0
     40180 W2       13394    TIP3     OH2      OT      -0.834000       15.9994           0
     40181 W2       13394    TIP3     H1       HT       0.417000       1.00800           0
     40182 W2       13394    TIP3     H2       HT       0.417000       1.00800           0
     40183 W2       13395    TIP3     OH2      OT      -0.834000       15.9994           0
     40184 W2       13395    TIP3     H1       HT       0.417000       1.00800           0
     40185 W2       13395    TIP3     H2       HT       0.417000       1.00800           0
     40186 W2       13396    TIP3     OH2      OT      -0.834000       15.9994           0
     40187 W2       13396    TIP3     H1       HT       0.417000       1.00800           0
     40188 W2       13396    TIP3     H2       HT       0.417000       1.00800           0
     40189 W2       13397    TIP3     OH2      OT      -0.834000       15.9994           0
     40190 W2       13397    TIP3     H1       HT       0.417000       1.00800           0
     40191 W2       13397    TIP3     H2       HT       0.417000       1.00800           0
     40192 W2       13398    TIP3     OH2      OT      -0.834000       15.9994           0
     40193 W2       13398    TIP3     H1       HT       0.417000       1.00800           0
     40194 W2       13398    TIP3     H2       HT       0.417000       1.00800           0
     40195 W2       13399    TIP3     OH2      OT      -0.834000       15.9994           0
     40196 W2       13399    TIP3     H1       HT       0.417000       1.00800           0
     40197 W2       13399    TIP3     H2       HT       0.417000       1.00800           0
     40198 W2       13400    TIP3     OH2      OT      -0.834000       15.9994           0
     40199 W2       13400    TIP3     H1       HT       0.417000       1.00800           0
     40200 W2       13400    TIP3     H2       HT       0.417000       1.00800           0
     40201 W2       13401    TIP3     OH2      OT      -0.834000       15.9994           0
     40202 W2       13401    TIP3     H1       HT       0.417000       1.00800           0
     40203 W2       13401    TIP3     H2       HT       0.417000       1.00800           0
     40204 W2       13402    TIP3     OH2      OT      -0.834000       15.9994           0
     40205 W2       13402    TIP3     H1       HT       0.417000       1.00800           0
     40206 W2       13402    TIP3     H2       HT       0.417000       1.00800           0
     40207 W2       13403    TIP3     OH2      OT      -0.834000       15.9994           0
     40208 W2       13403    TIP3     H1       HT       0.417000       1.00800           0
     40209 W2       13403    TIP3     H2       HT       0.417000       1.00800           0
     40210 W2       13404    TIP3     OH2      OT      -0.834000       15.9994           0
     40211 W2       13404    TIP3     H1       HT       0.417000       1.00800           0
     40212 W2       13404    TIP3     H2       HT       0.417000       1.00800           0
     40213 W2       13405    TIP3     OH2      OT      -0.834000       15.9994           0
     40214 W2       13405    TIP3     H1       HT       0.417000       1.00800           0
     40215 W2       13405    TIP3     H2       HT       0.417000       1.00800           0
     40216 W2       13406    TIP3     OH2      OT      -0.834000       15.9994           0
     40217 W2       13406    TIP3     H1       HT       0.417000       1.00800           0
     40218 W2       13406    TIP3     H2       HT       0.417000       1.00800           0
     40219 W2       13407    TIP3     OH2      OT      -0.834000       15.9994           0
     40220 W2       13407    TIP3     H1       HT       0.417000       1.00800           0
     40221 W2       13407    TIP3     H2       HT       0.417000       1.00800           0
     40222 W2       13408    TIP3     OH2      OT      -0.834000       15.9994           0
     40223 W2       13408    TIP3     H1       HT       0.417000       1.00800           0
     40224 W2       13408    TIP3     H2       HT       0.417000       1.00800           0
     40225 W2       13409    TIP3     OH2      OT      -0.834000       15.9994           0
     40226 W2       13409    TIP3     H1       HT       0.417000       1.00800           0
     40227 W2       13409    TIP3     H2       HT       0.417000       1.00800           0
     40228 W2       13410    TIP3     OH2      OT      -0.834000       15.9994           0
     40229 W2       13410    TIP3     H1       HT       0.417000       1.00800           0
     40230 W2       13410    TIP3     H2       HT       0.417000       1.00800           0
     40231 W2       13411    TIP3     OH2      OT      -0.834000       15.9994           0
     40232 W2       13411    TIP3     H1       HT       0.417000       1.00800           0
     40233 W2       13411    TIP3     H2       HT       0.417000       1.00800           0
     40234 W2       13412    TIP3     OH2      OT      -0.834000       15.9994           0
     40235 W2       13412    TIP3     H1       HT       0.417000       1.00800           0
     40236 W2       13412    TIP3     H2       HT       0.417000       1.00800           0
     40237 W2       13413    TIP3     OH2      OT      -0.834000       15.9994           0
     40238 W2       13413    TIP3     H1       HT       0.417000       1.00800           0
     40239 W2       13413    TIP3     H2       HT       0.417000       1.00800           0
     40240 W2       13414    TIP3     OH2      OT      -0.834000       15.9994           0
     40241 W2       13414    TIP3     H1       HT       0.417000       1.00800           0
     40242 W2       13414    TIP3     H2       HT       0.417000       1.00800           0
     40243 W2       13415    TIP3     OH2      OT      -0.834000       15.9994           0
     40244 W2       13415    TIP3     H1       HT       0.417000       1.00800           0
     40245 W2       13415    TIP3     H2       HT       0.417000       1.00800           0
     40246 W2       13416    TIP3     OH2      OT      -0.834000       15.9994           0
     40247 W2       13416    TIP3     H1       HT       0.417000       1.00800           0
     40248 W2       13416    TIP3     H2       HT       0.417000       1.00800           0
     40249 W2       13417    TIP3     OH2      OT      -0.834000       15.9994           0
     40250 W2       13417    TIP3     H1       HT       0.417000       1.00800           0
     40251 W2       13417    TIP3     H2       HT       0.417000       1.00800           0
     40252 W2       13418    TIP3     OH2      OT      -0.834000       15.9994           0
     40253 W2       13418    TIP3     H1       HT       0.417000       1.00800           0
     40254 W2       13418    TIP3     H2       HT       0.417000       1.00800           0
     40255 W2       13419    TIP3     OH2      OT      -0.834000       15.9994           0
     40256 W2       13419    TIP3     H1       HT       0.417000       1.00800           0
     40257 W2       13419    TIP3     H2       HT       0.417000       1.00800           0
     40258 W2       13420    TIP3     OH2      OT      -0.834000       15.9994           0
     40259 W2       13420    TIP3     H1       HT       0.417000       1.00800           0
     40260 W2       13420    TIP3     H2       HT       0.417000       1.00800           0
     40261 W2       13421    TIP3     OH2      OT      -0.834000       15.9994           0
     40262 W2       13421    TIP3     H1       HT       0.417000       1.00800           0
     40263 W2       13421    TIP3     H2       HT       0.417000       1.00800           0
     40264 W2       13422    TIP3     OH2      OT      -0.834000       15.9994           0
     40265 W2       13422    TIP3     H1       HT       0.417000       1.00800           0
     40266 W2       13422    TIP3     H2       HT       0.417000       1.00800           0
     40267 W2       13423    TIP3     OH2      OT      -0.834000       15.9994           0
     40268 W2       13423    TIP3     H1       HT       0.417000       1.00800           0
     40269 W2       13423    TIP3     H2       HT       0.417000       1.00800           0
     40270 W2       13424    TIP3     OH2      OT      -0.834000       15.9994           0
     40271 W2       13424    TIP3     H1       HT       0.417000       1.00800           0
     40272 W2       13424    TIP3     H2       HT       0.417000       1.00800           0
     40273 W2       13425    TIP3     OH2      OT      -0.834000       15.9994           0
     40274 W2       13425    TIP3     H1       HT       0.417000       1.00800           0
     40275 W2       13425    TIP3     H2       HT       0.417000       1.00800           0
     40276 W2       13426    TIP3     OH2      OT      -0.834000       15.9994           0
     40277 W2       13426    TIP3     H1       HT       0.417000       1.00800           0
     40278 W2       13426    TIP3     H2       HT       0.417000       1.00800           0
     40279 W2       13427    TIP3     OH2      OT      -0.834000       15.9994           0
     40280 W2       13427    TIP3     H1       HT       0.417000       1.00800           0
     40281 W2       13427    TIP3     H2       HT       0.417000       1.00800           0
     40282 W2       13428    TIP3     OH2      OT      -0.834000       15.9994           0
     40283 W2       13428    TIP3     H1       HT       0.417000       1.00800           0
     40284 W2       13428    TIP3     H2       HT       0.417000       1.00800           0
     40285 W2       13429    TIP3     OH2      OT      -0.834000       15.9994           0
     40286 W2       13429    TIP3     H1       HT       0.417000       1.00800           0
     40287 W2       13429    TIP3     H2       HT       0.417000       1.00800           0
     40288 W2       13430    TIP3     OH2      OT      -0.834000       15.9994           0
     40289 W2       13430    TIP3     H1       HT       0.417000       1.00800           0
     40290 W2       13430    TIP3     H2       HT       0.417000       1.00800           0
     40291 W2       13431    TIP3     OH2      OT      -0.834000       15.9994           0
     40292 W2       13431    TIP3     H1       HT       0.417000       1.00800           0
     40293 W2       13431    TIP3     H2       HT       0.417000       1.00800           0
     40294 W2       13432    TIP3     OH2      OT      -0.834000       15.9994           0
     40295 W2       13432    TIP3     H1       HT       0.417000       1.00800           0
     40296 W2       13432    TIP3     H2       HT       0.417000       1.00800           0
     40297 W2       13433    TIP3     OH2      OT      -0.834000       15.9994           0
     40298 W2       13433    TIP3     H1       HT       0.417000       1.00800           0
     40299 W2       13433    TIP3     H2       HT       0.417000       1.00800           0
     40300 W2       13434    TIP3     OH2      OT      -0.834000       15.9994           0
     40301 W2       13434    TIP3     H1       HT       0.417000       1.00800           0
     40302 W2       13434    TIP3     H2       HT       0.417000       1.00800           0
     40303 W2       13435    TIP3     OH2      OT      -0.834000       15.9994           0
     40304 W2       13435    TIP3     H1       HT       0.417000       1.00800           0
     40305 W2       13435    TIP3     H2       HT       0.417000       1.00800           0
     40306 W2       13436    TIP3     OH2      OT      -0.834000       15.9994           0
     40307 W2       13436    TIP3     H1       HT       0.417000       1.00800           0
     40308 W2       13436    TIP3     H2       HT       0.417000       1.00800           0
     40309 W2       13437    TIP3     OH2      OT      -0.834000       15.9994           0
     40310 W2       13437    TIP3     H1       HT       0.417000       1.00800           0
     40311 W2       13437    TIP3     H2       HT       0.417000       1.00800           0
     40312 W2       13438    TIP3     OH2      OT      -0.834000       15.9994           0
     40313 W2       13438    TIP3     H1       HT       0.417000       1.00800           0
     40314 W2       13438    TIP3     H2       HT       0.417000       1.00800           0
     40315 W2       13439    TIP3     OH2      OT      -0.834000       15.9994           0
     40316 W2       13439    TIP3     H1       HT       0.417000       1.00800           0
     40317 W2       13439    TIP3     H2       HT       0.417000       1.00800           0
     40318 W2       13440    TIP3     OH2      OT      -0.834000       15.9994           0
     40319 W2       13440    TIP3     H1       HT       0.417000       1.00800           0
     40320 W2       13440    TIP3     H2       HT       0.417000       1.00800           0
     40321 W2       13441    TIP3     OH2      OT      -0.834000       15.9994           0
     40322 W2       13441    TIP3     H1       HT       0.417000       1.00800           0
     40323 W2       13441    TIP3     H2       HT       0.417000       1.00800           0
     40324 W2       13442    TIP3     OH2      OT      -0.834000       15.9994           0
     40325 W2       13442    TIP3     H1       HT       0.417000       1.00800           0
     40326 W2       13442    TIP3     H2       HT       0.417000       1.00800           0
     40327 W2       13443    TIP3     OH2      OT      -0.834000       15.9994           0
     40328 W2       13443    TIP3     H1       HT       0.417000       1.00800           0
     40329 W2       13443    TIP3     H2       HT       0.417000       1.00800           0
     40330 W2       13444    TIP3     OH2      OT      -0.834000       15.9994           0
     40331 W2       13444    TIP3     H1       HT       0.417000       1.00800           0
     40332 W2       13444    TIP3     H2       HT       0.417000       1.00800           0
     40333 W2       13445    TIP3     OH2      OT      -0.834000       15.9994           0
     40334 W2       13445    TIP3     H1       HT       0.417000       1.00800           0
     40335 W2       13445    TIP3     H2       HT       0.417000       1.00800           0
     40336 W2       13446    TIP3     OH2      OT      -0.834000       15.9994           0
     40337 W2       13446    TIP3     H1       HT       0.417000       1.00800           0
     40338 W2       13446    TIP3     H2       HT       0.417000       1.00800           0
     40339 W2       13447    TIP3     OH2      OT      -0.834000       15.9994           0
     40340 W2       13447    TIP3     H1       HT       0.417000       1.00800           0
     40341 W2       13447    TIP3     H2       HT       0.417000       1.00800           0
     40342 W2       13448    TIP3     OH2      OT      -0.834000       15.9994           0
     40343 W2       13448    TIP3     H1       HT       0.417000       1.00800           0
     40344 W2       13448    TIP3     H2       HT       0.417000       1.00800           0
     40345 W2       13449    TIP3     OH2      OT      -0.834000       15.9994           0
     40346 W2       13449    TIP3     H1       HT       0.417000       1.00800           0
     40347 W2       13449    TIP3     H2       HT       0.417000       1.00800           0
     40348 W2       13450    TIP3     OH2      OT      -0.834000       15.9994           0
     40349 W2       13450    TIP3     H1       HT       0.417000       1.00800           0
     40350 W2       13450    TIP3     H2       HT       0.417000       1.00800           0
     40351 W2       13451    TIP3     OH2      OT      -0.834000       15.9994           0
     40352 W2       13451    TIP3     H1       HT       0.417000       1.00800           0
     40353 W2       13451    TIP3     H2       HT       0.417000       1.00800           0
     40354 W2       13452    TIP3     OH2      OT      -0.834000       15.9994           0
     40355 W2       13452    TIP3     H1       HT       0.417000       1.00800           0
     40356 W2       13452    TIP3     H2       HT       0.417000       1.00800           0
     40357 W2       13453    TIP3     OH2      OT      -0.834000       15.9994           0
     40358 W2       13453    TIP3     H1       HT       0.417000       1.00800           0
     40359 W2       13453    TIP3     H2       HT       0.417000       1.00800           0
     40360 W2       13454    TIP3     OH2      OT      -0.834000       15.9994           0
     40361 W2       13454    TIP3     H1       HT       0.417000       1.00800           0
     40362 W2       13454    TIP3     H2       HT       0.417000       1.00800           0
     40363 W2       13455    TIP3     OH2      OT      -0.834000       15.9994           0
     40364 W2       13455    TIP3     H1       HT       0.417000       1.00800           0
     40365 W2       13455    TIP3     H2       HT       0.417000       1.00800           0
     40366 W2       13456    TIP3     OH2      OT      -0.834000       15.9994           0
     40367 W2       13456    TIP3     H1       HT       0.417000       1.00800           0
     40368 W2       13456    TIP3     H2       HT       0.417000       1.00800           0
     40369 W2       13457    TIP3     OH2      OT      -0.834000       15.9994           0
     40370 W2       13457    TIP3     H1       HT       0.417000       1.00800           0
     40371 W2       13457    TIP3     H2       HT       0.417000       1.00800           0
     40372 W2       13458    TIP3     OH2      OT      -0.834000       15.9994           0
     40373 W2       13458    TIP3     H1       HT       0.417000       1.00800           0
     40374 W2       13458    TIP3     H2       HT       0.417000       1.00800           0
     40375 W2       13459    TIP3     OH2      OT      -0.834000       15.9994           0
     40376 W2       13459    TIP3     H1       HT       0.417000       1.00800           0
     40377 W2       13459    TIP3     H2       HT       0.417000       1.00800           0
     40378 W2       13460    TIP3     OH2      OT      -0.834000       15.9994           0
     40379 W2       13460    TIP3     H1       HT       0.417000       1.00800           0
     40380 W2       13460    TIP3     H2       HT       0.417000       1.00800           0
     40381 W2       13461    TIP3     OH2      OT      -0.834000       15.9994           0
     40382 W2       13461    TIP3     H1       HT       0.417000       1.00800           0
     40383 W2       13461    TIP3     H2       HT       0.417000       1.00800           0
     40384 W2       13462    TIP3     OH2      OT      -0.834000       15.9994           0
     40385 W2       13462    TIP3     H1       HT       0.417000       1.00800           0
     40386 W2       13462    TIP3     H2       HT       0.417000       1.00800           0
     40387 W2       13463    TIP3     OH2      OT      -0.834000       15.9994           0
     40388 W2       13463    TIP3     H1       HT       0.417000       1.00800           0
     40389 W2       13463    TIP3     H2       HT       0.417000       1.00800           0
     40390 W2       13464    TIP3     OH2      OT      -0.834000       15.9994           0
     40391 W2       13464    TIP3     H1       HT       0.417000       1.00800           0
     40392 W2       13464    TIP3     H2       HT       0.417000       1.00800           0
     40393 W2       13465    TIP3     OH2      OT      -0.834000       15.9994           0
     40394 W2       13465    TIP3     H1       HT       0.417000       1.00800           0
     40395 W2       13465    TIP3     H2       HT       0.417000       1.00800           0
     40396 W2       13466    TIP3     OH2      OT      -0.834000       15.9994           0
     40397 W2       13466    TIP3     H1       HT       0.417000       1.00800           0
     40398 W2       13466    TIP3     H2       HT       0.417000       1.00800           0
     40399 W2       13467    TIP3     OH2      OT      -0.834000       15.9994           0
     40400 W2       13467    TIP3     H1       HT       0.417000       1.00800           0
     40401 W2       13467    TIP3     H2       HT       0.417000       1.00800           0
     40402 W2       13468    TIP3     OH2      OT      -0.834000       15.9994           0
     40403 W2       13468    TIP3     H1       HT       0.417000       1.00800           0
     40404 W2       13468    TIP3     H2       HT       0.417000       1.00800           0
     40405 W2       13469    TIP3     OH2      OT      -0.834000       15.9994           0
     40406 W2       13469    TIP3     H1       HT       0.417000       1.00800           0
     40407 W2       13469    TIP3     H2       HT       0.417000       1.00800           0
     40408 W2       13470    TIP3     OH2      OT      -0.834000       15.9994           0
     40409 W2       13470    TIP3     H1       HT       0.417000       1.00800           0
     40410 W2       13470    TIP3     H2       HT       0.417000       1.00800           0
     40411 W2       13471    TIP3     OH2      OT      -0.834000       15.9994           0
     40412 W2       13471    TIP3     H1       HT       0.417000       1.00800           0
     40413 W2       13471    TIP3     H2       HT       0.417000       1.00800           0
     40414 W2       13472    TIP3     OH2      OT      -0.834000       15.9994           0
     40415 W2       13472    TIP3     H1       HT       0.417000       1.00800           0
     40416 W2       13472    TIP3     H2       HT       0.417000       1.00800           0
     40417 W2       13473    TIP3     OH2      OT      -0.834000       15.9994           0
     40418 W2       13473    TIP3     H1       HT       0.417000       1.00800           0
     40419 W2       13473    TIP3     H2       HT       0.417000       1.00800           0
     40420 W2       13474    TIP3     OH2      OT      -0.834000       15.9994           0
     40421 W2       13474    TIP3     H1       HT       0.417000       1.00800           0
     40422 W2       13474    TIP3     H2       HT       0.417000       1.00800           0
     40423 W2       13475    TIP3     OH2      OT      -0.834000       15.9994           0
     40424 W2       13475    TIP3     H1       HT       0.417000       1.00800           0
     40425 W2       13475    TIP3     H2       HT       0.417000       1.00800           0
     40426 W2       13476    TIP3     OH2      OT      -0.834000       15.9994           0
     40427 W2       13476    TIP3     H1       HT       0.417000       1.00800           0
     40428 W2       13476    TIP3     H2       HT       0.417000       1.00800           0
     40429 W2       13477    TIP3     OH2      OT      -0.834000       15.9994           0
     40430 W2       13477    TIP3     H1       HT       0.417000       1.00800           0
     40431 W2       13477    TIP3     H2       HT       0.417000       1.00800           0
     40432 W2       13478    TIP3     OH2      OT      -0.834000       15.9994           0
     40433 W2       13478    TIP3     H1       HT       0.417000       1.00800           0
     40434 W2       13478    TIP3     H2       HT       0.417000       1.00800           0
     40435 W2       13479    TIP3     OH2      OT      -0.834000       15.9994           0
     40436 W2       13479    TIP3     H1       HT       0.417000       1.00800           0
     40437 W2       13479    TIP3     H2       HT       0.417000       1.00800           0
     40438 W2       13480    TIP3     OH2      OT      -0.834000       15.9994           0
     40439 W2       13480    TIP3     H1       HT       0.417000       1.00800           0
     40440 W2       13480    TIP3     H2       HT       0.417000       1.00800           0
     40441 W2       13481    TIP3     OH2      OT      -0.834000       15.9994           0
     40442 W2       13481    TIP3     H1       HT       0.417000       1.00800           0
     40443 W2       13481    TIP3     H2       HT       0.417000       1.00800           0
     40444 W2       13482    TIP3     OH2      OT      -0.834000       15.9994           0
     40445 W2       13482    TIP3     H1       HT       0.417000       1.00800           0
     40446 W2       13482    TIP3     H2       HT       0.417000       1.00800           0
     40447 W2       13483    TIP3     OH2      OT      -0.834000       15.9994           0
     40448 W2       13483    TIP3     H1       HT       0.417000       1.00800           0
     40449 W2       13483    TIP3     H2       HT       0.417000       1.00800           0
     40450 W2       13484    TIP3     OH2      OT      -0.834000       15.9994           0
     40451 W2       13484    TIP3     H1       HT       0.417000       1.00800           0
     40452 W2       13484    TIP3     H2       HT       0.417000       1.00800           0
     40453 W2       13485    TIP3     OH2      OT      -0.834000       15.9994           0
     40454 W2       13485    TIP3     H1       HT       0.417000       1.00800           0
     40455 W2       13485    TIP3     H2       HT       0.417000       1.00800           0
     40456 W2       13486    TIP3     OH2      OT      -0.834000       15.9994           0
     40457 W2       13486    TIP3     H1       HT       0.417000       1.00800           0
     40458 W2       13486    TIP3     H2       HT       0.417000       1.00800           0
     40459 W2       13487    TIP3     OH2      OT      -0.834000       15.9994           0
     40460 W2       13487    TIP3     H1       HT       0.417000       1.00800           0
     40461 W2       13487    TIP3     H2       HT       0.417000       1.00800           0
     40462 W2       13488    TIP3     OH2      OT      -0.834000       15.9994           0
     40463 W2       13488    TIP3     H1       HT       0.417000       1.00800           0
     40464 W2       13488    TIP3     H2       HT       0.417000       1.00800           0
     40465 W2       13489    TIP3     OH2      OT      -0.834000       15.9994           0
     40466 W2       13489    TIP3     H1       HT       0.417000       1.00800           0
     40467 W2       13489    TIP3     H2       HT       0.417000       1.00800           0
     40468 W2       13490    TIP3     OH2      OT      -0.834000       15.9994           0
     40469 W2       13490    TIP3     H1       HT       0.417000       1.00800           0
     40470 W2       13490    TIP3     H2       HT       0.417000       1.00800           0
     40471 W2       13491    TIP3     OH2      OT      -0.834000       15.9994           0
     40472 W2       13491    TIP3     H1       HT       0.417000       1.00800           0
     40473 W2       13491    TIP3     H2       HT       0.417000       1.00800           0
     40474 W2       13492    TIP3     OH2      OT      -0.834000       15.9994           0
     40475 W2       13492    TIP3     H1       HT       0.417000       1.00800           0
     40476 W2       13492    TIP3     H2       HT       0.417000       1.00800           0
     40477 W2       13493    TIP3     OH2      OT      -0.834000       15.9994           0
     40478 W2       13493    TIP3     H1       HT       0.417000       1.00800           0
     40479 W2       13493    TIP3     H2       HT       0.417000       1.00800           0
     40480 W2       13494    TIP3     OH2      OT      -0.834000       15.9994           0
     40481 W2       13494    TIP3     H1       HT       0.417000       1.00800           0
     40482 W2       13494    TIP3     H2       HT       0.417000       1.00800           0
     40483 W2       13495    TIP3     OH2      OT      -0.834000       15.9994           0
     40484 W2       13495    TIP3     H1       HT       0.417000       1.00800           0
     40485 W2       13495    TIP3     H2       HT       0.417000       1.00800           0
     40486 W2       13496    TIP3     OH2      OT      -0.834000       15.9994           0
     40487 W2       13496    TIP3     H1       HT       0.417000       1.00800           0
     40488 W2       13496    TIP3     H2       HT       0.417000       1.00800           0
     40489 W2       13497    TIP3     OH2      OT      -0.834000       15.9994           0
     40490 W2       13497    TIP3     H1       HT       0.417000       1.00800           0
     40491 W2       13497    TIP3     H2       HT       0.417000       1.00800           0
     40492 W2       13498    TIP3     OH2      OT      -0.834000       15.9994           0
     40493 W2       13498    TIP3     H1       HT       0.417000       1.00800           0
     40494 W2       13498    TIP3     H2       HT       0.417000       1.00800           0
     40495 W2       13499    TIP3     OH2      OT      -0.834000       15.9994           0
     40496 W2       13499    TIP3     H1       HT       0.417000       1.00800           0
     40497 W2       13499    TIP3     H2       HT       0.417000       1.00800           0
     40498 W2       13500    TIP3     OH2      OT      -0.834000       15.9994           0
     40499 W2       13500    TIP3     H1       HT       0.417000       1.00800           0
     40500 W2       13500    TIP3     H2       HT       0.417000       1.00800           0
     40501 W2       13501    TIP3     OH2      OT      -0.834000       15.9994           0
     40502 W2       13501    TIP3     H1       HT       0.417000       1.00800           0
     40503 W2       13501    TIP3     H2       HT       0.417000       1.00800           0
     40504 W2       13502    TIP3     OH2      OT      -0.834000       15.9994           0
     40505 W2       13502    TIP3     H1       HT       0.417000       1.00800           0
     40506 W2       13502    TIP3     H2       HT       0.417000       1.00800           0
     40507 W2       13503    TIP3     OH2      OT      -0.834000       15.9994           0
     40508 W2       13503    TIP3     H1       HT       0.417000       1.00800           0
     40509 W2       13503    TIP3     H2       HT       0.417000       1.00800           0
     40510 W2       13504    TIP3     OH2      OT      -0.834000       15.9994           0
     40511 W2       13504    TIP3     H1       HT       0.417000       1.00800           0
     40512 W2       13504    TIP3     H2       HT       0.417000       1.00800           0
     40513 W2       13505    TIP3     OH2      OT      -0.834000       15.9994           0
     40514 W2       13505    TIP3     H1       HT       0.417000       1.00800           0
     40515 W2       13505    TIP3     H2       HT       0.417000       1.00800           0
     40516 W2       13506    TIP3     OH2      OT      -0.834000       15.9994           0
     40517 W2       13506    TIP3     H1       HT       0.417000       1.00800           0
     40518 W2       13506    TIP3     H2       HT       0.417000       1.00800           0
     40519 W2       13507    TIP3     OH2      OT      -0.834000       15.9994           0
     40520 W2       13507    TIP3     H1       HT       0.417000       1.00800           0
     40521 W2       13507    TIP3     H2       HT       0.417000       1.00800           0
     40522 W2       13508    TIP3     OH2      OT      -0.834000       15.9994           0
     40523 W2       13508    TIP3     H1       HT       0.417000       1.00800           0
     40524 W2       13508    TIP3     H2       HT       0.417000       1.00800           0
     40525 W2       13509    TIP3     OH2      OT      -0.834000       15.9994           0
     40526 W2       13509    TIP3     H1       HT       0.417000       1.00800           0
     40527 W2       13509    TIP3     H2       HT       0.417000       1.00800           0
     40528 W2       13510    TIP3     OH2      OT      -0.834000       15.9994           0
     40529 W2       13510    TIP3     H1       HT       0.417000       1.00800           0
     40530 W2       13510    TIP3     H2       HT       0.417000       1.00800           0
     40531 W2       13511    TIP3     OH2      OT      -0.834000       15.9994           0
     40532 W2       13511    TIP3     H1       HT       0.417000       1.00800           0
     40533 W2       13511    TIP3     H2       HT       0.417000       1.00800           0
     40534 W2       13512    TIP3     OH2      OT      -0.834000       15.9994           0
     40535 W2       13512    TIP3     H1       HT       0.417000       1.00800           0
     40536 W2       13512    TIP3     H2       HT       0.417000       1.00800           0
     40537 W2       13513    TIP3     OH2      OT      -0.834000       15.9994           0
     40538 W2       13513    TIP3     H1       HT       0.417000       1.00800           0
     40539 W2       13513    TIP3     H2       HT       0.417000       1.00800           0
     40540 W2       13514    TIP3     OH2      OT      -0.834000       15.9994           0
     40541 W2       13514    TIP3     H1       HT       0.417000       1.00800           0
     40542 W2       13514    TIP3     H2       HT       0.417000       1.00800           0
     40543 W2       13515    TIP3     OH2      OT      -0.834000       15.9994           0
     40544 W2       13515    TIP3     H1       HT       0.417000       1.00800           0
     40545 W2       13515    TIP3     H2       HT       0.417000       1.00800           0
     40546 W2       13516    TIP3     OH2      OT      -0.834000       15.9994           0
     40547 W2       13516    TIP3     H1       HT       0.417000       1.00800           0
     40548 W2       13516    TIP3     H2       HT       0.417000       1.00800           0
     40549 W2       13517    TIP3     OH2      OT      -0.834000       15.9994           0
     40550 W2       13517    TIP3     H1       HT       0.417000       1.00800           0
     40551 W2       13517    TIP3     H2       HT       0.417000       1.00800           0
     40552 W2       13518    TIP3     OH2      OT      -0.834000       15.9994           0
     40553 W2       13518    TIP3     H1       HT       0.417000       1.00800           0
     40554 W2       13518    TIP3     H2       HT       0.417000       1.00800           0
     40555 W2       13519    TIP3     OH2      OT      -0.834000       15.9994           0
     40556 W2       13519    TIP3     H1       HT       0.417000       1.00800           0
     40557 W2       13519    TIP3     H2       HT       0.417000       1.00800           0
     40558 W2       13520    TIP3     OH2      OT      -0.834000       15.9994           0
     40559 W2       13520    TIP3     H1       HT       0.417000       1.00800           0
     40560 W2       13520    TIP3     H2       HT       0.417000       1.00800           0
     40561 W2       13521    TIP3     OH2      OT      -0.834000       15.9994           0
     40562 W2       13521    TIP3     H1       HT       0.417000       1.00800           0
     40563 W2       13521    TIP3     H2       HT       0.417000       1.00800           0
     40564 W2       13522    TIP3     OH2      OT      -0.834000       15.9994           0
     40565 W2       13522    TIP3     H1       HT       0.417000       1.00800           0
     40566 W2       13522    TIP3     H2       HT       0.417000       1.00800           0
     40567 W2       13523    TIP3     OH2      OT      -0.834000       15.9994           0
     40568 W2       13523    TIP3     H1       HT       0.417000       1.00800           0
     40569 W2       13523    TIP3     H2       HT       0.417000       1.00800           0
     40570 W2       13524    TIP3     OH2      OT      -0.834000       15.9994           0
     40571 W2       13524    TIP3     H1       HT       0.417000       1.00800           0
     40572 W2       13524    TIP3     H2       HT       0.417000       1.00800           0
     40573 W2       13525    TIP3     OH2      OT      -0.834000       15.9994           0
     40574 W2       13525    TIP3     H1       HT       0.417000       1.00800           0
     40575 W2       13525    TIP3     H2       HT       0.417000       1.00800           0
     40576 W2       13526    TIP3     OH2      OT      -0.834000       15.9994           0
     40577 W2       13526    TIP3     H1       HT       0.417000       1.00800           0
     40578 W2       13526    TIP3     H2       HT       0.417000       1.00800           0
     40579 W2       13527    TIP3     OH2      OT      -0.834000       15.9994           0
     40580 W2       13527    TIP3     H1       HT       0.417000       1.00800           0
     40581 W2       13527    TIP3     H2       HT       0.417000       1.00800           0
     40582 W2       13528    TIP3     OH2      OT      -0.834000       15.9994           0
     40583 W2       13528    TIP3     H1       HT       0.417000       1.00800           0
     40584 W2       13528    TIP3     H2       HT       0.417000       1.00800           0
     40585 W2       13529    TIP3     OH2      OT      -0.834000       15.9994           0
     40586 W2       13529    TIP3     H1       HT       0.417000       1.00800           0
     40587 W2       13529    TIP3     H2       HT       0.417000       1.00800           0
     40588 W2       13530    TIP3     OH2      OT      -0.834000       15.9994           0
     40589 W2       13530    TIP3     H1       HT       0.417000       1.00800           0
     40590 W2       13530    TIP3     H2       HT       0.417000       1.00800           0
     40591 W2       13531    TIP3     OH2      OT      -0.834000       15.9994           0
     40592 W2       13531    TIP3     H1       HT       0.417000       1.00800           0
     40593 W2       13531    TIP3     H2       HT       0.417000       1.00800           0
     40594 W2       13532    TIP3     OH2      OT      -0.834000       15.9994           0
     40595 W2       13532    TIP3     H1       HT       0.417000       1.00800           0
     40596 W2       13532    TIP3     H2       HT       0.417000       1.00800           0
     40597 W2       13533    TIP3     OH2      OT      -0.834000       15.9994           0
     40598 W2       13533    TIP3     H1       HT       0.417000       1.00800           0
     40599 W2       13533    TIP3     H2       HT       0.417000       1.00800           0
     40600 W2       13534    TIP3     OH2      OT      -0.834000       15.9994           0
     40601 W2       13534    TIP3     H1       HT       0.417000       1.00800           0
     40602 W2       13534    TIP3     H2       HT       0.417000       1.00800           0
     40603 W2       13535    TIP3     OH2      OT      -0.834000       15.9994           0
     40604 W2       13535    TIP3     H1       HT       0.417000       1.00800           0
     40605 W2       13535    TIP3     H2       HT       0.417000       1.00800           0
     40606 W2       13536    TIP3     OH2      OT      -0.834000       15.9994           0
     40607 W2       13536    TIP3     H1       HT       0.417000       1.00800           0
     40608 W2       13536    TIP3     H2       HT       0.417000       1.00800           0
     40609 W2       13537    TIP3     OH2      OT      -0.834000       15.9994           0
     40610 W2       13537    TIP3     H1       HT       0.417000       1.00800           0
     40611 W2       13537    TIP3     H2       HT       0.417000       1.00800           0
     40612 W2       13538    TIP3     OH2      OT      -0.834000       15.9994           0
     40613 W2       13538    TIP3     H1       HT       0.417000       1.00800           0
     40614 W2       13538    TIP3     H2       HT       0.417000       1.00800           0
     40615 W2       13539    TIP3     OH2      OT      -0.834000       15.9994           0
     40616 W2       13539    TIP3     H1       HT       0.417000       1.00800           0
     40617 W2       13539    TIP3     H2       HT       0.417000       1.00800           0
     40618 W2       13540    TIP3     OH2      OT      -0.834000       15.9994           0
     40619 W2       13540    TIP3     H1       HT       0.417000       1.00800           0
     40620 W2       13540    TIP3     H2       HT       0.417000       1.00800           0
     40621 W2       13541    TIP3     OH2      OT      -0.834000       15.9994           0
     40622 W2       13541    TIP3     H1       HT       0.417000       1.00800           0
     40623 W2       13541    TIP3     H2       HT       0.417000       1.00800           0
     40624 W2       13542    TIP3     OH2      OT      -0.834000       15.9994           0
     40625 W2       13542    TIP3     H1       HT       0.417000       1.00800           0
     40626 W2       13542    TIP3     H2       HT       0.417000       1.00800           0
     40627 W2       13543    TIP3     OH2      OT      -0.834000       15.9994           0
     40628 W2       13543    TIP3     H1       HT       0.417000       1.00800           0
     40629 W2       13543    TIP3     H2       HT       0.417000       1.00800           0
     40630 W2       13544    TIP3     OH2      OT      -0.834000       15.9994           0
     40631 W2       13544    TIP3     H1       HT       0.417000       1.00800           0
     40632 W2       13544    TIP3     H2       HT       0.417000       1.00800           0
     40633 W2       13545    TIP3     OH2      OT      -0.834000       15.9994           0
     40634 W2       13545    TIP3     H1       HT       0.417000       1.00800           0
     40635 W2       13545    TIP3     H2       HT       0.417000       1.00800           0
     40636 W2       13546    TIP3     OH2      OT      -0.834000       15.9994           0
     40637 W2       13546    TIP3     H1       HT       0.417000       1.00800           0
     40638 W2       13546    TIP3     H2       HT       0.417000       1.00800           0
     40639 W2       13547    TIP3     OH2      OT      -0.834000       15.9994           0
     40640 W2       13547    TIP3     H1       HT       0.417000       1.00800           0
     40641 W2       13547    TIP3     H2       HT       0.417000       1.00800           0
     40642 W2       13548    TIP3     OH2      OT      -0.834000       15.9994           0
     40643 W2       13548    TIP3     H1       HT       0.417000       1.00800           0
     40644 W2       13548    TIP3     H2       HT       0.417000       1.00800           0
     40645 W2       13549    TIP3     OH2      OT      -0.834000       15.9994           0
     40646 W2       13549    TIP3     H1       HT       0.417000       1.00800           0
     40647 W2       13549    TIP3     H2       HT       0.417000       1.00800           0
     40648 W2       13550    TIP3     OH2      OT      -0.834000       15.9994           0
     40649 W2       13550    TIP3     H1       HT       0.417000       1.00800           0
     40650 W2       13550    TIP3     H2       HT       0.417000       1.00800           0
     40651 W2       13551    TIP3     OH2      OT      -0.834000       15.9994           0
     40652 W2       13551    TIP3     H1       HT       0.417000       1.00800           0
     40653 W2       13551    TIP3     H2       HT       0.417000       1.00800           0
     40654 W2       13552    TIP3     OH2      OT      -0.834000       15.9994           0
     40655 W2       13552    TIP3     H1       HT       0.417000       1.00800           0
     40656 W2       13552    TIP3     H2       HT       0.417000       1.00800           0
     40657 W2       13553    TIP3     OH2      OT      -0.834000       15.9994           0
     40658 W2       13553    TIP3     H1       HT       0.417000       1.00800           0
     40659 W2       13553    TIP3     H2       HT       0.417000       1.00800           0
     40660 W2       13554    TIP3     OH2      OT      -0.834000       15.9994           0
     40661 W2       13554    TIP3     H1       HT       0.417000       1.00800           0
     40662 W2       13554    TIP3     H2       HT       0.417000       1.00800           0
     40663 W2       13555    TIP3     OH2      OT      -0.834000       15.9994           0
     40664 W2       13555    TIP3     H1       HT       0.417000       1.00800           0
     40665 W2       13555    TIP3     H2       HT       0.417000       1.00800           0
     40666 W2       13556    TIP3     OH2      OT      -0.834000       15.9994           0
     40667 W2       13556    TIP3     H1       HT       0.417000       1.00800           0
     40668 W2       13556    TIP3     H2       HT       0.417000       1.00800           0
     40669 W2       13557    TIP3     OH2      OT      -0.834000       15.9994           0
     40670 W2       13557    TIP3     H1       HT       0.417000       1.00800           0
     40671 W2       13557    TIP3     H2       HT       0.417000       1.00800           0
     40672 W2       13558    TIP3     OH2      OT      -0.834000       15.9994           0
     40673 W2       13558    TIP3     H1       HT       0.417000       1.00800           0
     40674 W2       13558    TIP3     H2       HT       0.417000       1.00800           0
     40675 W2       13559    TIP3     OH2      OT      -0.834000       15.9994           0
     40676 W2       13559    TIP3     H1       HT       0.417000       1.00800           0
     40677 W2       13559    TIP3     H2       HT       0.417000       1.00800           0
     40678 W2       13560    TIP3     OH2      OT      -0.834000       15.9994           0
     40679 W2       13560    TIP3     H1       HT       0.417000       1.00800           0
     40680 W2       13560    TIP3     H2       HT       0.417000       1.00800           0
     40681 W2       13561    TIP3     OH2      OT      -0.834000       15.9994           0
     40682 W2       13561    TIP3     H1       HT       0.417000       1.00800           0
     40683 W2       13561    TIP3     H2       HT       0.417000       1.00800           0
     40684 W2       13562    TIP3     OH2      OT      -0.834000       15.9994           0
     40685 W2       13562    TIP3     H1       HT       0.417000       1.00800           0
     40686 W2       13562    TIP3     H2       HT       0.417000       1.00800           0
     40687 W2       13563    TIP3     OH2      OT      -0.834000       15.9994           0
     40688 W2       13563    TIP3     H1       HT       0.417000       1.00800           0
     40689 W2       13563    TIP3     H2       HT       0.417000       1.00800           0
     40690 W2       13564    TIP3     OH2      OT      -0.834000       15.9994           0
     40691 W2       13564    TIP3     H1       HT       0.417000       1.00800           0
     40692 W2       13564    TIP3     H2       HT       0.417000       1.00800           0
     40693 W2       13565    TIP3     OH2      OT      -0.834000       15.9994           0
     40694 W2       13565    TIP3     H1       HT       0.417000       1.00800           0
     40695 W2       13565    TIP3     H2       HT       0.417000       1.00800           0
     40696 W2       13566    TIP3     OH2      OT      -0.834000       15.9994           0
     40697 W2       13566    TIP3     H1       HT       0.417000       1.00800           0
     40698 W2       13566    TIP3     H2       HT       0.417000       1.00800           0
     40699 W2       13567    TIP3     OH2      OT      -0.834000       15.9994           0
     40700 W2       13567    TIP3     H1       HT       0.417000       1.00800           0
     40701 W2       13567    TIP3     H2       HT       0.417000       1.00800           0
     40702 W2       13568    TIP3     OH2      OT      -0.834000       15.9994           0
     40703 W2       13568    TIP3     H1       HT       0.417000       1.00800           0
     40704 W2       13568    TIP3     H2       HT       0.417000       1.00800           0
     40705 W2       13569    TIP3     OH2      OT      -0.834000       15.9994           0
     40706 W2       13569    TIP3     H1       HT       0.417000       1.00800           0
     40707 W2       13569    TIP3     H2       HT       0.417000       1.00800           0
     40708 W2       13570    TIP3     OH2      OT      -0.834000       15.9994           0
     40709 W2       13570    TIP3     H1       HT       0.417000       1.00800           0
     40710 W2       13570    TIP3     H2       HT       0.417000       1.00800           0
     40711 W2       13571    TIP3     OH2      OT      -0.834000       15.9994           0
     40712 W2       13571    TIP3     H1       HT       0.417000       1.00800           0
     40713 W2       13571    TIP3     H2       HT       0.417000       1.00800           0
     40714 W2       13572    TIP3     OH2      OT      -0.834000       15.9994           0
     40715 W2       13572    TIP3     H1       HT       0.417000       1.00800           0
     40716 W2       13572    TIP3     H2       HT       0.417000       1.00800           0
     40717 W2       13573    TIP3     OH2      OT      -0.834000       15.9994           0
     40718 W2       13573    TIP3     H1       HT       0.417000       1.00800           0
     40719 W2       13573    TIP3     H2       HT       0.417000       1.00800           0
     40720 W2       13574    TIP3     OH2      OT      -0.834000       15.9994           0
     40721 W2       13574    TIP3     H1       HT       0.417000       1.00800           0
     40722 W2       13574    TIP3     H2       HT       0.417000       1.00800           0
     40723 W2       13575    TIP3     OH2      OT      -0.834000       15.9994           0
     40724 W2       13575    TIP3     H1       HT       0.417000       1.00800           0
     40725 W2       13575    TIP3     H2       HT       0.417000       1.00800           0
     40726 W2       13576    TIP3     OH2      OT      -0.834000       15.9994           0
     40727 W2       13576    TIP3     H1       HT       0.417000       1.00800           0
     40728 W2       13576    TIP3     H2       HT       0.417000       1.00800           0
     40729 W2       13577    TIP3     OH2      OT      -0.834000       15.9994           0
     40730 W2       13577    TIP3     H1       HT       0.417000       1.00800           0
     40731 W2       13577    TIP3     H2       HT       0.417000       1.00800           0
     40732 W2       13578    TIP3     OH2      OT      -0.834000       15.9994           0
     40733 W2       13578    TIP3     H1       HT       0.417000       1.00800           0
     40734 W2       13578    TIP3     H2       HT       0.417000       1.00800           0
     40735 W2       13579    TIP3     OH2      OT      -0.834000       15.9994           0
     40736 W2       13579    TIP3     H1       HT       0.417000       1.00800           0
     40737 W2       13579    TIP3     H2       HT       0.417000       1.00800           0
     40738 W2       13580    TIP3     OH2      OT      -0.834000       15.9994           0
     40739 W2       13580    TIP3     H1       HT       0.417000       1.00800           0
     40740 W2       13580    TIP3     H2       HT       0.417000       1.00800           0
     40741 W2       13581    TIP3     OH2      OT      -0.834000       15.9994           0
     40742 W2       13581    TIP3     H1       HT       0.417000       1.00800           0
     40743 W2       13581    TIP3     H2       HT       0.417000       1.00800           0
     40744 W2       13582    TIP3     OH2      OT      -0.834000       15.9994           0
     40745 W2       13582    TIP3     H1       HT       0.417000       1.00800           0
     40746 W2       13582    TIP3     H2       HT       0.417000       1.00800           0
     40747 W2       13583    TIP3     OH2      OT      -0.834000       15.9994           0
     40748 W2       13583    TIP3     H1       HT       0.417000       1.00800           0
     40749 W2       13583    TIP3     H2       HT       0.417000       1.00800           0
     40750 W2       13584    TIP3     OH2      OT      -0.834000       15.9994           0
     40751 W2       13584    TIP3     H1       HT       0.417000       1.00800           0
     40752 W2       13584    TIP3     H2       HT       0.417000       1.00800           0
     40753 W2       13585    TIP3     OH2      OT      -0.834000       15.9994           0
     40754 W2       13585    TIP3     H1       HT       0.417000       1.00800           0
     40755 W2       13585    TIP3     H2       HT       0.417000       1.00800           0
     40756 W2       13586    TIP3     OH2      OT      -0.834000       15.9994           0
     40757 W2       13586    TIP3     H1       HT       0.417000       1.00800           0
     40758 W2       13586    TIP3     H2       HT       0.417000       1.00800           0
     40759 W2       13587    TIP3     OH2      OT      -0.834000       15.9994           0
     40760 W2       13587    TIP3     H1       HT       0.417000       1.00800           0
     40761 W2       13587    TIP3     H2       HT       0.417000       1.00800           0
     40762 W2       13588    TIP3     OH2      OT      -0.834000       15.9994           0
     40763 W2       13588    TIP3     H1       HT       0.417000       1.00800           0
     40764 W2       13588    TIP3     H2       HT       0.417000       1.00800           0
     40765 W2       13589    TIP3     OH2      OT      -0.834000       15.9994           0
     40766 W2       13589    TIP3     H1       HT       0.417000       1.00800           0
     40767 W2       13589    TIP3     H2       HT       0.417000       1.00800           0
     40768 W2       13590    TIP3     OH2      OT      -0.834000       15.9994           0
     40769 W2       13590    TIP3     H1       HT       0.417000       1.00800           0
     40770 W2       13590    TIP3     H2       HT       0.417000       1.00800           0
     40771 W2       13591    TIP3     OH2      OT      -0.834000       15.9994           0
     40772 W2       13591    TIP3     H1       HT       0.417000       1.00800           0
     40773 W2       13591    TIP3     H2       HT       0.417000       1.00800           0
     40774 W2       13592    TIP3     OH2      OT      -0.834000       15.9994           0
     40775 W2       13592    TIP3     H1       HT       0.417000       1.00800           0
     40776 W2       13592    TIP3     H2       HT       0.417000       1.00800           0
     40777 W2       13593    TIP3     OH2      OT      -0.834000       15.9994           0
     40778 W2       13593    TIP3     H1       HT       0.417000       1.00800           0
     40779 W2       13593    TIP3     H2       HT       0.417000       1.00800           0
     40780 W2       13594    TIP3     OH2      OT      -0.834000       15.9994           0
     40781 W2       13594    TIP3     H1       HT       0.417000       1.00800           0
     40782 W2       13594    TIP3     H2       HT       0.417000       1.00800           0
     40783 W2       13595    TIP3     OH2      OT      -0.834000       15.9994           0
     40784 W2       13595    TIP3     H1       HT       0.417000       1.00800           0
     40785 W2       13595    TIP3     H2       HT       0.417000       1.00800           0
     40786 W2       13596    TIP3     OH2      OT      -0.834000       15.9994           0
     40787 W2       13596    TIP3     H1       HT       0.417000       1.00800           0
     40788 W2       13596    TIP3     H2       HT       0.417000       1.00800           0
     40789 W2       13597    TIP3     OH2      OT      -0.834000       15.9994           0
     40790 W2       13597    TIP3     H1       HT       0.417000       1.00800           0
     40791 W2       13597    TIP3     H2       HT       0.417000       1.00800           0
     40792 W2       13598    TIP3     OH2      OT      -0.834000       15.9994           0
     40793 W2       13598    TIP3     H1       HT       0.417000       1.00800           0
     40794 W2       13598    TIP3     H2       HT       0.417000       1.00800           0
     40795 W2       13599    TIP3     OH2      OT      -0.834000       15.9994           0
     40796 W2       13599    TIP3     H1       HT       0.417000       1.00800           0
     40797 W2       13599    TIP3     H2       HT       0.417000       1.00800           0
     40798 W2       13600    TIP3     OH2      OT      -0.834000       15.9994           0
     40799 W2       13600    TIP3     H1       HT       0.417000       1.00800           0
     40800 W2       13600    TIP3     H2       HT       0.417000       1.00800           0
     40801 W2       13601    TIP3     OH2      OT      -0.834000       15.9994           0
     40802 W2       13601    TIP3     H1       HT       0.417000       1.00800           0
     40803 W2       13601    TIP3     H2       HT       0.417000       1.00800           0
     40804 W2       13602    TIP3     OH2      OT      -0.834000       15.9994           0
     40805 W2       13602    TIP3     H1       HT       0.417000       1.00800           0
     40806 W2       13602    TIP3     H2       HT       0.417000       1.00800           0
     40807 W2       13603    TIP3     OH2      OT      -0.834000       15.9994           0
     40808 W2       13603    TIP3     H1       HT       0.417000       1.00800           0
     40809 W2       13603    TIP3     H2       HT       0.417000       1.00800           0
     40810 W2       13604    TIP3     OH2      OT      -0.834000       15.9994           0
     40811 W2       13604    TIP3     H1       HT       0.417000       1.00800           0
     40812 W2       13604    TIP3     H2       HT       0.417000       1.00800           0
     40813 W2       13605    TIP3     OH2      OT      -0.834000       15.9994           0
     40814 W2       13605    TIP3     H1       HT       0.417000       1.00800           0
     40815 W2       13605    TIP3     H2       HT       0.417000       1.00800           0
     40816 W2       13606    TIP3     OH2      OT      -0.834000       15.9994           0
     40817 W2       13606    TIP3     H1       HT       0.417000       1.00800           0
     40818 W2       13606    TIP3     H2       HT       0.417000       1.00800           0
     40819 W2       13607    TIP3     OH2      OT      -0.834000       15.9994           0
     40820 W2       13607    TIP3     H1       HT       0.417000       1.00800           0
     40821 W2       13607    TIP3     H2       HT       0.417000       1.00800           0
     40822 W2       13608    TIP3     OH2      OT      -0.834000       15.9994           0
     40823 W2       13608    TIP3     H1       HT       0.417000       1.00800           0
     40824 W2       13608    TIP3     H2       HT       0.417000       1.00800           0
     40825 W2       13609    TIP3     OH2      OT      -0.834000       15.9994           0
     40826 W2       13609    TIP3     H1       HT       0.417000       1.00800           0
     40827 W2       13609    TIP3     H2       HT       0.417000       1.00800           0
     40828 W2       13610    TIP3     OH2      OT      -0.834000       15.9994           0
     40829 W2       13610    TIP3     H1       HT       0.417000       1.00800           0
     40830 W2       13610    TIP3     H2       HT       0.417000       1.00800           0
     40831 W2       13611    TIP3     OH2      OT      -0.834000       15.9994           0
     40832 W2       13611    TIP3     H1       HT       0.417000       1.00800           0
     40833 W2       13611    TIP3     H2       HT       0.417000       1.00800           0
     40834 W2       13612    TIP3     OH2      OT      -0.834000       15.9994           0
     40835 W2       13612    TIP3     H1       HT       0.417000       1.00800           0
     40836 W2       13612    TIP3     H2       HT       0.417000       1.00800           0
     40837 W2       13613    TIP3     OH2      OT      -0.834000       15.9994           0
     40838 W2       13613    TIP3     H1       HT       0.417000       1.00800           0
     40839 W2       13613    TIP3     H2       HT       0.417000       1.00800           0
     40840 W2       13614    TIP3     OH2      OT      -0.834000       15.9994           0
     40841 W2       13614    TIP3     H1       HT       0.417000       1.00800           0
     40842 W2       13614    TIP3     H2       HT       0.417000       1.00800           0
     40843 W2       13615    TIP3     OH2      OT      -0.834000       15.9994           0
     40844 W2       13615    TIP3     H1       HT       0.417000       1.00800           0
     40845 W2       13615    TIP3     H2       HT       0.417000       1.00800           0
     40846 W2       13616    TIP3     OH2      OT      -0.834000       15.9994           0
     40847 W2       13616    TIP3     H1       HT       0.417000       1.00800           0
     40848 W2       13616    TIP3     H2       HT       0.417000       1.00800           0
     40849 W2       13617    TIP3     OH2      OT      -0.834000       15.9994           0
     40850 W2       13617    TIP3     H1       HT       0.417000       1.00800           0
     40851 W2       13617    TIP3     H2       HT       0.417000       1.00800           0
     40852 W2       13618    TIP3     OH2      OT      -0.834000       15.9994           0
     40853 W2       13618    TIP3     H1       HT       0.417000       1.00800           0
     40854 W2       13618    TIP3     H2       HT       0.417000       1.00800           0
     40855 W2       13619    TIP3     OH2      OT      -0.834000       15.9994           0
     40856 W2       13619    TIP3     H1       HT       0.417000       1.00800           0
     40857 W2       13619    TIP3     H2       HT       0.417000       1.00800           0
     40858 W2       13620    TIP3     OH2      OT      -0.834000       15.9994           0
     40859 W2       13620    TIP3     H1       HT       0.417000       1.00800           0
     40860 W2       13620    TIP3     H2       HT       0.417000       1.00800           0
     40861 W2       13621    TIP3     OH2      OT      -0.834000       15.9994           0
     40862 W2       13621    TIP3     H1       HT       0.417000       1.00800           0
     40863 W2       13621    TIP3     H2       HT       0.417000       1.00800           0
     40864 W2       13622    TIP3     OH2      OT      -0.834000       15.9994           0
     40865 W2       13622    TIP3     H1       HT       0.417000       1.00800           0
     40866 W2       13622    TIP3     H2       HT       0.417000       1.00800           0
     40867 W2       13623    TIP3     OH2      OT      -0.834000       15.9994           0
     40868 W2       13623    TIP3     H1       HT       0.417000       1.00800           0
     40869 W2       13623    TIP3     H2       HT       0.417000       1.00800           0
     40870 W2       13624    TIP3     OH2      OT      -0.834000       15.9994           0
     40871 W2       13624    TIP3     H1       HT       0.417000       1.00800           0
     40872 W2       13624    TIP3     H2       HT       0.417000       1.00800           0
     40873 W2       13625    TIP3     OH2      OT      -0.834000       15.9994           0
     40874 W2       13625    TIP3     H1       HT       0.417000       1.00800           0
     40875 W2       13625    TIP3     H2       HT       0.417000       1.00800           0
     40876 W2       13626    TIP3     OH2      OT      -0.834000       15.9994           0
     40877 W2       13626    TIP3     H1       HT       0.417000       1.00800           0
     40878 W2       13626    TIP3     H2       HT       0.417000       1.00800           0
     40879 W2       13627    TIP3     OH2      OT      -0.834000       15.9994           0
     40880 W2       13627    TIP3     H1       HT       0.417000       1.00800           0
     40881 W2       13627    TIP3     H2       HT       0.417000       1.00800           0
     40882 W2       13628    TIP3     OH2      OT      -0.834000       15.9994           0
     40883 W2       13628    TIP3     H1       HT       0.417000       1.00800           0
     40884 W2       13628    TIP3     H2       HT       0.417000       1.00800           0
     40885 W2       13629    TIP3     OH2      OT      -0.834000       15.9994           0
     40886 W2       13629    TIP3     H1       HT       0.417000       1.00800           0
     40887 W2       13629    TIP3     H2       HT       0.417000       1.00800           0
     40888 W2       13630    TIP3     OH2      OT      -0.834000       15.9994           0
     40889 W2       13630    TIP3     H1       HT       0.417000       1.00800           0
     40890 W2       13630    TIP3     H2       HT       0.417000       1.00800           0
     40891 W2       13631    TIP3     OH2      OT      -0.834000       15.9994           0
     40892 W2       13631    TIP3     H1       HT       0.417000       1.00800           0
     40893 W2       13631    TIP3     H2       HT       0.417000       1.00800           0
     40894 W2       13632    TIP3     OH2      OT      -0.834000       15.9994           0
     40895 W2       13632    TIP3     H1       HT       0.417000       1.00800           0
     40896 W2       13632    TIP3     H2       HT       0.417000       1.00800           0
     40897 W2       13633    TIP3     OH2      OT      -0.834000       15.9994           0
     40898 W2       13633    TIP3     H1       HT       0.417000       1.00800           0
     40899 W2       13633    TIP3     H2       HT       0.417000       1.00800           0
     40900 W2       13634    TIP3     OH2      OT      -0.834000       15.9994           0
     40901 W2       13634    TIP3     H1       HT       0.417000       1.00800           0
     40902 W2       13634    TIP3     H2       HT       0.417000       1.00800           0
     40903 W2       13635    TIP3     OH2      OT      -0.834000       15.9994           0
     40904 W2       13635    TIP3     H1       HT       0.417000       1.00800           0
     40905 W2       13635    TIP3     H2       HT       0.417000       1.00800           0
     40906 W2       13636    TIP3     OH2      OT      -0.834000       15.9994           0
     40907 W2       13636    TIP3     H1       HT       0.417000       1.00800           0
     40908 W2       13636    TIP3     H2       HT       0.417000       1.00800           0
     40909 W2       13637    TIP3     OH2      OT      -0.834000       15.9994           0
     40910 W2       13637    TIP3     H1       HT       0.417000       1.00800           0
     40911 W2       13637    TIP3     H2       HT       0.417000       1.00800           0
     40912 W2       13638    TIP3     OH2      OT      -0.834000       15.9994           0
     40913 W2       13638    TIP3     H1       HT       0.417000       1.00800           0
     40914 W2       13638    TIP3     H2       HT       0.417000       1.00800           0
     40915 W2       13639    TIP3     OH2      OT      -0.834000       15.9994           0
     40916 W2       13639    TIP3     H1       HT       0.417000       1.00800           0
     40917 W2       13639    TIP3     H2       HT       0.417000       1.00800           0
     40918 W2       13640    TIP3     OH2      OT      -0.834000       15.9994           0
     40919 W2       13640    TIP3     H1       HT       0.417000       1.00800           0
     40920 W2       13640    TIP3     H2       HT       0.417000       1.00800           0
     40921 W2       13641    TIP3     OH2      OT      -0.834000       15.9994           0
     40922 W2       13641    TIP3     H1       HT       0.417000       1.00800           0
     40923 W2       13641    TIP3     H2       HT       0.417000       1.00800           0
     40924 W2       13642    TIP3     OH2      OT      -0.834000       15.9994           0
     40925 W2       13642    TIP3     H1       HT       0.417000       1.00800           0
     40926 W2       13642    TIP3     H2       HT       0.417000       1.00800           0
     40927 W2       13643    TIP3     OH2      OT      -0.834000       15.9994           0
     40928 W2       13643    TIP3     H1       HT       0.417000       1.00800           0
     40929 W2       13643    TIP3     H2       HT       0.417000       1.00800           0
     40930 W2       13644    TIP3     OH2      OT      -0.834000       15.9994           0
     40931 W2       13644    TIP3     H1       HT       0.417000       1.00800           0
     40932 W2       13644    TIP3     H2       HT       0.417000       1.00800           0
     40933 W2       13645    TIP3     OH2      OT      -0.834000       15.9994           0
     40934 W2       13645    TIP3     H1       HT       0.417000       1.00800           0
     40935 W2       13645    TIP3     H2       HT       0.417000       1.00800           0
     40936 W2       13646    TIP3     OH2      OT      -0.834000       15.9994           0
     40937 W2       13646    TIP3     H1       HT       0.417000       1.00800           0
     40938 W2       13646    TIP3     H2       HT       0.417000       1.00800           0
     40939 W2       13647    TIP3     OH2      OT      -0.834000       15.9994           0
     40940 W2       13647    TIP3     H1       HT       0.417000       1.00800           0
     40941 W2       13647    TIP3     H2       HT       0.417000       1.00800           0
     40942 W2       13648    TIP3     OH2      OT      -0.834000       15.9994           0
     40943 W2       13648    TIP3     H1       HT       0.417000       1.00800           0
     40944 W2       13648    TIP3     H2       HT       0.417000       1.00800           0
     40945 W2       13649    TIP3     OH2      OT      -0.834000       15.9994           0
     40946 W2       13649    TIP3     H1       HT       0.417000       1.00800           0
     40947 W2       13649    TIP3     H2       HT       0.417000       1.00800           0
     40948 W2       13650    TIP3     OH2      OT      -0.834000       15.9994           0
     40949 W2       13650    TIP3     H1       HT       0.417000       1.00800           0
     40950 W2       13650    TIP3     H2       HT       0.417000       1.00800           0
     40951 W2       13651    TIP3     OH2      OT      -0.834000       15.9994           0
     40952 W2       13651    TIP3     H1       HT       0.417000       1.00800           0
     40953 W2       13651    TIP3     H2       HT       0.417000       1.00800           0
     40954 W2       13652    TIP3     OH2      OT      -0.834000       15.9994           0
     40955 W2       13652    TIP3     H1       HT       0.417000       1.00800           0
     40956 W2       13652    TIP3     H2       HT       0.417000       1.00800           0
     40957 W2       13653    TIP3     OH2      OT      -0.834000       15.9994           0
     40958 W2       13653    TIP3     H1       HT       0.417000       1.00800           0
     40959 W2       13653    TIP3     H2       HT       0.417000       1.00800           0
     40960 W2       13654    TIP3     OH2      OT      -0.834000       15.9994           0
     40961 W2       13654    TIP3     H1       HT       0.417000       1.00800           0
     40962 W2       13654    TIP3     H2       HT       0.417000       1.00800           0
     40963 W2       13655    TIP3     OH2      OT      -0.834000       15.9994           0
     40964 W2       13655    TIP3     H1       HT       0.417000       1.00800           0
     40965 W2       13655    TIP3     H2       HT       0.417000       1.00800           0
     40966 W2       13656    TIP3     OH2      OT      -0.834000       15.9994           0
     40967 W2       13656    TIP3     H1       HT       0.417000       1.00800           0
     40968 W2       13656    TIP3     H2       HT       0.417000       1.00800           0
     40969 W2       13657    TIP3     OH2      OT      -0.834000       15.9994           0
     40970 W2       13657    TIP3     H1       HT       0.417000       1.00800           0
     40971 W2       13657    TIP3     H2       HT       0.417000       1.00800           0
     40972 W2       13658    TIP3     OH2      OT      -0.834000       15.9994           0
     40973 W2       13658    TIP3     H1       HT       0.417000       1.00800           0
     40974 W2       13658    TIP3     H2       HT       0.417000       1.00800           0
     40975 W2       13659    TIP3     OH2      OT      -0.834000       15.9994           0
     40976 W2       13659    TIP3     H1       HT       0.417000       1.00800           0
     40977 W2       13659    TIP3     H2       HT       0.417000       1.00800           0
     40978 W2       13660    TIP3     OH2      OT      -0.834000       15.9994           0
     40979 W2       13660    TIP3     H1       HT       0.417000       1.00800           0
     40980 W2       13660    TIP3     H2       HT       0.417000       1.00800           0
     40981 W2       13661    TIP3     OH2      OT      -0.834000       15.9994           0
     40982 W2       13661    TIP3     H1       HT       0.417000       1.00800           0
     40983 W2       13661    TIP3     H2       HT       0.417000       1.00800           0
     40984 W2       13662    TIP3     OH2      OT      -0.834000       15.9994           0
     40985 W2       13662    TIP3     H1       HT       0.417000       1.00800           0
     40986 W2       13662    TIP3     H2       HT       0.417000       1.00800           0
     40987 W2       13663    TIP3     OH2      OT      -0.834000       15.9994           0
     40988 W2       13663    TIP3     H1       HT       0.417000       1.00800           0
     40989 W2       13663    TIP3     H2       HT       0.417000       1.00800           0
     40990 W2       13664    TIP3     OH2      OT      -0.834000       15.9994           0
     40991 W2       13664    TIP3     H1       HT       0.417000       1.00800           0
     40992 W2       13664    TIP3     H2       HT       0.417000       1.00800           0
     40993 W2       13665    TIP3     OH2      OT      -0.834000       15.9994           0
     40994 W2       13665    TIP3     H1       HT       0.417000       1.00800           0
     40995 W2       13665    TIP3     H2       HT       0.417000       1.00800           0
     40996 W2       13666    TIP3     OH2      OT      -0.834000       15.9994           0
     40997 W2       13666    TIP3     H1       HT       0.417000       1.00800           0
     40998 W2       13666    TIP3     H2       HT       0.417000       1.00800           0
     40999 W2       13667    TIP3     OH2      OT      -0.834000       15.9994           0
     41000 W2       13667    TIP3     H1       HT       0.417000       1.00800           0
     41001 W2       13667    TIP3     H2       HT       0.417000       1.00800           0
     41002 W2       13668    TIP3     OH2      OT      -0.834000       15.9994           0
     41003 W2       13668    TIP3     H1       HT       0.417000       1.00800           0
     41004 W2       13668    TIP3     H2       HT       0.417000       1.00800           0
     41005 W2       13669    TIP3     OH2      OT      -0.834000       15.9994           0
     41006 W2       13669    TIP3     H1       HT       0.417000       1.00800           0
     41007 W2       13669    TIP3     H2       HT       0.417000       1.00800           0
     41008 W2       13670    TIP3     OH2      OT      -0.834000       15.9994           0
     41009 W2       13670    TIP3     H1       HT       0.417000       1.00800           0
     41010 W2       13670    TIP3     H2       HT       0.417000       1.00800           0
     41011 W2       13671    TIP3     OH2      OT      -0.834000       15.9994           0
     41012 W2       13671    TIP3     H1       HT       0.417000       1.00800           0
     41013 W2       13671    TIP3     H2       HT       0.417000       1.00800           0
     41014 W2       13672    TIP3     OH2      OT      -0.834000       15.9994           0
     41015 W2       13672    TIP3     H1       HT       0.417000       1.00800           0
     41016 W2       13672    TIP3     H2       HT       0.417000       1.00800           0
     41017 W2       13673    TIP3     OH2      OT      -0.834000       15.9994           0
     41018 W2       13673    TIP3     H1       HT       0.417000       1.00800           0
     41019 W2       13673    TIP3     H2       HT       0.417000       1.00800           0
     41020 W2       13674    TIP3     OH2      OT      -0.834000       15.9994           0
     41021 W2       13674    TIP3     H1       HT       0.417000       1.00800           0
     41022 W2       13674    TIP3     H2       HT       0.417000       1.00800           0
     41023 W2       13675    TIP3     OH2      OT      -0.834000       15.9994           0
     41024 W2       13675    TIP3     H1       HT       0.417000       1.00800           0
     41025 W2       13675    TIP3     H2       HT       0.417000       1.00800           0
     41026 W2       13676    TIP3     OH2      OT      -0.834000       15.9994           0
     41027 W2       13676    TIP3     H1       HT       0.417000       1.00800           0
     41028 W2       13676    TIP3     H2       HT       0.417000       1.00800           0
     41029 W2       13677    TIP3     OH2      OT      -0.834000       15.9994           0
     41030 W2       13677    TIP3     H1       HT       0.417000       1.00800           0
     41031 W2       13677    TIP3     H2       HT       0.417000       1.00800           0
     41032 W2       13678    TIP3     OH2      OT      -0.834000       15.9994           0
     41033 W2       13678    TIP3     H1       HT       0.417000       1.00800           0
     41034 W2       13678    TIP3     H2       HT       0.417000       1.00800           0
     41035 W2       13679    TIP3     OH2      OT      -0.834000       15.9994           0
     41036 W2       13679    TIP3     H1       HT       0.417000       1.00800           0
     41037 W2       13679    TIP3     H2       HT       0.417000       1.00800           0
     41038 W2       13680    TIP3     OH2      OT      -0.834000       15.9994           0
     41039 W2       13680    TIP3     H1       HT       0.417000       1.00800           0
     41040 W2       13680    TIP3     H2       HT       0.417000       1.00800           0
     41041 W2       13681    TIP3     OH2      OT      -0.834000       15.9994           0
     41042 W2       13681    TIP3     H1       HT       0.417000       1.00800           0
     41043 W2       13681    TIP3     H2       HT       0.417000       1.00800           0
     41044 W2       13682    TIP3     OH2      OT      -0.834000       15.9994           0
     41045 W2       13682    TIP3     H1       HT       0.417000       1.00800           0
     41046 W2       13682    TIP3     H2       HT       0.417000       1.00800           0
     41047 W2       13683    TIP3     OH2      OT      -0.834000       15.9994           0
     41048 W2       13683    TIP3     H1       HT       0.417000       1.00800           0
     41049 W2       13683    TIP3     H2       HT       0.417000       1.00800           0
     41050 W2       13684    TIP3     OH2      OT      -0.834000       15.9994           0
     41051 W2       13684    TIP3     H1       HT       0.417000       1.00800           0
     41052 W2       13684    TIP3     H2       HT       0.417000       1.00800           0
     41053 W2       13685    TIP3     OH2      OT      -0.834000       15.9994           0
     41054 W2       13685    TIP3     H1       HT       0.417000       1.00800           0
     41055 W2       13685    TIP3     H2       HT       0.417000       1.00800           0
     41056 W2       13686    TIP3     OH2      OT      -0.834000       15.9994           0
     41057 W2       13686    TIP3     H1       HT       0.417000       1.00800           0
     41058 W2       13686    TIP3     H2       HT       0.417000       1.00800           0
     41059 W2       13687    TIP3     OH2      OT      -0.834000       15.9994           0
     41060 W2       13687    TIP3     H1       HT       0.417000       1.00800           0
     41061 W2       13687    TIP3     H2       HT       0.417000       1.00800           0
     41062 W2       13688    TIP3     OH2      OT      -0.834000       15.9994           0
     41063 W2       13688    TIP3     H1       HT       0.417000       1.00800           0
     41064 W2       13688    TIP3     H2       HT       0.417000       1.00800           0
     41065 W2       13689    TIP3     OH2      OT      -0.834000       15.9994           0
     41066 W2       13689    TIP3     H1       HT       0.417000       1.00800           0
     41067 W2       13689    TIP3     H2       HT       0.417000       1.00800           0
     41068 W2       13690    TIP3     OH2      OT      -0.834000       15.9994           0
     41069 W2       13690    TIP3     H1       HT       0.417000       1.00800           0
     41070 W2       13690    TIP3     H2       HT       0.417000       1.00800           0
     41071 W2       13691    TIP3     OH2      OT      -0.834000       15.9994           0
     41072 W2       13691    TIP3     H1       HT       0.417000       1.00800           0
     41073 W2       13691    TIP3     H2       HT       0.417000       1.00800           0
     41074 W2       13692    TIP3     OH2      OT      -0.834000       15.9994           0
     41075 W2       13692    TIP3     H1       HT       0.417000       1.00800           0
     41076 W2       13692    TIP3     H2       HT       0.417000       1.00800           0
     41077 W2       13693    TIP3     OH2      OT      -0.834000       15.9994           0
     41078 W2       13693    TIP3     H1       HT       0.417000       1.00800           0
     41079 W2       13693    TIP3     H2       HT       0.417000       1.00800           0
     41080 W2       13694    TIP3     OH2      OT      -0.834000       15.9994           0
     41081 W2       13694    TIP3     H1       HT       0.417000       1.00800           0
     41082 W2       13694    TIP3     H2       HT       0.417000       1.00800           0
     41083 W2       13695    TIP3     OH2      OT      -0.834000       15.9994           0
     41084 W2       13695    TIP3     H1       HT       0.417000       1.00800           0
     41085 W2       13695    TIP3     H2       HT       0.417000       1.00800           0
     41086 W2       13696    TIP3     OH2      OT      -0.834000       15.9994           0
     41087 W2       13696    TIP3     H1       HT       0.417000       1.00800           0
     41088 W2       13696    TIP3     H2       HT       0.417000       1.00800           0
     41089 W2       13697    TIP3     OH2      OT      -0.834000       15.9994           0
     41090 W2       13697    TIP3     H1       HT       0.417000       1.00800           0
     41091 W2       13697    TIP3     H2       HT       0.417000       1.00800           0
     41092 W2       13698    TIP3     OH2      OT      -0.834000       15.9994           0
     41093 W2       13698    TIP3     H1       HT       0.417000       1.00800           0
     41094 W2       13698    TIP3     H2       HT       0.417000       1.00800           0
     41095 W2       13699    TIP3     OH2      OT      -0.834000       15.9994           0
     41096 W2       13699    TIP3     H1       HT       0.417000       1.00800           0
     41097 W2       13699    TIP3     H2       HT       0.417000       1.00800           0
     41098 W2       13700    TIP3     OH2      OT      -0.834000       15.9994           0
     41099 W2       13700    TIP3     H1       HT       0.417000       1.00800           0
     41100 W2       13700    TIP3     H2       HT       0.417000       1.00800           0
     41101 W2       13701    TIP3     OH2      OT      -0.834000       15.9994           0
     41102 W2       13701    TIP3     H1       HT       0.417000       1.00800           0
     41103 W2       13701    TIP3     H2       HT       0.417000       1.00800           0
     41104 W2       13702    TIP3     OH2      OT      -0.834000       15.9994           0
     41105 W2       13702    TIP3     H1       HT       0.417000       1.00800           0
     41106 W2       13702    TIP3     H2       HT       0.417000       1.00800           0
     41107 W2       13703    TIP3     OH2      OT      -0.834000       15.9994           0
     41108 W2       13703    TIP3     H1       HT       0.417000       1.00800           0
     41109 W2       13703    TIP3     H2       HT       0.417000       1.00800           0
     41110 W2       13704    TIP3     OH2      OT      -0.834000       15.9994           0
     41111 W2       13704    TIP3     H1       HT       0.417000       1.00800           0
     41112 W2       13704    TIP3     H2       HT       0.417000       1.00800           0
     41113 W2       13705    TIP3     OH2      OT      -0.834000       15.9994           0
     41114 W2       13705    TIP3     H1       HT       0.417000       1.00800           0
     41115 W2       13705    TIP3     H2       HT       0.417000       1.00800           0
     41116 W2       13706    TIP3     OH2      OT      -0.834000       15.9994           0
     41117 W2       13706    TIP3     H1       HT       0.417000       1.00800           0
     41118 W2       13706    TIP3     H2       HT       0.417000       1.00800           0
     41119 W2       13707    TIP3     OH2      OT      -0.834000       15.9994           0
     41120 W2       13707    TIP3     H1       HT       0.417000       1.00800           0
     41121 W2       13707    TIP3     H2       HT       0.417000       1.00800           0
     41122 W2       13708    TIP3     OH2      OT      -0.834000       15.9994           0
     41123 W2       13708    TIP3     H1       HT       0.417000       1.00800           0
     41124 W2       13708    TIP3     H2       HT       0.417000       1.00800           0
     41125 W2       13709    TIP3     OH2      OT      -0.834000       15.9994           0
     41126 W2       13709    TIP3     H1       HT       0.417000       1.00800           0
     41127 W2       13709    TIP3     H2       HT       0.417000       1.00800           0
     41128 W2       13710    TIP3     OH2      OT      -0.834000       15.9994           0
     41129 W2       13710    TIP3     H1       HT       0.417000       1.00800           0
     41130 W2       13710    TIP3     H2       HT       0.417000       1.00800           0
     41131 W2       13711    TIP3     OH2      OT      -0.834000       15.9994           0
     41132 W2       13711    TIP3     H1       HT       0.417000       1.00800           0
     41133 W2       13711    TIP3     H2       HT       0.417000       1.00800           0
     41134 W2       13712    TIP3     OH2      OT      -0.834000       15.9994           0
     41135 W2       13712    TIP3     H1       HT       0.417000       1.00800           0
     41136 W2       13712    TIP3     H2       HT       0.417000       1.00800           0
     41137 W2       13713    TIP3     OH2      OT      -0.834000       15.9994           0
     41138 W2       13713    TIP3     H1       HT       0.417000       1.00800           0
     41139 W2       13713    TIP3     H2       HT       0.417000       1.00800           0
     41140 W2       13714    TIP3     OH2      OT      -0.834000       15.9994           0
     41141 W2       13714    TIP3     H1       HT       0.417000       1.00800           0
     41142 W2       13714    TIP3     H2       HT       0.417000       1.00800           0
     41143 W2       13715    TIP3     OH2      OT      -0.834000       15.9994           0
     41144 W2       13715    TIP3     H1       HT       0.417000       1.00800           0
     41145 W2       13715    TIP3     H2       HT       0.417000       1.00800           0
     41146 W2       13716    TIP3     OH2      OT      -0.834000       15.9994           0
     41147 W2       13716    TIP3     H1       HT       0.417000       1.00800           0
     41148 W2       13716    TIP3     H2       HT       0.417000       1.00800           0
     41149 W2       13717    TIP3     OH2      OT      -0.834000       15.9994           0
     41150 W2       13717    TIP3     H1       HT       0.417000       1.00800           0
     41151 W2       13717    TIP3     H2       HT       0.417000       1.00800           0
     41152 W2       13718    TIP3     OH2      OT      -0.834000       15.9994           0
     41153 W2       13718    TIP3     H1       HT       0.417000       1.00800           0
     41154 W2       13718    TIP3     H2       HT       0.417000       1.00800           0
     41155 W2       13719    TIP3     OH2      OT      -0.834000       15.9994           0
     41156 W2       13719    TIP3     H1       HT       0.417000       1.00800           0
     41157 W2       13719    TIP3     H2       HT       0.417000       1.00800           0
     41158 W2       13720    TIP3     OH2      OT      -0.834000       15.9994           0
     41159 W2       13720    TIP3     H1       HT       0.417000       1.00800           0
     41160 W2       13720    TIP3     H2       HT       0.417000       1.00800           0
     41161 W2       13721    TIP3     OH2      OT      -0.834000       15.9994           0
     41162 W2       13721    TIP3     H1       HT       0.417000       1.00800           0
     41163 W2       13721    TIP3     H2       HT       0.417000       1.00800           0
     41164 W2       13722    TIP3     OH2      OT      -0.834000       15.9994           0
     41165 W2       13722    TIP3     H1       HT       0.417000       1.00800           0
     41166 W2       13722    TIP3     H2       HT       0.417000       1.00800           0
     41167 W2       13723    TIP3     OH2      OT      -0.834000       15.9994           0
     41168 W2       13723    TIP3     H1       HT       0.417000       1.00800           0
     41169 W2       13723    TIP3     H2       HT       0.417000       1.00800           0
     41170 W2       13724    TIP3     OH2      OT      -0.834000       15.9994           0
     41171 W2       13724    TIP3     H1       HT       0.417000       1.00800           0
     41172 W2       13724    TIP3     H2       HT       0.417000       1.00800           0
     41173 W2       13725    TIP3     OH2      OT      -0.834000       15.9994           0
     41174 W2       13725    TIP3     H1       HT       0.417000       1.00800           0
     41175 W2       13725    TIP3     H2       HT       0.417000       1.00800           0
     41176 W2       13726    TIP3     OH2      OT      -0.834000       15.9994           0
     41177 W2       13726    TIP3     H1       HT       0.417000       1.00800           0
     41178 W2       13726    TIP3     H2       HT       0.417000       1.00800           0
     41179 W2       13727    TIP3     OH2      OT      -0.834000       15.9994           0
     41180 W2       13727    TIP3     H1       HT       0.417000       1.00800           0
     41181 W2       13727    TIP3     H2       HT       0.417000       1.00800           0
     41182 W2       13728    TIP3     OH2      OT      -0.834000       15.9994           0
     41183 W2       13728    TIP3     H1       HT       0.417000       1.00800           0
     41184 W2       13728    TIP3     H2       HT       0.417000       1.00800           0
     41185 W2       13729    TIP3     OH2      OT      -0.834000       15.9994           0
     41186 W2       13729    TIP3     H1       HT       0.417000       1.00800           0
     41187 W2       13729    TIP3     H2       HT       0.417000       1.00800           0
     41188 W2       13730    TIP3     OH2      OT      -0.834000       15.9994           0
     41189 W2       13730    TIP3     H1       HT       0.417000       1.00800           0
     41190 W2       13730    TIP3     H2       HT       0.417000       1.00800           0
     41191 W2       13731    TIP3     OH2      OT      -0.834000       15.9994           0
     41192 W2       13731    TIP3     H1       HT       0.417000       1.00800           0
     41193 W2       13731    TIP3     H2       HT       0.417000       1.00800           0
     41194 W2       13732    TIP3     OH2      OT      -0.834000       15.9994           0
     41195 W2       13732    TIP3     H1       HT       0.417000       1.00800           0
     41196 W2       13732    TIP3     H2       HT       0.417000       1.00800           0
     41197 W2       13733    TIP3     OH2      OT      -0.834000       15.9994           0
     41198 W2       13733    TIP3     H1       HT       0.417000       1.00800           0
     41199 W2       13733    TIP3     H2       HT       0.417000       1.00800           0
     41200 W2       13734    TIP3     OH2      OT      -0.834000       15.9994           0
     41201 W2       13734    TIP3     H1       HT       0.417000       1.00800           0
     41202 W2       13734    TIP3     H2       HT       0.417000       1.00800           0
     41203 W2       13735    TIP3     OH2      OT      -0.834000       15.9994           0
     41204 W2       13735    TIP3     H1       HT       0.417000       1.00800           0
     41205 W2       13735    TIP3     H2       HT       0.417000       1.00800           0
     41206 W2       13736    TIP3     OH2      OT      -0.834000       15.9994           0
     41207 W2       13736    TIP3     H1       HT       0.417000       1.00800           0
     41208 W2       13736    TIP3     H2       HT       0.417000       1.00800           0
     41209 W2       13737    TIP3     OH2      OT      -0.834000       15.9994           0
     41210 W2       13737    TIP3     H1       HT       0.417000       1.00800           0
     41211 W2       13737    TIP3     H2       HT       0.417000       1.00800           0
     41212 W2       13738    TIP3     OH2      OT      -0.834000       15.9994           0
     41213 W2       13738    TIP3     H1       HT       0.417000       1.00800           0
     41214 W2       13738    TIP3     H2       HT       0.417000       1.00800           0
     41215 W2       13739    TIP3     OH2      OT      -0.834000       15.9994           0
     41216 W2       13739    TIP3     H1       HT       0.417000       1.00800           0
     41217 W2       13739    TIP3     H2       HT       0.417000       1.00800           0
     41218 W2       13740    TIP3     OH2      OT      -0.834000       15.9994           0
     41219 W2       13740    TIP3     H1       HT       0.417000       1.00800           0
     41220 W2       13740    TIP3     H2       HT       0.417000       1.00800           0
     41221 W2       13741    TIP3     OH2      OT      -0.834000       15.9994           0
     41222 W2       13741    TIP3     H1       HT       0.417000       1.00800           0
     41223 W2       13741    TIP3     H2       HT       0.417000       1.00800           0
     41224 W2       13742    TIP3     OH2      OT      -0.834000       15.9994           0
     41225 W2       13742    TIP3     H1       HT       0.417000       1.00800           0
     41226 W2       13742    TIP3     H2       HT       0.417000       1.00800           0
     41227 W2       13743    TIP3     OH2      OT      -0.834000       15.9994           0
     41228 W2       13743    TIP3     H1       HT       0.417000       1.00800           0
     41229 W2       13743    TIP3     H2       HT       0.417000       1.00800           0
     41230 W2       13744    TIP3     OH2      OT      -0.834000       15.9994           0
     41231 W2       13744    TIP3     H1       HT       0.417000       1.00800           0
     41232 W2       13744    TIP3     H2       HT       0.417000       1.00800           0
     41233 W2       13745    TIP3     OH2      OT      -0.834000       15.9994           0
     41234 W2       13745    TIP3     H1       HT       0.417000       1.00800           0
     41235 W2       13745    TIP3     H2       HT       0.417000       1.00800           0
     41236 W2       13746    TIP3     OH2      OT      -0.834000       15.9994           0
     41237 W2       13746    TIP3     H1       HT       0.417000       1.00800           0
     41238 W2       13746    TIP3     H2       HT       0.417000       1.00800           0
     41239 W2       13747    TIP3     OH2      OT      -0.834000       15.9994           0
     41240 W2       13747    TIP3     H1       HT       0.417000       1.00800           0
     41241 W2       13747    TIP3     H2       HT       0.417000       1.00800           0
     41242 W2       13748    TIP3     OH2      OT      -0.834000       15.9994           0
     41243 W2       13748    TIP3     H1       HT       0.417000       1.00800           0
     41244 W2       13748    TIP3     H2       HT       0.417000       1.00800           0
     41245 W2       13749    TIP3     OH2      OT      -0.834000       15.9994           0
     41246 W2       13749    TIP3     H1       HT       0.417000       1.00800           0
     41247 W2       13749    TIP3     H2       HT       0.417000       1.00800           0
     41248 W2       13750    TIP3     OH2      OT      -0.834000       15.9994           0
     41249 W2       13750    TIP3     H1       HT       0.417000       1.00800           0
     41250 W2       13750    TIP3     H2       HT       0.417000       1.00800           0
     41251 W2       13751    TIP3     OH2      OT      -0.834000       15.9994           0
     41252 W2       13751    TIP3     H1       HT       0.417000       1.00800           0
     41253 W2       13751    TIP3     H2       HT       0.417000       1.00800           0
     41254 W2       13752    TIP3     OH2      OT      -0.834000       15.9994           0
     41255 W2       13752    TIP3     H1       HT       0.417000       1.00800           0
     41256 W2       13752    TIP3     H2       HT       0.417000       1.00800           0
     41257 W2       13753    TIP3     OH2      OT      -0.834000       15.9994           0
     41258 W2       13753    TIP3     H1       HT       0.417000       1.00800           0
     41259 W2       13753    TIP3     H2       HT       0.417000       1.00800           0
     41260 W2       13754    TIP3     OH2      OT      -0.834000       15.9994           0
     41261 W2       13754    TIP3     H1       HT       0.417000       1.00800           0
     41262 W2       13754    TIP3     H2       HT       0.417000       1.00800           0
     41263 W2       13755    TIP3     OH2      OT      -0.834000       15.9994           0
     41264 W2       13755    TIP3     H1       HT       0.417000       1.00800           0
     41265 W2       13755    TIP3     H2       HT       0.417000       1.00800           0
     41266 W2       13756    TIP3     OH2      OT      -0.834000       15.9994           0
     41267 W2       13756    TIP3     H1       HT       0.417000       1.00800           0
     41268 W2       13756    TIP3     H2       HT       0.417000       1.00800           0
     41269 W2       13757    TIP3     OH2      OT      -0.834000       15.9994           0
     41270 W2       13757    TIP3     H1       HT       0.417000       1.00800           0
     41271 W2       13757    TIP3     H2       HT       0.417000       1.00800           0
     41272 W2       13758    TIP3     OH2      OT      -0.834000       15.9994           0
     41273 W2       13758    TIP3     H1       HT       0.417000       1.00800           0
     41274 W2       13758    TIP3     H2       HT       0.417000       1.00800           0
     41275 W2       13759    TIP3     OH2      OT      -0.834000       15.9994           0
     41276 W2       13759    TIP3     H1       HT       0.417000       1.00800           0
     41277 W2       13759    TIP3     H2       HT       0.417000       1.00800           0
     41278 W2       13760    TIP3     OH2      OT      -0.834000       15.9994           0
     41279 W2       13760    TIP3     H1       HT       0.417000       1.00800           0
     41280 W2       13760    TIP3     H2       HT       0.417000       1.00800           0
     41281 W2       13761    TIP3     OH2      OT      -0.834000       15.9994           0
     41282 W2       13761    TIP3     H1       HT       0.417000       1.00800           0
     41283 W2       13761    TIP3     H2       HT       0.417000       1.00800           0
     41284 W2       13762    TIP3     OH2      OT      -0.834000       15.9994           0
     41285 W2       13762    TIP3     H1       HT       0.417000       1.00800           0
     41286 W2       13762    TIP3     H2       HT       0.417000       1.00800           0
     41287 W2       13763    TIP3     OH2      OT      -0.834000       15.9994           0
     41288 W2       13763    TIP3     H1       HT       0.417000       1.00800           0
     41289 W2       13763    TIP3     H2       HT       0.417000       1.00800           0
     41290 W2       13764    TIP3     OH2      OT      -0.834000       15.9994           0
     41291 W2       13764    TIP3     H1       HT       0.417000       1.00800           0
     41292 W2       13764    TIP3     H2       HT       0.417000       1.00800           0
     41293 W2       13765    TIP3     OH2      OT      -0.834000       15.9994           0
     41294 W2       13765    TIP3     H1       HT       0.417000       1.00800           0
     41295 W2       13765    TIP3     H2       HT       0.417000       1.00800           0
     41296 W2       13766    TIP3     OH2      OT      -0.834000       15.9994           0
     41297 W2       13766    TIP3     H1       HT       0.417000       1.00800           0
     41298 W2       13766    TIP3     H2       HT       0.417000       1.00800           0
     41299 W2       13767    TIP3     OH2      OT      -0.834000       15.9994           0
     41300 W2       13767    TIP3     H1       HT       0.417000       1.00800           0
     41301 W2       13767    TIP3     H2       HT       0.417000       1.00800           0
     41302 W2       13768    TIP3     OH2      OT      -0.834000       15.9994           0
     41303 W2       13768    TIP3     H1       HT       0.417000       1.00800           0
     41304 W2       13768    TIP3     H2       HT       0.417000       1.00800           0
     41305 W2       13769    TIP3     OH2      OT      -0.834000       15.9994           0
     41306 W2       13769    TIP3     H1       HT       0.417000       1.00800           0
     41307 W2       13769    TIP3     H2       HT       0.417000       1.00800           0
     41308 W2       13770    TIP3     OH2      OT      -0.834000       15.9994           0
     41309 W2       13770    TIP3     H1       HT       0.417000       1.00800           0
     41310 W2       13770    TIP3     H2       HT       0.417000       1.00800           0
     41311 W2       13771    TIP3     OH2      OT      -0.834000       15.9994           0
     41312 W2       13771    TIP3     H1       HT       0.417000       1.00800           0
     41313 W2       13771    TIP3     H2       HT       0.417000       1.00800           0
     41314 W2       13772    TIP3     OH2      OT      -0.834000       15.9994           0
     41315 W2       13772    TIP3     H1       HT       0.417000       1.00800           0
     41316 W2       13772    TIP3     H2       HT       0.417000       1.00800           0
     41317 W2       13773    TIP3     OH2      OT      -0.834000       15.9994           0
     41318 W2       13773    TIP3     H1       HT       0.417000       1.00800           0
     41319 W2       13773    TIP3     H2       HT       0.417000       1.00800           0
     41320 W2       13774    TIP3     OH2      OT      -0.834000       15.9994           0
     41321 W2       13774    TIP3     H1       HT       0.417000       1.00800           0
     41322 W2       13774    TIP3     H2       HT       0.417000       1.00800           0
     41323 W2       13775    TIP3     OH2      OT      -0.834000       15.9994           0
     41324 W2       13775    TIP3     H1       HT       0.417000       1.00800           0
     41325 W2       13775    TIP3     H2       HT       0.417000       1.00800           0
     41326 W2       13776    TIP3     OH2      OT      -0.834000       15.9994           0
     41327 W2       13776    TIP3     H1       HT       0.417000       1.00800           0
     41328 W2       13776    TIP3     H2       HT       0.417000       1.00800           0
     41329 W2       13777    TIP3     OH2      OT      -0.834000       15.9994           0
     41330 W2       13777    TIP3     H1       HT       0.417000       1.00800           0
     41331 W2       13777    TIP3     H2       HT       0.417000       1.00800           0
     41332 W2       13778    TIP3     OH2      OT      -0.834000       15.9994           0
     41333 W2       13778    TIP3     H1       HT       0.417000       1.00800           0
     41334 W2       13778    TIP3     H2       HT       0.417000       1.00800           0
     41335 W2       13779    TIP3     OH2      OT      -0.834000       15.9994           0
     41336 W2       13779    TIP3     H1       HT       0.417000       1.00800           0
     41337 W2       13779    TIP3     H2       HT       0.417000       1.00800           0
     41338 W2       13780    TIP3     OH2      OT      -0.834000       15.9994           0
     41339 W2       13780    TIP3     H1       HT       0.417000       1.00800           0
     41340 W2       13780    TIP3     H2       HT       0.417000       1.00800           0
     41341 W2       13781    TIP3     OH2      OT      -0.834000       15.9994           0
     41342 W2       13781    TIP3     H1       HT       0.417000       1.00800           0
     41343 W2       13781    TIP3     H2       HT       0.417000       1.00800           0
     41344 W2       13782    TIP3     OH2      OT      -0.834000       15.9994           0
     41345 W2       13782    TIP3     H1       HT       0.417000       1.00800           0
     41346 W2       13782    TIP3     H2       HT       0.417000       1.00800           0
     41347 W2       13783    TIP3     OH2      OT      -0.834000       15.9994           0
     41348 W2       13783    TIP3     H1       HT       0.417000       1.00800           0
     41349 W2       13783    TIP3     H2       HT       0.417000       1.00800           0
     41350 W2       13784    TIP3     OH2      OT      -0.834000       15.9994           0
     41351 W2       13784    TIP3     H1       HT       0.417000       1.00800           0
     41352 W2       13784    TIP3     H2       HT       0.417000       1.00800           0
     41353 W2       13785    TIP3     OH2      OT      -0.834000       15.9994           0
     41354 W2       13785    TIP3     H1       HT       0.417000       1.00800           0
     41355 W2       13785    TIP3     H2       HT       0.417000       1.00800           0
     41356 W2       13786    TIP3     OH2      OT      -0.834000       15.9994           0
     41357 W2       13786    TIP3     H1       HT       0.417000       1.00800           0
     41358 W2       13786    TIP3     H2       HT       0.417000       1.00800           0
     41359 W2       13787    TIP3     OH2      OT      -0.834000       15.9994           0
     41360 W2       13787    TIP3     H1       HT       0.417000       1.00800           0
     41361 W2       13787    TIP3     H2       HT       0.417000       1.00800           0
     41362 W2       13788    TIP3     OH2      OT      -0.834000       15.9994           0
     41363 W2       13788    TIP3     H1       HT       0.417000       1.00800           0
     41364 W2       13788    TIP3     H2       HT       0.417000       1.00800           0
     41365 W2       13789    TIP3     OH2      OT      -0.834000       15.9994           0
     41366 W2       13789    TIP3     H1       HT       0.417000       1.00800           0
     41367 W2       13789    TIP3     H2       HT       0.417000       1.00800           0
     41368 W2       13790    TIP3     OH2      OT      -0.834000       15.9994           0
     41369 W2       13790    TIP3     H1       HT       0.417000       1.00800           0
     41370 W2       13790    TIP3     H2       HT       0.417000       1.00800           0
     41371 W2       13791    TIP3     OH2      OT      -0.834000       15.9994           0
     41372 W2       13791    TIP3     H1       HT       0.417000       1.00800           0
     41373 W2       13791    TIP3     H2       HT       0.417000       1.00800           0
     41374 W2       13792    TIP3     OH2      OT      -0.834000       15.9994           0
     41375 W2       13792    TIP3     H1       HT       0.417000       1.00800           0
     41376 W2       13792    TIP3     H2       HT       0.417000       1.00800           0
     41377 W2       13793    TIP3     OH2      OT      -0.834000       15.9994           0
     41378 W2       13793    TIP3     H1       HT       0.417000       1.00800           0
     41379 W2       13793    TIP3     H2       HT       0.417000       1.00800           0
     41380 W2       13794    TIP3     OH2      OT      -0.834000       15.9994           0
     41381 W2       13794    TIP3     H1       HT       0.417000       1.00800           0
     41382 W2       13794    TIP3     H2       HT       0.417000       1.00800           0
     41383 W2       13795    TIP3     OH2      OT      -0.834000       15.9994           0
     41384 W2       13795    TIP3     H1       HT       0.417000       1.00800           0
     41385 W2       13795    TIP3     H2       HT       0.417000       1.00800           0
     41386 W2       13796    TIP3     OH2      OT      -0.834000       15.9994           0
     41387 W2       13796    TIP3     H1       HT       0.417000       1.00800           0
     41388 W2       13796    TIP3     H2       HT       0.417000       1.00800           0
     41389 W2       13797    TIP3     OH2      OT      -0.834000       15.9994           0
     41390 W2       13797    TIP3     H1       HT       0.417000       1.00800           0
     41391 W2       13797    TIP3     H2       HT       0.417000       1.00800           0
     41392 W2       13798    TIP3     OH2      OT      -0.834000       15.9994           0
     41393 W2       13798    TIP3     H1       HT       0.417000       1.00800           0
     41394 W2       13798    TIP3     H2       HT       0.417000       1.00800           0
     41395 W2       13799    TIP3     OH2      OT      -0.834000       15.9994           0
     41396 W2       13799    TIP3     H1       HT       0.417000       1.00800           0
     41397 W2       13799    TIP3     H2       HT       0.417000       1.00800           0
     41398 W2       13800    TIP3     OH2      OT      -0.834000       15.9994           0
     41399 W2       13800    TIP3     H1       HT       0.417000       1.00800           0
     41400 W2       13800    TIP3     H2       HT       0.417000       1.00800           0
     41401 W2       13801    TIP3     OH2      OT      -0.834000       15.9994           0
     41402 W2       13801    TIP3     H1       HT       0.417000       1.00800           0
     41403 W2       13801    TIP3     H2       HT       0.417000       1.00800           0
     41404 W2       13802    TIP3     OH2      OT      -0.834000       15.9994           0
     41405 W2       13802    TIP3     H1       HT       0.417000       1.00800           0
     41406 W2       13802    TIP3     H2       HT       0.417000       1.00800           0
     41407 W2       13803    TIP3     OH2      OT      -0.834000       15.9994           0
     41408 W2       13803    TIP3     H1       HT       0.417000       1.00800           0
     41409 W2       13803    TIP3     H2       HT       0.417000       1.00800           0
     41410 W2       13804    TIP3     OH2      OT      -0.834000       15.9994           0
     41411 W2       13804    TIP3     H1       HT       0.417000       1.00800           0
     41412 W2       13804    TIP3     H2       HT       0.417000       1.00800           0
     41413 W2       13805    TIP3     OH2      OT      -0.834000       15.9994           0
     41414 W2       13805    TIP3     H1       HT       0.417000       1.00800           0
     41415 W2       13805    TIP3     H2       HT       0.417000       1.00800           0
     41416 W2       13806    TIP3     OH2      OT      -0.834000       15.9994           0
     41417 W2       13806    TIP3     H1       HT       0.417000       1.00800           0
     41418 W2       13806    TIP3     H2       HT       0.417000       1.00800           0
     41419 W2       13807    TIP3     OH2      OT      -0.834000       15.9994           0
     41420 W2       13807    TIP3     H1       HT       0.417000       1.00800           0
     41421 W2       13807    TIP3     H2       HT       0.417000       1.00800           0
     41422 W2       13808    TIP3     OH2      OT      -0.834000       15.9994           0
     41423 W2       13808    TIP3     H1       HT       0.417000       1.00800           0
     41424 W2       13808    TIP3     H2       HT       0.417000       1.00800           0
     41425 W2       13809    TIP3     OH2      OT      -0.834000       15.9994           0
     41426 W2       13809    TIP3     H1       HT       0.417000       1.00800           0
     41427 W2       13809    TIP3     H2       HT       0.417000       1.00800           0
     41428 W2       13810    TIP3     OH2      OT      -0.834000       15.9994           0
     41429 W2       13810    TIP3     H1       HT       0.417000       1.00800           0
     41430 W2       13810    TIP3     H2       HT       0.417000       1.00800           0
     41431 W2       13811    TIP3     OH2      OT      -0.834000       15.9994           0
     41432 W2       13811    TIP3     H1       HT       0.417000       1.00800           0
     41433 W2       13811    TIP3     H2       HT       0.417000       1.00800           0
     41434 W2       13812    TIP3     OH2      OT      -0.834000       15.9994           0
     41435 W2       13812    TIP3     H1       HT       0.417000       1.00800           0
     41436 W2       13812    TIP3     H2       HT       0.417000       1.00800           0
     41437 W2       13813    TIP3     OH2      OT      -0.834000       15.9994           0
     41438 W2       13813    TIP3     H1       HT       0.417000       1.00800           0
     41439 W2       13813    TIP3     H2       HT       0.417000       1.00800           0
     41440 W2       13814    TIP3     OH2      OT      -0.834000       15.9994           0
     41441 W2       13814    TIP3     H1       HT       0.417000       1.00800           0
     41442 W2       13814    TIP3     H2       HT       0.417000       1.00800           0
     41443 W2       13815    TIP3     OH2      OT      -0.834000       15.9994           0
     41444 W2       13815    TIP3     H1       HT       0.417000       1.00800           0
     41445 W2       13815    TIP3     H2       HT       0.417000       1.00800           0
     41446 W2       13816    TIP3     OH2      OT      -0.834000       15.9994           0
     41447 W2       13816    TIP3     H1       HT       0.417000       1.00800           0
     41448 W2       13816    TIP3     H2       HT       0.417000       1.00800           0
     41449 W2       13817    TIP3     OH2      OT      -0.834000       15.9994           0
     41450 W2       13817    TIP3     H1       HT       0.417000       1.00800           0
     41451 W2       13817    TIP3     H2       HT       0.417000       1.00800           0
     41452 W2       13818    TIP3     OH2      OT      -0.834000       15.9994           0
     41453 W2       13818    TIP3     H1       HT       0.417000       1.00800           0
     41454 W2       13818    TIP3     H2       HT       0.417000       1.00800           0
     41455 W2       13819    TIP3     OH2      OT      -0.834000       15.9994           0
     41456 W2       13819    TIP3     H1       HT       0.417000       1.00800           0
     41457 W2       13819    TIP3     H2       HT       0.417000       1.00800           0
     41458 W2       13820    TIP3     OH2      OT      -0.834000       15.9994           0
     41459 W2       13820    TIP3     H1       HT       0.417000       1.00800           0
     41460 W2       13820    TIP3     H2       HT       0.417000       1.00800           0
     41461 W2       13821    TIP3     OH2      OT      -0.834000       15.9994           0
     41462 W2       13821    TIP3     H1       HT       0.417000       1.00800           0
     41463 W2       13821    TIP3     H2       HT       0.417000       1.00800           0
     41464 W2       13822    TIP3     OH2      OT      -0.834000       15.9994           0
     41465 W2       13822    TIP3     H1       HT       0.417000       1.00800           0
     41466 W2       13822    TIP3     H2       HT       0.417000       1.00800           0
     41467 W2       13823    TIP3     OH2      OT      -0.834000       15.9994           0
     41468 W2       13823    TIP3     H1       HT       0.417000       1.00800           0
     41469 W2       13823    TIP3     H2       HT       0.417000       1.00800           0
     41470 W2       13824    TIP3     OH2      OT      -0.834000       15.9994           0
     41471 W2       13824    TIP3     H1       HT       0.417000       1.00800           0
     41472 W2       13824    TIP3     H2       HT       0.417000       1.00800           0
     41473 W2       13825    TIP3     OH2      OT      -0.834000       15.9994           0
     41474 W2       13825    TIP3     H1       HT       0.417000       1.00800           0
     41475 W2       13825    TIP3     H2       HT       0.417000       1.00800           0
     41476 W2       13826    TIP3     OH2      OT      -0.834000       15.9994           0
     41477 W2       13826    TIP3     H1       HT       0.417000       1.00800           0
     41478 W2       13826    TIP3     H2       HT       0.417000       1.00800           0
     41479 W2       13827    TIP3     OH2      OT      -0.834000       15.9994           0
     41480 W2       13827    TIP3     H1       HT       0.417000       1.00800           0
     41481 W2       13827    TIP3     H2       HT       0.417000       1.00800           0
     41482 W2       13828    TIP3     OH2      OT      -0.834000       15.9994           0
     41483 W2       13828    TIP3     H1       HT       0.417000       1.00800           0
     41484 W2       13828    TIP3     H2       HT       0.417000       1.00800           0
     41485 W2       13829    TIP3     OH2      OT      -0.834000       15.9994           0
     41486 W2       13829    TIP3     H1       HT       0.417000       1.00800           0
     41487 W2       13829    TIP3     H2       HT       0.417000       1.00800           0
     41488 W2       13830    TIP3     OH2      OT      -0.834000       15.9994           0
     41489 W2       13830    TIP3     H1       HT       0.417000       1.00800           0
     41490 W2       13830    TIP3     H2       HT       0.417000       1.00800           0
     41491 W2       13831    TIP3     OH2      OT      -0.834000       15.9994           0
     41492 W2       13831    TIP3     H1       HT       0.417000       1.00800           0
     41493 W2       13831    TIP3     H2       HT       0.417000       1.00800           0
     41494 W2       13832    TIP3     OH2      OT      -0.834000       15.9994           0
     41495 W2       13832    TIP3     H1       HT       0.417000       1.00800           0
     41496 W2       13832    TIP3     H2       HT       0.417000       1.00800           0
     41497 W2       13833    TIP3     OH2      OT      -0.834000       15.9994           0
     41498 W2       13833    TIP3     H1       HT       0.417000       1.00800           0
     41499 W2       13833    TIP3     H2       HT       0.417000       1.00800           0
     41500 W2       13834    TIP3     OH2      OT      -0.834000       15.9994           0
     41501 W2       13834    TIP3     H1       HT       0.417000       1.00800           0
     41502 W2       13834    TIP3     H2       HT       0.417000       1.00800           0
     41503 W2       13835    TIP3     OH2      OT      -0.834000       15.9994           0
     41504 W2       13835    TIP3     H1       HT       0.417000       1.00800           0
     41505 W2       13835    TIP3     H2       HT       0.417000       1.00800           0
     41506 W2       13836    TIP3     OH2      OT      -0.834000       15.9994           0
     41507 W2       13836    TIP3     H1       HT       0.417000       1.00800           0
     41508 W2       13836    TIP3     H2       HT       0.417000       1.00800           0
     41509 W2       13837    TIP3     OH2      OT      -0.834000       15.9994           0
     41510 W2       13837    TIP3     H1       HT       0.417000       1.00800           0
     41511 W2       13837    TIP3     H2       HT       0.417000       1.00800           0
     41512 W2       13838    TIP3     OH2      OT      -0.834000       15.9994           0
     41513 W2       13838    TIP3     H1       HT       0.417000       1.00800           0
     41514 W2       13838    TIP3     H2       HT       0.417000       1.00800           0
     41515 W2       13839    TIP3     OH2      OT      -0.834000       15.9994           0
     41516 W2       13839    TIP3     H1       HT       0.417000       1.00800           0
     41517 W2       13839    TIP3     H2       HT       0.417000       1.00800           0
     41518 W2       13840    TIP3     OH2      OT      -0.834000       15.9994           0
     41519 W2       13840    TIP3     H1       HT       0.417000       1.00800           0
     41520 W2       13840    TIP3     H2       HT       0.417000       1.00800           0
     41521 W2       13841    TIP3     OH2      OT      -0.834000       15.9994           0
     41522 W2       13841    TIP3     H1       HT       0.417000       1.00800           0
     41523 W2       13841    TIP3     H2       HT       0.417000       1.00800           0
     41524 W2       13842    TIP3     OH2      OT      -0.834000       15.9994           0
     41525 W2       13842    TIP3     H1       HT       0.417000       1.00800           0
     41526 W2       13842    TIP3     H2       HT       0.417000       1.00800           0
     41527 W2       13843    TIP3     OH2      OT      -0.834000       15.9994           0
     41528 W2       13843    TIP3     H1       HT       0.417000       1.00800           0
     41529 W2       13843    TIP3     H2       HT       0.417000       1.00800           0
     41530 W2       13844    TIP3     OH2      OT      -0.834000       15.9994           0
     41531 W2       13844    TIP3     H1       HT       0.417000       1.00800           0
     41532 W2       13844    TIP3     H2       HT       0.417000       1.00800           0
     41533 W2       13845    TIP3     OH2      OT      -0.834000       15.9994           0
     41534 W2       13845    TIP3     H1       HT       0.417000       1.00800           0
     41535 W2       13845    TIP3     H2       HT       0.417000       1.00800           0
     41536 W2       13846    TIP3     OH2      OT      -0.834000       15.9994           0
     41537 W2       13846    TIP3     H1       HT       0.417000       1.00800           0
     41538 W2       13846    TIP3     H2       HT       0.417000       1.00800           0
     41539 W2       13847    TIP3     OH2      OT      -0.834000       15.9994           0
     41540 W2       13847    TIP3     H1       HT       0.417000       1.00800           0
     41541 W2       13847    TIP3     H2       HT       0.417000       1.00800           0
     41542 W2       13848    TIP3     OH2      OT      -0.834000       15.9994           0
     41543 W2       13848    TIP3     H1       HT       0.417000       1.00800           0
     41544 W2       13848    TIP3     H2       HT       0.417000       1.00800           0
     41545 W2       13849    TIP3     OH2      OT      -0.834000       15.9994           0
     41546 W2       13849    TIP3     H1       HT       0.417000       1.00800           0
     41547 W2       13849    TIP3     H2       HT       0.417000       1.00800           0
     41548 W2       13850    TIP3     OH2      OT      -0.834000       15.9994           0
     41549 W2       13850    TIP3     H1       HT       0.417000       1.00800           0
     41550 W2       13850    TIP3     H2       HT       0.417000       1.00800           0
     41551 W2       13851    TIP3     OH2      OT      -0.834000       15.9994           0
     41552 W2       13851    TIP3     H1       HT       0.417000       1.00800           0
     41553 W2       13851    TIP3     H2       HT       0.417000       1.00800           0
     41554 W2       13852    TIP3     OH2      OT      -0.834000       15.9994           0
     41555 W2       13852    TIP3     H1       HT       0.417000       1.00800           0
     41556 W2       13852    TIP3     H2       HT       0.417000       1.00800           0
     41557 W2       13853    TIP3     OH2      OT      -0.834000       15.9994           0
     41558 W2       13853    TIP3     H1       HT       0.417000       1.00800           0
     41559 W2       13853    TIP3     H2       HT       0.417000       1.00800           0
     41560 W2       13854    TIP3     OH2      OT      -0.834000       15.9994           0
     41561 W2       13854    TIP3     H1       HT       0.417000       1.00800           0
     41562 W2       13854    TIP3     H2       HT       0.417000       1.00800           0
     41563 W2       13855    TIP3     OH2      OT      -0.834000       15.9994           0
     41564 W2       13855    TIP3     H1       HT       0.417000       1.00800           0
     41565 W2       13855    TIP3     H2       HT       0.417000       1.00800           0
     41566 W2       13856    TIP3     OH2      OT      -0.834000       15.9994           0
     41567 W2       13856    TIP3     H1       HT       0.417000       1.00800           0
     41568 W2       13856    TIP3     H2       HT       0.417000       1.00800           0
     41569 W2       13857    TIP3     OH2      OT      -0.834000       15.9994           0
     41570 W2       13857    TIP3     H1       HT       0.417000       1.00800           0
     41571 W2       13857    TIP3     H2       HT       0.417000       1.00800           0
     41572 W2       13858    TIP3     OH2      OT      -0.834000       15.9994           0
     41573 W2       13858    TIP3     H1       HT       0.417000       1.00800           0
     41574 W2       13858    TIP3     H2       HT       0.417000       1.00800           0
     41575 W2       13859    TIP3     OH2      OT      -0.834000       15.9994           0
     41576 W2       13859    TIP3     H1       HT       0.417000       1.00800           0
     41577 W2       13859    TIP3     H2       HT       0.417000       1.00800           0
     41578 W2       13860    TIP3     OH2      OT      -0.834000       15.9994           0
     41579 W2       13860    TIP3     H1       HT       0.417000       1.00800           0
     41580 W2       13860    TIP3     H2       HT       0.417000       1.00800           0
     41581 W2       13861    TIP3     OH2      OT      -0.834000       15.9994           0
     41582 W2       13861    TIP3     H1       HT       0.417000       1.00800           0
     41583 W2       13861    TIP3     H2       HT       0.417000       1.00800           0
     41584 W2       13862    TIP3     OH2      OT      -0.834000       15.9994           0
     41585 W2       13862    TIP3     H1       HT       0.417000       1.00800           0
     41586 W2       13862    TIP3     H2       HT       0.417000       1.00800           0
     41587 W2       13863    TIP3     OH2      OT      -0.834000       15.9994           0
     41588 W2       13863    TIP3     H1       HT       0.417000       1.00800           0
     41589 W2       13863    TIP3     H2       HT       0.417000       1.00800           0
     41590 W2       13864    TIP3     OH2      OT      -0.834000       15.9994           0
     41591 W2       13864    TIP3     H1       HT       0.417000       1.00800           0
     41592 W2       13864    TIP3     H2       HT       0.417000       1.00800           0
     41593 W2       13865    TIP3     OH2      OT      -0.834000       15.9994           0
     41594 W2       13865    TIP3     H1       HT       0.417000       1.00800           0
     41595 W2       13865    TIP3     H2       HT       0.417000       1.00800           0
     41596 W2       13866    TIP3     OH2      OT      -0.834000       15.9994           0
     41597 W2       13866    TIP3     H1       HT       0.417000       1.00800           0
     41598 W2       13866    TIP3     H2       HT       0.417000       1.00800           0
     41599 W2       13867    TIP3     OH2      OT      -0.834000       15.9994           0
     41600 W2       13867    TIP3     H1       HT       0.417000       1.00800           0
     41601 W2       13867    TIP3     H2       HT       0.417000       1.00800           0
     41602 W2       13868    TIP3     OH2      OT      -0.834000       15.9994           0
     41603 W2       13868    TIP3     H1       HT       0.417000       1.00800           0
     41604 W2       13868    TIP3     H2       HT       0.417000       1.00800           0
     41605 W2       13869    TIP3     OH2      OT      -0.834000       15.9994           0
     41606 W2       13869    TIP3     H1       HT       0.417000       1.00800           0
     41607 W2       13869    TIP3     H2       HT       0.417000       1.00800           0
     41608 W2       13870    TIP3     OH2      OT      -0.834000       15.9994           0
     41609 W2       13870    TIP3     H1       HT       0.417000       1.00800           0
     41610 W2       13870    TIP3     H2       HT       0.417000       1.00800           0
     41611 W2       13871    TIP3     OH2      OT      -0.834000       15.9994           0
     41612 W2       13871    TIP3     H1       HT       0.417000       1.00800           0
     41613 W2       13871    TIP3     H2       HT       0.417000       1.00800           0
     41614 W2       13872    TIP3     OH2      OT      -0.834000       15.9994           0
     41615 W2       13872    TIP3     H1       HT       0.417000       1.00800           0
     41616 W2       13872    TIP3     H2       HT       0.417000       1.00800           0
     41617 W2       13873    TIP3     OH2      OT      -0.834000       15.9994           0
     41618 W2       13873    TIP3     H1       HT       0.417000       1.00800           0
     41619 W2       13873    TIP3     H2       HT       0.417000       1.00800           0
     41620 W2       13874    TIP3     OH2      OT      -0.834000       15.9994           0
     41621 W2       13874    TIP3     H1       HT       0.417000       1.00800           0
     41622 W2       13874    TIP3     H2       HT       0.417000       1.00800           0
     41623 W2       13875    TIP3     OH2      OT      -0.834000       15.9994           0
     41624 W2       13875    TIP3     H1       HT       0.417000       1.00800           0
     41625 W2       13875    TIP3     H2       HT       0.417000       1.00800           0
     41626 W2       13876    TIP3     OH2      OT      -0.834000       15.9994           0
     41627 W2       13876    TIP3     H1       HT       0.417000       1.00800           0
     41628 W2       13876    TIP3     H2       HT       0.417000       1.00800           0
     41629 W2       13877    TIP3     OH2      OT      -0.834000       15.9994           0
     41630 W2       13877    TIP3     H1       HT       0.417000       1.00800           0
     41631 W2       13877    TIP3     H2       HT       0.417000       1.00800           0
     41632 W2       13878    TIP3     OH2      OT      -0.834000       15.9994           0
     41633 W2       13878    TIP3     H1       HT       0.417000       1.00800           0
     41634 W2       13878    TIP3     H2       HT       0.417000       1.00800           0
     41635 W2       13879    TIP3     OH2      OT      -0.834000       15.9994           0
     41636 W2       13879    TIP3     H1       HT       0.417000       1.00800           0
     41637 W2       13879    TIP3     H2       HT       0.417000       1.00800           0
     41638 W2       13880    TIP3     OH2      OT      -0.834000       15.9994           0
     41639 W2       13880    TIP3     H1       HT       0.417000       1.00800           0
     41640 W2       13880    TIP3     H2       HT       0.417000       1.00800           0
     41641 W2       13881    TIP3     OH2      OT      -0.834000       15.9994           0
     41642 W2       13881    TIP3     H1       HT       0.417000       1.00800           0
     41643 W2       13881    TIP3     H2       HT       0.417000       1.00800           0
     41644 W2       13882    TIP3     OH2      OT      -0.834000       15.9994           0
     41645 W2       13882    TIP3     H1       HT       0.417000       1.00800           0
     41646 W2       13882    TIP3     H2       HT       0.417000       1.00800           0
     41647 W2       13883    TIP3     OH2      OT      -0.834000       15.9994           0
     41648 W2       13883    TIP3     H1       HT       0.417000       1.00800           0
     41649 W2       13883    TIP3     H2       HT       0.417000       1.00800           0
     41650 W2       13884    TIP3     OH2      OT      -0.834000       15.9994           0
     41651 W2       13884    TIP3     H1       HT       0.417000       1.00800           0
     41652 W2       13884    TIP3     H2       HT       0.417000       1.00800           0
     41653 W2       13885    TIP3     OH2      OT      -0.834000       15.9994           0
     41654 W2       13885    TIP3     H1       HT       0.417000       1.00800           0
     41655 W2       13885    TIP3     H2       HT       0.417000       1.00800           0
     41656 W2       13886    TIP3     OH2      OT      -0.834000       15.9994           0
     41657 W2       13886    TIP3     H1       HT       0.417000       1.00800           0
     41658 W2       13886    TIP3     H2       HT       0.417000       1.00800           0
     41659 W2       13887    TIP3     OH2      OT      -0.834000       15.9994           0
     41660 W2       13887    TIP3     H1       HT       0.417000       1.00800           0
     41661 W2       13887    TIP3     H2       HT       0.417000       1.00800           0
     41662 W2       13888    TIP3     OH2      OT      -0.834000       15.9994           0
     41663 W2       13888    TIP3     H1       HT       0.417000       1.00800           0
     41664 W2       13888    TIP3     H2       HT       0.417000       1.00800           0
     41665 W2       13889    TIP3     OH2      OT      -0.834000       15.9994           0
     41666 W2       13889    TIP3     H1       HT       0.417000       1.00800           0
     41667 W2       13889    TIP3     H2       HT       0.417000       1.00800           0
     41668 W2       13890    TIP3     OH2      OT      -0.834000       15.9994           0
     41669 W2       13890    TIP3     H1       HT       0.417000       1.00800           0
     41670 W2       13890    TIP3     H2       HT       0.417000       1.00800           0
     41671 W2       13891    TIP3     OH2      OT      -0.834000       15.9994           0
     41672 W2       13891    TIP3     H1       HT       0.417000       1.00800           0
     41673 W2       13891    TIP3     H2       HT       0.417000       1.00800           0
     41674 W2       13892    TIP3     OH2      OT      -0.834000       15.9994           0
     41675 W2       13892    TIP3     H1       HT       0.417000       1.00800           0
     41676 W2       13892    TIP3     H2       HT       0.417000       1.00800           0
     41677 W2       13893    TIP3     OH2      OT      -0.834000       15.9994           0
     41678 W2       13893    TIP3     H1       HT       0.417000       1.00800           0
     41679 W2       13893    TIP3     H2       HT       0.417000       1.00800           0
     41680 W2       13894    TIP3     OH2      OT      -0.834000       15.9994           0
     41681 W2       13894    TIP3     H1       HT       0.417000       1.00800           0
     41682 W2       13894    TIP3     H2       HT       0.417000       1.00800           0
     41683 W2       13895    TIP3     OH2      OT      -0.834000       15.9994           0
     41684 W2       13895    TIP3     H1       HT       0.417000       1.00800           0
     41685 W2       13895    TIP3     H2       HT       0.417000       1.00800           0
     41686 W2       13896    TIP3     OH2      OT      -0.834000       15.9994           0
     41687 W2       13896    TIP3     H1       HT       0.417000       1.00800           0
     41688 W2       13896    TIP3     H2       HT       0.417000       1.00800           0
     41689 W2       13897    TIP3     OH2      OT      -0.834000       15.9994           0
     41690 W2       13897    TIP3     H1       HT       0.417000       1.00800           0
     41691 W2       13897    TIP3     H2       HT       0.417000       1.00800           0
     41692 W2       13898    TIP3     OH2      OT      -0.834000       15.9994           0
     41693 W2       13898    TIP3     H1       HT       0.417000       1.00800           0
     41694 W2       13898    TIP3     H2       HT       0.417000       1.00800           0
     41695 W2       13899    TIP3     OH2      OT      -0.834000       15.9994           0
     41696 W2       13899    TIP3     H1       HT       0.417000       1.00800           0
     41697 W2       13899    TIP3     H2       HT       0.417000       1.00800           0
     41698 W2       13900    TIP3     OH2      OT      -0.834000       15.9994           0
     41699 W2       13900    TIP3     H1       HT       0.417000       1.00800           0
     41700 W2       13900    TIP3     H2       HT       0.417000       1.00800           0
     41701 W2       13901    TIP3     OH2      OT      -0.834000       15.9994           0
     41702 W2       13901    TIP3     H1       HT       0.417000       1.00800           0
     41703 W2       13901    TIP3     H2       HT       0.417000       1.00800           0
     41704 W2       13902    TIP3     OH2      OT      -0.834000       15.9994           0
     41705 W2       13902    TIP3     H1       HT       0.417000       1.00800           0
     41706 W2       13902    TIP3     H2       HT       0.417000       1.00800           0
     41707 W2       13903    TIP3     OH2      OT      -0.834000       15.9994           0
     41708 W2       13903    TIP3     H1       HT       0.417000       1.00800           0
     41709 W2       13903    TIP3     H2       HT       0.417000       1.00800           0
     41710 W2       13904    TIP3     OH2      OT      -0.834000       15.9994           0
     41711 W2       13904    TIP3     H1       HT       0.417000       1.00800           0
     41712 W2       13904    TIP3     H2       HT       0.417000       1.00800           0
     41713 W2       13905    TIP3     OH2      OT      -0.834000       15.9994           0
     41714 W2       13905    TIP3     H1       HT       0.417000       1.00800           0
     41715 W2       13905    TIP3     H2       HT       0.417000       1.00800           0
     41716 W2       13906    TIP3     OH2      OT      -0.834000       15.9994           0
     41717 W2       13906    TIP3     H1       HT       0.417000       1.00800           0
     41718 W2       13906    TIP3     H2       HT       0.417000       1.00800           0
     41719 W2       13907    TIP3     OH2      OT      -0.834000       15.9994           0
     41720 W2       13907    TIP3     H1       HT       0.417000       1.00800           0
     41721 W2       13907    TIP3     H2       HT       0.417000       1.00800           0
     41722 W2       13908    TIP3     OH2      OT      -0.834000       15.9994           0
     41723 W2       13908    TIP3     H1       HT       0.417000       1.00800           0
     41724 W2       13908    TIP3     H2       HT       0.417000       1.00800           0
     41725 W2       13909    TIP3     OH2      OT      -0.834000       15.9994           0
     41726 W2       13909    TIP3     H1       HT       0.417000       1.00800           0
     41727 W2       13909    TIP3     H2       HT       0.417000       1.00800           0
     41728 W2       13910    TIP3     OH2      OT      -0.834000       15.9994           0
     41729 W2       13910    TIP3     H1       HT       0.417000       1.00800           0
     41730 W2       13910    TIP3     H2       HT       0.417000       1.00800           0
     41731 W2       13911    TIP3     OH2      OT      -0.834000       15.9994           0
     41732 W2       13911    TIP3     H1       HT       0.417000       1.00800           0
     41733 W2       13911    TIP3     H2       HT       0.417000       1.00800           0
     41734 W2       13912    TIP3     OH2      OT      -0.834000       15.9994           0
     41735 W2       13912    TIP3     H1       HT       0.417000       1.00800           0
     41736 W2       13912    TIP3     H2       HT       0.417000       1.00800           0
     41737 W2       13913    TIP3     OH2      OT      -0.834000       15.9994           0
     41738 W2       13913    TIP3     H1       HT       0.417000       1.00800           0
     41739 W2       13913    TIP3     H2       HT       0.417000       1.00800           0
     41740 W2       13914    TIP3     OH2      OT      -0.834000       15.9994           0
     41741 W2       13914    TIP3     H1       HT       0.417000       1.00800           0
     41742 W2       13914    TIP3     H2       HT       0.417000       1.00800           0
     41743 W2       13915    TIP3     OH2      OT      -0.834000       15.9994           0
     41744 W2       13915    TIP3     H1       HT       0.417000       1.00800           0
     41745 W2       13915    TIP3     H2       HT       0.417000       1.00800           0
     41746 W2       13916    TIP3     OH2      OT      -0.834000       15.9994           0
     41747 W2       13916    TIP3     H1       HT       0.417000       1.00800           0
     41748 W2       13916    TIP3     H2       HT       0.417000       1.00800           0
     41749 W2       13917    TIP3     OH2      OT      -0.834000       15.9994           0
     41750 W2       13917    TIP3     H1       HT       0.417000       1.00800           0
     41751 W2       13917    TIP3     H2       HT       0.417000       1.00800           0
     41752 W2       13918    TIP3     OH2      OT      -0.834000       15.9994           0
     41753 W2       13918    TIP3     H1       HT       0.417000       1.00800           0
     41754 W2       13918    TIP3     H2       HT       0.417000       1.00800           0
     41755 W2       13919    TIP3     OH2      OT      -0.834000       15.9994           0
     41756 W2       13919    TIP3     H1       HT       0.417000       1.00800           0
     41757 W2       13919    TIP3     H2       HT       0.417000       1.00800           0
     41758 W2       13920    TIP3     OH2      OT      -0.834000       15.9994           0
     41759 W2       13920    TIP3     H1       HT       0.417000       1.00800           0
     41760 W2       13920    TIP3     H2       HT       0.417000       1.00800           0
     41761 W2       13921    TIP3     OH2      OT      -0.834000       15.9994           0
     41762 W2       13921    TIP3     H1       HT       0.417000       1.00800           0
     41763 W2       13921    TIP3     H2       HT       0.417000       1.00800           0
     41764 W2       13922    TIP3     OH2      OT      -0.834000       15.9994           0
     41765 W2       13922    TIP3     H1       HT       0.417000       1.00800           0
     41766 W2       13922    TIP3     H2       HT       0.417000       1.00800           0
     41767 W2       13923    TIP3     OH2      OT      -0.834000       15.9994           0
     41768 W2       13923    TIP3     H1       HT       0.417000       1.00800           0
     41769 W2       13923    TIP3     H2       HT       0.417000       1.00800           0
     41770 W2       13924    TIP3     OH2      OT      -0.834000       15.9994           0
     41771 W2       13924    TIP3     H1       HT       0.417000       1.00800           0
     41772 W2       13924    TIP3     H2       HT       0.417000       1.00800           0
     41773 W2       13925    TIP3     OH2      OT      -0.834000       15.9994           0
     41774 W2       13925    TIP3     H1       HT       0.417000       1.00800           0
     41775 W2       13925    TIP3     H2       HT       0.417000       1.00800           0
     41776 W2       13926    TIP3     OH2      OT      -0.834000       15.9994           0
     41777 W2       13926    TIP3     H1       HT       0.417000       1.00800           0
     41778 W2       13926    TIP3     H2       HT       0.417000       1.00800           0
     41779 W2       13927    TIP3     OH2      OT      -0.834000       15.9994           0
     41780 W2       13927    TIP3     H1       HT       0.417000       1.00800           0
     41781 W2       13927    TIP3     H2       HT       0.417000       1.00800           0
     41782 W2       13928    TIP3     OH2      OT      -0.834000       15.9994           0
     41783 W2       13928    TIP3     H1       HT       0.417000       1.00800           0
     41784 W2       13928    TIP3     H2       HT       0.417000       1.00800           0
     41785 W2       13929    TIP3     OH2      OT      -0.834000       15.9994           0
     41786 W2       13929    TIP3     H1       HT       0.417000       1.00800           0
     41787 W2       13929    TIP3     H2       HT       0.417000       1.00800           0
     41788 W2       13930    TIP3     OH2      OT      -0.834000       15.9994           0
     41789 W2       13930    TIP3     H1       HT       0.417000       1.00800           0
     41790 W2       13930    TIP3     H2       HT       0.417000       1.00800           0
     41791 W2       13931    TIP3     OH2      OT      -0.834000       15.9994           0
     41792 W2       13931    TIP3     H1       HT       0.417000       1.00800           0
     41793 W2       13931    TIP3     H2       HT       0.417000       1.00800           0
     41794 W2       13932    TIP3     OH2      OT      -0.834000       15.9994           0
     41795 W2       13932    TIP3     H1       HT       0.417000       1.00800           0
     41796 W2       13932    TIP3     H2       HT       0.417000       1.00800           0
     41797 W2       13933    TIP3     OH2      OT      -0.834000       15.9994           0
     41798 W2       13933    TIP3     H1       HT       0.417000       1.00800           0
     41799 W2       13933    TIP3     H2       HT       0.417000       1.00800           0
     41800 W2       13934    TIP3     OH2      OT      -0.834000       15.9994           0
     41801 W2       13934    TIP3     H1       HT       0.417000       1.00800           0
     41802 W2       13934    TIP3     H2       HT       0.417000       1.00800           0
     41803 W2       13935    TIP3     OH2      OT      -0.834000       15.9994           0
     41804 W2       13935    TIP3     H1       HT       0.417000       1.00800           0
     41805 W2       13935    TIP3     H2       HT       0.417000       1.00800           0
     41806 W2       13936    TIP3     OH2      OT      -0.834000       15.9994           0
     41807 W2       13936    TIP3     H1       HT       0.417000       1.00800           0
     41808 W2       13936    TIP3     H2       HT       0.417000       1.00800           0
     41809 W2       13937    TIP3     OH2      OT      -0.834000       15.9994           0
     41810 W2       13937    TIP3     H1       HT       0.417000       1.00800           0
     41811 W2       13937    TIP3     H2       HT       0.417000       1.00800           0
     41812 W2       13938    TIP3     OH2      OT      -0.834000       15.9994           0
     41813 W2       13938    TIP3     H1       HT       0.417000       1.00800           0
     41814 W2       13938    TIP3     H2       HT       0.417000       1.00800           0
     41815 W2       13939    TIP3     OH2      OT      -0.834000       15.9994           0
     41816 W2       13939    TIP3     H1       HT       0.417000       1.00800           0
     41817 W2       13939    TIP3     H2       HT       0.417000       1.00800           0
     41818 W2       13940    TIP3     OH2      OT      -0.834000       15.9994           0
     41819 W2       13940    TIP3     H1       HT       0.417000       1.00800           0
     41820 W2       13940    TIP3     H2       HT       0.417000       1.00800           0
     41821 W2       13941    TIP3     OH2      OT      -0.834000       15.9994           0
     41822 W2       13941    TIP3     H1       HT       0.417000       1.00800           0
     41823 W2       13941    TIP3     H2       HT       0.417000       1.00800           0
     41824 W2       13942    TIP3     OH2      OT      -0.834000       15.9994           0
     41825 W2       13942    TIP3     H1       HT       0.417000       1.00800           0
     41826 W2       13942    TIP3     H2       HT       0.417000       1.00800           0
     41827 W2       13943    TIP3     OH2      OT      -0.834000       15.9994           0
     41828 W2       13943    TIP3     H1       HT       0.417000       1.00800           0
     41829 W2       13943    TIP3     H2       HT       0.417000       1.00800           0
     41830 W2       13944    TIP3     OH2      OT      -0.834000       15.9994           0
     41831 W2       13944    TIP3     H1       HT       0.417000       1.00800           0
     41832 W2       13944    TIP3     H2       HT       0.417000       1.00800           0
     41833 W2       13945    TIP3     OH2      OT      -0.834000       15.9994           0
     41834 W2       13945    TIP3     H1       HT       0.417000       1.00800           0
     41835 W2       13945    TIP3     H2       HT       0.417000       1.00800           0
     41836 W2       13946    TIP3     OH2      OT      -0.834000       15.9994           0
     41837 W2       13946    TIP3     H1       HT       0.417000       1.00800           0
     41838 W2       13946    TIP3     H2       HT       0.417000       1.00800           0
     41839 W2       13947    TIP3     OH2      OT      -0.834000       15.9994           0
     41840 W2       13947    TIP3     H1       HT       0.417000       1.00800           0
     41841 W2       13947    TIP3     H2       HT       0.417000       1.00800           0
     41842 W2       13948    TIP3     OH2      OT      -0.834000       15.9994           0
     41843 W2       13948    TIP3     H1       HT       0.417000       1.00800           0
     41844 W2       13948    TIP3     H2       HT       0.417000       1.00800           0
     41845 W2       13949    TIP3     OH2      OT      -0.834000       15.9994           0
     41846 W2       13949    TIP3     H1       HT       0.417000       1.00800           0
     41847 W2       13949    TIP3     H2       HT       0.417000       1.00800           0
     41848 W2       13950    TIP3     OH2      OT      -0.834000       15.9994           0
     41849 W2       13950    TIP3     H1       HT       0.417000       1.00800           0
     41850 W2       13950    TIP3     H2       HT       0.417000       1.00800           0
     41851 W2       13951    TIP3     OH2      OT      -0.834000       15.9994           0
     41852 W2       13951    TIP3     H1       HT       0.417000       1.00800           0
     41853 W2       13951    TIP3     H2       HT       0.417000       1.00800           0
     41854 W2       13952    TIP3     OH2      OT      -0.834000       15.9994           0
     41855 W2       13952    TIP3     H1       HT       0.417000       1.00800           0
     41856 W2       13952    TIP3     H2       HT       0.417000       1.00800           0
     41857 W2       13953    TIP3     OH2      OT      -0.834000       15.9994           0
     41858 W2       13953    TIP3     H1       HT       0.417000       1.00800           0
     41859 W2       13953    TIP3     H2       HT       0.417000       1.00800           0
     41860 W2       13954    TIP3     OH2      OT      -0.834000       15.9994           0
     41861 W2       13954    TIP3     H1       HT       0.417000       1.00800           0
     41862 W2       13954    TIP3     H2       HT       0.417000       1.00800           0
     41863 W2       13955    TIP3     OH2      OT      -0.834000       15.9994           0
     41864 W2       13955    TIP3     H1       HT       0.417000       1.00800           0
     41865 W2       13955    TIP3     H2       HT       0.417000       1.00800           0
     41866 W2       13956    TIP3     OH2      OT      -0.834000       15.9994           0
     41867 W2       13956    TIP3     H1       HT       0.417000       1.00800           0
     41868 W2       13956    TIP3     H2       HT       0.417000       1.00800           0
     41869 W2       13957    TIP3     OH2      OT      -0.834000       15.9994           0
     41870 W2       13957    TIP3     H1       HT       0.417000       1.00800           0
     41871 W2       13957    TIP3     H2       HT       0.417000       1.00800           0
     41872 W2       13958    TIP3     OH2      OT      -0.834000       15.9994           0
     41873 W2       13958    TIP3     H1       HT       0.417000       1.00800           0
     41874 W2       13958    TIP3     H2       HT       0.417000       1.00800           0
     41875 W2       13959    TIP3     OH2      OT      -0.834000       15.9994           0
     41876 W2       13959    TIP3     H1       HT       0.417000       1.00800           0
     41877 W2       13959    TIP3     H2       HT       0.417000       1.00800           0
     41878 W2       13960    TIP3     OH2      OT      -0.834000       15.9994           0
     41879 W2       13960    TIP3     H1       HT       0.417000       1.00800           0
     41880 W2       13960    TIP3     H2       HT       0.417000       1.00800           0
     41881 W2       13961    TIP3     OH2      OT      -0.834000       15.9994           0
     41882 W2       13961    TIP3     H1       HT       0.417000       1.00800           0
     41883 W2       13961    TIP3     H2       HT       0.417000       1.00800           0
     41884 W2       13962    TIP3     OH2      OT      -0.834000       15.9994           0
     41885 W2       13962    TIP3     H1       HT       0.417000       1.00800           0
     41886 W2       13962    TIP3     H2       HT       0.417000       1.00800           0
     41887 W2       13963    TIP3     OH2      OT      -0.834000       15.9994           0
     41888 W2       13963    TIP3     H1       HT       0.417000       1.00800           0
     41889 W2       13963    TIP3     H2       HT       0.417000       1.00800           0
     41890 W2       13964    TIP3     OH2      OT      -0.834000       15.9994           0
     41891 W2       13964    TIP3     H1       HT       0.417000       1.00800           0
     41892 W2       13964    TIP3     H2       HT       0.417000       1.00800           0
     41893 W2       13965    TIP3     OH2      OT      -0.834000       15.9994           0
     41894 W2       13965    TIP3     H1       HT       0.417000       1.00800           0
     41895 W2       13965    TIP3     H2       HT       0.417000       1.00800           0
     41896 W2       13966    TIP3     OH2      OT      -0.834000       15.9994           0
     41897 W2       13966    TIP3     H1       HT       0.417000       1.00800           0
     41898 W2       13966    TIP3     H2       HT       0.417000       1.00800           0
     41899 W2       13967    TIP3     OH2      OT      -0.834000       15.9994           0
     41900 W2       13967    TIP3     H1       HT       0.417000       1.00800           0
     41901 W2       13967    TIP3     H2       HT       0.417000       1.00800           0
     41902 W2       13968    TIP3     OH2      OT      -0.834000       15.9994           0
     41903 W2       13968    TIP3     H1       HT       0.417000       1.00800           0
     41904 W2       13968    TIP3     H2       HT       0.417000       1.00800           0
     41905 W2       13969    TIP3     OH2      OT      -0.834000       15.9994           0
     41906 W2       13969    TIP3     H1       HT       0.417000       1.00800           0
     41907 W2       13969    TIP3     H2       HT       0.417000       1.00800           0
     41908 W2       13970    TIP3     OH2      OT      -0.834000       15.9994           0
     41909 W2       13970    TIP3     H1       HT       0.417000       1.00800           0
     41910 W2       13970    TIP3     H2       HT       0.417000       1.00800           0
     41911 W2       13971    TIP3     OH2      OT      -0.834000       15.9994           0
     41912 W2       13971    TIP3     H1       HT       0.417000       1.00800           0
     41913 W2       13971    TIP3     H2       HT       0.417000       1.00800           0
     41914 W2       13972    TIP3     OH2      OT      -0.834000       15.9994           0
     41915 W2       13972    TIP3     H1       HT       0.417000       1.00800           0
     41916 W2       13972    TIP3     H2       HT       0.417000       1.00800           0
     41917 W2       13973    TIP3     OH2      OT      -0.834000       15.9994           0
     41918 W2       13973    TIP3     H1       HT       0.417000       1.00800           0
     41919 W2       13973    TIP3     H2       HT       0.417000       1.00800           0
     41920 W2       13974    TIP3     OH2      OT      -0.834000       15.9994           0
     41921 W2       13974    TIP3     H1       HT       0.417000       1.00800           0
     41922 W2       13974    TIP3     H2       HT       0.417000       1.00800           0
     41923 W2       13975    TIP3     OH2      OT      -0.834000       15.9994           0
     41924 W2       13975    TIP3     H1       HT       0.417000       1.00800           0
     41925 W2       13975    TIP3     H2       HT       0.417000       1.00800           0
     41926 W2       13976    TIP3     OH2      OT      -0.834000       15.9994           0
     41927 W2       13976    TIP3     H1       HT       0.417000       1.00800           0
     41928 W2       13976    TIP3     H2       HT       0.417000       1.00800           0
     41929 W2       13977    TIP3     OH2      OT      -0.834000       15.9994           0
     41930 W2       13977    TIP3     H1       HT       0.417000       1.00800           0
     41931 W2       13977    TIP3     H2       HT       0.417000       1.00800           0
     41932 W2       13978    TIP3     OH2      OT      -0.834000       15.9994           0
     41933 W2       13978    TIP3     H1       HT       0.417000       1.00800           0
     41934 W2       13978    TIP3     H2       HT       0.417000       1.00800           0
     41935 W2       13979    TIP3     OH2      OT      -0.834000       15.9994           0
     41936 W2       13979    TIP3     H1       HT       0.417000       1.00800           0
     41937 W2       13979    TIP3     H2       HT       0.417000       1.00800           0
     41938 W2       13980    TIP3     OH2      OT      -0.834000       15.9994           0
     41939 W2       13980    TIP3     H1       HT       0.417000       1.00800           0
     41940 W2       13980    TIP3     H2       HT       0.417000       1.00800           0
     41941 W2       13981    TIP3     OH2      OT      -0.834000       15.9994           0
     41942 W2       13981    TIP3     H1       HT       0.417000       1.00800           0
     41943 W2       13981    TIP3     H2       HT       0.417000       1.00800           0
     41944 W2       13982    TIP3     OH2      OT      -0.834000       15.9994           0
     41945 W2       13982    TIP3     H1       HT       0.417000       1.00800           0
     41946 W2       13982    TIP3     H2       HT       0.417000       1.00800           0
     41947 W2       13983    TIP3     OH2      OT      -0.834000       15.9994           0
     41948 W2       13983    TIP3     H1       HT       0.417000       1.00800           0
     41949 W2       13983    TIP3     H2       HT       0.417000       1.00800           0
     41950 W2       13984    TIP3     OH2      OT      -0.834000       15.9994           0
     41951 W2       13984    TIP3     H1       HT       0.417000       1.00800           0
     41952 W2       13984    TIP3     H2       HT       0.417000       1.00800           0
     41953 W2       13985    TIP3     OH2      OT      -0.834000       15.9994           0
     41954 W2       13985    TIP3     H1       HT       0.417000       1.00800           0
     41955 W2       13985    TIP3     H2       HT       0.417000       1.00800           0
     41956 W2       13986    TIP3     OH2      OT      -0.834000       15.9994           0
     41957 W2       13986    TIP3     H1       HT       0.417000       1.00800           0
     41958 W2       13986    TIP3     H2       HT       0.417000       1.00800           0
     41959 W2       13987    TIP3     OH2      OT      -0.834000       15.9994           0
     41960 W2       13987    TIP3     H1       HT       0.417000       1.00800           0
     41961 W2       13987    TIP3     H2       HT       0.417000       1.00800           0
     41962 W2       13988    TIP3     OH2      OT      -0.834000       15.9994           0
     41963 W2       13988    TIP3     H1       HT       0.417000       1.00800           0
     41964 W2       13988    TIP3     H2       HT       0.417000       1.00800           0
     41965 W2       13989    TIP3     OH2      OT      -0.834000       15.9994           0
     41966 W2       13989    TIP3     H1       HT       0.417000       1.00800           0
     41967 W2       13989    TIP3     H2       HT       0.417000       1.00800           0
     41968 W2       13990    TIP3     OH2      OT      -0.834000       15.9994           0
     41969 W2       13990    TIP3     H1       HT       0.417000       1.00800           0
     41970 W2       13990    TIP3     H2       HT       0.417000       1.00800           0
     41971 W2       13991    TIP3     OH2      OT      -0.834000       15.9994           0
     41972 W2       13991    TIP3     H1       HT       0.417000       1.00800           0
     41973 W2       13991    TIP3     H2       HT       0.417000       1.00800           0
     41974 W2       13992    TIP3     OH2      OT      -0.834000       15.9994           0
     41975 W2       13992    TIP3     H1       HT       0.417000       1.00800           0
     41976 W2       13992    TIP3     H2       HT       0.417000       1.00800           0
     41977 W2       13993    TIP3     OH2      OT      -0.834000       15.9994           0
     41978 W2       13993    TIP3     H1       HT       0.417000       1.00800           0
     41979 W2       13993    TIP3     H2       HT       0.417000       1.00800           0
     41980 W2       13994    TIP3     OH2      OT      -0.834000       15.9994           0
     41981 W2       13994    TIP3     H1       HT       0.417000       1.00800           0
     41982 W2       13994    TIP3     H2       HT       0.417000       1.00800           0
     41983 W2       13995    TIP3     OH2      OT      -0.834000       15.9994           0
     41984 W2       13995    TIP3     H1       HT       0.417000       1.00800           0
     41985 W2       13995    TIP3     H2       HT       0.417000       1.00800           0
     41986 W2       13996    TIP3     OH2      OT      -0.834000       15.9994           0
     41987 W2       13996    TIP3     H1       HT       0.417000       1.00800           0
     41988 W2       13996    TIP3     H2       HT       0.417000       1.00800           0
     41989 W2       13997    TIP3     OH2      OT      -0.834000       15.9994           0
     41990 W2       13997    TIP3     H1       HT       0.417000       1.00800           0
     41991 W2       13997    TIP3     H2       HT       0.417000       1.00800           0
     41992 W2       13998    TIP3     OH2      OT      -0.834000       15.9994           0
     41993 W2       13998    TIP3     H1       HT       0.417000       1.00800           0
     41994 W2       13998    TIP3     H2       HT       0.417000       1.00800           0
     41995 W2       13999    TIP3     OH2      OT      -0.834000       15.9994           0
     41996 W2       13999    TIP3     H1       HT       0.417000       1.00800           0
     41997 W2       13999    TIP3     H2       HT       0.417000       1.00800           0
     41998 W2       14000    TIP3     OH2      OT      -0.834000       15.9994           0
     41999 W2       14000    TIP3     H1       HT       0.417000       1.00800           0
     42000 W2       14000    TIP3     H2       HT       0.417000       1.00800           0
     42001 W2       14001    TIP3     OH2      OT      -0.834000       15.9994           0
     42002 W2       14001    TIP3     H1       HT       0.417000       1.00800           0
     42003 W2       14001    TIP3     H2       HT       0.417000       1.00800           0
     42004 W2       14002    TIP3     OH2      OT      -0.834000       15.9994           0
     42005 W2       14002    TIP3     H1       HT       0.417000       1.00800           0
     42006 W2       14002    TIP3     H2       HT       0.417000       1.00800           0
     42007 W2       14003    TIP3     OH2      OT      -0.834000       15.9994           0
     42008 W2       14003    TIP3     H1       HT       0.417000       1.00800           0
     42009 W2       14003    TIP3     H2       HT       0.417000       1.00800           0
     42010 W2       14004    TIP3     OH2      OT      -0.834000       15.9994           0
     42011 W2       14004    TIP3     H1       HT       0.417000       1.00800           0
     42012 W2       14004    TIP3     H2       HT       0.417000       1.00800           0
     42013 W2       14005    TIP3     OH2      OT      -0.834000       15.9994           0
     42014 W2       14005    TIP3     H1       HT       0.417000       1.00800           0
     42015 W2       14005    TIP3     H2       HT       0.417000       1.00800           0
     42016 W2       14006    TIP3     OH2      OT      -0.834000       15.9994           0
     42017 W2       14006    TIP3     H1       HT       0.417000       1.00800           0
     42018 W2       14006    TIP3     H2       HT       0.417000       1.00800           0
     42019 W2       14007    TIP3     OH2      OT      -0.834000       15.9994           0
     42020 W2       14007    TIP3     H1       HT       0.417000       1.00800           0
     42021 W2       14007    TIP3     H2       HT       0.417000       1.00800           0
     42022 W2       14008    TIP3     OH2      OT      -0.834000       15.9994           0
     42023 W2       14008    TIP3     H1       HT       0.417000       1.00800           0
     42024 W2       14008    TIP3     H2       HT       0.417000       1.00800           0
     42025 W2       14009    TIP3     OH2      OT      -0.834000       15.9994           0
     42026 W2       14009    TIP3     H1       HT       0.417000       1.00800           0
     42027 W2       14009    TIP3     H2       HT       0.417000       1.00800           0
     42028 W2       14010    TIP3     OH2      OT      -0.834000       15.9994           0
     42029 W2       14010    TIP3     H1       HT       0.417000       1.00800           0
     42030 W2       14010    TIP3     H2       HT       0.417000       1.00800           0
     42031 W2       14011    TIP3     OH2      OT      -0.834000       15.9994           0
     42032 W2       14011    TIP3     H1       HT       0.417000       1.00800           0
     42033 W2       14011    TIP3     H2       HT       0.417000       1.00800           0
     42034 W2       14012    TIP3     OH2      OT      -0.834000       15.9994           0
     42035 W2       14012    TIP3     H1       HT       0.417000       1.00800           0
     42036 W2       14012    TIP3     H2       HT       0.417000       1.00800           0
     42037 W2       14013    TIP3     OH2      OT      -0.834000       15.9994           0
     42038 W2       14013    TIP3     H1       HT       0.417000       1.00800           0
     42039 W2       14013    TIP3     H2       HT       0.417000       1.00800           0
     42040 W2       14014    TIP3     OH2      OT      -0.834000       15.9994           0
     42041 W2       14014    TIP3     H1       HT       0.417000       1.00800           0
     42042 W2       14014    TIP3     H2       HT       0.417000       1.00800           0
     42043 W2       14015    TIP3     OH2      OT      -0.834000       15.9994           0
     42044 W2       14015    TIP3     H1       HT       0.417000       1.00800           0
     42045 W2       14015    TIP3     H2       HT       0.417000       1.00800           0
     42046 W2       14016    TIP3     OH2      OT      -0.834000       15.9994           0
     42047 W2       14016    TIP3     H1       HT       0.417000       1.00800           0
     42048 W2       14016    TIP3     H2       HT       0.417000       1.00800           0
     42049 W2       14017    TIP3     OH2      OT      -0.834000       15.9994           0
     42050 W2       14017    TIP3     H1       HT       0.417000       1.00800           0
     42051 W2       14017    TIP3     H2       HT       0.417000       1.00800           0
     42052 W2       14018    TIP3     OH2      OT      -0.834000       15.9994           0
     42053 W2       14018    TIP3     H1       HT       0.417000       1.00800           0
     42054 W2       14018    TIP3     H2       HT       0.417000       1.00800           0
     42055 W2       14019    TIP3     OH2      OT      -0.834000       15.9994           0
     42056 W2       14019    TIP3     H1       HT       0.417000       1.00800           0
     42057 W2       14019    TIP3     H2       HT       0.417000       1.00800           0
     42058 W2       14020    TIP3     OH2      OT      -0.834000       15.9994           0
     42059 W2       14020    TIP3     H1       HT       0.417000       1.00800           0
     42060 W2       14020    TIP3     H2       HT       0.417000       1.00800           0
     42061 W2       14021    TIP3     OH2      OT      -0.834000       15.9994           0
     42062 W2       14021    TIP3     H1       HT       0.417000       1.00800           0
     42063 W2       14021    TIP3     H2       HT       0.417000       1.00800           0
     42064 W2       14022    TIP3     OH2      OT      -0.834000       15.9994           0
     42065 W2       14022    TIP3     H1       HT       0.417000       1.00800           0
     42066 W2       14022    TIP3     H2       HT       0.417000       1.00800           0
     42067 W2       14023    TIP3     OH2      OT      -0.834000       15.9994           0
     42068 W2       14023    TIP3     H1       HT       0.417000       1.00800           0
     42069 W2       14023    TIP3     H2       HT       0.417000       1.00800           0
     42070 W2       14024    TIP3     OH2      OT      -0.834000       15.9994           0
     42071 W2       14024    TIP3     H1       HT       0.417000       1.00800           0
     42072 W2       14024    TIP3     H2       HT       0.417000       1.00800           0
     42073 W2       14025    TIP3     OH2      OT      -0.834000       15.9994           0
     42074 W2       14025    TIP3     H1       HT       0.417000       1.00800           0
     42075 W2       14025    TIP3     H2       HT       0.417000       1.00800           0
     42076 W2       14026    TIP3     OH2      OT      -0.834000       15.9994           0
     42077 W2       14026    TIP3     H1       HT       0.417000       1.00800           0
     42078 W2       14026    TIP3     H2       HT       0.417000       1.00800           0
     42079 W2       14027    TIP3     OH2      OT      -0.834000       15.9994           0
     42080 W2       14027    TIP3     H1       HT       0.417000       1.00800           0
     42081 W2       14027    TIP3     H2       HT       0.417000       1.00800           0
     42082 W2       14028    TIP3     OH2      OT      -0.834000       15.9994           0
     42083 W2       14028    TIP3     H1       HT       0.417000       1.00800           0
     42084 W2       14028    TIP3     H2       HT       0.417000       1.00800           0
     42085 W2       14029    TIP3     OH2      OT      -0.834000       15.9994           0
     42086 W2       14029    TIP3     H1       HT       0.417000       1.00800           0
     42087 W2       14029    TIP3     H2       HT       0.417000       1.00800           0
     42088 W2       14030    TIP3     OH2      OT      -0.834000       15.9994           0
     42089 W2       14030    TIP3     H1       HT       0.417000       1.00800           0
     42090 W2       14030    TIP3     H2       HT       0.417000       1.00800           0
     42091 W2       14031    TIP3     OH2      OT      -0.834000       15.9994           0
     42092 W2       14031    TIP3     H1       HT       0.417000       1.00800           0
     42093 W2       14031    TIP3     H2       HT       0.417000       1.00800           0
     42094 W2       14032    TIP3     OH2      OT      -0.834000       15.9994           0
     42095 W2       14032    TIP3     H1       HT       0.417000       1.00800           0
     42096 W2       14032    TIP3     H2       HT       0.417000       1.00800           0
     42097 W2       14033    TIP3     OH2      OT      -0.834000       15.9994           0
     42098 W2       14033    TIP3     H1       HT       0.417000       1.00800           0
     42099 W2       14033    TIP3     H2       HT       0.417000       1.00800           0
     42100 W2       14034    TIP3     OH2      OT      -0.834000       15.9994           0
     42101 W2       14034    TIP3     H1       HT       0.417000       1.00800           0
     42102 W2       14034    TIP3     H2       HT       0.417000       1.00800           0
     42103 W2       14035    TIP3     OH2      OT      -0.834000       15.9994           0
     42104 W2       14035    TIP3     H1       HT       0.417000       1.00800           0
     42105 W2       14035    TIP3     H2       HT       0.417000       1.00800           0
     42106 W2       14036    TIP3     OH2      OT      -0.834000       15.9994           0
     42107 W2       14036    TIP3     H1       HT       0.417000       1.00800           0
     42108 W2       14036    TIP3     H2       HT       0.417000       1.00800           0
     42109 W2       14037    TIP3     OH2      OT      -0.834000       15.9994           0
     42110 W2       14037    TIP3     H1       HT       0.417000       1.00800           0
     42111 W2       14037    TIP3     H2       HT       0.417000       1.00800           0
     42112 W2       14038    TIP3     OH2      OT      -0.834000       15.9994           0
     42113 W2       14038    TIP3     H1       HT       0.417000       1.00800           0
     42114 W2       14038    TIP3     H2       HT       0.417000       1.00800           0
     42115 W2       14039    TIP3     OH2      OT      -0.834000       15.9994           0
     42116 W2       14039    TIP3     H1       HT       0.417000       1.00800           0
     42117 W2       14039    TIP3     H2       HT       0.417000       1.00800           0
     42118 W2       14040    TIP3     OH2      OT      -0.834000       15.9994           0
     42119 W2       14040    TIP3     H1       HT       0.417000       1.00800           0
     42120 W2       14040    TIP3     H2       HT       0.417000       1.00800           0
     42121 W2       14041    TIP3     OH2      OT      -0.834000       15.9994           0
     42122 W2       14041    TIP3     H1       HT       0.417000       1.00800           0
     42123 W2       14041    TIP3     H2       HT       0.417000       1.00800           0
     42124 W2       14042    TIP3     OH2      OT      -0.834000       15.9994           0
     42125 W2       14042    TIP3     H1       HT       0.417000       1.00800           0
     42126 W2       14042    TIP3     H2       HT       0.417000       1.00800           0
     42127 W2       14043    TIP3     OH2      OT      -0.834000       15.9994           0
     42128 W2       14043    TIP3     H1       HT       0.417000       1.00800           0
     42129 W2       14043    TIP3     H2       HT       0.417000       1.00800           0
     42130 W2       14044    TIP3     OH2      OT      -0.834000       15.9994           0
     42131 W2       14044    TIP3     H1       HT       0.417000       1.00800           0
     42132 W2       14044    TIP3     H2       HT       0.417000       1.00800           0
     42133 W2       14045    TIP3     OH2      OT      -0.834000       15.9994           0
     42134 W2       14045    TIP3     H1       HT       0.417000       1.00800           0
     42135 W2       14045    TIP3     H2       HT       0.417000       1.00800           0
     42136 W2       14046    TIP3     OH2      OT      -0.834000       15.9994           0
     42137 W2       14046    TIP3     H1       HT       0.417000       1.00800           0
     42138 W2       14046    TIP3     H2       HT       0.417000       1.00800           0
     42139 W2       14047    TIP3     OH2      OT      -0.834000       15.9994           0
     42140 W2       14047    TIP3     H1       HT       0.417000       1.00800           0
     42141 W2       14047    TIP3     H2       HT       0.417000       1.00800           0
     42142 W2       14048    TIP3     OH2      OT      -0.834000       15.9994           0
     42143 W2       14048    TIP3     H1       HT       0.417000       1.00800           0
     42144 W2       14048    TIP3     H2       HT       0.417000       1.00800           0
     42145 W2       14049    TIP3     OH2      OT      -0.834000       15.9994           0
     42146 W2       14049    TIP3     H1       HT       0.417000       1.00800           0
     42147 W2       14049    TIP3     H2       HT       0.417000       1.00800           0
     42148 W2       14050    TIP3     OH2      OT      -0.834000       15.9994           0
     42149 W2       14050    TIP3     H1       HT       0.417000       1.00800           0
     42150 W2       14050    TIP3     H2       HT       0.417000       1.00800           0
     42151 W2       14051    TIP3     OH2      OT      -0.834000       15.9994           0
     42152 W2       14051    TIP3     H1       HT       0.417000       1.00800           0
     42153 W2       14051    TIP3     H2       HT       0.417000       1.00800           0
     42154 W2       14052    TIP3     OH2      OT      -0.834000       15.9994           0
     42155 W2       14052    TIP3     H1       HT       0.417000       1.00800           0
     42156 W2       14052    TIP3     H2       HT       0.417000       1.00800           0
     42157 W2       14053    TIP3     OH2      OT      -0.834000       15.9994           0
     42158 W2       14053    TIP3     H1       HT       0.417000       1.00800           0
     42159 W2       14053    TIP3     H2       HT       0.417000       1.00800           0
     42160 W2       14054    TIP3     OH2      OT      -0.834000       15.9994           0
     42161 W2       14054    TIP3     H1       HT       0.417000       1.00800           0
     42162 W2       14054    TIP3     H2       HT       0.417000       1.00800           0
     42163 W2       14055    TIP3     OH2      OT      -0.834000       15.9994           0
     42164 W2       14055    TIP3     H1       HT       0.417000       1.00800           0
     42165 W2       14055    TIP3     H2       HT       0.417000       1.00800           0
     42166 W2       14056    TIP3     OH2      OT      -0.834000       15.9994           0
     42167 W2       14056    TIP3     H1       HT       0.417000       1.00800           0
     42168 W2       14056    TIP3     H2       HT       0.417000       1.00800           0
     42169 W2       14057    TIP3     OH2      OT      -0.834000       15.9994           0
     42170 W2       14057    TIP3     H1       HT       0.417000       1.00800           0
     42171 W2       14057    TIP3     H2       HT       0.417000       1.00800           0
     42172 W2       14058    TIP3     OH2      OT      -0.834000       15.9994           0
     42173 W2       14058    TIP3     H1       HT       0.417000       1.00800           0
     42174 W2       14058    TIP3     H2       HT       0.417000       1.00800           0
     42175 W2       14059    TIP3     OH2      OT      -0.834000       15.9994           0
     42176 W2       14059    TIP3     H1       HT       0.417000       1.00800           0
     42177 W2       14059    TIP3     H2       HT       0.417000       1.00800           0
     42178 W2       14060    TIP3     OH2      OT      -0.834000       15.9994           0
     42179 W2       14060    TIP3     H1       HT       0.417000       1.00800           0
     42180 W2       14060    TIP3     H2       HT       0.417000       1.00800           0
     42181 W2       14061    TIP3     OH2      OT      -0.834000       15.9994           0
     42182 W2       14061    TIP3     H1       HT       0.417000       1.00800           0
     42183 W2       14061    TIP3     H2       HT       0.417000       1.00800           0
     42184 W2       14062    TIP3     OH2      OT      -0.834000       15.9994           0
     42185 W2       14062    TIP3     H1       HT       0.417000       1.00800           0
     42186 W2       14062    TIP3     H2       HT       0.417000       1.00800           0
     42187 W2       14063    TIP3     OH2      OT      -0.834000       15.9994           0
     42188 W2       14063    TIP3     H1       HT       0.417000       1.00800           0
     42189 W2       14063    TIP3     H2       HT       0.417000       1.00800           0
     42190 W2       14064    TIP3     OH2      OT      -0.834000       15.9994           0
     42191 W2       14064    TIP3     H1       HT       0.417000       1.00800           0
     42192 W2       14064    TIP3     H2       HT       0.417000       1.00800           0
     42193 W2       14065    TIP3     OH2      OT      -0.834000       15.9994           0
     42194 W2       14065    TIP3     H1       HT       0.417000       1.00800           0
     42195 W2       14065    TIP3     H2       HT       0.417000       1.00800           0
     42196 W2       14066    TIP3     OH2      OT      -0.834000       15.9994           0
     42197 W2       14066    TIP3     H1       HT       0.417000       1.00800           0
     42198 W2       14066    TIP3     H2       HT       0.417000       1.00800           0
     42199 W2       14067    TIP3     OH2      OT      -0.834000       15.9994           0
     42200 W2       14067    TIP3     H1       HT       0.417000       1.00800           0
     42201 W2       14067    TIP3     H2       HT       0.417000       1.00800           0
     42202 W2       14068    TIP3     OH2      OT      -0.834000       15.9994           0
     42203 W2       14068    TIP3     H1       HT       0.417000       1.00800           0
     42204 W2       14068    TIP3     H2       HT       0.417000       1.00800           0
     42205 W2       14069    TIP3     OH2      OT      -0.834000       15.9994           0
     42206 W2       14069    TIP3     H1       HT       0.417000       1.00800           0
     42207 W2       14069    TIP3     H2       HT       0.417000       1.00800           0
     42208 W2       14070    TIP3     OH2      OT      -0.834000       15.9994           0
     42209 W2       14070    TIP3     H1       HT       0.417000       1.00800           0
     42210 W2       14070    TIP3     H2       HT       0.417000       1.00800           0
     42211 W2       14071    TIP3     OH2      OT      -0.834000       15.9994           0
     42212 W2       14071    TIP3     H1       HT       0.417000       1.00800           0
     42213 W2       14071    TIP3     H2       HT       0.417000       1.00800           0
     42214 W2       14072    TIP3     OH2      OT      -0.834000       15.9994           0
     42215 W2       14072    TIP3     H1       HT       0.417000       1.00800           0
     42216 W2       14072    TIP3     H2       HT       0.417000       1.00800           0
     42217 W2       14073    TIP3     OH2      OT      -0.834000       15.9994           0
     42218 W2       14073    TIP3     H1       HT       0.417000       1.00800           0
     42219 W2       14073    TIP3     H2       HT       0.417000       1.00800           0
     42220 W2       14074    TIP3     OH2      OT      -0.834000       15.9994           0
     42221 W2       14074    TIP3     H1       HT       0.417000       1.00800           0
     42222 W2       14074    TIP3     H2       HT       0.417000       1.00800           0
     42223 W2       14075    TIP3     OH2      OT      -0.834000       15.9994           0
     42224 W2       14075    TIP3     H1       HT       0.417000       1.00800           0
     42225 W2       14075    TIP3     H2       HT       0.417000       1.00800           0
     42226 W2       14076    TIP3     OH2      OT      -0.834000       15.9994           0
     42227 W2       14076    TIP3     H1       HT       0.417000       1.00800           0
     42228 W2       14076    TIP3     H2       HT       0.417000       1.00800           0
     42229 W2       14077    TIP3     OH2      OT      -0.834000       15.9994           0
     42230 W2       14077    TIP3     H1       HT       0.417000       1.00800           0
     42231 W2       14077    TIP3     H2       HT       0.417000       1.00800           0
     42232 W2       14078    TIP3     OH2      OT      -0.834000       15.9994           0
     42233 W2       14078    TIP3     H1       HT       0.417000       1.00800           0
     42234 W2       14078    TIP3     H2       HT       0.417000       1.00800           0
     42235 W2       14079    TIP3     OH2      OT      -0.834000       15.9994           0
     42236 W2       14079    TIP3     H1       HT       0.417000       1.00800           0
     42237 W2       14079    TIP3     H2       HT       0.417000       1.00800           0
     42238 W2       14080    TIP3     OH2      OT      -0.834000       15.9994           0
     42239 W2       14080    TIP3     H1       HT       0.417000       1.00800           0
     42240 W2       14080    TIP3     H2       HT       0.417000       1.00800           0
     42241 W2       14081    TIP3     OH2      OT      -0.834000       15.9994           0
     42242 W2       14081    TIP3     H1       HT       0.417000       1.00800           0
     42243 W2       14081    TIP3     H2       HT       0.417000       1.00800           0
     42244 W2       14082    TIP3     OH2      OT      -0.834000       15.9994           0
     42245 W2       14082    TIP3     H1       HT       0.417000       1.00800           0
     42246 W2       14082    TIP3     H2       HT       0.417000       1.00800           0
     42247 W2       14083    TIP3     OH2      OT      -0.834000       15.9994           0
     42248 W2       14083    TIP3     H1       HT       0.417000       1.00800           0
     42249 W2       14083    TIP3     H2       HT       0.417000       1.00800           0
     42250 W2       14084    TIP3     OH2      OT      -0.834000       15.9994           0
     42251 W2       14084    TIP3     H1       HT       0.417000       1.00800           0
     42252 W2       14084    TIP3     H2       HT       0.417000       1.00800           0
     42253 W2       14085    TIP3     OH2      OT      -0.834000       15.9994           0
     42254 W2       14085    TIP3     H1       HT       0.417000       1.00800           0
     42255 W2       14085    TIP3     H2       HT       0.417000       1.00800           0
     42256 W2       14086    TIP3     OH2      OT      -0.834000       15.9994           0
     42257 W2       14086    TIP3     H1       HT       0.417000       1.00800           0
     42258 W2       14086    TIP3     H2       HT       0.417000       1.00800           0
     42259 W2       14087    TIP3     OH2      OT      -0.834000       15.9994           0
     42260 W2       14087    TIP3     H1       HT       0.417000       1.00800           0
     42261 W2       14087    TIP3     H2       HT       0.417000       1.00800           0
     42262 W2       14088    TIP3     OH2      OT      -0.834000       15.9994           0
     42263 W2       14088    TIP3     H1       HT       0.417000       1.00800           0
     42264 W2       14088    TIP3     H2       HT       0.417000       1.00800           0
     42265 W2       14089    TIP3     OH2      OT      -0.834000       15.9994           0
     42266 W2       14089    TIP3     H1       HT       0.417000       1.00800           0
     42267 W2       14089    TIP3     H2       HT       0.417000       1.00800           0
     42268 W2       14090    TIP3     OH2      OT      -0.834000       15.9994           0
     42269 W2       14090    TIP3     H1       HT       0.417000       1.00800           0
     42270 W2       14090    TIP3     H2       HT       0.417000       1.00800           0
     42271 W2       14091    TIP3     OH2      OT      -0.834000       15.9994           0
     42272 W2       14091    TIP3     H1       HT       0.417000       1.00800           0
     42273 W2       14091    TIP3     H2       HT       0.417000       1.00800           0
     42274 W2       14092    TIP3     OH2      OT      -0.834000       15.9994           0
     42275 W2       14092    TIP3     H1       HT       0.417000       1.00800           0
     42276 W2       14092    TIP3     H2       HT       0.417000       1.00800           0
     42277 W2       14093    TIP3     OH2      OT      -0.834000       15.9994           0
     42278 W2       14093    TIP3     H1       HT       0.417000       1.00800           0
     42279 W2       14093    TIP3     H2       HT       0.417000       1.00800           0
     42280 W2       14094    TIP3     OH2      OT      -0.834000       15.9994           0
     42281 W2       14094    TIP3     H1       HT       0.417000       1.00800           0
     42282 W2       14094    TIP3     H2       HT       0.417000       1.00800           0
     42283 W2       14095    TIP3     OH2      OT      -0.834000       15.9994           0
     42284 W2       14095    TIP3     H1       HT       0.417000       1.00800           0
     42285 W2       14095    TIP3     H2       HT       0.417000       1.00800           0
     42286 W2       14096    TIP3     OH2      OT      -0.834000       15.9994           0
     42287 W2       14096    TIP3     H1       HT       0.417000       1.00800           0
     42288 W2       14096    TIP3     H2       HT       0.417000       1.00800           0
     42289 W2       14097    TIP3     OH2      OT      -0.834000       15.9994           0
     42290 W2       14097    TIP3     H1       HT       0.417000       1.00800           0
     42291 W2       14097    TIP3     H2       HT       0.417000       1.00800           0
     42292 W2       14098    TIP3     OH2      OT      -0.834000       15.9994           0
     42293 W2       14098    TIP3     H1       HT       0.417000       1.00800           0
     42294 W2       14098    TIP3     H2       HT       0.417000       1.00800           0
     42295 W2       14099    TIP3     OH2      OT      -0.834000       15.9994           0
     42296 W2       14099    TIP3     H1       HT       0.417000       1.00800           0
     42297 W2       14099    TIP3     H2       HT       0.417000       1.00800           0
     42298 W2       14100    TIP3     OH2      OT      -0.834000       15.9994           0
     42299 W2       14100    TIP3     H1       HT       0.417000       1.00800           0
     42300 W2       14100    TIP3     H2       HT       0.417000       1.00800           0
     42301 W2       14101    TIP3     OH2      OT      -0.834000       15.9994           0
     42302 W2       14101    TIP3     H1       HT       0.417000       1.00800           0
     42303 W2       14101    TIP3     H2       HT       0.417000       1.00800           0
     42304 W2       14102    TIP3     OH2      OT      -0.834000       15.9994           0
     42305 W2       14102    TIP3     H1       HT       0.417000       1.00800           0
     42306 W2       14102    TIP3     H2       HT       0.417000       1.00800           0
     42307 W2       14103    TIP3     OH2      OT      -0.834000       15.9994           0
     42308 W2       14103    TIP3     H1       HT       0.417000       1.00800           0
     42309 W2       14103    TIP3     H2       HT       0.417000       1.00800           0
     42310 W2       14104    TIP3     OH2      OT      -0.834000       15.9994           0
     42311 W2       14104    TIP3     H1       HT       0.417000       1.00800           0
     42312 W2       14104    TIP3     H2       HT       0.417000       1.00800           0
     42313 W2       14105    TIP3     OH2      OT      -0.834000       15.9994           0
     42314 W2       14105    TIP3     H1       HT       0.417000       1.00800           0
     42315 W2       14105    TIP3     H2       HT       0.417000       1.00800           0
     42316 W2       14106    TIP3     OH2      OT      -0.834000       15.9994           0
     42317 W2       14106    TIP3     H1       HT       0.417000       1.00800           0
     42318 W2       14106    TIP3     H2       HT       0.417000       1.00800           0
     42319 W2       14107    TIP3     OH2      OT      -0.834000       15.9994           0
     42320 W2       14107    TIP3     H1       HT       0.417000       1.00800           0
     42321 W2       14107    TIP3     H2       HT       0.417000       1.00800           0
     42322 W2       14108    TIP3     OH2      OT      -0.834000       15.9994           0
     42323 W2       14108    TIP3     H1       HT       0.417000       1.00800           0
     42324 W2       14108    TIP3     H2       HT       0.417000       1.00800           0
     42325 W2       14109    TIP3     OH2      OT      -0.834000       15.9994           0
     42326 W2       14109    TIP3     H1       HT       0.417000       1.00800           0
     42327 W2       14109    TIP3     H2       HT       0.417000       1.00800           0
     42328 W2       14110    TIP3     OH2      OT      -0.834000       15.9994           0
     42329 W2       14110    TIP3     H1       HT       0.417000       1.00800           0
     42330 W2       14110    TIP3     H2       HT       0.417000       1.00800           0
     42331 W2       14111    TIP3     OH2      OT      -0.834000       15.9994           0
     42332 W2       14111    TIP3     H1       HT       0.417000       1.00800           0
     42333 W2       14111    TIP3     H2       HT       0.417000       1.00800           0
     42334 W2       14112    TIP3     OH2      OT      -0.834000       15.9994           0
     42335 W2       14112    TIP3     H1       HT       0.417000       1.00800           0
     42336 W2       14112    TIP3     H2       HT       0.417000       1.00800           0
     42337 W2       14113    TIP3     OH2      OT      -0.834000       15.9994           0
     42338 W2       14113    TIP3     H1       HT       0.417000       1.00800           0
     42339 W2       14113    TIP3     H2       HT       0.417000       1.00800           0
     42340 W2       14114    TIP3     OH2      OT      -0.834000       15.9994           0
     42341 W2       14114    TIP3     H1       HT       0.417000       1.00800           0
     42342 W2       14114    TIP3     H2       HT       0.417000       1.00800           0
     42343 W2       14115    TIP3     OH2      OT      -0.834000       15.9994           0
     42344 W2       14115    TIP3     H1       HT       0.417000       1.00800           0
     42345 W2       14115    TIP3     H2       HT       0.417000       1.00800           0
     42346 W2       14116    TIP3     OH2      OT      -0.834000       15.9994           0
     42347 W2       14116    TIP3     H1       HT       0.417000       1.00800           0
     42348 W2       14116    TIP3     H2       HT       0.417000       1.00800           0
     42349 W2       14117    TIP3     OH2      OT      -0.834000       15.9994           0
     42350 W2       14117    TIP3     H1       HT       0.417000       1.00800           0
     42351 W2       14117    TIP3     H2       HT       0.417000       1.00800           0
     42352 W2       14118    TIP3     OH2      OT      -0.834000       15.9994           0
     42353 W2       14118    TIP3     H1       HT       0.417000       1.00800           0
     42354 W2       14118    TIP3     H2       HT       0.417000       1.00800           0
     42355 W2       14119    TIP3     OH2      OT      -0.834000       15.9994           0
     42356 W2       14119    TIP3     H1       HT       0.417000       1.00800           0
     42357 W2       14119    TIP3     H2       HT       0.417000       1.00800           0
     42358 W2       14120    TIP3     OH2      OT      -0.834000       15.9994           0
     42359 W2       14120    TIP3     H1       HT       0.417000       1.00800           0
     42360 W2       14120    TIP3     H2       HT       0.417000       1.00800           0
     42361 W2       14121    TIP3     OH2      OT      -0.834000       15.9994           0
     42362 W2       14121    TIP3     H1       HT       0.417000       1.00800           0
     42363 W2       14121    TIP3     H2       HT       0.417000       1.00800           0
     42364 W2       14122    TIP3     OH2      OT      -0.834000       15.9994           0
     42365 W2       14122    TIP3     H1       HT       0.417000       1.00800           0
     42366 W2       14122    TIP3     H2       HT       0.417000       1.00800           0
     42367 W2       14123    TIP3     OH2      OT      -0.834000       15.9994           0
     42368 W2       14123    TIP3     H1       HT       0.417000       1.00800           0
     42369 W2       14123    TIP3     H2       HT       0.417000       1.00800           0
     42370 W2       14124    TIP3     OH2      OT      -0.834000       15.9994           0
     42371 W2       14124    TIP3     H1       HT       0.417000       1.00800           0
     42372 W2       14124    TIP3     H2       HT       0.417000       1.00800           0
     42373 W2       14125    TIP3     OH2      OT      -0.834000       15.9994           0
     42374 W2       14125    TIP3     H1       HT       0.417000       1.00800           0
     42375 W2       14125    TIP3     H2       HT       0.417000       1.00800           0
     42376 W2       14126    TIP3     OH2      OT      -0.834000       15.9994           0
     42377 W2       14126    TIP3     H1       HT       0.417000       1.00800           0
     42378 W2       14126    TIP3     H2       HT       0.417000       1.00800           0
     42379 W2       14127    TIP3     OH2      OT      -0.834000       15.9994           0
     42380 W2       14127    TIP3     H1       HT       0.417000       1.00800           0
     42381 W2       14127    TIP3     H2       HT       0.417000       1.00800           0
     42382 W2       14128    TIP3     OH2      OT      -0.834000       15.9994           0
     42383 W2       14128    TIP3     H1       HT       0.417000       1.00800           0
     42384 W2       14128    TIP3     H2       HT       0.417000       1.00800           0
     42385 W2       14129    TIP3     OH2      OT      -0.834000       15.9994           0
     42386 W2       14129    TIP3     H1       HT       0.417000       1.00800           0
     42387 W2       14129    TIP3     H2       HT       0.417000       1.00800           0
     42388 W2       14130    TIP3     OH2      OT      -0.834000       15.9994           0
     42389 W2       14130    TIP3     H1       HT       0.417000       1.00800           0
     42390 W2       14130    TIP3     H2       HT       0.417000       1.00800           0
     42391 W2       14131    TIP3     OH2      OT      -0.834000       15.9994           0
     42392 W2       14131    TIP3     H1       HT       0.417000       1.00800           0
     42393 W2       14131    TIP3     H2       HT       0.417000       1.00800           0
     42394 W2       14132    TIP3     OH2      OT      -0.834000       15.9994           0
     42395 W2       14132    TIP3     H1       HT       0.417000       1.00800           0
     42396 W2       14132    TIP3     H2       HT       0.417000       1.00800           0
     42397 W2       14133    TIP3     OH2      OT      -0.834000       15.9994           0
     42398 W2       14133    TIP3     H1       HT       0.417000       1.00800           0
     42399 W2       14133    TIP3     H2       HT       0.417000       1.00800           0
     42400 W2       14134    TIP3     OH2      OT      -0.834000       15.9994           0
     42401 W2       14134    TIP3     H1       HT       0.417000       1.00800           0
     42402 W2       14134    TIP3     H2       HT       0.417000       1.00800           0
     42403 W2       14135    TIP3     OH2      OT      -0.834000       15.9994           0
     42404 W2       14135    TIP3     H1       HT       0.417000       1.00800           0
     42405 W2       14135    TIP3     H2       HT       0.417000       1.00800           0
     42406 W2       14136    TIP3     OH2      OT      -0.834000       15.9994           0
     42407 W2       14136    TIP3     H1       HT       0.417000       1.00800           0
     42408 W2       14136    TIP3     H2       HT       0.417000       1.00800           0
     42409 W2       14137    TIP3     OH2      OT      -0.834000       15.9994           0
     42410 W2       14137    TIP3     H1       HT       0.417000       1.00800           0
     42411 W2       14137    TIP3     H2       HT       0.417000       1.00800           0
     42412 W2       14138    TIP3     OH2      OT      -0.834000       15.9994           0
     42413 W2       14138    TIP3     H1       HT       0.417000       1.00800           0
     42414 W2       14138    TIP3     H2       HT       0.417000       1.00800           0
     42415 W2       14139    TIP3     OH2      OT      -0.834000       15.9994           0
     42416 W2       14139    TIP3     H1       HT       0.417000       1.00800           0
     42417 W2       14139    TIP3     H2       HT       0.417000       1.00800           0
     42418 W2       14140    TIP3     OH2      OT      -0.834000       15.9994           0
     42419 W2       14140    TIP3     H1       HT       0.417000       1.00800           0
     42420 W2       14140    TIP3     H2       HT       0.417000       1.00800           0
     42421 W2       14141    TIP3     OH2      OT      -0.834000       15.9994           0
     42422 W2       14141    TIP3     H1       HT       0.417000       1.00800           0
     42423 W2       14141    TIP3     H2       HT       0.417000       1.00800           0
     42424 W2       14142    TIP3     OH2      OT      -0.834000       15.9994           0
     42425 W2       14142    TIP3     H1       HT       0.417000       1.00800           0
     42426 W2       14142    TIP3     H2       HT       0.417000       1.00800           0
     42427 W2       14143    TIP3     OH2      OT      -0.834000       15.9994           0
     42428 W2       14143    TIP3     H1       HT       0.417000       1.00800           0
     42429 W2       14143    TIP3     H2       HT       0.417000       1.00800           0
     42430 W2       14144    TIP3     OH2      OT      -0.834000       15.9994           0
     42431 W2       14144    TIP3     H1       HT       0.417000       1.00800           0
     42432 W2       14144    TIP3     H2       HT       0.417000       1.00800           0
     42433 W2       14145    TIP3     OH2      OT      -0.834000       15.9994           0
     42434 W2       14145    TIP3     H1       HT       0.417000       1.00800           0
     42435 W2       14145    TIP3     H2       HT       0.417000       1.00800           0
     42436 W2       14146    TIP3     OH2      OT      -0.834000       15.9994           0
     42437 W2       14146    TIP3     H1       HT       0.417000       1.00800           0
     42438 W2       14146    TIP3     H2       HT       0.417000       1.00800           0
     42439 W2       14147    TIP3     OH2      OT      -0.834000       15.9994           0
     42440 W2       14147    TIP3     H1       HT       0.417000       1.00800           0
     42441 W2       14147    TIP3     H2       HT       0.417000       1.00800           0
     42442 W2       14148    TIP3     OH2      OT      -0.834000       15.9994           0
     42443 W2       14148    TIP3     H1       HT       0.417000       1.00800           0
     42444 W2       14148    TIP3     H2       HT       0.417000       1.00800           0
     42445 W2       14149    TIP3     OH2      OT      -0.834000       15.9994           0
     42446 W2       14149    TIP3     H1       HT       0.417000       1.00800           0
     42447 W2       14149    TIP3     H2       HT       0.417000       1.00800           0
     42448 W2       14150    TIP3     OH2      OT      -0.834000       15.9994           0
     42449 W2       14150    TIP3     H1       HT       0.417000       1.00800           0
     42450 W2       14150    TIP3     H2       HT       0.417000       1.00800           0
     42451 W2       14151    TIP3     OH2      OT      -0.834000       15.9994           0
     42452 W2       14151    TIP3     H1       HT       0.417000       1.00800           0
     42453 W2       14151    TIP3     H2       HT       0.417000       1.00800           0
     42454 W2       14152    TIP3     OH2      OT      -0.834000       15.9994           0
     42455 W2       14152    TIP3     H1       HT       0.417000       1.00800           0
     42456 W2       14152    TIP3     H2       HT       0.417000       1.00800           0
     42457 W2       14153    TIP3     OH2      OT      -0.834000       15.9994           0
     42458 W2       14153    TIP3     H1       HT       0.417000       1.00800           0
     42459 W2       14153    TIP3     H2       HT       0.417000       1.00800           0
     42460 W2       14154    TIP3     OH2      OT      -0.834000       15.9994           0
     42461 W2       14154    TIP3     H1       HT       0.417000       1.00800           0
     42462 W2       14154    TIP3     H2       HT       0.417000       1.00800           0
     42463 W2       14155    TIP3     OH2      OT      -0.834000       15.9994           0
     42464 W2       14155    TIP3     H1       HT       0.417000       1.00800           0
     42465 W2       14155    TIP3     H2       HT       0.417000       1.00800           0
     42466 W2       14156    TIP3     OH2      OT      -0.834000       15.9994           0
     42467 W2       14156    TIP3     H1       HT       0.417000       1.00800           0
     42468 W2       14156    TIP3     H2       HT       0.417000       1.00800           0
     42469 W2       14157    TIP3     OH2      OT      -0.834000       15.9994           0
     42470 W2       14157    TIP3     H1       HT       0.417000       1.00800           0
     42471 W2       14157    TIP3     H2       HT       0.417000       1.00800           0
     42472 W2       14158    TIP3     OH2      OT      -0.834000       15.9994           0
     42473 W2       14158    TIP3     H1       HT       0.417000       1.00800           0
     42474 W2       14158    TIP3     H2       HT       0.417000       1.00800           0
     42475 W2       14159    TIP3     OH2      OT      -0.834000       15.9994           0
     42476 W2       14159    TIP3     H1       HT       0.417000       1.00800           0
     42477 W2       14159    TIP3     H2       HT       0.417000       1.00800           0
     42478 W2       14160    TIP3     OH2      OT      -0.834000       15.9994           0
     42479 W2       14160    TIP3     H1       HT       0.417000       1.00800           0
     42480 W2       14160    TIP3     H2       HT       0.417000       1.00800           0
     42481 W2       14161    TIP3     OH2      OT      -0.834000       15.9994           0
     42482 W2       14161    TIP3     H1       HT       0.417000       1.00800           0
     42483 W2       14161    TIP3     H2       HT       0.417000       1.00800           0
     42484 W2       14162    TIP3     OH2      OT      -0.834000       15.9994           0
     42485 W2       14162    TIP3     H1       HT       0.417000       1.00800           0
     42486 W2       14162    TIP3     H2       HT       0.417000       1.00800           0
     42487 W2       14163    TIP3     OH2      OT      -0.834000       15.9994           0
     42488 W2       14163    TIP3     H1       HT       0.417000       1.00800           0
     42489 W2       14163    TIP3     H2       HT       0.417000       1.00800           0
     42490 W2       14164    TIP3     OH2      OT      -0.834000       15.9994           0
     42491 W2       14164    TIP3     H1       HT       0.417000       1.00800           0
     42492 W2       14164    TIP3     H2       HT       0.417000       1.00800           0
     42493 W2       14165    TIP3     OH2      OT      -0.834000       15.9994           0
     42494 W2       14165    TIP3     H1       HT       0.417000       1.00800           0
     42495 W2       14165    TIP3     H2       HT       0.417000       1.00800           0
     42496 W2       14166    TIP3     OH2      OT      -0.834000       15.9994           0
     42497 W2       14166    TIP3     H1       HT       0.417000       1.00800           0
     42498 W2       14166    TIP3     H2       HT       0.417000       1.00800           0
     42499 W2       14167    TIP3     OH2      OT      -0.834000       15.9994           0
     42500 W2       14167    TIP3     H1       HT       0.417000       1.00800           0
     42501 W2       14167    TIP3     H2       HT       0.417000       1.00800           0
     42502 W2       14168    TIP3     OH2      OT      -0.834000       15.9994           0
     42503 W2       14168    TIP3     H1       HT       0.417000       1.00800           0
     42504 W2       14168    TIP3     H2       HT       0.417000       1.00800           0
     42505 W2       14169    TIP3     OH2      OT      -0.834000       15.9994           0
     42506 W2       14169    TIP3     H1       HT       0.417000       1.00800           0
     42507 W2       14169    TIP3     H2       HT       0.417000       1.00800           0
     42508 W2       14170    TIP3     OH2      OT      -0.834000       15.9994           0
     42509 W2       14170    TIP3     H1       HT       0.417000       1.00800           0
     42510 W2       14170    TIP3     H2       HT       0.417000       1.00800           0
     42511 W2       14171    TIP3     OH2      OT      -0.834000       15.9994           0
     42512 W2       14171    TIP3     H1       HT       0.417000       1.00800           0
     42513 W2       14171    TIP3     H2       HT       0.417000       1.00800           0
     42514 W2       14172    TIP3     OH2      OT      -0.834000       15.9994           0
     42515 W2       14172    TIP3     H1       HT       0.417000       1.00800           0
     42516 W2       14172    TIP3     H2       HT       0.417000       1.00800           0
     42517 W2       14173    TIP3     OH2      OT      -0.834000       15.9994           0
     42518 W2       14173    TIP3     H1       HT       0.417000       1.00800           0
     42519 W2       14173    TIP3     H2       HT       0.417000       1.00800           0
     42520 W2       14174    TIP3     OH2      OT      -0.834000       15.9994           0
     42521 W2       14174    TIP3     H1       HT       0.417000       1.00800           0
     42522 W2       14174    TIP3     H2       HT       0.417000       1.00800           0
     42523 W2       14175    TIP3     OH2      OT      -0.834000       15.9994           0
     42524 W2       14175    TIP3     H1       HT       0.417000       1.00800           0
     42525 W2       14175    TIP3     H2       HT       0.417000       1.00800           0
     42526 W2       14176    TIP3     OH2      OT      -0.834000       15.9994           0
     42527 W2       14176    TIP3     H1       HT       0.417000       1.00800           0
     42528 W2       14176    TIP3     H2       HT       0.417000       1.00800           0
     42529 W2       14177    TIP3     OH2      OT      -0.834000       15.9994           0
     42530 W2       14177    TIP3     H1       HT       0.417000       1.00800           0
     42531 W2       14177    TIP3     H2       HT       0.417000       1.00800           0
     42532 W2       14178    TIP3     OH2      OT      -0.834000       15.9994           0
     42533 W2       14178    TIP3     H1       HT       0.417000       1.00800           0
     42534 W2       14178    TIP3     H2       HT       0.417000       1.00800           0
     42535 W2       14179    TIP3     OH2      OT      -0.834000       15.9994           0
     42536 W2       14179    TIP3     H1       HT       0.417000       1.00800           0
     42537 W2       14179    TIP3     H2       HT       0.417000       1.00800           0
     42538 W2       14180    TIP3     OH2      OT      -0.834000       15.9994           0
     42539 W2       14180    TIP3     H1       HT       0.417000       1.00800           0
     42540 W2       14180    TIP3     H2       HT       0.417000       1.00800           0
     42541 W2       14181    TIP3     OH2      OT      -0.834000       15.9994           0
     42542 W2       14181    TIP3     H1       HT       0.417000       1.00800           0
     42543 W2       14181    TIP3     H2       HT       0.417000       1.00800           0
     42544 W2       14182    TIP3     OH2      OT      -0.834000       15.9994           0
     42545 W2       14182    TIP3     H1       HT       0.417000       1.00800           0
     42546 W2       14182    TIP3     H2       HT       0.417000       1.00800           0
     42547 W2       14183    TIP3     OH2      OT      -0.834000       15.9994           0
     42548 W2       14183    TIP3     H1       HT       0.417000       1.00800           0
     42549 W2       14183    TIP3     H2       HT       0.417000       1.00800           0
     42550 W2       14184    TIP3     OH2      OT      -0.834000       15.9994           0
     42551 W2       14184    TIP3     H1       HT       0.417000       1.00800           0
     42552 W2       14184    TIP3     H2       HT       0.417000       1.00800           0
     42553 W2       14185    TIP3     OH2      OT      -0.834000       15.9994           0
     42554 W2       14185    TIP3     H1       HT       0.417000       1.00800           0
     42555 W2       14185    TIP3     H2       HT       0.417000       1.00800           0
     42556 W2       14186    TIP3     OH2      OT      -0.834000       15.9994           0
     42557 W2       14186    TIP3     H1       HT       0.417000       1.00800           0
     42558 W2       14186    TIP3     H2       HT       0.417000       1.00800           0
     42559 W2       14187    TIP3     OH2      OT      -0.834000       15.9994           0
     42560 W2       14187    TIP3     H1       HT       0.417000       1.00800           0
     42561 W2       14187    TIP3     H2       HT       0.417000       1.00800           0
     42562 W2       14188    TIP3     OH2      OT      -0.834000       15.9994           0
     42563 W2       14188    TIP3     H1       HT       0.417000       1.00800           0
     42564 W2       14188    TIP3     H2       HT       0.417000       1.00800           0
     42565 W2       14189    TIP3     OH2      OT      -0.834000       15.9994           0
     42566 W2       14189    TIP3     H1       HT       0.417000       1.00800           0
     42567 W2       14189    TIP3     H2       HT       0.417000       1.00800           0
     42568 W2       14190    TIP3     OH2      OT      -0.834000       15.9994           0
     42569 W2       14190    TIP3     H1       HT       0.417000       1.00800           0
     42570 W2       14190    TIP3     H2       HT       0.417000       1.00800           0
     42571 W2       14191    TIP3     OH2      OT      -0.834000       15.9994           0
     42572 W2       14191    TIP3     H1       HT       0.417000       1.00800           0
     42573 W2       14191    TIP3     H2       HT       0.417000       1.00800           0
     42574 W2       14192    TIP3     OH2      OT      -0.834000       15.9994           0
     42575 W2       14192    TIP3     H1       HT       0.417000       1.00800           0
     42576 W2       14192    TIP3     H2       HT       0.417000       1.00800           0
     42577 W2       14193    TIP3     OH2      OT      -0.834000       15.9994           0
     42578 W2       14193    TIP3     H1       HT       0.417000       1.00800           0
     42579 W2       14193    TIP3     H2       HT       0.417000       1.00800           0
     42580 W2       14194    TIP3     OH2      OT      -0.834000       15.9994           0
     42581 W2       14194    TIP3     H1       HT       0.417000       1.00800           0
     42582 W2       14194    TIP3     H2       HT       0.417000       1.00800           0
     42583 W2       14195    TIP3     OH2      OT      -0.834000       15.9994           0
     42584 W2       14195    TIP3     H1       HT       0.417000       1.00800           0
     42585 W2       14195    TIP3     H2       HT       0.417000       1.00800           0
     42586 W2       14196    TIP3     OH2      OT      -0.834000       15.9994           0
     42587 W2       14196    TIP3     H1       HT       0.417000       1.00800           0
     42588 W2       14196    TIP3     H2       HT       0.417000       1.00800           0
     42589 W2       14197    TIP3     OH2      OT      -0.834000       15.9994           0
     42590 W2       14197    TIP3     H1       HT       0.417000       1.00800           0
     42591 W2       14197    TIP3     H2       HT       0.417000       1.00800           0
     42592 W2       14198    TIP3     OH2      OT      -0.834000       15.9994           0
     42593 W2       14198    TIP3     H1       HT       0.417000       1.00800           0
     42594 W2       14198    TIP3     H2       HT       0.417000       1.00800           0
     42595 W2       14199    TIP3     OH2      OT      -0.834000       15.9994           0
     42596 W2       14199    TIP3     H1       HT       0.417000       1.00800           0
     42597 W2       14199    TIP3     H2       HT       0.417000       1.00800           0
     42598 W2       14200    TIP3     OH2      OT      -0.834000       15.9994           0
     42599 W2       14200    TIP3     H1       HT       0.417000       1.00800           0
     42600 W2       14200    TIP3     H2       HT       0.417000       1.00800           0
     42601 W2       14201    TIP3     OH2      OT      -0.834000       15.9994           0
     42602 W2       14201    TIP3     H1       HT       0.417000       1.00800           0
     42603 W2       14201    TIP3     H2       HT       0.417000       1.00800           0
     42604 W2       14202    TIP3     OH2      OT      -0.834000       15.9994           0
     42605 W2       14202    TIP3     H1       HT       0.417000       1.00800           0
     42606 W2       14202    TIP3     H2       HT       0.417000       1.00800           0
     42607 W2       14203    TIP3     OH2      OT      -0.834000       15.9994           0
     42608 W2       14203    TIP3     H1       HT       0.417000       1.00800           0
     42609 W2       14203    TIP3     H2       HT       0.417000       1.00800           0
     42610 W2       14204    TIP3     OH2      OT      -0.834000       15.9994           0
     42611 W2       14204    TIP3     H1       HT       0.417000       1.00800           0
     42612 W2       14204    TIP3     H2       HT       0.417000       1.00800           0
     42613 W2       14205    TIP3     OH2      OT      -0.834000       15.9994           0
     42614 W2       14205    TIP3     H1       HT       0.417000       1.00800           0
     42615 W2       14205    TIP3     H2       HT       0.417000       1.00800           0
     42616 W2       14206    TIP3     OH2      OT      -0.834000       15.9994           0
     42617 W2       14206    TIP3     H1       HT       0.417000       1.00800           0
     42618 W2       14206    TIP3     H2       HT       0.417000       1.00800           0
     42619 W2       14207    TIP3     OH2      OT      -0.834000       15.9994           0
     42620 W2       14207    TIP3     H1       HT       0.417000       1.00800           0
     42621 W2       14207    TIP3     H2       HT       0.417000       1.00800           0
     42622 W2       14208    TIP3     OH2      OT      -0.834000       15.9994           0
     42623 W2       14208    TIP3     H1       HT       0.417000       1.00800           0
     42624 W2       14208    TIP3     H2       HT       0.417000       1.00800           0
     42625 W2       14209    TIP3     OH2      OT      -0.834000       15.9994           0
     42626 W2       14209    TIP3     H1       HT       0.417000       1.00800           0
     42627 W2       14209    TIP3     H2       HT       0.417000       1.00800           0
     42628 W2       14210    TIP3     OH2      OT      -0.834000       15.9994           0
     42629 W2       14210    TIP3     H1       HT       0.417000       1.00800           0
     42630 W2       14210    TIP3     H2       HT       0.417000       1.00800           0
     42631 W2       14211    TIP3     OH2      OT      -0.834000       15.9994           0
     42632 W2       14211    TIP3     H1       HT       0.417000       1.00800           0
     42633 W2       14211    TIP3     H2       HT       0.417000       1.00800           0
     42634 W2       14212    TIP3     OH2      OT      -0.834000       15.9994           0
     42635 W2       14212    TIP3     H1       HT       0.417000       1.00800           0
     42636 W2       14212    TIP3     H2       HT       0.417000       1.00800           0
     42637 W2       14213    TIP3     OH2      OT      -0.834000       15.9994           0
     42638 W2       14213    TIP3     H1       HT       0.417000       1.00800           0
     42639 W2       14213    TIP3     H2       HT       0.417000       1.00800           0
     42640 W2       14214    TIP3     OH2      OT      -0.834000       15.9994           0
     42641 W2       14214    TIP3     H1       HT       0.417000       1.00800           0
     42642 W2       14214    TIP3     H2       HT       0.417000       1.00800           0
     42643 W2       14215    TIP3     OH2      OT      -0.834000       15.9994           0
     42644 W2       14215    TIP3     H1       HT       0.417000       1.00800           0
     42645 W2       14215    TIP3     H2       HT       0.417000       1.00800           0
     42646 W2       14216    TIP3     OH2      OT      -0.834000       15.9994           0
     42647 W2       14216    TIP3     H1       HT       0.417000       1.00800           0
     42648 W2       14216    TIP3     H2       HT       0.417000       1.00800           0
     42649 W2       14217    TIP3     OH2      OT      -0.834000       15.9994           0
     42650 W2       14217    TIP3     H1       HT       0.417000       1.00800           0
     42651 W2       14217    TIP3     H2       HT       0.417000       1.00800           0
     42652 W2       14218    TIP3     OH2      OT      -0.834000       15.9994           0
     42653 W2       14218    TIP3     H1       HT       0.417000       1.00800           0
     42654 W2       14218    TIP3     H2       HT       0.417000       1.00800           0
     42655 W2       14219    TIP3     OH2      OT      -0.834000       15.9994           0
     42656 W2       14219    TIP3     H1       HT       0.417000       1.00800           0
     42657 W2       14219    TIP3     H2       HT       0.417000       1.00800           0
     42658 W2       14220    TIP3     OH2      OT      -0.834000       15.9994           0
     42659 W2       14220    TIP3     H1       HT       0.417000       1.00800           0
     42660 W2       14220    TIP3     H2       HT       0.417000       1.00800           0
     42661 W2       14221    TIP3     OH2      OT      -0.834000       15.9994           0
     42662 W2       14221    TIP3     H1       HT       0.417000       1.00800           0
     42663 W2       14221    TIP3     H2       HT       0.417000       1.00800           0
     42664 W2       14222    TIP3     OH2      OT      -0.834000       15.9994           0
     42665 W2       14222    TIP3     H1       HT       0.417000       1.00800           0
     42666 W2       14222    TIP3     H2       HT       0.417000       1.00800           0
     42667 W2       14223    TIP3     OH2      OT      -0.834000       15.9994           0
     42668 W2       14223    TIP3     H1       HT       0.417000       1.00800           0
     42669 W2       14223    TIP3     H2       HT       0.417000       1.00800           0
     42670 W2       14224    TIP3     OH2      OT      -0.834000       15.9994           0
     42671 W2       14224    TIP3     H1       HT       0.417000       1.00800           0
     42672 W2       14224    TIP3     H2       HT       0.417000       1.00800           0
     42673 W2       14225    TIP3     OH2      OT      -0.834000       15.9994           0
     42674 W2       14225    TIP3     H1       HT       0.417000       1.00800           0
     42675 W2       14225    TIP3     H2       HT       0.417000       1.00800           0
     42676 W2       14226    TIP3     OH2      OT      -0.834000       15.9994           0
     42677 W2       14226    TIP3     H1       HT       0.417000       1.00800           0
     42678 W2       14226    TIP3     H2       HT       0.417000       1.00800           0
     42679 W2       14227    TIP3     OH2      OT      -0.834000       15.9994           0
     42680 W2       14227    TIP3     H1       HT       0.417000       1.00800           0
     42681 W2       14227    TIP3     H2       HT       0.417000       1.00800           0
     42682 W2       14228    TIP3     OH2      OT      -0.834000       15.9994           0
     42683 W2       14228    TIP3     H1       HT       0.417000       1.00800           0
     42684 W2       14228    TIP3     H2       HT       0.417000       1.00800           0
     42685 W2       14229    TIP3     OH2      OT      -0.834000       15.9994           0
     42686 W2       14229    TIP3     H1       HT       0.417000       1.00800           0
     42687 W2       14229    TIP3     H2       HT       0.417000       1.00800           0
     42688 W2       14230    TIP3     OH2      OT      -0.834000       15.9994           0
     42689 W2       14230    TIP3     H1       HT       0.417000       1.00800           0
     42690 W2       14230    TIP3     H2       HT       0.417000       1.00800           0
     42691 W2       14231    TIP3     OH2      OT      -0.834000       15.9994           0
     42692 W2       14231    TIP3     H1       HT       0.417000       1.00800           0
     42693 W2       14231    TIP3     H2       HT       0.417000       1.00800           0
     42694 W2       14232    TIP3     OH2      OT      -0.834000       15.9994           0
     42695 W2       14232    TIP3     H1       HT       0.417000       1.00800           0
     42696 W2       14232    TIP3     H2       HT       0.417000       1.00800           0
     42697 W2       14233    TIP3     OH2      OT      -0.834000       15.9994           0
     42698 W2       14233    TIP3     H1       HT       0.417000       1.00800           0
     42699 W2       14233    TIP3     H2       HT       0.417000       1.00800           0
     42700 W2       14234    TIP3     OH2      OT      -0.834000       15.9994           0
     42701 W2       14234    TIP3     H1       HT       0.417000       1.00800           0
     42702 W2       14234    TIP3     H2       HT       0.417000       1.00800           0
     42703 W2       14235    TIP3     OH2      OT      -0.834000       15.9994           0
     42704 W2       14235    TIP3     H1       HT       0.417000       1.00800           0
     42705 W2       14235    TIP3     H2       HT       0.417000       1.00800           0
     42706 W2       14236    TIP3     OH2      OT      -0.834000       15.9994           0
     42707 W2       14236    TIP3     H1       HT       0.417000       1.00800           0
     42708 W2       14236    TIP3     H2       HT       0.417000       1.00800           0
     42709 W2       14237    TIP3     OH2      OT      -0.834000       15.9994           0
     42710 W2       14237    TIP3     H1       HT       0.417000       1.00800           0
     42711 W2       14237    TIP3     H2       HT       0.417000       1.00800           0
     42712 W2       14238    TIP3     OH2      OT      -0.834000       15.9994           0
     42713 W2       14238    TIP3     H1       HT       0.417000       1.00800           0
     42714 W2       14238    TIP3     H2       HT       0.417000       1.00800           0
     42715 W2       14239    TIP3     OH2      OT      -0.834000       15.9994           0
     42716 W2       14239    TIP3     H1       HT       0.417000       1.00800           0
     42717 W2       14239    TIP3     H2       HT       0.417000       1.00800           0
     42718 W2       14240    TIP3     OH2      OT      -0.834000       15.9994           0
     42719 W2       14240    TIP3     H1       HT       0.417000       1.00800           0
     42720 W2       14240    TIP3     H2       HT       0.417000       1.00800           0
     42721 W2       14241    TIP3     OH2      OT      -0.834000       15.9994           0
     42722 W2       14241    TIP3     H1       HT       0.417000       1.00800           0
     42723 W2       14241    TIP3     H2       HT       0.417000       1.00800           0
     42724 W2       14242    TIP3     OH2      OT      -0.834000       15.9994           0
     42725 W2       14242    TIP3     H1       HT       0.417000       1.00800           0
     42726 W2       14242    TIP3     H2       HT       0.417000       1.00800           0
     42727 W2       14243    TIP3     OH2      OT      -0.834000       15.9994           0
     42728 W2       14243    TIP3     H1       HT       0.417000       1.00800           0
     42729 W2       14243    TIP3     H2       HT       0.417000       1.00800           0
     42730 W2       14244    TIP3     OH2      OT      -0.834000       15.9994           0
     42731 W2       14244    TIP3     H1       HT       0.417000       1.00800           0
     42732 W2       14244    TIP3     H2       HT       0.417000       1.00800           0
     42733 W2       14245    TIP3     OH2      OT      -0.834000       15.9994           0
     42734 W2       14245    TIP3     H1       HT       0.417000       1.00800           0
     42735 W2       14245    TIP3     H2       HT       0.417000       1.00800           0
     42736 W2       14246    TIP3     OH2      OT      -0.834000       15.9994           0
     42737 W2       14246    TIP3     H1       HT       0.417000       1.00800           0
     42738 W2       14246    TIP3     H2       HT       0.417000       1.00800           0
     42739 W2       14247    TIP3     OH2      OT      -0.834000       15.9994           0
     42740 W2       14247    TIP3     H1       HT       0.417000       1.00800           0
     42741 W2       14247    TIP3     H2       HT       0.417000       1.00800           0
     42742 W2       14248    TIP3     OH2      OT      -0.834000       15.9994           0
     42743 W2       14248    TIP3     H1       HT       0.417000       1.00800           0
     42744 W2       14248    TIP3     H2       HT       0.417000       1.00800           0
     42745 W2       14249    TIP3     OH2      OT      -0.834000       15.9994           0
     42746 W2       14249    TIP3     H1       HT       0.417000       1.00800           0
     42747 W2       14249    TIP3     H2       HT       0.417000       1.00800           0
     42748 W2       14250    TIP3     OH2      OT      -0.834000       15.9994           0
     42749 W2       14250    TIP3     H1       HT       0.417000       1.00800           0
     42750 W2       14250    TIP3     H2       HT       0.417000       1.00800           0
     42751 W2       14251    TIP3     OH2      OT      -0.834000       15.9994           0
     42752 W2       14251    TIP3     H1       HT       0.417000       1.00800           0
     42753 W2       14251    TIP3     H2       HT       0.417000       1.00800           0
     42754 W2       14252    TIP3     OH2      OT      -0.834000       15.9994           0
     42755 W2       14252    TIP3     H1       HT       0.417000       1.00800           0
     42756 W2       14252    TIP3     H2       HT       0.417000       1.00800           0
     42757 W2       14253    TIP3     OH2      OT      -0.834000       15.9994           0
     42758 W2       14253    TIP3     H1       HT       0.417000       1.00800           0
     42759 W2       14253    TIP3     H2       HT       0.417000       1.00800           0
     42760 W2       14254    TIP3     OH2      OT      -0.834000       15.9994           0
     42761 W2       14254    TIP3     H1       HT       0.417000       1.00800           0
     42762 W2       14254    TIP3     H2       HT       0.417000       1.00800           0
     42763 W2       14255    TIP3     OH2      OT      -0.834000       15.9994           0
     42764 W2       14255    TIP3     H1       HT       0.417000       1.00800           0
     42765 W2       14255    TIP3     H2       HT       0.417000       1.00800           0
     42766 W2       14256    TIP3     OH2      OT      -0.834000       15.9994           0
     42767 W2       14256    TIP3     H1       HT       0.417000       1.00800           0
     42768 W2       14256    TIP3     H2       HT       0.417000       1.00800           0
     42769 W2       14257    TIP3     OH2      OT      -0.834000       15.9994           0
     42770 W2       14257    TIP3     H1       HT       0.417000       1.00800           0
     42771 W2       14257    TIP3     H2       HT       0.417000       1.00800           0
     42772 W2       14258    TIP3     OH2      OT      -0.834000       15.9994           0
     42773 W2       14258    TIP3     H1       HT       0.417000       1.00800           0
     42774 W2       14258    TIP3     H2       HT       0.417000       1.00800           0
     42775 W2       14259    TIP3     OH2      OT      -0.834000       15.9994           0
     42776 W2       14259    TIP3     H1       HT       0.417000       1.00800           0
     42777 W2       14259    TIP3     H2       HT       0.417000       1.00800           0
     42778 W2       14260    TIP3     OH2      OT      -0.834000       15.9994           0
     42779 W2       14260    TIP3     H1       HT       0.417000       1.00800           0
     42780 W2       14260    TIP3     H2       HT       0.417000       1.00800           0
     42781 W2       14261    TIP3     OH2      OT      -0.834000       15.9994           0
     42782 W2       14261    TIP3     H1       HT       0.417000       1.00800           0
     42783 W2       14261    TIP3     H2       HT       0.417000       1.00800           0
     42784 W2       14262    TIP3     OH2      OT      -0.834000       15.9994           0
     42785 W2       14262    TIP3     H1       HT       0.417000       1.00800           0
     42786 W2       14262    TIP3     H2       HT       0.417000       1.00800           0
     42787 W2       14263    TIP3     OH2      OT      -0.834000       15.9994           0
     42788 W2       14263    TIP3     H1       HT       0.417000       1.00800           0
     42789 W2       14263    TIP3     H2       HT       0.417000       1.00800           0
     42790 W2       14264    TIP3     OH2      OT      -0.834000       15.9994           0
     42791 W2       14264    TIP3     H1       HT       0.417000       1.00800           0
     42792 W2       14264    TIP3     H2       HT       0.417000       1.00800           0
     42793 W2       14265    TIP3     OH2      OT      -0.834000       15.9994           0
     42794 W2       14265    TIP3     H1       HT       0.417000       1.00800           0
     42795 W2       14265    TIP3     H2       HT       0.417000       1.00800           0
     42796 W2       14266    TIP3     OH2      OT      -0.834000       15.9994           0
     42797 W2       14266    TIP3     H1       HT       0.417000       1.00800           0
     42798 W2       14266    TIP3     H2       HT       0.417000       1.00800           0
     42799 W2       14267    TIP3     OH2      OT      -0.834000       15.9994           0
     42800 W2       14267    TIP3     H1       HT       0.417000       1.00800           0
     42801 W2       14267    TIP3     H2       HT       0.417000       1.00800           0
     42802 W2       14268    TIP3     OH2      OT      -0.834000       15.9994           0
     42803 W2       14268    TIP3     H1       HT       0.417000       1.00800           0
     42804 W2       14268    TIP3     H2       HT       0.417000       1.00800           0
     42805 W2       14269    TIP3     OH2      OT      -0.834000       15.9994           0
     42806 W2       14269    TIP3     H1       HT       0.417000       1.00800           0
     42807 W2       14269    TIP3     H2       HT       0.417000       1.00800           0
     42808 W2       14270    TIP3     OH2      OT      -0.834000       15.9994           0
     42809 W2       14270    TIP3     H1       HT       0.417000       1.00800           0
     42810 W2       14270    TIP3     H2       HT       0.417000       1.00800           0
     42811 W2       14271    TIP3     OH2      OT      -0.834000       15.9994           0
     42812 W2       14271    TIP3     H1       HT       0.417000       1.00800           0
     42813 W2       14271    TIP3     H2       HT       0.417000       1.00800           0
     42814 W2       14272    TIP3     OH2      OT      -0.834000       15.9994           0
     42815 W2       14272    TIP3     H1       HT       0.417000       1.00800           0
     42816 W2       14272    TIP3     H2       HT       0.417000       1.00800           0
     42817 W2       14273    TIP3     OH2      OT      -0.834000       15.9994           0
     42818 W2       14273    TIP3     H1       HT       0.417000       1.00800           0
     42819 W2       14273    TIP3     H2       HT       0.417000       1.00800           0
     42820 W2       14274    TIP3     OH2      OT      -0.834000       15.9994           0
     42821 W2       14274    TIP3     H1       HT       0.417000       1.00800           0
     42822 W2       14274    TIP3     H2       HT       0.417000       1.00800           0
     42823 W2       14275    TIP3     OH2      OT      -0.834000       15.9994           0
     42824 W2       14275    TIP3     H1       HT       0.417000       1.00800           0
     42825 W2       14275    TIP3     H2       HT       0.417000       1.00800           0
     42826 W2       14276    TIP3     OH2      OT      -0.834000       15.9994           0
     42827 W2       14276    TIP3     H1       HT       0.417000       1.00800           0
     42828 W2       14276    TIP3     H2       HT       0.417000       1.00800           0
     42829 W2       14277    TIP3     OH2      OT      -0.834000       15.9994           0
     42830 W2       14277    TIP3     H1       HT       0.417000       1.00800           0
     42831 W2       14277    TIP3     H2       HT       0.417000       1.00800           0
     42832 W2       14278    TIP3     OH2      OT      -0.834000       15.9994           0
     42833 W2       14278    TIP3     H1       HT       0.417000       1.00800           0
     42834 W2       14278    TIP3     H2       HT       0.417000       1.00800           0
     42835 W2       14279    TIP3     OH2      OT      -0.834000       15.9994           0
     42836 W2       14279    TIP3     H1       HT       0.417000       1.00800           0
     42837 W2       14279    TIP3     H2       HT       0.417000       1.00800           0
     42838 W2       14280    TIP3     OH2      OT      -0.834000       15.9994           0
     42839 W2       14280    TIP3     H1       HT       0.417000       1.00800           0
     42840 W2       14280    TIP3     H2       HT       0.417000       1.00800           0
     42841 W2       14281    TIP3     OH2      OT      -0.834000       15.9994           0
     42842 W2       14281    TIP3     H1       HT       0.417000       1.00800           0
     42843 W2       14281    TIP3     H2       HT       0.417000       1.00800           0
     42844 W2       14282    TIP3     OH2      OT      -0.834000       15.9994           0
     42845 W2       14282    TIP3     H1       HT       0.417000       1.00800           0
     42846 W2       14282    TIP3     H2       HT       0.417000       1.00800           0
     42847 W2       14283    TIP3     OH2      OT      -0.834000       15.9994           0
     42848 W2       14283    TIP3     H1       HT       0.417000       1.00800           0
     42849 W2       14283    TIP3     H2       HT       0.417000       1.00800           0
     42850 W2       14284    TIP3     OH2      OT      -0.834000       15.9994           0
     42851 W2       14284    TIP3     H1       HT       0.417000       1.00800           0
     42852 W2       14284    TIP3     H2       HT       0.417000       1.00800           0
     42853 W2       14285    TIP3     OH2      OT      -0.834000       15.9994           0
     42854 W2       14285    TIP3     H1       HT       0.417000       1.00800           0
     42855 W2       14285    TIP3     H2       HT       0.417000       1.00800           0
     42856 W2       14286    TIP3     OH2      OT      -0.834000       15.9994           0
     42857 W2       14286    TIP3     H1       HT       0.417000       1.00800           0
     42858 W2       14286    TIP3     H2       HT       0.417000       1.00800           0
     42859 W2       14287    TIP3     OH2      OT      -0.834000       15.9994           0
     42860 W2       14287    TIP3     H1       HT       0.417000       1.00800           0
     42861 W2       14287    TIP3     H2       HT       0.417000       1.00800           0
     42862 W2       14288    TIP3     OH2      OT      -0.834000       15.9994           0
     42863 W2       14288    TIP3     H1       HT       0.417000       1.00800           0
     42864 W2       14288    TIP3     H2       HT       0.417000       1.00800           0
     42865 W2       14289    TIP3     OH2      OT      -0.834000       15.9994           0
     42866 W2       14289    TIP3     H1       HT       0.417000       1.00800           0
     42867 W2       14289    TIP3     H2       HT       0.417000       1.00800           0
     42868 W2       14290    TIP3     OH2      OT      -0.834000       15.9994           0
     42869 W2       14290    TIP3     H1       HT       0.417000       1.00800           0
     42870 W2       14290    TIP3     H2       HT       0.417000       1.00800           0
     42871 W2       14291    TIP3     OH2      OT      -0.834000       15.9994           0
     42872 W2       14291    TIP3     H1       HT       0.417000       1.00800           0
     42873 W2       14291    TIP3     H2       HT       0.417000       1.00800           0
     42874 W2       14292    TIP3     OH2      OT      -0.834000       15.9994           0
     42875 W2       14292    TIP3     H1       HT       0.417000       1.00800           0
     42876 W2       14292    TIP3     H2       HT       0.417000       1.00800           0
     42877 W2       14293    TIP3     OH2      OT      -0.834000       15.9994           0
     42878 W2       14293    TIP3     H1       HT       0.417000       1.00800           0
     42879 W2       14293    TIP3     H2       HT       0.417000       1.00800           0
     42880 W2       14294    TIP3     OH2      OT      -0.834000       15.9994           0
     42881 W2       14294    TIP3     H1       HT       0.417000       1.00800           0
     42882 W2       14294    TIP3     H2       HT       0.417000       1.00800           0
     42883 W2       14295    TIP3     OH2      OT      -0.834000       15.9994           0
     42884 W2       14295    TIP3     H1       HT       0.417000       1.00800           0
     42885 W2       14295    TIP3     H2       HT       0.417000       1.00800           0
     42886 W2       14296    TIP3     OH2      OT      -0.834000       15.9994           0
     42887 W2       14296    TIP3     H1       HT       0.417000       1.00800           0
     42888 W2       14296    TIP3     H2       HT       0.417000       1.00800           0
     42889 W2       14297    TIP3     OH2      OT      -0.834000       15.9994           0
     42890 W2       14297    TIP3     H1       HT       0.417000       1.00800           0
     42891 W2       14297    TIP3     H2       HT       0.417000       1.00800           0
     42892 W2       14298    TIP3     OH2      OT      -0.834000       15.9994           0
     42893 W2       14298    TIP3     H1       HT       0.417000       1.00800           0
     42894 W2       14298    TIP3     H2       HT       0.417000       1.00800           0
     42895 W2       14299    TIP3     OH2      OT      -0.834000       15.9994           0
     42896 W2       14299    TIP3     H1       HT       0.417000       1.00800           0
     42897 W2       14299    TIP3     H2       HT       0.417000       1.00800           0
     42898 W2       14300    TIP3     OH2      OT      -0.834000       15.9994           0
     42899 W2       14300    TIP3     H1       HT       0.417000       1.00800           0
     42900 W2       14300    TIP3     H2       HT       0.417000       1.00800           0
     42901 W2       14301    TIP3     OH2      OT      -0.834000       15.9994           0
     42902 W2       14301    TIP3     H1       HT       0.417000       1.00800           0
     42903 W2       14301    TIP3     H2       HT       0.417000       1.00800           0
     42904 W2       14302    TIP3     OH2      OT      -0.834000       15.9994           0
     42905 W2       14302    TIP3     H1       HT       0.417000       1.00800           0
     42906 W2       14302    TIP3     H2       HT       0.417000       1.00800           0
     42907 W2       14303    TIP3     OH2      OT      -0.834000       15.9994           0
     42908 W2       14303    TIP3     H1       HT       0.417000       1.00800           0
     42909 W2       14303    TIP3     H2       HT       0.417000       1.00800           0
     42910 W2       14304    TIP3     OH2      OT      -0.834000       15.9994           0
     42911 W2       14304    TIP3     H1       HT       0.417000       1.00800           0
     42912 W2       14304    TIP3     H2       HT       0.417000       1.00800           0
     42913 W2       14305    TIP3     OH2      OT      -0.834000       15.9994           0
     42914 W2       14305    TIP3     H1       HT       0.417000       1.00800           0
     42915 W2       14305    TIP3     H2       HT       0.417000       1.00800           0
     42916 W2       14306    TIP3     OH2      OT      -0.834000       15.9994           0
     42917 W2       14306    TIP3     H1       HT       0.417000       1.00800           0
     42918 W2       14306    TIP3     H2       HT       0.417000       1.00800           0
     42919 W2       14307    TIP3     OH2      OT      -0.834000       15.9994           0
     42920 W2       14307    TIP3     H1       HT       0.417000       1.00800           0
     42921 W2       14307    TIP3     H2       HT       0.417000       1.00800           0
     42922 W2       14308    TIP3     OH2      OT      -0.834000       15.9994           0
     42923 W2       14308    TIP3     H1       HT       0.417000       1.00800           0
     42924 W2       14308    TIP3     H2       HT       0.417000       1.00800           0
     42925 W2       14309    TIP3     OH2      OT      -0.834000       15.9994           0
     42926 W2       14309    TIP3     H1       HT       0.417000       1.00800           0
     42927 W2       14309    TIP3     H2       HT       0.417000       1.00800           0
     42928 W2       14310    TIP3     OH2      OT      -0.834000       15.9994           0
     42929 W2       14310    TIP3     H1       HT       0.417000       1.00800           0
     42930 W2       14310    TIP3     H2       HT       0.417000       1.00800           0
     42931 W2       14311    TIP3     OH2      OT      -0.834000       15.9994           0
     42932 W2       14311    TIP3     H1       HT       0.417000       1.00800           0
     42933 W2       14311    TIP3     H2       HT       0.417000       1.00800           0
     42934 W2       14312    TIP3     OH2      OT      -0.834000       15.9994           0
     42935 W2       14312    TIP3     H1       HT       0.417000       1.00800           0
     42936 W2       14312    TIP3     H2       HT       0.417000       1.00800           0
     42937 W2       14313    TIP3     OH2      OT      -0.834000       15.9994           0
     42938 W2       14313    TIP3     H1       HT       0.417000       1.00800           0
     42939 W2       14313    TIP3     H2       HT       0.417000       1.00800           0
     42940 W2       14314    TIP3     OH2      OT      -0.834000       15.9994           0
     42941 W2       14314    TIP3     H1       HT       0.417000       1.00800           0
     42942 W2       14314    TIP3     H2       HT       0.417000       1.00800           0
     42943 W2       14315    TIP3     OH2      OT      -0.834000       15.9994           0
     42944 W2       14315    TIP3     H1       HT       0.417000       1.00800           0
     42945 W2       14315    TIP3     H2       HT       0.417000       1.00800           0
     42946 W2       14316    TIP3     OH2      OT      -0.834000       15.9994           0
     42947 W2       14316    TIP3     H1       HT       0.417000       1.00800           0
     42948 W2       14316    TIP3     H2       HT       0.417000       1.00800           0
     42949 W2       14317    TIP3     OH2      OT      -0.834000       15.9994           0
     42950 W2       14317    TIP3     H1       HT       0.417000       1.00800           0
     42951 W2       14317    TIP3     H2       HT       0.417000       1.00800           0
     42952 W2       14318    TIP3     OH2      OT      -0.834000       15.9994           0
     42953 W2       14318    TIP3     H1       HT       0.417000       1.00800           0
     42954 W2       14318    TIP3     H2       HT       0.417000       1.00800           0
     42955 W2       14319    TIP3     OH2      OT      -0.834000       15.9994           0
     42956 W2       14319    TIP3     H1       HT       0.417000       1.00800           0
     42957 W2       14319    TIP3     H2       HT       0.417000       1.00800           0
     42958 W2       14320    TIP3     OH2      OT      -0.834000       15.9994           0
     42959 W2       14320    TIP3     H1       HT       0.417000       1.00800           0
     42960 W2       14320    TIP3     H2       HT       0.417000       1.00800           0
     42961 W2       14321    TIP3     OH2      OT      -0.834000       15.9994           0
     42962 W2       14321    TIP3     H1       HT       0.417000       1.00800           0
     42963 W2       14321    TIP3     H2       HT       0.417000       1.00800           0
     42964 W2       14322    TIP3     OH2      OT      -0.834000       15.9994           0
     42965 W2       14322    TIP3     H1       HT       0.417000       1.00800           0
     42966 W2       14322    TIP3     H2       HT       0.417000       1.00800           0
     42967 W2       14323    TIP3     OH2      OT      -0.834000       15.9994           0
     42968 W2       14323    TIP3     H1       HT       0.417000       1.00800           0
     42969 W2       14323    TIP3     H2       HT       0.417000       1.00800           0
     42970 W2       14324    TIP3     OH2      OT      -0.834000       15.9994           0
     42971 W2       14324    TIP3     H1       HT       0.417000       1.00800           0
     42972 W2       14324    TIP3     H2       HT       0.417000       1.00800           0
     42973 W2       14325    TIP3     OH2      OT      -0.834000       15.9994           0
     42974 W2       14325    TIP3     H1       HT       0.417000       1.00800           0
     42975 W2       14325    TIP3     H2       HT       0.417000       1.00800           0
     42976 W2       14326    TIP3     OH2      OT      -0.834000       15.9994           0
     42977 W2       14326    TIP3     H1       HT       0.417000       1.00800           0
     42978 W2       14326    TIP3     H2       HT       0.417000       1.00800           0
     42979 W2       14327    TIP3     OH2      OT      -0.834000       15.9994           0
     42980 W2       14327    TIP3     H1       HT       0.417000       1.00800           0
     42981 W2       14327    TIP3     H2       HT       0.417000       1.00800           0
     42982 W2       14328    TIP3     OH2      OT      -0.834000       15.9994           0
     42983 W2       14328    TIP3     H1       HT       0.417000       1.00800           0
     42984 W2       14328    TIP3     H2       HT       0.417000       1.00800           0
     42985 W2       14329    TIP3     OH2      OT      -0.834000       15.9994           0
     42986 W2       14329    TIP3     H1       HT       0.417000       1.00800           0
     42987 W2       14329    TIP3     H2       HT       0.417000       1.00800           0
     42988 W2       14330    TIP3     OH2      OT      -0.834000       15.9994           0
     42989 W2       14330    TIP3     H1       HT       0.417000       1.00800           0
     42990 W2       14330    TIP3     H2       HT       0.417000       1.00800           0
     42991 W2       14331    TIP3     OH2      OT      -0.834000       15.9994           0
     42992 W2       14331    TIP3     H1       HT       0.417000       1.00800           0
     42993 W2       14331    TIP3     H2       HT       0.417000       1.00800           0
     42994 W2       14332    TIP3     OH2      OT      -0.834000       15.9994           0
     42995 W2       14332    TIP3     H1       HT       0.417000       1.00800           0
     42996 W2       14332    TIP3     H2       HT       0.417000       1.00800           0
     42997 W2       14333    TIP3     OH2      OT      -0.834000       15.9994           0
     42998 W2       14333    TIP3     H1       HT       0.417000       1.00800           0
     42999 W2       14333    TIP3     H2       HT       0.417000       1.00800           0
     43000 W2       14334    TIP3     OH2      OT      -0.834000       15.9994           0
     43001 W2       14334    TIP3     H1       HT       0.417000       1.00800           0
     43002 W2       14334    TIP3     H2       HT       0.417000       1.00800           0
     43003 W2       14335    TIP3     OH2      OT      -0.834000       15.9994           0
     43004 W2       14335    TIP3     H1       HT       0.417000       1.00800           0
     43005 W2       14335    TIP3     H2       HT       0.417000       1.00800           0
     43006 W2       14336    TIP3     OH2      OT      -0.834000       15.9994           0
     43007 W2       14336    TIP3     H1       HT       0.417000       1.00800           0
     43008 W2       14336    TIP3     H2       HT       0.417000       1.00800           0
     43009 W2       14337    TIP3     OH2      OT      -0.834000       15.9994           0
     43010 W2       14337    TIP3     H1       HT       0.417000       1.00800           0
     43011 W2       14337    TIP3     H2       HT       0.417000       1.00800           0
     43012 W2       14338    TIP3     OH2      OT      -0.834000       15.9994           0
     43013 W2       14338    TIP3     H1       HT       0.417000       1.00800           0
     43014 W2       14338    TIP3     H2       HT       0.417000       1.00800           0
     43015 W2       14339    TIP3     OH2      OT      -0.834000       15.9994           0
     43016 W2       14339    TIP3     H1       HT       0.417000       1.00800           0
     43017 W2       14339    TIP3     H2       HT       0.417000       1.00800           0
     43018 W2       14340    TIP3     OH2      OT      -0.834000       15.9994           0
     43019 W2       14340    TIP3     H1       HT       0.417000       1.00800           0
     43020 W2       14340    TIP3     H2       HT       0.417000       1.00800           0
     43021 W2       14341    TIP3     OH2      OT      -0.834000       15.9994           0
     43022 W2       14341    TIP3     H1       HT       0.417000       1.00800           0
     43023 W2       14341    TIP3     H2       HT       0.417000       1.00800           0
     43024 W2       14342    TIP3     OH2      OT      -0.834000       15.9994           0
     43025 W2       14342    TIP3     H1       HT       0.417000       1.00800           0
     43026 W2       14342    TIP3     H2       HT       0.417000       1.00800           0
     43027 W2       14343    TIP3     OH2      OT      -0.834000       15.9994           0
     43028 W2       14343    TIP3     H1       HT       0.417000       1.00800           0
     43029 W2       14343    TIP3     H2       HT       0.417000       1.00800           0
     43030 W2       14344    TIP3     OH2      OT      -0.834000       15.9994           0
     43031 W2       14344    TIP3     H1       HT       0.417000       1.00800           0
     43032 W2       14344    TIP3     H2       HT       0.417000       1.00800           0
     43033 W2       14345    TIP3     OH2      OT      -0.834000       15.9994           0
     43034 W2       14345    TIP3     H1       HT       0.417000       1.00800           0
     43035 W2       14345    TIP3     H2       HT       0.417000       1.00800           0
     43036 W2       14346    TIP3     OH2      OT      -0.834000       15.9994           0
     43037 W2       14346    TIP3     H1       HT       0.417000       1.00800           0
     43038 W2       14346    TIP3     H2       HT       0.417000       1.00800           0
     43039 W2       14347    TIP3     OH2      OT      -0.834000       15.9994           0
     43040 W2       14347    TIP3     H1       HT       0.417000       1.00800           0
     43041 W2       14347    TIP3     H2       HT       0.417000       1.00800           0
     43042 W2       14348    TIP3     OH2      OT      -0.834000       15.9994           0
     43043 W2       14348    TIP3     H1       HT       0.417000       1.00800           0
     43044 W2       14348    TIP3     H2       HT       0.417000       1.00800           0
     43045 W2       14349    TIP3     OH2      OT      -0.834000       15.9994           0
     43046 W2       14349    TIP3     H1       HT       0.417000       1.00800           0
     43047 W2       14349    TIP3     H2       HT       0.417000       1.00800           0
     43048 W2       14350    TIP3     OH2      OT      -0.834000       15.9994           0
     43049 W2       14350    TIP3     H1       HT       0.417000       1.00800           0
     43050 W2       14350    TIP3     H2       HT       0.417000       1.00800           0
     43051 W2       14351    TIP3     OH2      OT      -0.834000       15.9994           0
     43052 W2       14351    TIP3     H1       HT       0.417000       1.00800           0
     43053 W2       14351    TIP3     H2       HT       0.417000       1.00800           0
     43054 W2       14352    TIP3     OH2      OT      -0.834000       15.9994           0
     43055 W2       14352    TIP3     H1       HT       0.417000       1.00800           0
     43056 W2       14352    TIP3     H2       HT       0.417000       1.00800           0
     43057 W2       14353    TIP3     OH2      OT      -0.834000       15.9994           0
     43058 W2       14353    TIP3     H1       HT       0.417000       1.00800           0
     43059 W2       14353    TIP3     H2       HT       0.417000       1.00800           0
     43060 W2       14354    TIP3     OH2      OT      -0.834000       15.9994           0
     43061 W2       14354    TIP3     H1       HT       0.417000       1.00800           0
     43062 W2       14354    TIP3     H2       HT       0.417000       1.00800           0
     43063 W2       14355    TIP3     OH2      OT      -0.834000       15.9994           0
     43064 W2       14355    TIP3     H1       HT       0.417000       1.00800           0
     43065 W2       14355    TIP3     H2       HT       0.417000       1.00800           0
     43066 W2       14356    TIP3     OH2      OT      -0.834000       15.9994           0
     43067 W2       14356    TIP3     H1       HT       0.417000       1.00800           0
     43068 W2       14356    TIP3     H2       HT       0.417000       1.00800           0
     43069 W2       14357    TIP3     OH2      OT      -0.834000       15.9994           0
     43070 W2       14357    TIP3     H1       HT       0.417000       1.00800           0
     43071 W2       14357    TIP3     H2       HT       0.417000       1.00800           0
     43072 W2       14358    TIP3     OH2      OT      -0.834000       15.9994           0
     43073 W2       14358    TIP3     H1       HT       0.417000       1.00800           0
     43074 W2       14358    TIP3     H2       HT       0.417000       1.00800           0
     43075 W2       14359    TIP3     OH2      OT      -0.834000       15.9994           0
     43076 W2       14359    TIP3     H1       HT       0.417000       1.00800           0
     43077 W2       14359    TIP3     H2       HT       0.417000       1.00800           0
     43078 W2       14360    TIP3     OH2      OT      -0.834000       15.9994           0
     43079 W2       14360    TIP3     H1       HT       0.417000       1.00800           0
     43080 W2       14360    TIP3     H2       HT       0.417000       1.00800           0
     43081 W2       14361    TIP3     OH2      OT      -0.834000       15.9994           0
     43082 W2       14361    TIP3     H1       HT       0.417000       1.00800           0
     43083 W2       14361    TIP3     H2       HT       0.417000       1.00800           0
     43084 W2       14362    TIP3     OH2      OT      -0.834000       15.9994           0
     43085 W2       14362    TIP3     H1       HT       0.417000       1.00800           0
     43086 W2       14362    TIP3     H2       HT       0.417000       1.00800           0
     43087 W2       14363    TIP3     OH2      OT      -0.834000       15.9994           0
     43088 W2       14363    TIP3     H1       HT       0.417000       1.00800           0
     43089 W2       14363    TIP3     H2       HT       0.417000       1.00800           0
     43090 W2       14364    TIP3     OH2      OT      -0.834000       15.9994           0
     43091 W2       14364    TIP3     H1       HT       0.417000       1.00800           0
     43092 W2       14364    TIP3     H2       HT       0.417000       1.00800           0
     43093 W2       14365    TIP3     OH2      OT      -0.834000       15.9994           0
     43094 W2       14365    TIP3     H1       HT       0.417000       1.00800           0
     43095 W2       14365    TIP3     H2       HT       0.417000       1.00800           0
     43096 W2       14366    TIP3     OH2      OT      -0.834000       15.9994           0
     43097 W2       14366    TIP3     H1       HT       0.417000       1.00800           0
     43098 W2       14366    TIP3     H2       HT       0.417000       1.00800           0
     43099 W2       14367    TIP3     OH2      OT      -0.834000       15.9994           0
     43100 W2       14367    TIP3     H1       HT       0.417000       1.00800           0
     43101 W2       14367    TIP3     H2       HT       0.417000       1.00800           0
     43102 W2       14368    TIP3     OH2      OT      -0.834000       15.9994           0
     43103 W2       14368    TIP3     H1       HT       0.417000       1.00800           0
     43104 W2       14368    TIP3     H2       HT       0.417000       1.00800           0
     43105 W2       14369    TIP3     OH2      OT      -0.834000       15.9994           0
     43106 W2       14369    TIP3     H1       HT       0.417000       1.00800           0
     43107 W2       14369    TIP3     H2       HT       0.417000       1.00800           0
     43108 W2       14370    TIP3     OH2      OT      -0.834000       15.9994           0
     43109 W2       14370    TIP3     H1       HT       0.417000       1.00800           0
     43110 W2       14370    TIP3     H2       HT       0.417000       1.00800           0
     43111 W2       14371    TIP3     OH2      OT      -0.834000       15.9994           0
     43112 W2       14371    TIP3     H1       HT       0.417000       1.00800           0
     43113 W2       14371    TIP3     H2       HT       0.417000       1.00800           0
     43114 W2       14372    TIP3     OH2      OT      -0.834000       15.9994           0
     43115 W2       14372    TIP3     H1       HT       0.417000       1.00800           0
     43116 W2       14372    TIP3     H2       HT       0.417000       1.00800           0
     43117 W2       14373    TIP3     OH2      OT      -0.834000       15.9994           0
     43118 W2       14373    TIP3     H1       HT       0.417000       1.00800           0
     43119 W2       14373    TIP3     H2       HT       0.417000       1.00800           0
     43120 W2       14374    TIP3     OH2      OT      -0.834000       15.9994           0
     43121 W2       14374    TIP3     H1       HT       0.417000       1.00800           0
     43122 W2       14374    TIP3     H2       HT       0.417000       1.00800           0
     43123 W2       14375    TIP3     OH2      OT      -0.834000       15.9994           0
     43124 W2       14375    TIP3     H1       HT       0.417000       1.00800           0
     43125 W2       14375    TIP3     H2       HT       0.417000       1.00800           0
     43126 W2       14376    TIP3     OH2      OT      -0.834000       15.9994           0
     43127 W2       14376    TIP3     H1       HT       0.417000       1.00800           0
     43128 W2       14376    TIP3     H2       HT       0.417000       1.00800           0
     43129 W2       14377    TIP3     OH2      OT      -0.834000       15.9994           0
     43130 W2       14377    TIP3     H1       HT       0.417000       1.00800           0
     43131 W2       14377    TIP3     H2       HT       0.417000       1.00800           0
     43132 W2       14378    TIP3     OH2      OT      -0.834000       15.9994           0
     43133 W2       14378    TIP3     H1       HT       0.417000       1.00800           0
     43134 W2       14378    TIP3     H2       HT       0.417000       1.00800           0
     43135 W2       14379    TIP3     OH2      OT      -0.834000       15.9994           0
     43136 W2       14379    TIP3     H1       HT       0.417000       1.00800           0
     43137 W2       14379    TIP3     H2       HT       0.417000       1.00800           0
     43138 W2       14380    TIP3     OH2      OT      -0.834000       15.9994           0
     43139 W2       14380    TIP3     H1       HT       0.417000       1.00800           0
     43140 W2       14380    TIP3     H2       HT       0.417000       1.00800           0
     43141 W2       14381    TIP3     OH2      OT      -0.834000       15.9994           0
     43142 W2       14381    TIP3     H1       HT       0.417000       1.00800           0
     43143 W2       14381    TIP3     H2       HT       0.417000       1.00800           0
     43144 W2       14382    TIP3     OH2      OT      -0.834000       15.9994           0
     43145 W2       14382    TIP3     H1       HT       0.417000       1.00800           0
     43146 W2       14382    TIP3     H2       HT       0.417000       1.00800           0
     43147 W2       14383    TIP3     OH2      OT      -0.834000       15.9994           0
     43148 W2       14383    TIP3     H1       HT       0.417000       1.00800           0
     43149 W2       14383    TIP3     H2       HT       0.417000       1.00800           0
     43150 W2       14384    TIP3     OH2      OT      -0.834000       15.9994           0
     43151 W2       14384    TIP3     H1       HT       0.417000       1.00800           0
     43152 W2       14384    TIP3     H2       HT       0.417000       1.00800           0
     43153 W2       14385    TIP3     OH2      OT      -0.834000       15.9994           0
     43154 W2       14385    TIP3     H1       HT       0.417000       1.00800           0
     43155 W2       14385    TIP3     H2       HT       0.417000       1.00800           0
     43156 W2       14386    TIP3     OH2      OT      -0.834000       15.9994           0
     43157 W2       14386    TIP3     H1       HT       0.417000       1.00800           0
     43158 W2       14386    TIP3     H2       HT       0.417000       1.00800           0
     43159 W2       14387    TIP3     OH2      OT      -0.834000       15.9994           0
     43160 W2       14387    TIP3     H1       HT       0.417000       1.00800           0
     43161 W2       14387    TIP3     H2       HT       0.417000       1.00800           0
     43162 W2       14388    TIP3     OH2      OT      -0.834000       15.9994           0
     43163 W2       14388    TIP3     H1       HT       0.417000       1.00800           0
     43164 W2       14388    TIP3     H2       HT       0.417000       1.00800           0
     43165 W2       14389    TIP3     OH2      OT      -0.834000       15.9994           0
     43166 W2       14389    TIP3     H1       HT       0.417000       1.00800           0
     43167 W2       14389    TIP3     H2       HT       0.417000       1.00800           0
     43168 W2       14390    TIP3     OH2      OT      -0.834000       15.9994           0
     43169 W2       14390    TIP3     H1       HT       0.417000       1.00800           0
     43170 W2       14390    TIP3     H2       HT       0.417000       1.00800           0
     43171 W2       14391    TIP3     OH2      OT      -0.834000       15.9994           0
     43172 W2       14391    TIP3     H1       HT       0.417000       1.00800           0
     43173 W2       14391    TIP3     H2       HT       0.417000       1.00800           0
     43174 W2       14392    TIP3     OH2      OT      -0.834000       15.9994           0
     43175 W2       14392    TIP3     H1       HT       0.417000       1.00800           0
     43176 W2       14392    TIP3     H2       HT       0.417000       1.00800           0
     43177 W2       14393    TIP3     OH2      OT      -0.834000       15.9994           0
     43178 W2       14393    TIP3     H1       HT       0.417000       1.00800           0
     43179 W2       14393    TIP3     H2       HT       0.417000       1.00800           0
     43180 W2       14394    TIP3     OH2      OT      -0.834000       15.9994           0
     43181 W2       14394    TIP3     H1       HT       0.417000       1.00800           0
     43182 W2       14394    TIP3     H2       HT       0.417000       1.00800           0
     43183 W2       14395    TIP3     OH2      OT      -0.834000       15.9994           0
     43184 W2       14395    TIP3     H1       HT       0.417000       1.00800           0
     43185 W2       14395    TIP3     H2       HT       0.417000       1.00800           0
     43186 W2       14396    TIP3     OH2      OT      -0.834000       15.9994           0
     43187 W2       14396    TIP3     H1       HT       0.417000       1.00800           0
     43188 W2       14396    TIP3     H2       HT       0.417000       1.00800           0
     43189 W2       14397    TIP3     OH2      OT      -0.834000       15.9994           0
     43190 W2       14397    TIP3     H1       HT       0.417000       1.00800           0
     43191 W2       14397    TIP3     H2       HT       0.417000       1.00800           0
     43192 W2       14398    TIP3     OH2      OT      -0.834000       15.9994           0
     43193 W2       14398    TIP3     H1       HT       0.417000       1.00800           0
     43194 W2       14398    TIP3     H2       HT       0.417000       1.00800           0
     43195 W2       14399    TIP3     OH2      OT      -0.834000       15.9994           0
     43196 W2       14399    TIP3     H1       HT       0.417000       1.00800           0
     43197 W2       14399    TIP3     H2       HT       0.417000       1.00800           0
     43198 W2       14400    TIP3     OH2      OT      -0.834000       15.9994           0
     43199 W2       14400    TIP3     H1       HT       0.417000       1.00800           0
     43200 W2       14400    TIP3     H2       HT       0.417000       1.00800           0
     43201 W2       14401    TIP3     OH2      OT      -0.834000       15.9994           0
     43202 W2       14401    TIP3     H1       HT       0.417000       1.00800           0
     43203 W2       14401    TIP3     H2       HT       0.417000       1.00800           0
     43204 W2       14402    TIP3     OH2      OT      -0.834000       15.9994           0
     43205 W2       14402    TIP3     H1       HT       0.417000       1.00800           0
     43206 W2       14402    TIP3     H2       HT       0.417000       1.00800           0
     43207 W2       14403    TIP3     OH2      OT      -0.834000       15.9994           0
     43208 W2       14403    TIP3     H1       HT       0.417000       1.00800           0
     43209 W2       14403    TIP3     H2       HT       0.417000       1.00800           0
     43210 W2       14404    TIP3     OH2      OT      -0.834000       15.9994           0
     43211 W2       14404    TIP3     H1       HT       0.417000       1.00800           0
     43212 W2       14404    TIP3     H2       HT       0.417000       1.00800           0
     43213 W2       14405    TIP3     OH2      OT      -0.834000       15.9994           0
     43214 W2       14405    TIP3     H1       HT       0.417000       1.00800           0
     43215 W2       14405    TIP3     H2       HT       0.417000       1.00800           0
     43216 W2       14406    TIP3     OH2      OT      -0.834000       15.9994           0
     43217 W2       14406    TIP3     H1       HT       0.417000       1.00800           0
     43218 W2       14406    TIP3     H2       HT       0.417000       1.00800           0
     43219 W2       14407    TIP3     OH2      OT      -0.834000       15.9994           0
     43220 W2       14407    TIP3     H1       HT       0.417000       1.00800           0
     43221 W2       14407    TIP3     H2       HT       0.417000       1.00800           0
     43222 W2       14408    TIP3     OH2      OT      -0.834000       15.9994           0
     43223 W2       14408    TIP3     H1       HT       0.417000       1.00800           0
     43224 W2       14408    TIP3     H2       HT       0.417000       1.00800           0
     43225 W2       14409    TIP3     OH2      OT      -0.834000       15.9994           0
     43226 W2       14409    TIP3     H1       HT       0.417000       1.00800           0
     43227 W2       14409    TIP3     H2       HT       0.417000       1.00800           0
     43228 W2       14410    TIP3     OH2      OT      -0.834000       15.9994           0
     43229 W2       14410    TIP3     H1       HT       0.417000       1.00800           0
     43230 W2       14410    TIP3     H2       HT       0.417000       1.00800           0
     43231 W2       14411    TIP3     OH2      OT      -0.834000       15.9994           0
     43232 W2       14411    TIP3     H1       HT       0.417000       1.00800           0
     43233 W2       14411    TIP3     H2       HT       0.417000       1.00800           0
     43234 W2       14412    TIP3     OH2      OT      -0.834000       15.9994           0
     43235 W2       14412    TIP3     H1       HT       0.417000       1.00800           0
     43236 W2       14412    TIP3     H2       HT       0.417000       1.00800           0
     43237 W2       14413    TIP3     OH2      OT      -0.834000       15.9994           0
     43238 W2       14413    TIP3     H1       HT       0.417000       1.00800           0
     43239 W2       14413    TIP3     H2       HT       0.417000       1.00800           0
     43240 W2       14414    TIP3     OH2      OT      -0.834000       15.9994           0
     43241 W2       14414    TIP3     H1       HT       0.417000       1.00800           0
     43242 W2       14414    TIP3     H2       HT       0.417000       1.00800           0
     43243 W2       14415    TIP3     OH2      OT      -0.834000       15.9994           0
     43244 W2       14415    TIP3     H1       HT       0.417000       1.00800           0
     43245 W2       14415    TIP3     H2       HT       0.417000       1.00800           0
     43246 W2       14416    TIP3     OH2      OT      -0.834000       15.9994           0
     43247 W2       14416    TIP3     H1       HT       0.417000       1.00800           0
     43248 W2       14416    TIP3     H2       HT       0.417000       1.00800           0
     43249 W2       14417    TIP3     OH2      OT      -0.834000       15.9994           0
     43250 W2       14417    TIP3     H1       HT       0.417000       1.00800           0
     43251 W2       14417    TIP3     H2       HT       0.417000       1.00800           0
     43252 W2       14418    TIP3     OH2      OT      -0.834000       15.9994           0
     43253 W2       14418    TIP3     H1       HT       0.417000       1.00800           0
     43254 W2       14418    TIP3     H2       HT       0.417000       1.00800           0
     43255 W2       14419    TIP3     OH2      OT      -0.834000       15.9994           0
     43256 W2       14419    TIP3     H1       HT       0.417000       1.00800           0
     43257 W2       14419    TIP3     H2       HT       0.417000       1.00800           0
     43258 W2       14420    TIP3     OH2      OT      -0.834000       15.9994           0
     43259 W2       14420    TIP3     H1       HT       0.417000       1.00800           0
     43260 W2       14420    TIP3     H2       HT       0.417000       1.00800           0
     43261 W2       14421    TIP3     OH2      OT      -0.834000       15.9994           0
     43262 W2       14421    TIP3     H1       HT       0.417000       1.00800           0
     43263 W2       14421    TIP3     H2       HT       0.417000       1.00800           0
     43264 W2       14422    TIP3     OH2      OT      -0.834000       15.9994           0
     43265 W2       14422    TIP3     H1       HT       0.417000       1.00800           0
     43266 W2       14422    TIP3     H2       HT       0.417000       1.00800           0
     43267 W2       14423    TIP3     OH2      OT      -0.834000       15.9994           0
     43268 W2       14423    TIP3     H1       HT       0.417000       1.00800           0
     43269 W2       14423    TIP3     H2       HT       0.417000       1.00800           0
     43270 W2       14424    TIP3     OH2      OT      -0.834000       15.9994           0
     43271 W2       14424    TIP3     H1       HT       0.417000       1.00800           0
     43272 W2       14424    TIP3     H2       HT       0.417000       1.00800           0
     43273 W2       14425    TIP3     OH2      OT      -0.834000       15.9994           0
     43274 W2       14425    TIP3     H1       HT       0.417000       1.00800           0
     43275 W2       14425    TIP3     H2       HT       0.417000       1.00800           0
     43276 W2       14426    TIP3     OH2      OT      -0.834000       15.9994           0
     43277 W2       14426    TIP3     H1       HT       0.417000       1.00800           0
     43278 W2       14426    TIP3     H2       HT       0.417000       1.00800           0
     43279 W2       14427    TIP3     OH2      OT      -0.834000       15.9994           0
     43280 W2       14427    TIP3     H1       HT       0.417000       1.00800           0
     43281 W2       14427    TIP3     H2       HT       0.417000       1.00800           0
     43282 W2       14428    TIP3     OH2      OT      -0.834000       15.9994           0
     43283 W2       14428    TIP3     H1       HT       0.417000       1.00800           0
     43284 W2       14428    TIP3     H2       HT       0.417000       1.00800           0
     43285 W2       14429    TIP3     OH2      OT      -0.834000       15.9994           0
     43286 W2       14429    TIP3     H1       HT       0.417000       1.00800           0
     43287 W2       14429    TIP3     H2       HT       0.417000       1.00800           0
     43288 W2       14430    TIP3     OH2      OT      -0.834000       15.9994           0
     43289 W2       14430    TIP3     H1       HT       0.417000       1.00800           0
     43290 W2       14430    TIP3     H2       HT       0.417000       1.00800           0
     43291 W2       14431    TIP3     OH2      OT      -0.834000       15.9994           0
     43292 W2       14431    TIP3     H1       HT       0.417000       1.00800           0
     43293 W2       14431    TIP3     H2       HT       0.417000       1.00800           0
     43294 W2       14432    TIP3     OH2      OT      -0.834000       15.9994           0
     43295 W2       14432    TIP3     H1       HT       0.417000       1.00800           0
     43296 W2       14432    TIP3     H2       HT       0.417000       1.00800           0
     43297 W2       14433    TIP3     OH2      OT      -0.834000       15.9994           0
     43298 W2       14433    TIP3     H1       HT       0.417000       1.00800           0
     43299 W2       14433    TIP3     H2       HT       0.417000       1.00800           0
     43300 W2       14434    TIP3     OH2      OT      -0.834000       15.9994           0
     43301 W2       14434    TIP3     H1       HT       0.417000       1.00800           0
     43302 W2       14434    TIP3     H2       HT       0.417000       1.00800           0
     43303 W2       14435    TIP3     OH2      OT      -0.834000       15.9994           0
     43304 W2       14435    TIP3     H1       HT       0.417000       1.00800           0
     43305 W2       14435    TIP3     H2       HT       0.417000       1.00800           0
     43306 W2       14436    TIP3     OH2      OT      -0.834000       15.9994           0
     43307 W2       14436    TIP3     H1       HT       0.417000       1.00800           0
     43308 W2       14436    TIP3     H2       HT       0.417000       1.00800           0
     43309 W2       14437    TIP3     OH2      OT      -0.834000       15.9994           0
     43310 W2       14437    TIP3     H1       HT       0.417000       1.00800           0
     43311 W2       14437    TIP3     H2       HT       0.417000       1.00800           0
     43312 W2       14438    TIP3     OH2      OT      -0.834000       15.9994           0
     43313 W2       14438    TIP3     H1       HT       0.417000       1.00800           0
     43314 W2       14438    TIP3     H2       HT       0.417000       1.00800           0
     43315 W2       14439    TIP3     OH2      OT      -0.834000       15.9994           0
     43316 W2       14439    TIP3     H1       HT       0.417000       1.00800           0
     43317 W2       14439    TIP3     H2       HT       0.417000       1.00800           0
     43318 W2       14440    TIP3     OH2      OT      -0.834000       15.9994           0
     43319 W2       14440    TIP3     H1       HT       0.417000       1.00800           0
     43320 W2       14440    TIP3     H2       HT       0.417000       1.00800           0
     43321 W2       14441    TIP3     OH2      OT      -0.834000       15.9994           0
     43322 W2       14441    TIP3     H1       HT       0.417000       1.00800           0
     43323 W2       14441    TIP3     H2       HT       0.417000       1.00800           0
     43324 W2       14442    TIP3     OH2      OT      -0.834000       15.9994           0
     43325 W2       14442    TIP3     H1       HT       0.417000       1.00800           0
     43326 W2       14442    TIP3     H2       HT       0.417000       1.00800           0
     43327 W2       14443    TIP3     OH2      OT      -0.834000       15.9994           0
     43328 W2       14443    TIP3     H1       HT       0.417000       1.00800           0
     43329 W2       14443    TIP3     H2       HT       0.417000       1.00800           0
     43330 W2       14444    TIP3     OH2      OT      -0.834000       15.9994           0
     43331 W2       14444    TIP3     H1       HT       0.417000       1.00800           0
     43332 W2       14444    TIP3     H2       HT       0.417000       1.00800           0
     43333 W2       14445    TIP3     OH2      OT      -0.834000       15.9994           0
     43334 W2       14445    TIP3     H1       HT       0.417000       1.00800           0
     43335 W2       14445    TIP3     H2       HT       0.417000       1.00800           0
     43336 W2       14446    TIP3     OH2      OT      -0.834000       15.9994           0
     43337 W2       14446    TIP3     H1       HT       0.417000       1.00800           0
     43338 W2       14446    TIP3     H2       HT       0.417000       1.00800           0
     43339 W2       14447    TIP3     OH2      OT      -0.834000       15.9994           0
     43340 W2       14447    TIP3     H1       HT       0.417000       1.00800           0
     43341 W2       14447    TIP3     H2       HT       0.417000       1.00800           0
     43342 W2       14448    TIP3     OH2      OT      -0.834000       15.9994           0
     43343 W2       14448    TIP3     H1       HT       0.417000       1.00800           0
     43344 W2       14448    TIP3     H2       HT       0.417000       1.00800           0
     43345 W2       14449    TIP3     OH2      OT      -0.834000       15.9994           0
     43346 W2       14449    TIP3     H1       HT       0.417000       1.00800           0
     43347 W2       14449    TIP3     H2       HT       0.417000       1.00800           0
     43348 W2       14450    TIP3     OH2      OT      -0.834000       15.9994           0
     43349 W2       14450    TIP3     H1       HT       0.417000       1.00800           0
     43350 W2       14450    TIP3     H2       HT       0.417000       1.00800           0
     43351 W2       14451    TIP3     OH2      OT      -0.834000       15.9994           0
     43352 W2       14451    TIP3     H1       HT       0.417000       1.00800           0
     43353 W2       14451    TIP3     H2       HT       0.417000       1.00800           0
     43354 W2       14452    TIP3     OH2      OT      -0.834000       15.9994           0
     43355 W2       14452    TIP3     H1       HT       0.417000       1.00800           0
     43356 W2       14452    TIP3     H2       HT       0.417000       1.00800           0
     43357 W2       14453    TIP3     OH2      OT      -0.834000       15.9994           0
     43358 W2       14453    TIP3     H1       HT       0.417000       1.00800           0
     43359 W2       14453    TIP3     H2       HT       0.417000       1.00800           0
     43360 W2       14454    TIP3     OH2      OT      -0.834000       15.9994           0
     43361 W2       14454    TIP3     H1       HT       0.417000       1.00800           0
     43362 W2       14454    TIP3     H2       HT       0.417000       1.00800           0
     43363 W2       14455    TIP3     OH2      OT      -0.834000       15.9994           0
     43364 W2       14455    TIP3     H1       HT       0.417000       1.00800           0
     43365 W2       14455    TIP3     H2       HT       0.417000       1.00800           0
     43366 W2       14456    TIP3     OH2      OT      -0.834000       15.9994           0
     43367 W2       14456    TIP3     H1       HT       0.417000       1.00800           0
     43368 W2       14456    TIP3     H2       HT       0.417000       1.00800           0
     43369 W2       14457    TIP3     OH2      OT      -0.834000       15.9994           0
     43370 W2       14457    TIP3     H1       HT       0.417000       1.00800           0
     43371 W2       14457    TIP3     H2       HT       0.417000       1.00800           0
     43372 W2       14458    TIP3     OH2      OT      -0.834000       15.9994           0
     43373 W2       14458    TIP3     H1       HT       0.417000       1.00800           0
     43374 W2       14458    TIP3     H2       HT       0.417000       1.00800           0
     43375 W2       14459    TIP3     OH2      OT      -0.834000       15.9994           0
     43376 W2       14459    TIP3     H1       HT       0.417000       1.00800           0
     43377 W2       14459    TIP3     H2       HT       0.417000       1.00800           0
     43378 W2       14460    TIP3     OH2      OT      -0.834000       15.9994           0
     43379 W2       14460    TIP3     H1       HT       0.417000       1.00800           0
     43380 W2       14460    TIP3     H2       HT       0.417000       1.00800           0
     43381 W2       14461    TIP3     OH2      OT      -0.834000       15.9994           0
     43382 W2       14461    TIP3     H1       HT       0.417000       1.00800           0
     43383 W2       14461    TIP3     H2       HT       0.417000       1.00800           0
     43384 W2       14462    TIP3     OH2      OT      -0.834000       15.9994           0
     43385 W2       14462    TIP3     H1       HT       0.417000       1.00800           0
     43386 W2       14462    TIP3     H2       HT       0.417000       1.00800           0
     43387 W2       14463    TIP3     OH2      OT      -0.834000       15.9994           0
     43388 W2       14463    TIP3     H1       HT       0.417000       1.00800           0
     43389 W2       14463    TIP3     H2       HT       0.417000       1.00800           0
     43390 W2       14464    TIP3     OH2      OT      -0.834000       15.9994           0
     43391 W2       14464    TIP3     H1       HT       0.417000       1.00800           0
     43392 W2       14464    TIP3     H2       HT       0.417000       1.00800           0
     43393 W2       14465    TIP3     OH2      OT      -0.834000       15.9994           0
     43394 W2       14465    TIP3     H1       HT       0.417000       1.00800           0
     43395 W2       14465    TIP3     H2       HT       0.417000       1.00800           0
     43396 W2       14466    TIP3     OH2      OT      -0.834000       15.9994           0
     43397 W2       14466    TIP3     H1       HT       0.417000       1.00800           0
     43398 W2       14466    TIP3     H2       HT       0.417000       1.00800           0
     43399 W2       14467    TIP3     OH2      OT      -0.834000       15.9994           0
     43400 W2       14467    TIP3     H1       HT       0.417000       1.00800           0
     43401 W2       14467    TIP3     H2       HT       0.417000       1.00800           0
     43402 W2       14468    TIP3     OH2      OT      -0.834000       15.9994           0
     43403 W2       14468    TIP3     H1       HT       0.417000       1.00800           0
     43404 W2       14468    TIP3     H2       HT       0.417000       1.00800           0
     43405 W2       14469    TIP3     OH2      OT      -0.834000       15.9994           0
     43406 W2       14469    TIP3     H1       HT       0.417000       1.00800           0
     43407 W2       14469    TIP3     H2       HT       0.417000       1.00800           0
     43408 W2       14470    TIP3     OH2      OT      -0.834000       15.9994           0
     43409 W2       14470    TIP3     H1       HT       0.417000       1.00800           0
     43410 W2       14470    TIP3     H2       HT       0.417000       1.00800           0
     43411 W2       14471    TIP3     OH2      OT      -0.834000       15.9994           0
     43412 W2       14471    TIP3     H1       HT       0.417000       1.00800           0
     43413 W2       14471    TIP3     H2       HT       0.417000       1.00800           0
     43414 W2       14472    TIP3     OH2      OT      -0.834000       15.9994           0
     43415 W2       14472    TIP3     H1       HT       0.417000       1.00800           0
     43416 W2       14472    TIP3     H2       HT       0.417000       1.00800           0
     43417 W2       14473    TIP3     OH2      OT      -0.834000       15.9994           0
     43418 W2       14473    TIP3     H1       HT       0.417000       1.00800           0
     43419 W2       14473    TIP3     H2       HT       0.417000       1.00800           0
     43420 W2       14474    TIP3     OH2      OT      -0.834000       15.9994           0
     43421 W2       14474    TIP3     H1       HT       0.417000       1.00800           0
     43422 W2       14474    TIP3     H2       HT       0.417000       1.00800           0
     43423 W2       14475    TIP3     OH2      OT      -0.834000       15.9994           0
     43424 W2       14475    TIP3     H1       HT       0.417000       1.00800           0
     43425 W2       14475    TIP3     H2       HT       0.417000       1.00800           0
     43426 W2       14476    TIP3     OH2      OT      -0.834000       15.9994           0
     43427 W2       14476    TIP3     H1       HT       0.417000       1.00800           0
     43428 W2       14476    TIP3     H2       HT       0.417000       1.00800           0
     43429 W2       14477    TIP3     OH2      OT      -0.834000       15.9994           0
     43430 W2       14477    TIP3     H1       HT       0.417000       1.00800           0
     43431 W2       14477    TIP3     H2       HT       0.417000       1.00800           0
     43432 W2       14478    TIP3     OH2      OT      -0.834000       15.9994           0
     43433 W2       14478    TIP3     H1       HT       0.417000       1.00800           0
     43434 W2       14478    TIP3     H2       HT       0.417000       1.00800           0
     43435 W2       14479    TIP3     OH2      OT      -0.834000       15.9994           0
     43436 W2       14479    TIP3     H1       HT       0.417000       1.00800           0
     43437 W2       14479    TIP3     H2       HT       0.417000       1.00800           0
     43438 W2       14480    TIP3     OH2      OT      -0.834000       15.9994           0
     43439 W2       14480    TIP3     H1       HT       0.417000       1.00800           0
     43440 W2       14480    TIP3     H2       HT       0.417000       1.00800           0
     43441 W2       14481    TIP3     OH2      OT      -0.834000       15.9994           0
     43442 W2       14481    TIP3     H1       HT       0.417000       1.00800           0
     43443 W2       14481    TIP3     H2       HT       0.417000       1.00800           0
     43444 W2       14482    TIP3     OH2      OT      -0.834000       15.9994           0
     43445 W2       14482    TIP3     H1       HT       0.417000       1.00800           0
     43446 W2       14482    TIP3     H2       HT       0.417000       1.00800           0
     43447 W2       14483    TIP3     OH2      OT      -0.834000       15.9994           0
     43448 W2       14483    TIP3     H1       HT       0.417000       1.00800           0
     43449 W2       14483    TIP3     H2       HT       0.417000       1.00800           0
     43450 W2       14484    TIP3     OH2      OT      -0.834000       15.9994           0
     43451 W2       14484    TIP3     H1       HT       0.417000       1.00800           0
     43452 W2       14484    TIP3     H2       HT       0.417000       1.00800           0
     43453 W2       14485    TIP3     OH2      OT      -0.834000       15.9994           0
     43454 W2       14485    TIP3     H1       HT       0.417000       1.00800           0
     43455 W2       14485    TIP3     H2       HT       0.417000       1.00800           0
     43456 W2       14486    TIP3     OH2      OT      -0.834000       15.9994           0
     43457 W2       14486    TIP3     H1       HT       0.417000       1.00800           0
     43458 W2       14486    TIP3     H2       HT       0.417000       1.00800           0
     43459 W2       14487    TIP3     OH2      OT      -0.834000       15.9994           0
     43460 W2       14487    TIP3     H1       HT       0.417000       1.00800           0
     43461 W2       14487    TIP3     H2       HT       0.417000       1.00800           0
     43462 W2       14488    TIP3     OH2      OT      -0.834000       15.9994           0
     43463 W2       14488    TIP3     H1       HT       0.417000       1.00800           0
     43464 W2       14488    TIP3     H2       HT       0.417000       1.00800           0
     43465 W2       14489    TIP3     OH2      OT      -0.834000       15.9994           0
     43466 W2       14489    TIP3     H1       HT       0.417000       1.00800           0
     43467 W2       14489    TIP3     H2       HT       0.417000       1.00800           0
     43468 W2       14490    TIP3     OH2      OT      -0.834000       15.9994           0
     43469 W2       14490    TIP3     H1       HT       0.417000       1.00800           0
     43470 W2       14490    TIP3     H2       HT       0.417000       1.00800           0
     43471 W2       14491    TIP3     OH2      OT      -0.834000       15.9994           0
     43472 W2       14491    TIP3     H1       HT       0.417000       1.00800           0
     43473 W2       14491    TIP3     H2       HT       0.417000       1.00800           0
     43474 W2       14492    TIP3     OH2      OT      -0.834000       15.9994           0
     43475 W2       14492    TIP3     H1       HT       0.417000       1.00800           0
     43476 W2       14492    TIP3     H2       HT       0.417000       1.00800           0
     43477 W2       14493    TIP3     OH2      OT      -0.834000       15.9994           0
     43478 W2       14493    TIP3     H1       HT       0.417000       1.00800           0
     43479 W2       14493    TIP3     H2       HT       0.417000       1.00800           0
     43480 W2       14494    TIP3     OH2      OT      -0.834000       15.9994           0
     43481 W2       14494    TIP3     H1       HT       0.417000       1.00800           0
     43482 W2       14494    TIP3     H2       HT       0.417000       1.00800           0
     43483 W2       14495    TIP3     OH2      OT      -0.834000       15.9994           0
     43484 W2       14495    TIP3     H1       HT       0.417000       1.00800           0
     43485 W2       14495    TIP3     H2       HT       0.417000       1.00800           0
     43486 W2       14496    TIP3     OH2      OT      -0.834000       15.9994           0
     43487 W2       14496    TIP3     H1       HT       0.417000       1.00800           0
     43488 W2       14496    TIP3     H2       HT       0.417000       1.00800           0
     43489 W2       14497    TIP3     OH2      OT      -0.834000       15.9994           0
     43490 W2       14497    TIP3     H1       HT       0.417000       1.00800           0
     43491 W2       14497    TIP3     H2       HT       0.417000       1.00800           0
     43492 W2       14498    TIP3     OH2      OT      -0.834000       15.9994           0
     43493 W2       14498    TIP3     H1       HT       0.417000       1.00800           0
     43494 W2       14498    TIP3     H2       HT       0.417000       1.00800           0
     43495 W2       14499    TIP3     OH2      OT      -0.834000       15.9994           0
     43496 W2       14499    TIP3     H1       HT       0.417000       1.00800           0
     43497 W2       14499    TIP3     H2       HT       0.417000       1.00800           0
     43498 W2       14500    TIP3     OH2      OT      -0.834000       15.9994           0
     43499 W2       14500    TIP3     H1       HT       0.417000       1.00800           0
     43500 W2       14500    TIP3     H2       HT       0.417000       1.00800           0
     43501 W2       14501    TIP3     OH2      OT      -0.834000       15.9994           0
     43502 W2       14501    TIP3     H1       HT       0.417000       1.00800           0
     43503 W2       14501    TIP3     H2       HT       0.417000       1.00800           0
     43504 W2       14502    TIP3     OH2      OT      -0.834000       15.9994           0
     43505 W2       14502    TIP3     H1       HT       0.417000       1.00800           0
     43506 W2       14502    TIP3     H2       HT       0.417000       1.00800           0
     43507 W2       14503    TIP3     OH2      OT      -0.834000       15.9994           0
     43508 W2       14503    TIP3     H1       HT       0.417000       1.00800           0
     43509 W2       14503    TIP3     H2       HT       0.417000       1.00800           0
     43510 W2       14504    TIP3     OH2      OT      -0.834000       15.9994           0
     43511 W2       14504    TIP3     H1       HT       0.417000       1.00800           0
     43512 W2       14504    TIP3     H2       HT       0.417000       1.00800           0
     43513 W2       14505    TIP3     OH2      OT      -0.834000       15.9994           0
     43514 W2       14505    TIP3     H1       HT       0.417000       1.00800           0
     43515 W2       14505    TIP3     H2       HT       0.417000       1.00800           0
     43516 W2       14506    TIP3     OH2      OT      -0.834000       15.9994           0
     43517 W2       14506    TIP3     H1       HT       0.417000       1.00800           0
     43518 W2       14506    TIP3     H2       HT       0.417000       1.00800           0
     43519 W2       14507    TIP3     OH2      OT      -0.834000       15.9994           0
     43520 W2       14507    TIP3     H1       HT       0.417000       1.00800           0
     43521 W2       14507    TIP3     H2       HT       0.417000       1.00800           0
     43522 W2       14508    TIP3     OH2      OT      -0.834000       15.9994           0
     43523 W2       14508    TIP3     H1       HT       0.417000       1.00800           0
     43524 W2       14508    TIP3     H2       HT       0.417000       1.00800           0
     43525 W2       14509    TIP3     OH2      OT      -0.834000       15.9994           0
     43526 W2       14509    TIP3     H1       HT       0.417000       1.00800           0
     43527 W2       14509    TIP3     H2       HT       0.417000       1.00800           0
     43528 W2       14510    TIP3     OH2      OT      -0.834000       15.9994           0
     43529 W2       14510    TIP3     H1       HT       0.417000       1.00800           0
     43530 W2       14510    TIP3     H2       HT       0.417000       1.00800           0
     43531 W2       14511    TIP3     OH2      OT      -0.834000       15.9994           0
     43532 W2       14511    TIP3     H1       HT       0.417000       1.00800           0
     43533 W2       14511    TIP3     H2       HT       0.417000       1.00800           0
     43534 W2       14512    TIP3     OH2      OT      -0.834000       15.9994           0
     43535 W2       14512    TIP3     H1       HT       0.417000       1.00800           0
     43536 W2       14512    TIP3     H2       HT       0.417000       1.00800           0
     43537 W2       14513    TIP3     OH2      OT      -0.834000       15.9994           0
     43538 W2       14513    TIP3     H1       HT       0.417000       1.00800           0
     43539 W2       14513    TIP3     H2       HT       0.417000       1.00800           0
     43540 W2       14514    TIP3     OH2      OT      -0.834000       15.9994           0
     43541 W2       14514    TIP3     H1       HT       0.417000       1.00800           0
     43542 W2       14514    TIP3     H2       HT       0.417000       1.00800           0
     43543 W2       14515    TIP3     OH2      OT      -0.834000       15.9994           0
     43544 W2       14515    TIP3     H1       HT       0.417000       1.00800           0
     43545 W2       14515    TIP3     H2       HT       0.417000       1.00800           0
     43546 W2       14516    TIP3     OH2      OT      -0.834000       15.9994           0
     43547 W2       14516    TIP3     H1       HT       0.417000       1.00800           0
     43548 W2       14516    TIP3     H2       HT       0.417000       1.00800           0
     43549 W2       14517    TIP3     OH2      OT      -0.834000       15.9994           0
     43550 W2       14517    TIP3     H1       HT       0.417000       1.00800           0
     43551 W2       14517    TIP3     H2       HT       0.417000       1.00800           0
     43552 W2       14518    TIP3     OH2      OT      -0.834000       15.9994           0
     43553 W2       14518    TIP3     H1       HT       0.417000       1.00800           0
     43554 W2       14518    TIP3     H2       HT       0.417000       1.00800           0
     43555 W2       14519    TIP3     OH2      OT      -0.834000       15.9994           0
     43556 W2       14519    TIP3     H1       HT       0.417000       1.00800           0
     43557 W2       14519    TIP3     H2       HT       0.417000       1.00800           0
     43558 W2       14520    TIP3     OH2      OT      -0.834000       15.9994           0
     43559 W2       14520    TIP3     H1       HT       0.417000       1.00800           0
     43560 W2       14520    TIP3     H2       HT       0.417000       1.00800           0
     43561 W2       14521    TIP3     OH2      OT      -0.834000       15.9994           0
     43562 W2       14521    TIP3     H1       HT       0.417000       1.00800           0
     43563 W2       14521    TIP3     H2       HT       0.417000       1.00800           0
     43564 W2       14522    TIP3     OH2      OT      -0.834000       15.9994           0
     43565 W2       14522    TIP3     H1       HT       0.417000       1.00800           0
     43566 W2       14522    TIP3     H2       HT       0.417000       1.00800           0
     43567 W2       14523    TIP3     OH2      OT      -0.834000       15.9994           0
     43568 W2       14523    TIP3     H1       HT       0.417000       1.00800           0
     43569 W2       14523    TIP3     H2       HT       0.417000       1.00800           0
     43570 W2       14524    TIP3     OH2      OT      -0.834000       15.9994           0
     43571 W2       14524    TIP3     H1       HT       0.417000       1.00800           0
     43572 W2       14524    TIP3     H2       HT       0.417000       1.00800           0
     43573 W2       14525    TIP3     OH2      OT      -0.834000       15.9994           0
     43574 W2       14525    TIP3     H1       HT       0.417000       1.00800           0
     43575 W2       14525    TIP3     H2       HT       0.417000       1.00800           0
     43576 W2       14526    TIP3     OH2      OT      -0.834000       15.9994           0
     43577 W2       14526    TIP3     H1       HT       0.417000       1.00800           0
     43578 W2       14526    TIP3     H2       HT       0.417000       1.00800           0
     43579 W2       14527    TIP3     OH2      OT      -0.834000       15.9994           0
     43580 W2       14527    TIP3     H1       HT       0.417000       1.00800           0
     43581 W2       14527    TIP3     H2       HT       0.417000       1.00800           0
     43582 W2       14528    TIP3     OH2      OT      -0.834000       15.9994           0
     43583 W2       14528    TIP3     H1       HT       0.417000       1.00800           0
     43584 W2       14528    TIP3     H2       HT       0.417000       1.00800           0
     43585 W2       14529    TIP3     OH2      OT      -0.834000       15.9994           0
     43586 W2       14529    TIP3     H1       HT       0.417000       1.00800           0
     43587 W2       14529    TIP3     H2       HT       0.417000       1.00800           0
     43588 W2       14530    TIP3     OH2      OT      -0.834000       15.9994           0
     43589 W2       14530    TIP3     H1       HT       0.417000       1.00800           0
     43590 W2       14530    TIP3     H2       HT       0.417000       1.00800           0
     43591 W2       14531    TIP3     OH2      OT      -0.834000       15.9994           0
     43592 W2       14531    TIP3     H1       HT       0.417000       1.00800           0
     43593 W2       14531    TIP3     H2       HT       0.417000       1.00800           0
     43594 W2       14532    TIP3     OH2      OT      -0.834000       15.9994           0
     43595 W2       14532    TIP3     H1       HT       0.417000       1.00800           0
     43596 W2       14532    TIP3     H2       HT       0.417000       1.00800           0
     43597 W2       14533    TIP3     OH2      OT      -0.834000       15.9994           0
     43598 W2       14533    TIP3     H1       HT       0.417000       1.00800           0
     43599 W2       14533    TIP3     H2       HT       0.417000       1.00800           0
     43600 W2       14534    TIP3     OH2      OT      -0.834000       15.9994           0
     43601 W2       14534    TIP3     H1       HT       0.417000       1.00800           0
     43602 W2       14534    TIP3     H2       HT       0.417000       1.00800           0
     43603 W2       14535    TIP3     OH2      OT      -0.834000       15.9994           0
     43604 W2       14535    TIP3     H1       HT       0.417000       1.00800           0
     43605 W2       14535    TIP3     H2       HT       0.417000       1.00800           0
     43606 W2       14536    TIP3     OH2      OT      -0.834000       15.9994           0
     43607 W2       14536    TIP3     H1       HT       0.417000       1.00800           0
     43608 W2       14536    TIP3     H2       HT       0.417000       1.00800           0
     43609 W2       14537    TIP3     OH2      OT      -0.834000       15.9994           0
     43610 W2       14537    TIP3     H1       HT       0.417000       1.00800           0
     43611 W2       14537    TIP3     H2       HT       0.417000       1.00800           0
     43612 W2       14538    TIP3     OH2      OT      -0.834000       15.9994           0
     43613 W2       14538    TIP3     H1       HT       0.417000       1.00800           0
     43614 W2       14538    TIP3     H2       HT       0.417000       1.00800           0
     43615 W2       14539    TIP3     OH2      OT      -0.834000       15.9994           0
     43616 W2       14539    TIP3     H1       HT       0.417000       1.00800           0
     43617 W2       14539    TIP3     H2       HT       0.417000       1.00800           0
     43618 W2       14540    TIP3     OH2      OT      -0.834000       15.9994           0
     43619 W2       14540    TIP3     H1       HT       0.417000       1.00800           0
     43620 W2       14540    TIP3     H2       HT       0.417000       1.00800           0
     43621 W2       14541    TIP3     OH2      OT      -0.834000       15.9994           0
     43622 W2       14541    TIP3     H1       HT       0.417000       1.00800           0
     43623 W2       14541    TIP3     H2       HT       0.417000       1.00800           0
     43624 W2       14542    TIP3     OH2      OT      -0.834000       15.9994           0
     43625 W2       14542    TIP3     H1       HT       0.417000       1.00800           0
     43626 W2       14542    TIP3     H2       HT       0.417000       1.00800           0
     43627 W2       14543    TIP3     OH2      OT      -0.834000       15.9994           0
     43628 W2       14543    TIP3     H1       HT       0.417000       1.00800           0
     43629 W2       14543    TIP3     H2       HT       0.417000       1.00800           0
     43630 W2       14544    TIP3     OH2      OT      -0.834000       15.9994           0
     43631 W2       14544    TIP3     H1       HT       0.417000       1.00800           0
     43632 W2       14544    TIP3     H2       HT       0.417000       1.00800           0
     43633 W2       14545    TIP3     OH2      OT      -0.834000       15.9994           0
     43634 W2       14545    TIP3     H1       HT       0.417000       1.00800           0
     43635 W2       14545    TIP3     H2       HT       0.417000       1.00800           0
     43636 W2       14546    TIP3     OH2      OT      -0.834000       15.9994           0
     43637 W2       14546    TIP3     H1       HT       0.417000       1.00800           0
     43638 W2       14546    TIP3     H2       HT       0.417000       1.00800           0
     43639 W2       14547    TIP3     OH2      OT      -0.834000       15.9994           0
     43640 W2       14547    TIP3     H1       HT       0.417000       1.00800           0
     43641 W2       14547    TIP3     H2       HT       0.417000       1.00800           0
     43642 W2       14548    TIP3     OH2      OT      -0.834000       15.9994           0
     43643 W2       14548    TIP3     H1       HT       0.417000       1.00800           0
     43644 W2       14548    TIP3     H2       HT       0.417000       1.00800           0
     43645 W2       14549    TIP3     OH2      OT      -0.834000       15.9994           0
     43646 W2       14549    TIP3     H1       HT       0.417000       1.00800           0
     43647 W2       14549    TIP3     H2       HT       0.417000       1.00800           0
     43648 W2       14550    TIP3     OH2      OT      -0.834000       15.9994           0
     43649 W2       14550    TIP3     H1       HT       0.417000       1.00800           0
     43650 W2       14550    TIP3     H2       HT       0.417000       1.00800           0
     43651 W2       14551    TIP3     OH2      OT      -0.834000       15.9994           0
     43652 W2       14551    TIP3     H1       HT       0.417000       1.00800           0
     43653 W2       14551    TIP3     H2       HT       0.417000       1.00800           0
     43654 W2       14552    TIP3     OH2      OT      -0.834000       15.9994           0
     43655 W2       14552    TIP3     H1       HT       0.417000       1.00800           0
     43656 W2       14552    TIP3     H2       HT       0.417000       1.00800           0
     43657 W2       14553    TIP3     OH2      OT      -0.834000       15.9994           0
     43658 W2       14553    TIP3     H1       HT       0.417000       1.00800           0
     43659 W2       14553    TIP3     H2       HT       0.417000       1.00800           0
     43660 W2       14554    TIP3     OH2      OT      -0.834000       15.9994           0
     43661 W2       14554    TIP3     H1       HT       0.417000       1.00800           0
     43662 W2       14554    TIP3     H2       HT       0.417000       1.00800           0
     43663 W2       14555    TIP3     OH2      OT      -0.834000       15.9994           0
     43664 W2       14555    TIP3     H1       HT       0.417000       1.00800           0
     43665 W2       14555    TIP3     H2       HT       0.417000       1.00800           0
     43666 W2       14556    TIP3     OH2      OT      -0.834000       15.9994           0
     43667 W2       14556    TIP3     H1       HT       0.417000       1.00800           0
     43668 W2       14556    TIP3     H2       HT       0.417000       1.00800           0
     43669 W2       14557    TIP3     OH2      OT      -0.834000       15.9994           0
     43670 W2       14557    TIP3     H1       HT       0.417000       1.00800           0
     43671 W2       14557    TIP3     H2       HT       0.417000       1.00800           0
     43672 W2       14558    TIP3     OH2      OT      -0.834000       15.9994           0
     43673 W2       14558    TIP3     H1       HT       0.417000       1.00800           0
     43674 W2       14558    TIP3     H2       HT       0.417000       1.00800           0
     43675 W2       14559    TIP3     OH2      OT      -0.834000       15.9994           0
     43676 W2       14559    TIP3     H1       HT       0.417000       1.00800           0
     43677 W2       14559    TIP3     H2       HT       0.417000       1.00800           0
     43678 W2       14560    TIP3     OH2      OT      -0.834000       15.9994           0
     43679 W2       14560    TIP3     H1       HT       0.417000       1.00800           0
     43680 W2       14560    TIP3     H2       HT       0.417000       1.00800           0
     43681 W2       14561    TIP3     OH2      OT      -0.834000       15.9994           0
     43682 W2       14561    TIP3     H1       HT       0.417000       1.00800           0
     43683 W2       14561    TIP3     H2       HT       0.417000       1.00800           0
     43684 W2       14562    TIP3     OH2      OT      -0.834000       15.9994           0
     43685 W2       14562    TIP3     H1       HT       0.417000       1.00800           0
     43686 W2       14562    TIP3     H2       HT       0.417000       1.00800           0
     43687 W2       14563    TIP3     OH2      OT      -0.834000       15.9994           0
     43688 W2       14563    TIP3     H1       HT       0.417000       1.00800           0
     43689 W2       14563    TIP3     H2       HT       0.417000       1.00800           0
     43690 W2       14564    TIP3     OH2      OT      -0.834000       15.9994           0
     43691 W2       14564    TIP3     H1       HT       0.417000       1.00800           0
     43692 W2       14564    TIP3     H2       HT       0.417000       1.00800           0
     43693 W2       14565    TIP3     OH2      OT      -0.834000       15.9994           0
     43694 W2       14565    TIP3     H1       HT       0.417000       1.00800           0
     43695 W2       14565    TIP3     H2       HT       0.417000       1.00800           0
     43696 W2       14566    TIP3     OH2      OT      -0.834000       15.9994           0
     43697 W2       14566    TIP3     H1       HT       0.417000       1.00800           0
     43698 W2       14566    TIP3     H2       HT       0.417000       1.00800           0
     43699 W2       14567    TIP3     OH2      OT      -0.834000       15.9994           0
     43700 W2       14567    TIP3     H1       HT       0.417000       1.00800           0
     43701 W2       14567    TIP3     H2       HT       0.417000       1.00800           0
     43702 W2       14568    TIP3     OH2      OT      -0.834000       15.9994           0
     43703 W2       14568    TIP3     H1       HT       0.417000       1.00800           0
     43704 W2       14568    TIP3     H2       HT       0.417000       1.00800           0
     43705 W2       14569    TIP3     OH2      OT      -0.834000       15.9994           0
     43706 W2       14569    TIP3     H1       HT       0.417000       1.00800           0
     43707 W2       14569    TIP3     H2       HT       0.417000       1.00800           0
     43708 W2       14570    TIP3     OH2      OT      -0.834000       15.9994           0
     43709 W2       14570    TIP3     H1       HT       0.417000       1.00800           0
     43710 W2       14570    TIP3     H2       HT       0.417000       1.00800           0
     43711 W2       14571    TIP3     OH2      OT      -0.834000       15.9994           0
     43712 W2       14571    TIP3     H1       HT       0.417000       1.00800           0
     43713 W2       14571    TIP3     H2       HT       0.417000       1.00800           0
     43714 W2       14572    TIP3     OH2      OT      -0.834000       15.9994           0
     43715 W2       14572    TIP3     H1       HT       0.417000       1.00800           0
     43716 W2       14572    TIP3     H2       HT       0.417000       1.00800           0
     43717 W2       14573    TIP3     OH2      OT      -0.834000       15.9994           0
     43718 W2       14573    TIP3     H1       HT       0.417000       1.00800           0
     43719 W2       14573    TIP3     H2       HT       0.417000       1.00800           0
     43720 W2       14574    TIP3     OH2      OT      -0.834000       15.9994           0
     43721 W2       14574    TIP3     H1       HT       0.417000       1.00800           0
     43722 W2       14574    TIP3     H2       HT       0.417000       1.00800           0
     43723 W2       14575    TIP3     OH2      OT      -0.834000       15.9994           0
     43724 W2       14575    TIP3     H1       HT       0.417000       1.00800           0
     43725 W2       14575    TIP3     H2       HT       0.417000       1.00800           0
     43726 W2       14576    TIP3     OH2      OT      -0.834000       15.9994           0
     43727 W2       14576    TIP3     H1       HT       0.417000       1.00800           0
     43728 W2       14576    TIP3     H2       HT       0.417000       1.00800           0
     43729 W2       14577    TIP3     OH2      OT      -0.834000       15.9994           0
     43730 W2       14577    TIP3     H1       HT       0.417000       1.00800           0
     43731 W2       14577    TIP3     H2       HT       0.417000       1.00800           0
     43732 W2       14578    TIP3     OH2      OT      -0.834000       15.9994           0
     43733 W2       14578    TIP3     H1       HT       0.417000       1.00800           0
     43734 W2       14578    TIP3     H2       HT       0.417000       1.00800           0
     43735 W2       14579    TIP3     OH2      OT      -0.834000       15.9994           0
     43736 W2       14579    TIP3     H1       HT       0.417000       1.00800           0
     43737 W2       14579    TIP3     H2       HT       0.417000       1.00800           0
     43738 W2       14580    TIP3     OH2      OT      -0.834000       15.9994           0
     43739 W2       14580    TIP3     H1       HT       0.417000       1.00800           0
     43740 W2       14580    TIP3     H2       HT       0.417000       1.00800           0
     43741 W2       14581    TIP3     OH2      OT      -0.834000       15.9994           0
     43742 W2       14581    TIP3     H1       HT       0.417000       1.00800           0
     43743 W2       14581    TIP3     H2       HT       0.417000       1.00800           0
     43744 W2       14582    TIP3     OH2      OT      -0.834000       15.9994           0
     43745 W2       14582    TIP3     H1       HT       0.417000       1.00800           0
     43746 W2       14582    TIP3     H2       HT       0.417000       1.00800           0
     43747 W2       14583    TIP3     OH2      OT      -0.834000       15.9994           0
     43748 W2       14583    TIP3     H1       HT       0.417000       1.00800           0
     43749 W2       14583    TIP3     H2       HT       0.417000       1.00800           0
     43750 W2       14584    TIP3     OH2      OT      -0.834000       15.9994           0
     43751 W2       14584    TIP3     H1       HT       0.417000       1.00800           0
     43752 W2       14584    TIP3     H2       HT       0.417000       1.00800           0
     43753 W2       14585    TIP3     OH2      OT      -0.834000       15.9994           0
     43754 W2       14585    TIP3     H1       HT       0.417000       1.00800           0
     43755 W2       14585    TIP3     H2       HT       0.417000       1.00800           0
     43756 W2       14586    TIP3     OH2      OT      -0.834000       15.9994           0
     43757 W2       14586    TIP3     H1       HT       0.417000       1.00800           0
     43758 W2       14586    TIP3     H2       HT       0.417000       1.00800           0
     43759 W2       14587    TIP3     OH2      OT      -0.834000       15.9994           0
     43760 W2       14587    TIP3     H1       HT       0.417000       1.00800           0
     43761 W2       14587    TIP3     H2       HT       0.417000       1.00800           0
     43762 W2       14588    TIP3     OH2      OT      -0.834000       15.9994           0
     43763 W2       14588    TIP3     H1       HT       0.417000       1.00800           0
     43764 W2       14588    TIP3     H2       HT       0.417000       1.00800           0
     43765 W2       14589    TIP3     OH2      OT      -0.834000       15.9994           0
     43766 W2       14589    TIP3     H1       HT       0.417000       1.00800           0
     43767 W2       14589    TIP3     H2       HT       0.417000       1.00800           0
     43768 W2       14590    TIP3     OH2      OT      -0.834000       15.9994           0
     43769 W2       14590    TIP3     H1       HT       0.417000       1.00800           0
     43770 W2       14590    TIP3     H2       HT       0.417000       1.00800           0
     43771 W2       14591    TIP3     OH2      OT      -0.834000       15.9994           0
     43772 W2       14591    TIP3     H1       HT       0.417000       1.00800           0
     43773 W2       14591    TIP3     H2       HT       0.417000       1.00800           0
     43774 W2       14592    TIP3     OH2      OT      -0.834000       15.9994           0
     43775 W2       14592    TIP3     H1       HT       0.417000       1.00800           0
     43776 W2       14592    TIP3     H2       HT       0.417000       1.00800           0
     43777 W2       14593    TIP3     OH2      OT      -0.834000       15.9994           0
     43778 W2       14593    TIP3     H1       HT       0.417000       1.00800           0
     43779 W2       14593    TIP3     H2       HT       0.417000       1.00800           0
     43780 W2       14594    TIP3     OH2      OT      -0.834000       15.9994           0
     43781 W2       14594    TIP3     H1       HT       0.417000       1.00800           0
     43782 W2       14594    TIP3     H2       HT       0.417000       1.00800           0
     43783 W2       14595    TIP3     OH2      OT      -0.834000       15.9994           0
     43784 W2       14595    TIP3     H1       HT       0.417000       1.00800           0
     43785 W2       14595    TIP3     H2       HT       0.417000       1.00800           0
     43786 W2       14596    TIP3     OH2      OT      -0.834000       15.9994           0
     43787 W2       14596    TIP3     H1       HT       0.417000       1.00800           0
     43788 W2       14596    TIP3     H2       HT       0.417000       1.00800           0
     43789 W2       14597    TIP3     OH2      OT      -0.834000       15.9994           0
     43790 W2       14597    TIP3     H1       HT       0.417000       1.00800           0
     43791 W2       14597    TIP3     H2       HT       0.417000       1.00800           0
     43792 W2       14598    TIP3     OH2      OT      -0.834000       15.9994           0
     43793 W2       14598    TIP3     H1       HT       0.417000       1.00800           0
     43794 W2       14598    TIP3     H2       HT       0.417000       1.00800           0
     43795 W2       14599    TIP3     OH2      OT      -0.834000       15.9994           0
     43796 W2       14599    TIP3     H1       HT       0.417000       1.00800           0
     43797 W2       14599    TIP3     H2       HT       0.417000       1.00800           0
     43798 W2       14600    TIP3     OH2      OT      -0.834000       15.9994           0
     43799 W2       14600    TIP3     H1       HT       0.417000       1.00800           0
     43800 W2       14600    TIP3     H2       HT       0.417000       1.00800           0
     43801 W2       14601    TIP3     OH2      OT      -0.834000       15.9994           0
     43802 W2       14601    TIP3     H1       HT       0.417000       1.00800           0
     43803 W2       14601    TIP3     H2       HT       0.417000       1.00800           0
     43804 W2       14602    TIP3     OH2      OT      -0.834000       15.9994           0
     43805 W2       14602    TIP3     H1       HT       0.417000       1.00800           0
     43806 W2       14602    TIP3     H2       HT       0.417000       1.00800           0
     43807 W2       14603    TIP3     OH2      OT      -0.834000       15.9994           0
     43808 W2       14603    TIP3     H1       HT       0.417000       1.00800           0
     43809 W2       14603    TIP3     H2       HT       0.417000       1.00800           0
     43810 W2       14604    TIP3     OH2      OT      -0.834000       15.9994           0
     43811 W2       14604    TIP3     H1       HT       0.417000       1.00800           0
     43812 W2       14604    TIP3     H2       HT       0.417000       1.00800           0
     43813 W2       14605    TIP3     OH2      OT      -0.834000       15.9994           0
     43814 W2       14605    TIP3     H1       HT       0.417000       1.00800           0
     43815 W2       14605    TIP3     H2       HT       0.417000       1.00800           0
     43816 W2       14606    TIP3     OH2      OT      -0.834000       15.9994           0
     43817 W2       14606    TIP3     H1       HT       0.417000       1.00800           0
     43818 W2       14606    TIP3     H2       HT       0.417000       1.00800           0
     43819 W2       14607    TIP3     OH2      OT      -0.834000       15.9994           0
     43820 W2       14607    TIP3     H1       HT       0.417000       1.00800           0
     43821 W2       14607    TIP3     H2       HT       0.417000       1.00800           0
     43822 W2       14608    TIP3     OH2      OT      -0.834000       15.9994           0
     43823 W2       14608    TIP3     H1       HT       0.417000       1.00800           0
     43824 W2       14608    TIP3     H2       HT       0.417000       1.00800           0
     43825 W2       14609    TIP3     OH2      OT      -0.834000       15.9994           0
     43826 W2       14609    TIP3     H1       HT       0.417000       1.00800           0
     43827 W2       14609    TIP3     H2       HT       0.417000       1.00800           0
     43828 W2       14610    TIP3     OH2      OT      -0.834000       15.9994           0
     43829 W2       14610    TIP3     H1       HT       0.417000       1.00800           0
     43830 W2       14610    TIP3     H2       HT       0.417000       1.00800           0
     43831 W2       14611    TIP3     OH2      OT      -0.834000       15.9994           0
     43832 W2       14611    TIP3     H1       HT       0.417000       1.00800           0
     43833 W2       14611    TIP3     H2       HT       0.417000       1.00800           0
     43834 W2       14612    TIP3     OH2      OT      -0.834000       15.9994           0
     43835 W2       14612    TIP3     H1       HT       0.417000       1.00800           0
     43836 W2       14612    TIP3     H2       HT       0.417000       1.00800           0
     43837 W2       14613    TIP3     OH2      OT      -0.834000       15.9994           0
     43838 W2       14613    TIP3     H1       HT       0.417000       1.00800           0
     43839 W2       14613    TIP3     H2       HT       0.417000       1.00800           0
     43840 W2       14614    TIP3     OH2      OT      -0.834000       15.9994           0
     43841 W2       14614    TIP3     H1       HT       0.417000       1.00800           0
     43842 W2       14614    TIP3     H2       HT       0.417000       1.00800           0
     43843 W2       14615    TIP3     OH2      OT      -0.834000       15.9994           0
     43844 W2       14615    TIP3     H1       HT       0.417000       1.00800           0
     43845 W2       14615    TIP3     H2       HT       0.417000       1.00800           0
     43846 W2       14616    TIP3     OH2      OT      -0.834000       15.9994           0
     43847 W2       14616    TIP3     H1       HT       0.417000       1.00800           0
     43848 W2       14616    TIP3     H2       HT       0.417000       1.00800           0
     43849 W2       14617    TIP3     OH2      OT      -0.834000       15.9994           0
     43850 W2       14617    TIP3     H1       HT       0.417000       1.00800           0
     43851 W2       14617    TIP3     H2       HT       0.417000       1.00800           0
     43852 W2       14618    TIP3     OH2      OT      -0.834000       15.9994           0
     43853 W2       14618    TIP3     H1       HT       0.417000       1.00800           0
     43854 W2       14618    TIP3     H2       HT       0.417000       1.00800           0
     43855 W2       14619    TIP3     OH2      OT      -0.834000       15.9994           0
     43856 W2       14619    TIP3     H1       HT       0.417000       1.00800           0
     43857 W2       14619    TIP3     H2       HT       0.417000       1.00800           0
     43858 W2       14620    TIP3     OH2      OT      -0.834000       15.9994           0
     43859 W2       14620    TIP3     H1       HT       0.417000       1.00800           0
     43860 W2       14620    TIP3     H2       HT       0.417000       1.00800           0
     43861 W2       14621    TIP3     OH2      OT      -0.834000       15.9994           0
     43862 W2       14621    TIP3     H1       HT       0.417000       1.00800           0
     43863 W2       14621    TIP3     H2       HT       0.417000       1.00800           0
     43864 W2       14622    TIP3     OH2      OT      -0.834000       15.9994           0
     43865 W2       14622    TIP3     H1       HT       0.417000       1.00800           0
     43866 W2       14622    TIP3     H2       HT       0.417000       1.00800           0
     43867 W2       14623    TIP3     OH2      OT      -0.834000       15.9994           0
     43868 W2       14623    TIP3     H1       HT       0.417000       1.00800           0
     43869 W2       14623    TIP3     H2       HT       0.417000       1.00800           0
     43870 W2       14624    TIP3     OH2      OT      -0.834000       15.9994           0
     43871 W2       14624    TIP3     H1       HT       0.417000       1.00800           0
     43872 W2       14624    TIP3     H2       HT       0.417000       1.00800           0
     43873 W2       14625    TIP3     OH2      OT      -0.834000       15.9994           0
     43874 W2       14625    TIP3     H1       HT       0.417000       1.00800           0
     43875 W2       14625    TIP3     H2       HT       0.417000       1.00800           0
     43876 W2       14626    TIP3     OH2      OT      -0.834000       15.9994           0
     43877 W2       14626    TIP3     H1       HT       0.417000       1.00800           0
     43878 W2       14626    TIP3     H2       HT       0.417000       1.00800           0
     43879 W2       14627    TIP3     OH2      OT      -0.834000       15.9994           0
     43880 W2       14627    TIP3     H1       HT       0.417000       1.00800           0
     43881 W2       14627    TIP3     H2       HT       0.417000       1.00800           0
     43882 W2       14628    TIP3     OH2      OT      -0.834000       15.9994           0
     43883 W2       14628    TIP3     H1       HT       0.417000       1.00800           0
     43884 W2       14628    TIP3     H2       HT       0.417000       1.00800           0
     43885 W2       14629    TIP3     OH2      OT      -0.834000       15.9994           0
     43886 W2       14629    TIP3     H1       HT       0.417000       1.00800           0
     43887 W2       14629    TIP3     H2       HT       0.417000       1.00800           0
     43888 W2       14630    TIP3     OH2      OT      -0.834000       15.9994           0
     43889 W2       14630    TIP3     H1       HT       0.417000       1.00800           0
     43890 W2       14630    TIP3     H2       HT       0.417000       1.00800           0
     43891 W2       14631    TIP3     OH2      OT      -0.834000       15.9994           0
     43892 W2       14631    TIP3     H1       HT       0.417000       1.00800           0
     43893 W2       14631    TIP3     H2       HT       0.417000       1.00800           0
     43894 W2       14632    TIP3     OH2      OT      -0.834000       15.9994           0
     43895 W2       14632    TIP3     H1       HT       0.417000       1.00800           0
     43896 W2       14632    TIP3     H2       HT       0.417000       1.00800           0
     43897 W2       14633    TIP3     OH2      OT      -0.834000       15.9994           0
     43898 W2       14633    TIP3     H1       HT       0.417000       1.00800           0
     43899 W2       14633    TIP3     H2       HT       0.417000       1.00800           0
     43900 W2       14634    TIP3     OH2      OT      -0.834000       15.9994           0
     43901 W2       14634    TIP3     H1       HT       0.417000       1.00800           0
     43902 W2       14634    TIP3     H2       HT       0.417000       1.00800           0
     43903 W2       14635    TIP3     OH2      OT      -0.834000       15.9994           0
     43904 W2       14635    TIP3     H1       HT       0.417000       1.00800           0
     43905 W2       14635    TIP3     H2       HT       0.417000       1.00800           0
     43906 W2       14636    TIP3     OH2      OT      -0.834000       15.9994           0
     43907 W2       14636    TIP3     H1       HT       0.417000       1.00800           0
     43908 W2       14636    TIP3     H2       HT       0.417000       1.00800           0
     43909 W2       14637    TIP3     OH2      OT      -0.834000       15.9994           0
     43910 W2       14637    TIP3     H1       HT       0.417000       1.00800           0
     43911 W2       14637    TIP3     H2       HT       0.417000       1.00800           0
     43912 W2       14638    TIP3     OH2      OT      -0.834000       15.9994           0
     43913 W2       14638    TIP3     H1       HT       0.417000       1.00800           0
     43914 W2       14638    TIP3     H2       HT       0.417000       1.00800           0
     43915 W2       14639    TIP3     OH2      OT      -0.834000       15.9994           0
     43916 W2       14639    TIP3     H1       HT       0.417000       1.00800           0
     43917 W2       14639    TIP3     H2       HT       0.417000       1.00800           0
     43918 W2       14640    TIP3     OH2      OT      -0.834000       15.9994           0
     43919 W2       14640    TIP3     H1       HT       0.417000       1.00800           0
     43920 W2       14640    TIP3     H2       HT       0.417000       1.00800           0
     43921 W2       14641    TIP3     OH2      OT      -0.834000       15.9994           0
     43922 W2       14641    TIP3     H1       HT       0.417000       1.00800           0
     43923 W2       14641    TIP3     H2       HT       0.417000       1.00800           0
     43924 W2       14642    TIP3     OH2      OT      -0.834000       15.9994           0
     43925 W2       14642    TIP3     H1       HT       0.417000       1.00800           0
     43926 W2       14642    TIP3     H2       HT       0.417000       1.00800           0
     43927 W2       14643    TIP3     OH2      OT      -0.834000       15.9994           0
     43928 W2       14643    TIP3     H1       HT       0.417000       1.00800           0
     43929 W2       14643    TIP3     H2       HT       0.417000       1.00800           0
     43930 W2       14644    TIP3     OH2      OT      -0.834000       15.9994           0
     43931 W2       14644    TIP3     H1       HT       0.417000       1.00800           0
     43932 W2       14644    TIP3     H2       HT       0.417000       1.00800           0
     43933 W2       14645    TIP3     OH2      OT      -0.834000       15.9994           0
     43934 W2       14645    TIP3     H1       HT       0.417000       1.00800           0
     43935 W2       14645    TIP3     H2       HT       0.417000       1.00800           0
     43936 W2       14646    TIP3     OH2      OT      -0.834000       15.9994           0
     43937 W2       14646    TIP3     H1       HT       0.417000       1.00800           0
     43938 W2       14646    TIP3     H2       HT       0.417000       1.00800           0
     43939 W2       14647    TIP3     OH2      OT      -0.834000       15.9994           0
     43940 W2       14647    TIP3     H1       HT       0.417000       1.00800           0
     43941 W2       14647    TIP3     H2       HT       0.417000       1.00800           0
     43942 W2       14648    TIP3     OH2      OT      -0.834000       15.9994           0
     43943 W2       14648    TIP3     H1       HT       0.417000       1.00800           0
     43944 W2       14648    TIP3     H2       HT       0.417000       1.00800           0
     43945 W2       14649    TIP3     OH2      OT      -0.834000       15.9994           0
     43946 W2       14649    TIP3     H1       HT       0.417000       1.00800           0
     43947 W2       14649    TIP3     H2       HT       0.417000       1.00800           0
     43948 W2       14650    TIP3     OH2      OT      -0.834000       15.9994           0
     43949 W2       14650    TIP3     H1       HT       0.417000       1.00800           0
     43950 W2       14650    TIP3     H2       HT       0.417000       1.00800           0
     43951 W2       14651    TIP3     OH2      OT      -0.834000       15.9994           0
     43952 W2       14651    TIP3     H1       HT       0.417000       1.00800           0
     43953 W2       14651    TIP3     H2       HT       0.417000       1.00800           0
     43954 W2       14652    TIP3     OH2      OT      -0.834000       15.9994           0
     43955 W2       14652    TIP3     H1       HT       0.417000       1.00800           0
     43956 W2       14652    TIP3     H2       HT       0.417000       1.00800           0
     43957 W2       14653    TIP3     OH2      OT      -0.834000       15.9994           0
     43958 W2       14653    TIP3     H1       HT       0.417000       1.00800           0
     43959 W2       14653    TIP3     H2       HT       0.417000       1.00800           0
     43960 W2       14654    TIP3     OH2      OT      -0.834000       15.9994           0
     43961 W2       14654    TIP3     H1       HT       0.417000       1.00800           0
     43962 W2       14654    TIP3     H2       HT       0.417000       1.00800           0
     43963 W2       14655    TIP3     OH2      OT      -0.834000       15.9994           0
     43964 W2       14655    TIP3     H1       HT       0.417000       1.00800           0
     43965 W2       14655    TIP3     H2       HT       0.417000       1.00800           0
     43966 W2       14656    TIP3     OH2      OT      -0.834000       15.9994           0
     43967 W2       14656    TIP3     H1       HT       0.417000       1.00800           0
     43968 W2       14656    TIP3     H2       HT       0.417000       1.00800           0
     43969 W2       14657    TIP3     OH2      OT      -0.834000       15.9994           0
     43970 W2       14657    TIP3     H1       HT       0.417000       1.00800           0
     43971 W2       14657    TIP3     H2       HT       0.417000       1.00800           0
     43972 W2       14658    TIP3     OH2      OT      -0.834000       15.9994           0
     43973 W2       14658    TIP3     H1       HT       0.417000       1.00800           0
     43974 W2       14658    TIP3     H2       HT       0.417000       1.00800           0
     43975 W2       14659    TIP3     OH2      OT      -0.834000       15.9994           0
     43976 W2       14659    TIP3     H1       HT       0.417000       1.00800           0
     43977 W2       14659    TIP3     H2       HT       0.417000       1.00800           0
     43978 W2       14660    TIP3     OH2      OT      -0.834000       15.9994           0
     43979 W2       14660    TIP3     H1       HT       0.417000       1.00800           0
     43980 W2       14660    TIP3     H2       HT       0.417000       1.00800           0
     43981 W2       14661    TIP3     OH2      OT      -0.834000       15.9994           0
     43982 W2       14661    TIP3     H1       HT       0.417000       1.00800           0
     43983 W2       14661    TIP3     H2       HT       0.417000       1.00800           0
     43984 W2       14662    TIP3     OH2      OT      -0.834000       15.9994           0
     43985 W2       14662    TIP3     H1       HT       0.417000       1.00800           0
     43986 W2       14662    TIP3     H2       HT       0.417000       1.00800           0
     43987 W2       14663    TIP3     OH2      OT      -0.834000       15.9994           0
     43988 W2       14663    TIP3     H1       HT       0.417000       1.00800           0
     43989 W2       14663    TIP3     H2       HT       0.417000       1.00800           0
     43990 W2       14664    TIP3     OH2      OT      -0.834000       15.9994           0
     43991 W2       14664    TIP3     H1       HT       0.417000       1.00800           0
     43992 W2       14664    TIP3     H2       HT       0.417000       1.00800           0
     43993 W2       14665    TIP3     OH2      OT      -0.834000       15.9994           0
     43994 W2       14665    TIP3     H1       HT       0.417000       1.00800           0
     43995 W2       14665    TIP3     H2       HT       0.417000       1.00800           0
     43996 W2       14666    TIP3     OH2      OT      -0.834000       15.9994           0
     43997 W2       14666    TIP3     H1       HT       0.417000       1.00800           0
     43998 W2       14666    TIP3     H2       HT       0.417000       1.00800           0
     43999 W2       14667    TIP3     OH2      OT      -0.834000       15.9994           0
     44000 W2       14667    TIP3     H1       HT       0.417000       1.00800           0
     44001 W2       14667    TIP3     H2       HT       0.417000       1.00800           0
     44002 W2       14668    TIP3     OH2      OT      -0.834000       15.9994           0
     44003 W2       14668    TIP3     H1       HT       0.417000       1.00800           0
     44004 W2       14668    TIP3     H2       HT       0.417000       1.00800           0
     44005 W2       14669    TIP3     OH2      OT      -0.834000       15.9994           0
     44006 W2       14669    TIP3     H1       HT       0.417000       1.00800           0
     44007 W2       14669    TIP3     H2       HT       0.417000       1.00800           0
     44008 W2       14670    TIP3     OH2      OT      -0.834000       15.9994           0
     44009 W2       14670    TIP3     H1       HT       0.417000       1.00800           0
     44010 W2       14670    TIP3     H2       HT       0.417000       1.00800           0
     44011 W2       14671    TIP3     OH2      OT      -0.834000       15.9994           0
     44012 W2       14671    TIP3     H1       HT       0.417000       1.00800           0
     44013 W2       14671    TIP3     H2       HT       0.417000       1.00800           0
     44014 W2       14672    TIP3     OH2      OT      -0.834000       15.9994           0
     44015 W2       14672    TIP3     H1       HT       0.417000       1.00800           0
     44016 W2       14672    TIP3     H2       HT       0.417000       1.00800           0
     44017 W2       14673    TIP3     OH2      OT      -0.834000       15.9994           0
     44018 W2       14673    TIP3     H1       HT       0.417000       1.00800           0
     44019 W2       14673    TIP3     H2       HT       0.417000       1.00800           0
     44020 W2       14674    TIP3     OH2      OT      -0.834000       15.9994           0
     44021 W2       14674    TIP3     H1       HT       0.417000       1.00800           0
     44022 W2       14674    TIP3     H2       HT       0.417000       1.00800           0
     44023 W2       14675    TIP3     OH2      OT      -0.834000       15.9994           0
     44024 W2       14675    TIP3     H1       HT       0.417000       1.00800           0
     44025 W2       14675    TIP3     H2       HT       0.417000       1.00800           0
     44026 W2       14676    TIP3     OH2      OT      -0.834000       15.9994           0
     44027 W2       14676    TIP3     H1       HT       0.417000       1.00800           0
     44028 W2       14676    TIP3     H2       HT       0.417000       1.00800           0
     44029 W2       14677    TIP3     OH2      OT      -0.834000       15.9994           0
     44030 W2       14677    TIP3     H1       HT       0.417000       1.00800           0
     44031 W2       14677    TIP3     H2       HT       0.417000       1.00800           0
     44032 W2       14678    TIP3     OH2      OT      -0.834000       15.9994           0
     44033 W2       14678    TIP3     H1       HT       0.417000       1.00800           0
     44034 W2       14678    TIP3     H2       HT       0.417000       1.00800           0
     44035 W2       14679    TIP3     OH2      OT      -0.834000       15.9994           0
     44036 W2       14679    TIP3     H1       HT       0.417000       1.00800           0
     44037 W2       14679    TIP3     H2       HT       0.417000       1.00800           0
     44038 W2       14680    TIP3     OH2      OT      -0.834000       15.9994           0
     44039 W2       14680    TIP3     H1       HT       0.417000       1.00800           0
     44040 W2       14680    TIP3     H2       HT       0.417000       1.00800           0
     44041 W2       14681    TIP3     OH2      OT      -0.834000       15.9994           0
     44042 W2       14681    TIP3     H1       HT       0.417000       1.00800           0
     44043 W2       14681    TIP3     H2       HT       0.417000       1.00800           0
     44044 W2       14682    TIP3     OH2      OT      -0.834000       15.9994           0
     44045 W2       14682    TIP3     H1       HT       0.417000       1.00800           0
     44046 W2       14682    TIP3     H2       HT       0.417000       1.00800           0
     44047 W2       14683    TIP3     OH2      OT      -0.834000       15.9994           0
     44048 W2       14683    TIP3     H1       HT       0.417000       1.00800           0
     44049 W2       14683    TIP3     H2       HT       0.417000       1.00800           0
     44050 W2       14684    TIP3     OH2      OT      -0.834000       15.9994           0
     44051 W2       14684    TIP3     H1       HT       0.417000       1.00800           0
     44052 W2       14684    TIP3     H2       HT       0.417000       1.00800           0
     44053 W2       14685    TIP3     OH2      OT      -0.834000       15.9994           0
     44054 W2       14685    TIP3     H1       HT       0.417000       1.00800           0
     44055 W2       14685    TIP3     H2       HT       0.417000       1.00800           0
     44056 W2       14686    TIP3     OH2      OT      -0.834000       15.9994           0
     44057 W2       14686    TIP3     H1       HT       0.417000       1.00800           0
     44058 W2       14686    TIP3     H2       HT       0.417000       1.00800           0
     44059 W2       14687    TIP3     OH2      OT      -0.834000       15.9994           0
     44060 W2       14687    TIP3     H1       HT       0.417000       1.00800           0
     44061 W2       14687    TIP3     H2       HT       0.417000       1.00800           0
     44062 W2       14688    TIP3     OH2      OT      -0.834000       15.9994           0
     44063 W2       14688    TIP3     H1       HT       0.417000       1.00800           0
     44064 W2       14688    TIP3     H2       HT       0.417000       1.00800           0
     44065 W2       14689    TIP3     OH2      OT      -0.834000       15.9994           0
     44066 W2       14689    TIP3     H1       HT       0.417000       1.00800           0
     44067 W2       14689    TIP3     H2       HT       0.417000       1.00800           0
     44068 W2       14690    TIP3     OH2      OT      -0.834000       15.9994           0
     44069 W2       14690    TIP3     H1       HT       0.417000       1.00800           0
     44070 W2       14690    TIP3     H2       HT       0.417000       1.00800           0
     44071 W2       14691    TIP3     OH2      OT      -0.834000       15.9994           0
     44072 W2       14691    TIP3     H1       HT       0.417000       1.00800           0
     44073 W2       14691    TIP3     H2       HT       0.417000       1.00800           0
     44074 W2       14692    TIP3     OH2      OT      -0.834000       15.9994           0
     44075 W2       14692    TIP3     H1       HT       0.417000       1.00800           0
     44076 W2       14692    TIP3     H2       HT       0.417000       1.00800           0
     44077 W2       14693    TIP3     OH2      OT      -0.834000       15.9994           0
     44078 W2       14693    TIP3     H1       HT       0.417000       1.00800           0
     44079 W2       14693    TIP3     H2       HT       0.417000       1.00800           0
     44080 W2       14694    TIP3     OH2      OT      -0.834000       15.9994           0
     44081 W2       14694    TIP3     H1       HT       0.417000       1.00800           0
     44082 W2       14694    TIP3     H2       HT       0.417000       1.00800           0
     44083 W2       14695    TIP3     OH2      OT      -0.834000       15.9994           0
     44084 W2       14695    TIP3     H1       HT       0.417000       1.00800           0
     44085 W2       14695    TIP3     H2       HT       0.417000       1.00800           0
     44086 W2       14696    TIP3     OH2      OT      -0.834000       15.9994           0
     44087 W2       14696    TIP3     H1       HT       0.417000       1.00800           0
     44088 W2       14696    TIP3     H2       HT       0.417000       1.00800           0
     44089 W2       14697    TIP3     OH2      OT      -0.834000       15.9994           0
     44090 W2       14697    TIP3     H1       HT       0.417000       1.00800           0
     44091 W2       14697    TIP3     H2       HT       0.417000       1.00800           0
     44092 W2       14698    TIP3     OH2      OT      -0.834000       15.9994           0
     44093 W2       14698    TIP3     H1       HT       0.417000       1.00800           0
     44094 W2       14698    TIP3     H2       HT       0.417000       1.00800           0
     44095 W2       14699    TIP3     OH2      OT      -0.834000       15.9994           0
     44096 W2       14699    TIP3     H1       HT       0.417000       1.00800           0
     44097 W2       14699    TIP3     H2       HT       0.417000       1.00800           0
     44098 W2       14700    TIP3     OH2      OT      -0.834000       15.9994           0
     44099 W2       14700    TIP3     H1       HT       0.417000       1.00800           0
     44100 W2       14700    TIP3     H2       HT       0.417000       1.00800           0
     44101 W2       14701    TIP3     OH2      OT      -0.834000       15.9994           0
     44102 W2       14701    TIP3     H1       HT       0.417000       1.00800           0
     44103 W2       14701    TIP3     H2       HT       0.417000       1.00800           0
     44104 W2       14702    TIP3     OH2      OT      -0.834000       15.9994           0
     44105 W2       14702    TIP3     H1       HT       0.417000       1.00800           0
     44106 W2       14702    TIP3     H2       HT       0.417000       1.00800           0
     44107 W2       14703    TIP3     OH2      OT      -0.834000       15.9994           0
     44108 W2       14703    TIP3     H1       HT       0.417000       1.00800           0
     44109 W2       14703    TIP3     H2       HT       0.417000       1.00800           0
     44110 W2       14704    TIP3     OH2      OT      -0.834000       15.9994           0
     44111 W2       14704    TIP3     H1       HT       0.417000       1.00800           0
     44112 W2       14704    TIP3     H2       HT       0.417000       1.00800           0
     44113 W2       14705    TIP3     OH2      OT      -0.834000       15.9994           0
     44114 W2       14705    TIP3     H1       HT       0.417000       1.00800           0
     44115 W2       14705    TIP3     H2       HT       0.417000       1.00800           0
     44116 W2       14706    TIP3     OH2      OT      -0.834000       15.9994           0
     44117 W2       14706    TIP3     H1       HT       0.417000       1.00800           0
     44118 W2       14706    TIP3     H2       HT       0.417000       1.00800           0
     44119 W2       14707    TIP3     OH2      OT      -0.834000       15.9994           0
     44120 W2       14707    TIP3     H1       HT       0.417000       1.00800           0
     44121 W2       14707    TIP3     H2       HT       0.417000       1.00800           0
     44122 W2       14708    TIP3     OH2      OT      -0.834000       15.9994           0
     44123 W2       14708    TIP3     H1       HT       0.417000       1.00800           0
     44124 W2       14708    TIP3     H2       HT       0.417000       1.00800           0
     44125 W2       14709    TIP3     OH2      OT      -0.834000       15.9994           0
     44126 W2       14709    TIP3     H1       HT       0.417000       1.00800           0
     44127 W2       14709    TIP3     H2       HT       0.417000       1.00800           0
     44128 W2       14710    TIP3     OH2      OT      -0.834000       15.9994           0
     44129 W2       14710    TIP3     H1       HT       0.417000       1.00800           0
     44130 W2       14710    TIP3     H2       HT       0.417000       1.00800           0
     44131 W2       14711    TIP3     OH2      OT      -0.834000       15.9994           0
     44132 W2       14711    TIP3     H1       HT       0.417000       1.00800           0
     44133 W2       14711    TIP3     H2       HT       0.417000       1.00800           0
     44134 W2       14712    TIP3     OH2      OT      -0.834000       15.9994           0
     44135 W2       14712    TIP3     H1       HT       0.417000       1.00800           0
     44136 W2       14712    TIP3     H2       HT       0.417000       1.00800           0
     44137 W2       14713    TIP3     OH2      OT      -0.834000       15.9994           0
     44138 W2       14713    TIP3     H1       HT       0.417000       1.00800           0
     44139 W2       14713    TIP3     H2       HT       0.417000       1.00800           0
     44140 W2       14714    TIP3     OH2      OT      -0.834000       15.9994           0
     44141 W2       14714    TIP3     H1       HT       0.417000       1.00800           0
     44142 W2       14714    TIP3     H2       HT       0.417000       1.00800           0
     44143 W2       14715    TIP3     OH2      OT      -0.834000       15.9994           0
     44144 W2       14715    TIP3     H1       HT       0.417000       1.00800           0
     44145 W2       14715    TIP3     H2       HT       0.417000       1.00800           0
     44146 W2       14716    TIP3     OH2      OT      -0.834000       15.9994           0
     44147 W2       14716    TIP3     H1       HT       0.417000       1.00800           0
     44148 W2       14716    TIP3     H2       HT       0.417000       1.00800           0
     44149 W2       14717    TIP3     OH2      OT      -0.834000       15.9994           0
     44150 W2       14717    TIP3     H1       HT       0.417000       1.00800           0
     44151 W2       14717    TIP3     H2       HT       0.417000       1.00800           0
     44152 W2       14718    TIP3     OH2      OT      -0.834000       15.9994           0
     44153 W2       14718    TIP3     H1       HT       0.417000       1.00800           0
     44154 W2       14718    TIP3     H2       HT       0.417000       1.00800           0
     44155 W2       14719    TIP3     OH2      OT      -0.834000       15.9994           0
     44156 W2       14719    TIP3     H1       HT       0.417000       1.00800           0
     44157 W2       14719    TIP3     H2       HT       0.417000       1.00800           0
     44158 W2       14720    TIP3     OH2      OT      -0.834000       15.9994           0
     44159 W2       14720    TIP3     H1       HT       0.417000       1.00800           0
     44160 W2       14720    TIP3     H2       HT       0.417000       1.00800           0
     44161 W2       14721    TIP3     OH2      OT      -0.834000       15.9994           0
     44162 W2       14721    TIP3     H1       HT       0.417000       1.00800           0
     44163 W2       14721    TIP3     H2       HT       0.417000       1.00800           0
     44164 W2       14722    TIP3     OH2      OT      -0.834000       15.9994           0
     44165 W2       14722    TIP3     H1       HT       0.417000       1.00800           0
     44166 W2       14722    TIP3     H2       HT       0.417000       1.00800           0
     44167 W2       14723    TIP3     OH2      OT      -0.834000       15.9994           0
     44168 W2       14723    TIP3     H1       HT       0.417000       1.00800           0
     44169 W2       14723    TIP3     H2       HT       0.417000       1.00800           0
     44170 W2       14724    TIP3     OH2      OT      -0.834000       15.9994           0
     44171 W2       14724    TIP3     H1       HT       0.417000       1.00800           0
     44172 W2       14724    TIP3     H2       HT       0.417000       1.00800           0
     44173 W2       14725    TIP3     OH2      OT      -0.834000       15.9994           0
     44174 W2       14725    TIP3     H1       HT       0.417000       1.00800           0
     44175 W2       14725    TIP3     H2       HT       0.417000       1.00800           0
     44176 W2       14726    TIP3     OH2      OT      -0.834000       15.9994           0
     44177 W2       14726    TIP3     H1       HT       0.417000       1.00800           0
     44178 W2       14726    TIP3     H2       HT       0.417000       1.00800           0
     44179 W2       14727    TIP3     OH2      OT      -0.834000       15.9994           0
     44180 W2       14727    TIP3     H1       HT       0.417000       1.00800           0
     44181 W2       14727    TIP3     H2       HT       0.417000       1.00800           0
     44182 W2       14728    TIP3     OH2      OT      -0.834000       15.9994           0
     44183 W2       14728    TIP3     H1       HT       0.417000       1.00800           0
     44184 W2       14728    TIP3     H2       HT       0.417000       1.00800           0
     44185 W2       14729    TIP3     OH2      OT      -0.834000       15.9994           0
     44186 W2       14729    TIP3     H1       HT       0.417000       1.00800           0
     44187 W2       14729    TIP3     H2       HT       0.417000       1.00800           0
     44188 W2       14730    TIP3     OH2      OT      -0.834000       15.9994           0
     44189 W2       14730    TIP3     H1       HT       0.417000       1.00800           0
     44190 W2       14730    TIP3     H2       HT       0.417000       1.00800           0
     44191 W2       14731    TIP3     OH2      OT      -0.834000       15.9994           0
     44192 W2       14731    TIP3     H1       HT       0.417000       1.00800           0
     44193 W2       14731    TIP3     H2       HT       0.417000       1.00800           0
     44194 W2       14732    TIP3     OH2      OT      -0.834000       15.9994           0
     44195 W2       14732    TIP3     H1       HT       0.417000       1.00800           0
     44196 W2       14732    TIP3     H2       HT       0.417000       1.00800           0
     44197 W2       14733    TIP3     OH2      OT      -0.834000       15.9994           0
     44198 W2       14733    TIP3     H1       HT       0.417000       1.00800           0
     44199 W2       14733    TIP3     H2       HT       0.417000       1.00800           0
     44200 W2       14734    TIP3     OH2      OT      -0.834000       15.9994           0
     44201 W2       14734    TIP3     H1       HT       0.417000       1.00800           0
     44202 W2       14734    TIP3     H2       HT       0.417000       1.00800           0
     44203 W2       14735    TIP3     OH2      OT      -0.834000       15.9994           0
     44204 W2       14735    TIP3     H1       HT       0.417000       1.00800           0
     44205 W2       14735    TIP3     H2       HT       0.417000       1.00800           0
     44206 W2       14736    TIP3     OH2      OT      -0.834000       15.9994           0
     44207 W2       14736    TIP3     H1       HT       0.417000       1.00800           0
     44208 W2       14736    TIP3     H2       HT       0.417000       1.00800           0
     44209 W2       14737    TIP3     OH2      OT      -0.834000       15.9994           0
     44210 W2       14737    TIP3     H1       HT       0.417000       1.00800           0
     44211 W2       14737    TIP3     H2       HT       0.417000       1.00800           0
     44212 W2       14738    TIP3     OH2      OT      -0.834000       15.9994           0
     44213 W2       14738    TIP3     H1       HT       0.417000       1.00800           0
     44214 W2       14738    TIP3     H2       HT       0.417000       1.00800           0
     44215 W2       14739    TIP3     OH2      OT      -0.834000       15.9994           0
     44216 W2       14739    TIP3     H1       HT       0.417000       1.00800           0
     44217 W2       14739    TIP3     H2       HT       0.417000       1.00800           0
     44218 W2       14740    TIP3     OH2      OT      -0.834000       15.9994           0
     44219 W2       14740    TIP3     H1       HT       0.417000       1.00800           0
     44220 W2       14740    TIP3     H2       HT       0.417000       1.00800           0
     44221 W2       14741    TIP3     OH2      OT      -0.834000       15.9994           0
     44222 W2       14741    TIP3     H1       HT       0.417000       1.00800           0
     44223 W2       14741    TIP3     H2       HT       0.417000       1.00800           0
     44224 W2       14742    TIP3     OH2      OT      -0.834000       15.9994           0
     44225 W2       14742    TIP3     H1       HT       0.417000       1.00800           0
     44226 W2       14742    TIP3     H2       HT       0.417000       1.00800           0
     44227 W2       14743    TIP3     OH2      OT      -0.834000       15.9994           0
     44228 W2       14743    TIP3     H1       HT       0.417000       1.00800           0
     44229 W2       14743    TIP3     H2       HT       0.417000       1.00800           0
     44230 W2       14744    TIP3     OH2      OT      -0.834000       15.9994           0
     44231 W2       14744    TIP3     H1       HT       0.417000       1.00800           0
     44232 W2       14744    TIP3     H2       HT       0.417000       1.00800           0
     44233 W2       14745    TIP3     OH2      OT      -0.834000       15.9994           0
     44234 W2       14745    TIP3     H1       HT       0.417000       1.00800           0
     44235 W2       14745    TIP3     H2       HT       0.417000       1.00800           0
     44236 W2       14746    TIP3     OH2      OT      -0.834000       15.9994           0
     44237 W2       14746    TIP3     H1       HT       0.417000       1.00800           0
     44238 W2       14746    TIP3     H2       HT       0.417000       1.00800           0
     44239 W2       14747    TIP3     OH2      OT      -0.834000       15.9994           0
     44240 W2       14747    TIP3     H1       HT       0.417000       1.00800           0
     44241 W2       14747    TIP3     H2       HT       0.417000       1.00800           0
     44242 W2       14748    TIP3     OH2      OT      -0.834000       15.9994           0
     44243 W2       14748    TIP3     H1       HT       0.417000       1.00800           0
     44244 W2       14748    TIP3     H2       HT       0.417000       1.00800           0
     44245 W2       14749    TIP3     OH2      OT      -0.834000       15.9994           0
     44246 W2       14749    TIP3     H1       HT       0.417000       1.00800           0
     44247 W2       14749    TIP3     H2       HT       0.417000       1.00800           0
     44248 W2       14750    TIP3     OH2      OT      -0.834000       15.9994           0
     44249 W2       14750    TIP3     H1       HT       0.417000       1.00800           0
     44250 W2       14750    TIP3     H2       HT       0.417000       1.00800           0
     44251 W2       14751    TIP3     OH2      OT      -0.834000       15.9994           0
     44252 W2       14751    TIP3     H1       HT       0.417000       1.00800           0
     44253 W2       14751    TIP3     H2       HT       0.417000       1.00800           0
     44254 W2       14752    TIP3     OH2      OT      -0.834000       15.9994           0
     44255 W2       14752    TIP3     H1       HT       0.417000       1.00800           0
     44256 W2       14752    TIP3     H2       HT       0.417000       1.00800           0
     44257 W2       14753    TIP3     OH2      OT      -0.834000       15.9994           0
     44258 W2       14753    TIP3     H1       HT       0.417000       1.00800           0
     44259 W2       14753    TIP3     H2       HT       0.417000       1.00800           0
     44260 W2       14754    TIP3     OH2      OT      -0.834000       15.9994           0
     44261 W2       14754    TIP3     H1       HT       0.417000       1.00800           0
     44262 W2       14754    TIP3     H2       HT       0.417000       1.00800           0
     44263 W2       14755    TIP3     OH2      OT      -0.834000       15.9994           0
     44264 W2       14755    TIP3     H1       HT       0.417000       1.00800           0
     44265 W2       14755    TIP3     H2       HT       0.417000       1.00800           0
     44266 W2       14756    TIP3     OH2      OT      -0.834000       15.9994           0
     44267 W2       14756    TIP3     H1       HT       0.417000       1.00800           0
     44268 W2       14756    TIP3     H2       HT       0.417000       1.00800           0
     44269 W2       14757    TIP3     OH2      OT      -0.834000       15.9994           0
     44270 W2       14757    TIP3     H1       HT       0.417000       1.00800           0
     44271 W2       14757    TIP3     H2       HT       0.417000       1.00800           0
     44272 W2       14758    TIP3     OH2      OT      -0.834000       15.9994           0
     44273 W2       14758    TIP3     H1       HT       0.417000       1.00800           0
     44274 W2       14758    TIP3     H2       HT       0.417000       1.00800           0
     44275 W2       14759    TIP3     OH2      OT      -0.834000       15.9994           0
     44276 W2       14759    TIP3     H1       HT       0.417000       1.00800           0
     44277 W2       14759    TIP3     H2       HT       0.417000       1.00800           0
     44278 W2       14760    TIP3     OH2      OT      -0.834000       15.9994           0
     44279 W2       14760    TIP3     H1       HT       0.417000       1.00800           0
     44280 W2       14760    TIP3     H2       HT       0.417000       1.00800           0
     44281 W2       14761    TIP3     OH2      OT      -0.834000       15.9994           0
     44282 W2       14761    TIP3     H1       HT       0.417000       1.00800           0
     44283 W2       14761    TIP3     H2       HT       0.417000       1.00800           0
     44284 W2       14762    TIP3     OH2      OT      -0.834000       15.9994           0
     44285 W2       14762    TIP3     H1       HT       0.417000       1.00800           0
     44286 W2       14762    TIP3     H2       HT       0.417000       1.00800           0
     44287 W2       14763    TIP3     OH2      OT      -0.834000       15.9994           0
     44288 W2       14763    TIP3     H1       HT       0.417000       1.00800           0
     44289 W2       14763    TIP3     H2       HT       0.417000       1.00800           0
     44290 W2       14764    TIP3     OH2      OT      -0.834000       15.9994           0
     44291 W2       14764    TIP3     H1       HT       0.417000       1.00800           0
     44292 W2       14764    TIP3     H2       HT       0.417000       1.00800           0
     44293 W2       14765    TIP3     OH2      OT      -0.834000       15.9994           0
     44294 W2       14765    TIP3     H1       HT       0.417000       1.00800           0
     44295 W2       14765    TIP3     H2       HT       0.417000       1.00800           0
     44296 W2       14766    TIP3     OH2      OT      -0.834000       15.9994           0
     44297 W2       14766    TIP3     H1       HT       0.417000       1.00800           0
     44298 W2       14766    TIP3     H2       HT       0.417000       1.00800           0
     44299 W2       14767    TIP3     OH2      OT      -0.834000       15.9994           0
     44300 W2       14767    TIP3     H1       HT       0.417000       1.00800           0
     44301 W2       14767    TIP3     H2       HT       0.417000       1.00800           0
     44302 W2       14768    TIP3     OH2      OT      -0.834000       15.9994           0
     44303 W2       14768    TIP3     H1       HT       0.417000       1.00800           0
     44304 W2       14768    TIP3     H2       HT       0.417000       1.00800           0
     44305 W2       14769    TIP3     OH2      OT      -0.834000       15.9994           0
     44306 W2       14769    TIP3     H1       HT       0.417000       1.00800           0
     44307 W2       14769    TIP3     H2       HT       0.417000       1.00800           0
     44308 W2       14770    TIP3     OH2      OT      -0.834000       15.9994           0
     44309 W2       14770    TIP3     H1       HT       0.417000       1.00800           0
     44310 W2       14770    TIP3     H2       HT       0.417000       1.00800           0
     44311 W2       14771    TIP3     OH2      OT      -0.834000       15.9994           0
     44312 W2       14771    TIP3     H1       HT       0.417000       1.00800           0
     44313 W2       14771    TIP3     H2       HT       0.417000       1.00800           0
     44314 W2       14772    TIP3     OH2      OT      -0.834000       15.9994           0
     44315 W2       14772    TIP3     H1       HT       0.417000       1.00800           0
     44316 W2       14772    TIP3     H2       HT       0.417000       1.00800           0
     44317 W2       14773    TIP3     OH2      OT      -0.834000       15.9994           0
     44318 W2       14773    TIP3     H1       HT       0.417000       1.00800           0
     44319 W2       14773    TIP3     H2       HT       0.417000       1.00800           0
     44320 W2       14774    TIP3     OH2      OT      -0.834000       15.9994           0
     44321 W2       14774    TIP3     H1       HT       0.417000       1.00800           0
     44322 W2       14774    TIP3     H2       HT       0.417000       1.00800           0
     44323 W2       14775    TIP3     OH2      OT      -0.834000       15.9994           0
     44324 W2       14775    TIP3     H1       HT       0.417000       1.00800           0
     44325 W2       14775    TIP3     H2       HT       0.417000       1.00800           0
     44326 W2       14776    TIP3     OH2      OT      -0.834000       15.9994           0
     44327 W2       14776    TIP3     H1       HT       0.417000       1.00800           0
     44328 W2       14776    TIP3     H2       HT       0.417000       1.00800           0
     44329 W2       14777    TIP3     OH2      OT      -0.834000       15.9994           0
     44330 W2       14777    TIP3     H1       HT       0.417000       1.00800           0
     44331 W2       14777    TIP3     H2       HT       0.417000       1.00800           0
     44332 W2       14778    TIP3     OH2      OT      -0.834000       15.9994           0
     44333 W2       14778    TIP3     H1       HT       0.417000       1.00800           0
     44334 W2       14778    TIP3     H2       HT       0.417000       1.00800           0
     44335 W2       14779    TIP3     OH2      OT      -0.834000       15.9994           0
     44336 W2       14779    TIP3     H1       HT       0.417000       1.00800           0
     44337 W2       14779    TIP3     H2       HT       0.417000       1.00800           0
     44338 W2       14780    TIP3     OH2      OT      -0.834000       15.9994           0
     44339 W2       14780    TIP3     H1       HT       0.417000       1.00800           0
     44340 W2       14780    TIP3     H2       HT       0.417000       1.00800           0
     44341 W2       14781    TIP3     OH2      OT      -0.834000       15.9994           0
     44342 W2       14781    TIP3     H1       HT       0.417000       1.00800           0
     44343 W2       14781    TIP3     H2       HT       0.417000       1.00800           0
     44344 W2       14782    TIP3     OH2      OT      -0.834000       15.9994           0
     44345 W2       14782    TIP3     H1       HT       0.417000       1.00800           0
     44346 W2       14782    TIP3     H2       HT       0.417000       1.00800           0
     44347 W2       14783    TIP3     OH2      OT      -0.834000       15.9994           0
     44348 W2       14783    TIP3     H1       HT       0.417000       1.00800           0
     44349 W2       14783    TIP3     H2       HT       0.417000       1.00800           0
     44350 W2       14784    TIP3     OH2      OT      -0.834000       15.9994           0
     44351 W2       14784    TIP3     H1       HT       0.417000       1.00800           0
     44352 W2       14784    TIP3     H2       HT       0.417000       1.00800           0
     44353 W2       14785    TIP3     OH2      OT      -0.834000       15.9994           0
     44354 W2       14785    TIP3     H1       HT       0.417000       1.00800           0
     44355 W2       14785    TIP3     H2       HT       0.417000       1.00800           0
     44356 W2       14786    TIP3     OH2      OT      -0.834000       15.9994           0
     44357 W2       14786    TIP3     H1       HT       0.417000       1.00800           0
     44358 W2       14786    TIP3     H2       HT       0.417000       1.00800           0
     44359 W2       14787    TIP3     OH2      OT      -0.834000       15.9994           0
     44360 W2       14787    TIP3     H1       HT       0.417000       1.00800           0
     44361 W2       14787    TIP3     H2       HT       0.417000       1.00800           0
     44362 W2       14788    TIP3     OH2      OT      -0.834000       15.9994           0
     44363 W2       14788    TIP3     H1       HT       0.417000       1.00800           0
     44364 W2       14788    TIP3     H2       HT       0.417000       1.00800           0
     44365 W2       14789    TIP3     OH2      OT      -0.834000       15.9994           0
     44366 W2       14789    TIP3     H1       HT       0.417000       1.00800           0
     44367 W2       14789    TIP3     H2       HT       0.417000       1.00800           0
     44368 W2       14790    TIP3     OH2      OT      -0.834000       15.9994           0
     44369 W2       14790    TIP3     H1       HT       0.417000       1.00800           0
     44370 W2       14790    TIP3     H2       HT       0.417000       1.00800           0
     44371 W2       14791    TIP3     OH2      OT      -0.834000       15.9994           0
     44372 W2       14791    TIP3     H1       HT       0.417000       1.00800           0
     44373 W2       14791    TIP3     H2       HT       0.417000       1.00800           0
     44374 W2       14792    TIP3     OH2      OT      -0.834000       15.9994           0
     44375 W2       14792    TIP3     H1       HT       0.417000       1.00800           0
     44376 W2       14792    TIP3     H2       HT       0.417000       1.00800           0
     44377 W2       14793    TIP3     OH2      OT      -0.834000       15.9994           0
     44378 W2       14793    TIP3     H1       HT       0.417000       1.00800           0
     44379 W2       14793    TIP3     H2       HT       0.417000       1.00800           0
     44380 W2       14794    TIP3     OH2      OT      -0.834000       15.9994           0
     44381 W2       14794    TIP3     H1       HT       0.417000       1.00800           0
     44382 W2       14794    TIP3     H2       HT       0.417000       1.00800           0
     44383 W2       14795    TIP3     OH2      OT      -0.834000       15.9994           0
     44384 W2       14795    TIP3     H1       HT       0.417000       1.00800           0
     44385 W2       14795    TIP3     H2       HT       0.417000       1.00800           0
     44386 W2       14796    TIP3     OH2      OT      -0.834000       15.9994           0
     44387 W2       14796    TIP3     H1       HT       0.417000       1.00800           0
     44388 W2       14796    TIP3     H2       HT       0.417000       1.00800           0
     44389 W2       14797    TIP3     OH2      OT      -0.834000       15.9994           0
     44390 W2       14797    TIP3     H1       HT       0.417000       1.00800           0
     44391 W2       14797    TIP3     H2       HT       0.417000       1.00800           0
     44392 W2       14798    TIP3     OH2      OT      -0.834000       15.9994           0
     44393 W2       14798    TIP3     H1       HT       0.417000       1.00800           0
     44394 W2       14798    TIP3     H2       HT       0.417000       1.00800           0
     44395 W2       14799    TIP3     OH2      OT      -0.834000       15.9994           0
     44396 W2       14799    TIP3     H1       HT       0.417000       1.00800           0
     44397 W2       14799    TIP3     H2       HT       0.417000       1.00800           0
     44398 W2       14800    TIP3     OH2      OT      -0.834000       15.9994           0
     44399 W2       14800    TIP3     H1       HT       0.417000       1.00800           0
     44400 W2       14800    TIP3     H2       HT       0.417000       1.00800           0
     44401 W2       14801    TIP3     OH2      OT      -0.834000       15.9994           0
     44402 W2       14801    TIP3     H1       HT       0.417000       1.00800           0
     44403 W2       14801    TIP3     H2       HT       0.417000       1.00800           0
     44404 W2       14802    TIP3     OH2      OT      -0.834000       15.9994           0
     44405 W2       14802    TIP3     H1       HT       0.417000       1.00800           0
     44406 W2       14802    TIP3     H2       HT       0.417000       1.00800           0
     44407 W2       14803    TIP3     OH2      OT      -0.834000       15.9994           0
     44408 W2       14803    TIP3     H1       HT       0.417000       1.00800           0
     44409 W2       14803    TIP3     H2       HT       0.417000       1.00800           0
     44410 W2       14804    TIP3     OH2      OT      -0.834000       15.9994           0
     44411 W2       14804    TIP3     H1       HT       0.417000       1.00800           0
     44412 W2       14804    TIP3     H2       HT       0.417000       1.00800           0
     44413 W2       14805    TIP3     OH2      OT      -0.834000       15.9994           0
     44414 W2       14805    TIP3     H1       HT       0.417000       1.00800           0
     44415 W2       14805    TIP3     H2       HT       0.417000       1.00800           0
     44416 W2       14806    TIP3     OH2      OT      -0.834000       15.9994           0
     44417 W2       14806    TIP3     H1       HT       0.417000       1.00800           0
     44418 W2       14806    TIP3     H2       HT       0.417000       1.00800           0
     44419 W2       14807    TIP3     OH2      OT      -0.834000       15.9994           0
     44420 W2       14807    TIP3     H1       HT       0.417000       1.00800           0
     44421 W2       14807    TIP3     H2       HT       0.417000       1.00800           0
     44422 W2       14808    TIP3     OH2      OT      -0.834000       15.9994           0
     44423 W2       14808    TIP3     H1       HT       0.417000       1.00800           0
     44424 W2       14808    TIP3     H2       HT       0.417000       1.00800           0
     44425 W2       14809    TIP3     OH2      OT      -0.834000       15.9994           0
     44426 W2       14809    TIP3     H1       HT       0.417000       1.00800           0
     44427 W2       14809    TIP3     H2       HT       0.417000       1.00800           0
     44428 W2       14810    TIP3     OH2      OT      -0.834000       15.9994           0
     44429 W2       14810    TIP3     H1       HT       0.417000       1.00800           0
     44430 W2       14810    TIP3     H2       HT       0.417000       1.00800           0
     44431 W2       14811    TIP3     OH2      OT      -0.834000       15.9994           0
     44432 W2       14811    TIP3     H1       HT       0.417000       1.00800           0
     44433 W2       14811    TIP3     H2       HT       0.417000       1.00800           0
     44434 W2       14812    TIP3     OH2      OT      -0.834000       15.9994           0
     44435 W2       14812    TIP3     H1       HT       0.417000       1.00800           0
     44436 W2       14812    TIP3     H2       HT       0.417000       1.00800           0
     44437 W2       14813    TIP3     OH2      OT      -0.834000       15.9994           0
     44438 W2       14813    TIP3     H1       HT       0.417000       1.00800           0
     44439 W2       14813    TIP3     H2       HT       0.417000       1.00800           0
     44440 W2       14814    TIP3     OH2      OT      -0.834000       15.9994           0
     44441 W2       14814    TIP3     H1       HT       0.417000       1.00800           0
     44442 W2       14814    TIP3     H2       HT       0.417000       1.00800           0
     44443 W2       14815    TIP3     OH2      OT      -0.834000       15.9994           0
     44444 W2       14815    TIP3     H1       HT       0.417000       1.00800           0
     44445 W2       14815    TIP3     H2       HT       0.417000       1.00800           0
     44446 W2       14816    TIP3     OH2      OT      -0.834000       15.9994           0
     44447 W2       14816    TIP3     H1       HT       0.417000       1.00800           0
     44448 W2       14816    TIP3     H2       HT       0.417000       1.00800           0
     44449 W2       14817    TIP3     OH2      OT      -0.834000       15.9994           0
     44450 W2       14817    TIP3     H1       HT       0.417000       1.00800           0
     44451 W2       14817    TIP3     H2       HT       0.417000       1.00800           0
     44452 W2       14818    TIP3     OH2      OT      -0.834000       15.9994           0
     44453 W2       14818    TIP3     H1       HT       0.417000       1.00800           0
     44454 W2       14818    TIP3     H2       HT       0.417000       1.00800           0
     44455 W2       14819    TIP3     OH2      OT      -0.834000       15.9994           0
     44456 W2       14819    TIP3     H1       HT       0.417000       1.00800           0
     44457 W2       14819    TIP3     H2       HT       0.417000       1.00800           0
     44458 W2       14820    TIP3     OH2      OT      -0.834000       15.9994           0
     44459 W2       14820    TIP3     H1       HT       0.417000       1.00800           0
     44460 W2       14820    TIP3     H2       HT       0.417000       1.00800           0
     44461 W2       14821    TIP3     OH2      OT      -0.834000       15.9994           0
     44462 W2       14821    TIP3     H1       HT       0.417000       1.00800           0
     44463 W2       14821    TIP3     H2       HT       0.417000       1.00800           0
     44464 W2       14822    TIP3     OH2      OT      -0.834000       15.9994           0
     44465 W2       14822    TIP3     H1       HT       0.417000       1.00800           0
     44466 W2       14822    TIP3     H2       HT       0.417000       1.00800           0
     44467 W2       14823    TIP3     OH2      OT      -0.834000       15.9994           0
     44468 W2       14823    TIP3     H1       HT       0.417000       1.00800           0
     44469 W2       14823    TIP3     H2       HT       0.417000       1.00800           0
     44470 W2       14824    TIP3     OH2      OT      -0.834000       15.9994           0
     44471 W2       14824    TIP3     H1       HT       0.417000       1.00800           0
     44472 W2       14824    TIP3     H2       HT       0.417000       1.00800           0
     44473 W2       14825    TIP3     OH2      OT      -0.834000       15.9994           0
     44474 W2       14825    TIP3     H1       HT       0.417000       1.00800           0
     44475 W2       14825    TIP3     H2       HT       0.417000       1.00800           0
     44476 W2       14826    TIP3     OH2      OT      -0.834000       15.9994           0
     44477 W2       14826    TIP3     H1       HT       0.417000       1.00800           0
     44478 W2       14826    TIP3     H2       HT       0.417000       1.00800           0
     44479 W2       14827    TIP3     OH2      OT      -0.834000       15.9994           0
     44480 W2       14827    TIP3     H1       HT       0.417000       1.00800           0
     44481 W2       14827    TIP3     H2       HT       0.417000       1.00800           0
     44482 W2       14828    TIP3     OH2      OT      -0.834000       15.9994           0
     44483 W2       14828    TIP3     H1       HT       0.417000       1.00800           0
     44484 W2       14828    TIP3     H2       HT       0.417000       1.00800           0
     44485 W2       14829    TIP3     OH2      OT      -0.834000       15.9994           0
     44486 W2       14829    TIP3     H1       HT       0.417000       1.00800           0
     44487 W2       14829    TIP3     H2       HT       0.417000       1.00800           0
     44488 W2       14830    TIP3     OH2      OT      -0.834000       15.9994           0
     44489 W2       14830    TIP3     H1       HT       0.417000       1.00800           0
     44490 W2       14830    TIP3     H2       HT       0.417000       1.00800           0
     44491 W2       14831    TIP3     OH2      OT      -0.834000       15.9994           0
     44492 W2       14831    TIP3     H1       HT       0.417000       1.00800           0
     44493 W2       14831    TIP3     H2       HT       0.417000       1.00800           0
     44494 W2       14832    TIP3     OH2      OT      -0.834000       15.9994           0
     44495 W2       14832    TIP3     H1       HT       0.417000       1.00800           0
     44496 W2       14832    TIP3     H2       HT       0.417000       1.00800           0
     44497 W2       14833    TIP3     OH2      OT      -0.834000       15.9994           0
     44498 W2       14833    TIP3     H1       HT       0.417000       1.00800           0
     44499 W2       14833    TIP3     H2       HT       0.417000       1.00800           0
     44500 W2       14834    TIP3     OH2      OT      -0.834000       15.9994           0
     44501 W2       14834    TIP3     H1       HT       0.417000       1.00800           0
     44502 W2       14834    TIP3     H2       HT       0.417000       1.00800           0
     44503 W2       14835    TIP3     OH2      OT      -0.834000       15.9994           0
     44504 W2       14835    TIP3     H1       HT       0.417000       1.00800           0
     44505 W2       14835    TIP3     H2       HT       0.417000       1.00800           0
     44506 W2       14836    TIP3     OH2      OT      -0.834000       15.9994           0
     44507 W2       14836    TIP3     H1       HT       0.417000       1.00800           0
     44508 W2       14836    TIP3     H2       HT       0.417000       1.00800           0
     44509 W2       14837    TIP3     OH2      OT      -0.834000       15.9994           0
     44510 W2       14837    TIP3     H1       HT       0.417000       1.00800           0
     44511 W2       14837    TIP3     H2       HT       0.417000       1.00800           0
     44512 W2       14838    TIP3     OH2      OT      -0.834000       15.9994           0
     44513 W2       14838    TIP3     H1       HT       0.417000       1.00800           0
     44514 W2       14838    TIP3     H2       HT       0.417000       1.00800           0
     44515 W2       14839    TIP3     OH2      OT      -0.834000       15.9994           0
     44516 W2       14839    TIP3     H1       HT       0.417000       1.00800           0
     44517 W2       14839    TIP3     H2       HT       0.417000       1.00800           0
     44518 W2       14840    TIP3     OH2      OT      -0.834000       15.9994           0
     44519 W2       14840    TIP3     H1       HT       0.417000       1.00800           0
     44520 W2       14840    TIP3     H2       HT       0.417000       1.00800           0
     44521 W2       14841    TIP3     OH2      OT      -0.834000       15.9994           0
     44522 W2       14841    TIP3     H1       HT       0.417000       1.00800           0
     44523 W2       14841    TIP3     H2       HT       0.417000       1.00800           0
     44524 W2       14842    TIP3     OH2      OT      -0.834000       15.9994           0
     44525 W2       14842    TIP3     H1       HT       0.417000       1.00800           0
     44526 W2       14842    TIP3     H2       HT       0.417000       1.00800           0
     44527 W2       14843    TIP3     OH2      OT      -0.834000       15.9994           0
     44528 W2       14843    TIP3     H1       HT       0.417000       1.00800           0
     44529 W2       14843    TIP3     H2       HT       0.417000       1.00800           0
     44530 W2       14844    TIP3     OH2      OT      -0.834000       15.9994           0
     44531 W2       14844    TIP3     H1       HT       0.417000       1.00800           0
     44532 W2       14844    TIP3     H2       HT       0.417000       1.00800           0
     44533 W2       14845    TIP3     OH2      OT      -0.834000       15.9994           0
     44534 W2       14845    TIP3     H1       HT       0.417000       1.00800           0
     44535 W2       14845    TIP3     H2       HT       0.417000       1.00800           0
     44536 W2       14846    TIP3     OH2      OT      -0.834000       15.9994           0
     44537 W2       14846    TIP3     H1       HT       0.417000       1.00800           0
     44538 W2       14846    TIP3     H2       HT       0.417000       1.00800           0
     44539 W2       14847    TIP3     OH2      OT      -0.834000       15.9994           0
     44540 W2       14847    TIP3     H1       HT       0.417000       1.00800           0
     44541 W2       14847    TIP3     H2       HT       0.417000       1.00800           0
     44542 W2       14848    TIP3     OH2      OT      -0.834000       15.9994           0
     44543 W2       14848    TIP3     H1       HT       0.417000       1.00800           0
     44544 W2       14848    TIP3     H2       HT       0.417000       1.00800           0
     44545 W2       14849    TIP3     OH2      OT      -0.834000       15.9994           0
     44546 W2       14849    TIP3     H1       HT       0.417000       1.00800           0
     44547 W2       14849    TIP3     H2       HT       0.417000       1.00800           0
     44548 W2       14850    TIP3     OH2      OT      -0.834000       15.9994           0
     44549 W2       14850    TIP3     H1       HT       0.417000       1.00800           0
     44550 W2       14850    TIP3     H2       HT       0.417000       1.00800           0
     44551 W2       14851    TIP3     OH2      OT      -0.834000       15.9994           0
     44552 W2       14851    TIP3     H1       HT       0.417000       1.00800           0
     44553 W2       14851    TIP3     H2       HT       0.417000       1.00800           0
     44554 W2       14852    TIP3     OH2      OT      -0.834000       15.9994           0
     44555 W2       14852    TIP3     H1       HT       0.417000       1.00800           0
     44556 W2       14852    TIP3     H2       HT       0.417000       1.00800           0
     44557 W2       14853    TIP3     OH2      OT      -0.834000       15.9994           0
     44558 W2       14853    TIP3     H1       HT       0.417000       1.00800           0
     44559 W2       14853    TIP3     H2       HT       0.417000       1.00800           0
     44560 W2       14854    TIP3     OH2      OT      -0.834000       15.9994           0
     44561 W2       14854    TIP3     H1       HT       0.417000       1.00800           0
     44562 W2       14854    TIP3     H2       HT       0.417000       1.00800           0
     44563 W2       14855    TIP3     OH2      OT      -0.834000       15.9994           0
     44564 W2       14855    TIP3     H1       HT       0.417000       1.00800           0
     44565 W2       14855    TIP3     H2       HT       0.417000       1.00800           0
     44566 W2       14856    TIP3     OH2      OT      -0.834000       15.9994           0
     44567 W2       14856    TIP3     H1       HT       0.417000       1.00800           0
     44568 W2       14856    TIP3     H2       HT       0.417000       1.00800           0
     44569 W2       14857    TIP3     OH2      OT      -0.834000       15.9994           0
     44570 W2       14857    TIP3     H1       HT       0.417000       1.00800           0
     44571 W2       14857    TIP3     H2       HT       0.417000       1.00800           0
     44572 W2       14858    TIP3     OH2      OT      -0.834000       15.9994           0
     44573 W2       14858    TIP3     H1       HT       0.417000       1.00800           0
     44574 W2       14858    TIP3     H2       HT       0.417000       1.00800           0
     44575 W2       14859    TIP3     OH2      OT      -0.834000       15.9994           0
     44576 W2       14859    TIP3     H1       HT       0.417000       1.00800           0
     44577 W2       14859    TIP3     H2       HT       0.417000       1.00800           0
     44578 W2       14860    TIP3     OH2      OT      -0.834000       15.9994           0
     44579 W2       14860    TIP3     H1       HT       0.417000       1.00800           0
     44580 W2       14860    TIP3     H2       HT       0.417000       1.00800           0
     44581 W2       14861    TIP3     OH2      OT      -0.834000       15.9994           0
     44582 W2       14861    TIP3     H1       HT       0.417000       1.00800           0
     44583 W2       14861    TIP3     H2       HT       0.417000       1.00800           0
     44584 W2       14862    TIP3     OH2      OT      -0.834000       15.9994           0
     44585 W2       14862    TIP3     H1       HT       0.417000       1.00800           0
     44586 W2       14862    TIP3     H2       HT       0.417000       1.00800           0
     44587 W2       14863    TIP3     OH2      OT      -0.834000       15.9994           0
     44588 W2       14863    TIP3     H1       HT       0.417000       1.00800           0
     44589 W2       14863    TIP3     H2       HT       0.417000       1.00800           0
     44590 W2       14864    TIP3     OH2      OT      -0.834000       15.9994           0
     44591 W2       14864    TIP3     H1       HT       0.417000       1.00800           0
     44592 W2       14864    TIP3     H2       HT       0.417000       1.00800           0
     44593 W2       14865    TIP3     OH2      OT      -0.834000       15.9994           0
     44594 W2       14865    TIP3     H1       HT       0.417000       1.00800           0
     44595 W2       14865    TIP3     H2       HT       0.417000       1.00800           0
     44596 W2       14866    TIP3     OH2      OT      -0.834000       15.9994           0
     44597 W2       14866    TIP3     H1       HT       0.417000       1.00800           0
     44598 W2       14866    TIP3     H2       HT       0.417000       1.00800           0
     44599 W2       14867    TIP3     OH2      OT      -0.834000       15.9994           0
     44600 W2       14867    TIP3     H1       HT       0.417000       1.00800           0
     44601 W2       14867    TIP3     H2       HT       0.417000       1.00800           0
     44602 W2       14868    TIP3     OH2      OT      -0.834000       15.9994           0
     44603 W2       14868    TIP3     H1       HT       0.417000       1.00800           0
     44604 W2       14868    TIP3     H2       HT       0.417000       1.00800           0
     44605 W2       14869    TIP3     OH2      OT      -0.834000       15.9994           0
     44606 W2       14869    TIP3     H1       HT       0.417000       1.00800           0
     44607 W2       14869    TIP3     H2       HT       0.417000       1.00800           0
     44608 W2       14870    TIP3     OH2      OT      -0.834000       15.9994           0
     44609 W2       14870    TIP3     H1       HT       0.417000       1.00800           0
     44610 W2       14870    TIP3     H2       HT       0.417000       1.00800           0
     44611 W2       14871    TIP3     OH2      OT      -0.834000       15.9994           0
     44612 W2       14871    TIP3     H1       HT       0.417000       1.00800           0
     44613 W2       14871    TIP3     H2       HT       0.417000       1.00800           0
     44614 W2       14872    TIP3     OH2      OT      -0.834000       15.9994           0
     44615 W2       14872    TIP3     H1       HT       0.417000       1.00800           0
     44616 W2       14872    TIP3     H2       HT       0.417000       1.00800           0
     44617 W2       14873    TIP3     OH2      OT      -0.834000       15.9994           0
     44618 W2       14873    TIP3     H1       HT       0.417000       1.00800           0
     44619 W2       14873    TIP3     H2       HT       0.417000       1.00800           0
     44620 W2       14874    TIP3     OH2      OT      -0.834000       15.9994           0
     44621 W2       14874    TIP3     H1       HT       0.417000       1.00800           0
     44622 W2       14874    TIP3     H2       HT       0.417000       1.00800           0
     44623 W2       14875    TIP3     OH2      OT      -0.834000       15.9994           0
     44624 W2       14875    TIP3     H1       HT       0.417000       1.00800           0
     44625 W2       14875    TIP3     H2       HT       0.417000       1.00800           0
     44626 W2       14876    TIP3     OH2      OT      -0.834000       15.9994           0
     44627 W2       14876    TIP3     H1       HT       0.417000       1.00800           0
     44628 W2       14876    TIP3     H2       HT       0.417000       1.00800           0
     44629 W2       14877    TIP3     OH2      OT      -0.834000       15.9994           0
     44630 W2       14877    TIP3     H1       HT       0.417000       1.00800           0
     44631 W2       14877    TIP3     H2       HT       0.417000       1.00800           0
     44632 W2       14878    TIP3     OH2      OT      -0.834000       15.9994           0
     44633 W2       14878    TIP3     H1       HT       0.417000       1.00800           0
     44634 W2       14878    TIP3     H2       HT       0.417000       1.00800           0
     44635 W2       14879    TIP3     OH2      OT      -0.834000       15.9994           0
     44636 W2       14879    TIP3     H1       HT       0.417000       1.00800           0
     44637 W2       14879    TIP3     H2       HT       0.417000       1.00800           0
     44638 W2       14880    TIP3     OH2      OT      -0.834000       15.9994           0
     44639 W2       14880    TIP3     H1       HT       0.417000       1.00800           0
     44640 W2       14880    TIP3     H2       HT       0.417000       1.00800           0
     44641 W2       14881    TIP3     OH2      OT      -0.834000       15.9994           0
     44642 W2       14881    TIP3     H1       HT       0.417000       1.00800           0
     44643 W2       14881    TIP3     H2       HT       0.417000       1.00800           0
     44644 W2       14882    TIP3     OH2      OT      -0.834000       15.9994           0
     44645 W2       14882    TIP3     H1       HT       0.417000       1.00800           0
     44646 W2       14882    TIP3     H2       HT       0.417000       1.00800           0
     44647 W2       14883    TIP3     OH2      OT      -0.834000       15.9994           0
     44648 W2       14883    TIP3     H1       HT       0.417000       1.00800           0
     44649 W2       14883    TIP3     H2       HT       0.417000       1.00800           0
     44650 W2       14884    TIP3     OH2      OT      -0.834000       15.9994           0
     44651 W2       14884    TIP3     H1       HT       0.417000       1.00800           0
     44652 W2       14884    TIP3     H2       HT       0.417000       1.00800           0
     44653 W2       14885    TIP3     OH2      OT      -0.834000       15.9994           0
     44654 W2       14885    TIP3     H1       HT       0.417000       1.00800           0
     44655 W2       14885    TIP3     H2       HT       0.417000       1.00800           0
     44656 W2       14886    TIP3     OH2      OT      -0.834000       15.9994           0
     44657 W2       14886    TIP3     H1       HT       0.417000       1.00800           0
     44658 W2       14886    TIP3     H2       HT       0.417000       1.00800           0
     44659 W2       14887    TIP3     OH2      OT      -0.834000       15.9994           0
     44660 W2       14887    TIP3     H1       HT       0.417000       1.00800           0
     44661 W2       14887    TIP3     H2       HT       0.417000       1.00800           0
     44662 W2       14888    TIP3     OH2      OT      -0.834000       15.9994           0
     44663 W2       14888    TIP3     H1       HT       0.417000       1.00800           0
     44664 W2       14888    TIP3     H2       HT       0.417000       1.00800           0
     44665 W2       14889    TIP3     OH2      OT      -0.834000       15.9994           0
     44666 W2       14889    TIP3     H1       HT       0.417000       1.00800           0
     44667 W2       14889    TIP3     H2       HT       0.417000       1.00800           0
     44668 W2       14890    TIP3     OH2      OT      -0.834000       15.9994           0
     44669 W2       14890    TIP3     H1       HT       0.417000       1.00800           0
     44670 W2       14890    TIP3     H2       HT       0.417000       1.00800           0
     44671 W2       14891    TIP3     OH2      OT      -0.834000       15.9994           0
     44672 W2       14891    TIP3     H1       HT       0.417000       1.00800           0
     44673 W2       14891    TIP3     H2       HT       0.417000       1.00800           0
     44674 W2       14892    TIP3     OH2      OT      -0.834000       15.9994           0
     44675 W2       14892    TIP3     H1       HT       0.417000       1.00800           0
     44676 W2       14892    TIP3     H2       HT       0.417000       1.00800           0
     44677 W2       14893    TIP3     OH2      OT      -0.834000       15.9994           0
     44678 W2       14893    TIP3     H1       HT       0.417000       1.00800           0
     44679 W2       14893    TIP3     H2       HT       0.417000       1.00800           0
     44680 W2       14894    TIP3     OH2      OT      -0.834000       15.9994           0
     44681 W2       14894    TIP3     H1       HT       0.417000       1.00800           0
     44682 W2       14894    TIP3     H2       HT       0.417000       1.00800           0
     44683 W2       14895    TIP3     OH2      OT      -0.834000       15.9994           0
     44684 W2       14895    TIP3     H1       HT       0.417000       1.00800           0
     44685 W2       14895    TIP3     H2       HT       0.417000       1.00800           0
     44686 W2       14896    TIP3     OH2      OT      -0.834000       15.9994           0
     44687 W2       14896    TIP3     H1       HT       0.417000       1.00800           0
     44688 W2       14896    TIP3     H2       HT       0.417000       1.00800           0
     44689 W2       14897    TIP3     OH2      OT      -0.834000       15.9994           0
     44690 W2       14897    TIP3     H1       HT       0.417000       1.00800           0
     44691 W2       14897    TIP3     H2       HT       0.417000       1.00800           0
     44692 W2       14898    TIP3     OH2      OT      -0.834000       15.9994           0
     44693 W2       14898    TIP3     H1       HT       0.417000       1.00800           0
     44694 W2       14898    TIP3     H2       HT       0.417000       1.00800           0
     44695 W2       14899    TIP3     OH2      OT      -0.834000       15.9994           0
     44696 W2       14899    TIP3     H1       HT       0.417000       1.00800           0
     44697 W2       14899    TIP3     H2       HT       0.417000       1.00800           0
     44698 W2       14900    TIP3     OH2      OT      -0.834000       15.9994           0
     44699 W2       14900    TIP3     H1       HT       0.417000       1.00800           0
     44700 W2       14900    TIP3     H2       HT       0.417000       1.00800           0
     44701 W2       14901    TIP3     OH2      OT      -0.834000       15.9994           0
     44702 W2       14901    TIP3     H1       HT       0.417000       1.00800           0
     44703 W2       14901    TIP3     H2       HT       0.417000       1.00800           0
     44704 W2       14902    TIP3     OH2      OT      -0.834000       15.9994           0
     44705 W2       14902    TIP3     H1       HT       0.417000       1.00800           0
     44706 W2       14902    TIP3     H2       HT       0.417000       1.00800           0
     44707 W2       14903    TIP3     OH2      OT      -0.834000       15.9994           0
     44708 W2       14903    TIP3     H1       HT       0.417000       1.00800           0
     44709 W2       14903    TIP3     H2       HT       0.417000       1.00800           0
     44710 W2       14904    TIP3     OH2      OT      -0.834000       15.9994           0
     44711 W2       14904    TIP3     H1       HT       0.417000       1.00800           0
     44712 W2       14904    TIP3     H2       HT       0.417000       1.00800           0
     44713 W2       14905    TIP3     OH2      OT      -0.834000       15.9994           0
     44714 W2       14905    TIP3     H1       HT       0.417000       1.00800           0
     44715 W2       14905    TIP3     H2       HT       0.417000       1.00800           0
     44716 W2       14906    TIP3     OH2      OT      -0.834000       15.9994           0
     44717 W2       14906    TIP3     H1       HT       0.417000       1.00800           0
     44718 W2       14906    TIP3     H2       HT       0.417000       1.00800           0
     44719 W2       14907    TIP3     OH2      OT      -0.834000       15.9994           0
     44720 W2       14907    TIP3     H1       HT       0.417000       1.00800           0
     44721 W2       14907    TIP3     H2       HT       0.417000       1.00800           0
     44722 W2       14908    TIP3     OH2      OT      -0.834000       15.9994           0
     44723 W2       14908    TIP3     H1       HT       0.417000       1.00800           0
     44724 W2       14908    TIP3     H2       HT       0.417000       1.00800           0
     44725 W2       14909    TIP3     OH2      OT      -0.834000       15.9994           0
     44726 W2       14909    TIP3     H1       HT       0.417000       1.00800           0
     44727 W2       14909    TIP3     H2       HT       0.417000       1.00800           0
     44728 W2       14910    TIP3     OH2      OT      -0.834000       15.9994           0
     44729 W2       14910    TIP3     H1       HT       0.417000       1.00800           0
     44730 W2       14910    TIP3     H2       HT       0.417000       1.00800           0
     44731 W2       14911    TIP3     OH2      OT      -0.834000       15.9994           0
     44732 W2       14911    TIP3     H1       HT       0.417000       1.00800           0
     44733 W2       14911    TIP3     H2       HT       0.417000       1.00800           0
     44734 W2       14912    TIP3     OH2      OT      -0.834000       15.9994           0
     44735 W2       14912    TIP3     H1       HT       0.417000       1.00800           0
     44736 W2       14912    TIP3     H2       HT       0.417000       1.00800           0
     44737 W2       14913    TIP3     OH2      OT      -0.834000       15.9994           0
     44738 W2       14913    TIP3     H1       HT       0.417000       1.00800           0
     44739 W2       14913    TIP3     H2       HT       0.417000       1.00800           0
     44740 W2       14914    TIP3     OH2      OT      -0.834000       15.9994           0
     44741 W2       14914    TIP3     H1       HT       0.417000       1.00800           0
     44742 W2       14914    TIP3     H2       HT       0.417000       1.00800           0
     44743 W2       14915    TIP3     OH2      OT      -0.834000       15.9994           0
     44744 W2       14915    TIP3     H1       HT       0.417000       1.00800           0
     44745 W2       14915    TIP3     H2       HT       0.417000       1.00800           0
     44746 W2       14916    TIP3     OH2      OT      -0.834000       15.9994           0
     44747 W2       14916    TIP3     H1       HT       0.417000       1.00800           0
     44748 W2       14916    TIP3     H2       HT       0.417000       1.00800           0
     44749 W2       14917    TIP3     OH2      OT      -0.834000       15.9994           0
     44750 W2       14917    TIP3     H1       HT       0.417000       1.00800           0
     44751 W2       14917    TIP3     H2       HT       0.417000       1.00800           0
     44752 W2       14918    TIP3     OH2      OT      -0.834000       15.9994           0
     44753 W2       14918    TIP3     H1       HT       0.417000       1.00800           0
     44754 W2       14918    TIP3     H2       HT       0.417000       1.00800           0
     44755 W2       14919    TIP3     OH2      OT      -0.834000       15.9994           0
     44756 W2       14919    TIP3     H1       HT       0.417000       1.00800           0
     44757 W2       14919    TIP3     H2       HT       0.417000       1.00800           0
     44758 W2       14920    TIP3     OH2      OT      -0.834000       15.9994           0
     44759 W2       14920    TIP3     H1       HT       0.417000       1.00800           0
     44760 W2       14920    TIP3     H2       HT       0.417000       1.00800           0
     44761 W2       14921    TIP3     OH2      OT      -0.834000       15.9994           0
     44762 W2       14921    TIP3     H1       HT       0.417000       1.00800           0
     44763 W2       14921    TIP3     H2       HT       0.417000       1.00800           0
     44764 W2       14922    TIP3     OH2      OT      -0.834000       15.9994           0
     44765 W2       14922    TIP3     H1       HT       0.417000       1.00800           0
     44766 W2       14922    TIP3     H2       HT       0.417000       1.00800           0
     44767 W2       14923    TIP3     OH2      OT      -0.834000       15.9994           0
     44768 W2       14923    TIP3     H1       HT       0.417000       1.00800           0
     44769 W2       14923    TIP3     H2       HT       0.417000       1.00800           0
     44770 W2       14924    TIP3     OH2      OT      -0.834000       15.9994           0
     44771 W2       14924    TIP3     H1       HT       0.417000       1.00800           0
     44772 W2       14924    TIP3     H2       HT       0.417000       1.00800           0
     44773 W2       14925    TIP3     OH2      OT      -0.834000       15.9994           0
     44774 W2       14925    TIP3     H1       HT       0.417000       1.00800           0
     44775 W2       14925    TIP3     H2       HT       0.417000       1.00800           0
     44776 W2       14926    TIP3     OH2      OT      -0.834000       15.9994           0
     44777 W2       14926    TIP3     H1       HT       0.417000       1.00800           0
     44778 W2       14926    TIP3     H2       HT       0.417000       1.00800           0
     44779 W2       14927    TIP3     OH2      OT      -0.834000       15.9994           0
     44780 W2       14927    TIP3     H1       HT       0.417000       1.00800           0
     44781 W2       14927    TIP3     H2       HT       0.417000       1.00800           0
     44782 W2       14928    TIP3     OH2      OT      -0.834000       15.9994           0
     44783 W2       14928    TIP3     H1       HT       0.417000       1.00800           0
     44784 W2       14928    TIP3     H2       HT       0.417000       1.00800           0
     44785 W2       14929    TIP3     OH2      OT      -0.834000       15.9994           0
     44786 W2       14929    TIP3     H1       HT       0.417000       1.00800           0
     44787 W2       14929    TIP3     H2       HT       0.417000       1.00800           0
     44788 W2       14930    TIP3     OH2      OT      -0.834000       15.9994           0
     44789 W2       14930    TIP3     H1       HT       0.417000       1.00800           0
     44790 W2       14930    TIP3     H2       HT       0.417000       1.00800           0
     44791 W2       14931    TIP3     OH2      OT      -0.834000       15.9994           0
     44792 W2       14931    TIP3     H1       HT       0.417000       1.00800           0
     44793 W2       14931    TIP3     H2       HT       0.417000       1.00800           0
     44794 W2       14932    TIP3     OH2      OT      -0.834000       15.9994           0
     44795 W2       14932    TIP3     H1       HT       0.417000       1.00800           0
     44796 W2       14932    TIP3     H2       HT       0.417000       1.00800           0
     44797 W2       14933    TIP3     OH2      OT      -0.834000       15.9994           0
     44798 W2       14933    TIP3     H1       HT       0.417000       1.00800           0
     44799 W2       14933    TIP3     H2       HT       0.417000       1.00800           0
     44800 W2       14934    TIP3     OH2      OT      -0.834000       15.9994           0
     44801 W2       14934    TIP3     H1       HT       0.417000       1.00800           0
     44802 W2       14934    TIP3     H2       HT       0.417000       1.00800           0
     44803 W2       14935    TIP3     OH2      OT      -0.834000       15.9994           0
     44804 W2       14935    TIP3     H1       HT       0.417000       1.00800           0
     44805 W2       14935    TIP3     H2       HT       0.417000       1.00800           0
     44806 W2       14936    TIP3     OH2      OT      -0.834000       15.9994           0
     44807 W2       14936    TIP3     H1       HT       0.417000       1.00800           0
     44808 W2       14936    TIP3     H2       HT       0.417000       1.00800           0
     44809 W2       14937    TIP3     OH2      OT      -0.834000       15.9994           0
     44810 W2       14937    TIP3     H1       HT       0.417000       1.00800           0
     44811 W2       14937    TIP3     H2       HT       0.417000       1.00800           0
     44812 W2       14938    TIP3     OH2      OT      -0.834000       15.9994           0
     44813 W2       14938    TIP3     H1       HT       0.417000       1.00800           0
     44814 W2       14938    TIP3     H2       HT       0.417000       1.00800           0
     44815 W2       14939    TIP3     OH2      OT      -0.834000       15.9994           0
     44816 W2       14939    TIP3     H1       HT       0.417000       1.00800           0
     44817 W2       14939    TIP3     H2       HT       0.417000       1.00800           0
     44818 W2       14940    TIP3     OH2      OT      -0.834000       15.9994           0
     44819 W2       14940    TIP3     H1       HT       0.417000       1.00800           0
     44820 W2       14940    TIP3     H2       HT       0.417000       1.00800           0
     44821 W2       14941    TIP3     OH2      OT      -0.834000       15.9994           0
     44822 W2       14941    TIP3     H1       HT       0.417000       1.00800           0
     44823 W2       14941    TIP3     H2       HT       0.417000       1.00800           0
     44824 W2       14942    TIP3     OH2      OT      -0.834000       15.9994           0
     44825 W2       14942    TIP3     H1       HT       0.417000       1.00800           0
     44826 W2       14942    TIP3     H2       HT       0.417000       1.00800           0
     44827 W2       14943    TIP3     OH2      OT      -0.834000       15.9994           0
     44828 W2       14943    TIP3     H1       HT       0.417000       1.00800           0
     44829 W2       14943    TIP3     H2       HT       0.417000       1.00800           0
     44830 W2       14944    TIP3     OH2      OT      -0.834000       15.9994           0
     44831 W2       14944    TIP3     H1       HT       0.417000       1.00800           0
     44832 W2       14944    TIP3     H2       HT       0.417000       1.00800           0
     44833 W2       14945    TIP3     OH2      OT      -0.834000       15.9994           0
     44834 W2       14945    TIP3     H1       HT       0.417000       1.00800           0
     44835 W2       14945    TIP3     H2       HT       0.417000       1.00800           0
     44836 W2       14946    TIP3     OH2      OT      -0.834000       15.9994           0
     44837 W2       14946    TIP3     H1       HT       0.417000       1.00800           0
     44838 W2       14946    TIP3     H2       HT       0.417000       1.00800           0
     44839 W2       14947    TIP3     OH2      OT      -0.834000       15.9994           0
     44840 W2       14947    TIP3     H1       HT       0.417000       1.00800           0
     44841 W2       14947    TIP3     H2       HT       0.417000       1.00800           0
     44842 W2       14948    TIP3     OH2      OT      -0.834000       15.9994           0
     44843 W2       14948    TIP3     H1       HT       0.417000       1.00800           0
     44844 W2       14948    TIP3     H2       HT       0.417000       1.00800           0
     44845 W2       14949    TIP3     OH2      OT      -0.834000       15.9994           0
     44846 W2       14949    TIP3     H1       HT       0.417000       1.00800           0
     44847 W2       14949    TIP3     H2       HT       0.417000       1.00800           0
     44848 W2       14950    TIP3     OH2      OT      -0.834000       15.9994           0
     44849 W2       14950    TIP3     H1       HT       0.417000       1.00800           0
     44850 W2       14950    TIP3     H2       HT       0.417000       1.00800           0
     44851 W2       14951    TIP3     OH2      OT      -0.834000       15.9994           0
     44852 W2       14951    TIP3     H1       HT       0.417000       1.00800           0
     44853 W2       14951    TIP3     H2       HT       0.417000       1.00800           0
     44854 W2       14952    TIP3     OH2      OT      -0.834000       15.9994           0
     44855 W2       14952    TIP3     H1       HT       0.417000       1.00800           0
     44856 W2       14952    TIP3     H2       HT       0.417000       1.00800           0
     44857 W2       14953    TIP3     OH2      OT      -0.834000       15.9994           0
     44858 W2       14953    TIP3     H1       HT       0.417000       1.00800           0
     44859 W2       14953    TIP3     H2       HT       0.417000       1.00800           0
     44860 W2       14954    TIP3     OH2      OT      -0.834000       15.9994           0
     44861 W2       14954    TIP3     H1       HT       0.417000       1.00800           0
     44862 W2       14954    TIP3     H2       HT       0.417000       1.00800           0
     44863 W2       14955    TIP3     OH2      OT      -0.834000       15.9994           0
     44864 W2       14955    TIP3     H1       HT       0.417000       1.00800           0
     44865 W2       14955    TIP3     H2       HT       0.417000       1.00800           0
     44866 W2       14956    TIP3     OH2      OT      -0.834000       15.9994           0
     44867 W2       14956    TIP3     H1       HT       0.417000       1.00800           0
     44868 W2       14956    TIP3     H2       HT       0.417000       1.00800           0
     44869 W2       14957    TIP3     OH2      OT      -0.834000       15.9994           0
     44870 W2       14957    TIP3     H1       HT       0.417000       1.00800           0
     44871 W2       14957    TIP3     H2       HT       0.417000       1.00800           0
     44872 W2       14958    TIP3     OH2      OT      -0.834000       15.9994           0
     44873 W2       14958    TIP3     H1       HT       0.417000       1.00800           0
     44874 W2       14958    TIP3     H2       HT       0.417000       1.00800           0
     44875 W2       14959    TIP3     OH2      OT      -0.834000       15.9994           0
     44876 W2       14959    TIP3     H1       HT       0.417000       1.00800           0
     44877 W2       14959    TIP3     H2       HT       0.417000       1.00800           0
     44878 W2       14960    TIP3     OH2      OT      -0.834000       15.9994           0
     44879 W2       14960    TIP3     H1       HT       0.417000       1.00800           0
     44880 W2       14960    TIP3     H2       HT       0.417000       1.00800           0
     44881 W2       14961    TIP3     OH2      OT      -0.834000       15.9994           0
     44882 W2       14961    TIP3     H1       HT       0.417000       1.00800           0
     44883 W2       14961    TIP3     H2       HT       0.417000       1.00800           0
     44884 W2       14962    TIP3     OH2      OT      -0.834000       15.9994           0
     44885 W2       14962    TIP3     H1       HT       0.417000       1.00800           0
     44886 W2       14962    TIP3     H2       HT       0.417000       1.00800           0
     44887 W2       14963    TIP3     OH2      OT      -0.834000       15.9994           0
     44888 W2       14963    TIP3     H1       HT       0.417000       1.00800           0
     44889 W2       14963    TIP3     H2       HT       0.417000       1.00800           0
     44890 W2       14964    TIP3     OH2      OT      -0.834000       15.9994           0
     44891 W2       14964    TIP3     H1       HT       0.417000       1.00800           0
     44892 W2       14964    TIP3     H2       HT       0.417000       1.00800           0
     44893 W2       14965    TIP3     OH2      OT      -0.834000       15.9994           0
     44894 W2       14965    TIP3     H1       HT       0.417000       1.00800           0
     44895 W2       14965    TIP3     H2       HT       0.417000       1.00800           0
     44896 W2       14966    TIP3     OH2      OT      -0.834000       15.9994           0
     44897 W2       14966    TIP3     H1       HT       0.417000       1.00800           0
     44898 W2       14966    TIP3     H2       HT       0.417000       1.00800           0
     44899 W2       14967    TIP3     OH2      OT      -0.834000       15.9994           0
     44900 W2       14967    TIP3     H1       HT       0.417000       1.00800           0
     44901 W2       14967    TIP3     H2       HT       0.417000       1.00800           0
     44902 W2       14968    TIP3     OH2      OT      -0.834000       15.9994           0
     44903 W2       14968    TIP3     H1       HT       0.417000       1.00800           0
     44904 W2       14968    TIP3     H2       HT       0.417000       1.00800           0
     44905 W2       14969    TIP3     OH2      OT      -0.834000       15.9994           0
     44906 W2       14969    TIP3     H1       HT       0.417000       1.00800           0
     44907 W2       14969    TIP3     H2       HT       0.417000       1.00800           0
     44908 W2       14970    TIP3     OH2      OT      -0.834000       15.9994           0
     44909 W2       14970    TIP3     H1       HT       0.417000       1.00800           0
     44910 W2       14970    TIP3     H2       HT       0.417000       1.00800           0
     44911 W2       14971    TIP3     OH2      OT      -0.834000       15.9994           0
     44912 W2       14971    TIP3     H1       HT       0.417000       1.00800           0
     44913 W2       14971    TIP3     H2       HT       0.417000       1.00800           0
     44914 W2       14972    TIP3     OH2      OT      -0.834000       15.9994           0
     44915 W2       14972    TIP3     H1       HT       0.417000       1.00800           0
     44916 W2       14972    TIP3     H2       HT       0.417000       1.00800           0
     44917 W2       14973    TIP3     OH2      OT      -0.834000       15.9994           0
     44918 W2       14973    TIP3     H1       HT       0.417000       1.00800           0
     44919 W2       14973    TIP3     H2       HT       0.417000       1.00800           0
     44920 W2       14974    TIP3     OH2      OT      -0.834000       15.9994           0
     44921 W2       14974    TIP3     H1       HT       0.417000       1.00800           0
     44922 W2       14974    TIP3     H2       HT       0.417000       1.00800           0
     44923 W2       14975    TIP3     OH2      OT      -0.834000       15.9994           0
     44924 W2       14975    TIP3     H1       HT       0.417000       1.00800           0
     44925 W2       14975    TIP3     H2       HT       0.417000       1.00800           0
     44926 W2       14976    TIP3     OH2      OT      -0.834000       15.9994           0
     44927 W2       14976    TIP3     H1       HT       0.417000       1.00800           0
     44928 W2       14976    TIP3     H2       HT       0.417000       1.00800           0
     44929 W2       14977    TIP3     OH2      OT      -0.834000       15.9994           0
     44930 W2       14977    TIP3     H1       HT       0.417000       1.00800           0
     44931 W2       14977    TIP3     H2       HT       0.417000       1.00800           0
     44932 W2       14978    TIP3     OH2      OT      -0.834000       15.9994           0
     44933 W2       14978    TIP3     H1       HT       0.417000       1.00800           0
     44934 W2       14978    TIP3     H2       HT       0.417000       1.00800           0
     44935 W2       14979    TIP3     OH2      OT      -0.834000       15.9994           0
     44936 W2       14979    TIP3     H1       HT       0.417000       1.00800           0
     44937 W2       14979    TIP3     H2       HT       0.417000       1.00800           0
     44938 W2       14980    TIP3     OH2      OT      -0.834000       15.9994           0
     44939 W2       14980    TIP3     H1       HT       0.417000       1.00800           0
     44940 W2       14980    TIP3     H2       HT       0.417000       1.00800           0
     44941 W2       14981    TIP3     OH2      OT      -0.834000       15.9994           0
     44942 W2       14981    TIP3     H1       HT       0.417000       1.00800           0
     44943 W2       14981    TIP3     H2       HT       0.417000       1.00800           0
     44944 W2       14982    TIP3     OH2      OT      -0.834000       15.9994           0
     44945 W2       14982    TIP3     H1       HT       0.417000       1.00800           0
     44946 W2       14982    TIP3     H2       HT       0.417000       1.00800           0
     44947 W2       14983    TIP3     OH2      OT      -0.834000       15.9994           0
     44948 W2       14983    TIP3     H1       HT       0.417000       1.00800           0
     44949 W2       14983    TIP3     H2       HT       0.417000       1.00800           0
     44950 W2       14984    TIP3     OH2      OT      -0.834000       15.9994           0
     44951 W2       14984    TIP3     H1       HT       0.417000       1.00800           0
     44952 W2       14984    TIP3     H2       HT       0.417000       1.00800           0
     44953 W2       14985    TIP3     OH2      OT      -0.834000       15.9994           0
     44954 W2       14985    TIP3     H1       HT       0.417000       1.00800           0
     44955 W2       14985    TIP3     H2       HT       0.417000       1.00800           0
     44956 W2       14986    TIP3     OH2      OT      -0.834000       15.9994           0
     44957 W2       14986    TIP3     H1       HT       0.417000       1.00800           0
     44958 W2       14986    TIP3     H2       HT       0.417000       1.00800           0
     44959 W2       14987    TIP3     OH2      OT      -0.834000       15.9994           0
     44960 W2       14987    TIP3     H1       HT       0.417000       1.00800           0
     44961 W2       14987    TIP3     H2       HT       0.417000       1.00800           0
     44962 W2       14988    TIP3     OH2      OT      -0.834000       15.9994           0
     44963 W2       14988    TIP3     H1       HT       0.417000       1.00800           0
     44964 W2       14988    TIP3     H2       HT       0.417000       1.00800           0
     44965 W2       14989    TIP3     OH2      OT      -0.834000       15.9994           0
     44966 W2       14989    TIP3     H1       HT       0.417000       1.00800           0
     44967 W2       14989    TIP3     H2       HT       0.417000       1.00800           0
     44968 W2       14990    TIP3     OH2      OT      -0.834000       15.9994           0
     44969 W2       14990    TIP3     H1       HT       0.417000       1.00800           0
     44970 W2       14990    TIP3     H2       HT       0.417000       1.00800           0
     44971 W2       14991    TIP3     OH2      OT      -0.834000       15.9994           0
     44972 W2       14991    TIP3     H1       HT       0.417000       1.00800           0
     44973 W2       14991    TIP3     H2       HT       0.417000       1.00800           0
     44974 W2       14992    TIP3     OH2      OT      -0.834000       15.9994           0
     44975 W2       14992    TIP3     H1       HT       0.417000       1.00800           0
     44976 W2       14992    TIP3     H2       HT       0.417000       1.00800           0
     44977 W2       14993    TIP3     OH2      OT      -0.834000       15.9994           0
     44978 W2       14993    TIP3     H1       HT       0.417000       1.00800           0
     44979 W2       14993    TIP3     H2       HT       0.417000       1.00800           0
     44980 W2       14994    TIP3     OH2      OT      -0.834000       15.9994           0
     44981 W2       14994    TIP3     H1       HT       0.417000       1.00800           0
     44982 W2       14994    TIP3     H2       HT       0.417000       1.00800           0
     44983 W2       14995    TIP3     OH2      OT      -0.834000       15.9994           0
     44984 W2       14995    TIP3     H1       HT       0.417000       1.00800           0
     44985 W2       14995    TIP3     H2       HT       0.417000       1.00800           0
     44986 W2       14996    TIP3     OH2      OT      -0.834000       15.9994           0
     44987 W2       14996    TIP3     H1       HT       0.417000       1.00800           0
     44988 W2       14996    TIP3     H2       HT       0.417000       1.00800           0
     44989 W2       14997    TIP3     OH2      OT      -0.834000       15.9994           0
     44990 W2       14997    TIP3     H1       HT       0.417000       1.00800           0
     44991 W2       14997    TIP3     H2       HT       0.417000       1.00800           0
     44992 W2       14998    TIP3     OH2      OT      -0.834000       15.9994           0
     44993 W2       14998    TIP3     H1       HT       0.417000       1.00800           0
     44994 W2       14998    TIP3     H2       HT       0.417000       1.00800           0
     44995 W2       14999    TIP3     OH2      OT      -0.834000       15.9994           0
     44996 W2       14999    TIP3     H1       HT       0.417000       1.00800           0
     44997 W2       14999    TIP3     H2       HT       0.417000       1.00800           0
     44998 W2       15000    TIP3     OH2      OT      -0.834000       15.9994           0
     44999 W2       15000    TIP3     H1       HT       0.417000       1.00800           0
     45000 W2       15000    TIP3     H2       HT       0.417000       1.00800           0
     45001 W2       15001    TIP3     OH2      OT      -0.834000       15.9994           0
     45002 W2       15001    TIP3     H1       HT       0.417000       1.00800           0
     45003 W2       15001    TIP3     H2       HT       0.417000       1.00800           0
     45004 W2       15002    TIP3     OH2      OT      -0.834000       15.9994           0
     45005 W2       15002    TIP3     H1       HT       0.417000       1.00800           0
     45006 W2       15002    TIP3     H2       HT       0.417000       1.00800           0
     45007 W2       15003    TIP3     OH2      OT      -0.834000       15.9994           0
     45008 W2       15003    TIP3     H1       HT       0.417000       1.00800           0
     45009 W2       15003    TIP3     H2       HT       0.417000       1.00800           0
     45010 W2       15004    TIP3     OH2      OT      -0.834000       15.9994           0
     45011 W2       15004    TIP3     H1       HT       0.417000       1.00800           0
     45012 W2       15004    TIP3     H2       HT       0.417000       1.00800           0
     45013 W2       15005    TIP3     OH2      OT      -0.834000       15.9994           0
     45014 W2       15005    TIP3     H1       HT       0.417000       1.00800           0
     45015 W2       15005    TIP3     H2       HT       0.417000       1.00800           0
     45016 W2       15006    TIP3     OH2      OT      -0.834000       15.9994           0
     45017 W2       15006    TIP3     H1       HT       0.417000       1.00800           0
     45018 W2       15006    TIP3     H2       HT       0.417000       1.00800           0
     45019 W2       15007    TIP3     OH2      OT      -0.834000       15.9994           0
     45020 W2       15007    TIP3     H1       HT       0.417000       1.00800           0
     45021 W2       15007    TIP3     H2       HT       0.417000       1.00800           0
     45022 W2       15008    TIP3     OH2      OT      -0.834000       15.9994           0
     45023 W2       15008    TIP3     H1       HT       0.417000       1.00800           0
     45024 W2       15008    TIP3     H2       HT       0.417000       1.00800           0
     45025 W2       15009    TIP3     OH2      OT      -0.834000       15.9994           0
     45026 W2       15009    TIP3     H1       HT       0.417000       1.00800           0
     45027 W2       15009    TIP3     H2       HT       0.417000       1.00800           0
     45028 W2       15010    TIP3     OH2      OT      -0.834000       15.9994           0
     45029 W2       15010    TIP3     H1       HT       0.417000       1.00800           0
     45030 W2       15010    TIP3     H2       HT       0.417000       1.00800           0
     45031 W2       15011    TIP3     OH2      OT      -0.834000       15.9994           0
     45032 W2       15011    TIP3     H1       HT       0.417000       1.00800           0
     45033 W2       15011    TIP3     H2       HT       0.417000       1.00800           0
     45034 W2       15012    TIP3     OH2      OT      -0.834000       15.9994           0
     45035 W2       15012    TIP3     H1       HT       0.417000       1.00800           0
     45036 W2       15012    TIP3     H2       HT       0.417000       1.00800           0
     45037 W2       15013    TIP3     OH2      OT      -0.834000       15.9994           0
     45038 W2       15013    TIP3     H1       HT       0.417000       1.00800           0
     45039 W2       15013    TIP3     H2       HT       0.417000       1.00800           0
     45040 W2       15014    TIP3     OH2      OT      -0.834000       15.9994           0
     45041 W2       15014    TIP3     H1       HT       0.417000       1.00800           0
     45042 W2       15014    TIP3     H2       HT       0.417000       1.00800           0
     45043 W2       15015    TIP3     OH2      OT      -0.834000       15.9994           0
     45044 W2       15015    TIP3     H1       HT       0.417000       1.00800           0
     45045 W2       15015    TIP3     H2       HT       0.417000       1.00800           0
     45046 W2       15016    TIP3     OH2      OT      -0.834000       15.9994           0
     45047 W2       15016    TIP3     H1       HT       0.417000       1.00800           0
     45048 W2       15016    TIP3     H2       HT       0.417000       1.00800           0
     45049 W2       15017    TIP3     OH2      OT      -0.834000       15.9994           0
     45050 W2       15017    TIP3     H1       HT       0.417000       1.00800           0
     45051 W2       15017    TIP3     H2       HT       0.417000       1.00800           0
     45052 W2       15018    TIP3     OH2      OT      -0.834000       15.9994           0
     45053 W2       15018    TIP3     H1       HT       0.417000       1.00800           0
     45054 W2       15018    TIP3     H2       HT       0.417000       1.00800           0
     45055 W2       15019    TIP3     OH2      OT      -0.834000       15.9994           0
     45056 W2       15019    TIP3     H1       HT       0.417000       1.00800           0
     45057 W2       15019    TIP3     H2       HT       0.417000       1.00800           0
     45058 W2       15020    TIP3     OH2      OT      -0.834000       15.9994           0
     45059 W2       15020    TIP3     H1       HT       0.417000       1.00800           0
     45060 W2       15020    TIP3     H2       HT       0.417000       1.00800           0
     45061 W2       15021    TIP3     OH2      OT      -0.834000       15.9994           0
     45062 W2       15021    TIP3     H1       HT       0.417000       1.00800           0
     45063 W2       15021    TIP3     H2       HT       0.417000       1.00800           0
     45064 W2       15022    TIP3     OH2      OT      -0.834000       15.9994           0
     45065 W2       15022    TIP3     H1       HT       0.417000       1.00800           0
     45066 W2       15022    TIP3     H2       HT       0.417000       1.00800           0
     45067 W2       15023    TIP3     OH2      OT      -0.834000       15.9994           0
     45068 W2       15023    TIP3     H1       HT       0.417000       1.00800           0
     45069 W2       15023    TIP3     H2       HT       0.417000       1.00800           0
     45070 W2       15024    TIP3     OH2      OT      -0.834000       15.9994           0
     45071 W2       15024    TIP3     H1       HT       0.417000       1.00800           0
     45072 W2       15024    TIP3     H2       HT       0.417000       1.00800           0
     45073 W2       15025    TIP3     OH2      OT      -0.834000       15.9994           0
     45074 W2       15025    TIP3     H1       HT       0.417000       1.00800           0
     45075 W2       15025    TIP3     H2       HT       0.417000       1.00800           0
     45076 W2       15026    TIP3     OH2      OT      -0.834000       15.9994           0
     45077 W2       15026    TIP3     H1       HT       0.417000       1.00800           0
     45078 W2       15026    TIP3     H2       HT       0.417000       1.00800           0
     45079 W2       15027    TIP3     OH2      OT      -0.834000       15.9994           0
     45080 W2       15027    TIP3     H1       HT       0.417000       1.00800           0
     45081 W2       15027    TIP3     H2       HT       0.417000       1.00800           0
     45082 W2       15028    TIP3     OH2      OT      -0.834000       15.9994           0
     45083 W2       15028    TIP3     H1       HT       0.417000       1.00800           0
     45084 W2       15028    TIP3     H2       HT       0.417000       1.00800           0
     45085 W2       15029    TIP3     OH2      OT      -0.834000       15.9994           0
     45086 W2       15029    TIP3     H1       HT       0.417000       1.00800           0
     45087 W2       15029    TIP3     H2       HT       0.417000       1.00800           0
     45088 W2       15030    TIP3     OH2      OT      -0.834000       15.9994           0
     45089 W2       15030    TIP3     H1       HT       0.417000       1.00800           0
     45090 W2       15030    TIP3     H2       HT       0.417000       1.00800           0
     45091 W2       15031    TIP3     OH2      OT      -0.834000       15.9994           0
     45092 W2       15031    TIP3     H1       HT       0.417000       1.00800           0
     45093 W2       15031    TIP3     H2       HT       0.417000       1.00800           0
     45094 W2       15032    TIP3     OH2      OT      -0.834000       15.9994           0
     45095 W2       15032    TIP3     H1       HT       0.417000       1.00800           0
     45096 W2       15032    TIP3     H2       HT       0.417000       1.00800           0
     45097 W2       15033    TIP3     OH2      OT      -0.834000       15.9994           0
     45098 W2       15033    TIP3     H1       HT       0.417000       1.00800           0
     45099 W2       15033    TIP3     H2       HT       0.417000       1.00800           0
     45100 W2       15034    TIP3     OH2      OT      -0.834000       15.9994           0
     45101 W2       15034    TIP3     H1       HT       0.417000       1.00800           0
     45102 W2       15034    TIP3     H2       HT       0.417000       1.00800           0
     45103 W2       15035    TIP3     OH2      OT      -0.834000       15.9994           0
     45104 W2       15035    TIP3     H1       HT       0.417000       1.00800           0
     45105 W2       15035    TIP3     H2       HT       0.417000       1.00800           0
     45106 W2       15036    TIP3     OH2      OT      -0.834000       15.9994           0
     45107 W2       15036    TIP3     H1       HT       0.417000       1.00800           0
     45108 W2       15036    TIP3     H2       HT       0.417000       1.00800           0
     45109 W2       15037    TIP3     OH2      OT      -0.834000       15.9994           0
     45110 W2       15037    TIP3     H1       HT       0.417000       1.00800           0
     45111 W2       15037    TIP3     H2       HT       0.417000       1.00800           0
     45112 W2       15038    TIP3     OH2      OT      -0.834000       15.9994           0
     45113 W2       15038    TIP3     H1       HT       0.417000       1.00800           0
     45114 W2       15038    TIP3     H2       HT       0.417000       1.00800           0
     45115 W2       15039    TIP3     OH2      OT      -0.834000       15.9994           0
     45116 W2       15039    TIP3     H1       HT       0.417000       1.00800           0
     45117 W2       15039    TIP3     H2       HT       0.417000       1.00800           0
     45118 W2       15040    TIP3     OH2      OT      -0.834000       15.9994           0
     45119 W2       15040    TIP3     H1       HT       0.417000       1.00800           0
     45120 W2       15040    TIP3     H2       HT       0.417000       1.00800           0
     45121 W2       15041    TIP3     OH2      OT      -0.834000       15.9994           0
     45122 W2       15041    TIP3     H1       HT       0.417000       1.00800           0
     45123 W2       15041    TIP3     H2       HT       0.417000       1.00800           0
     45124 W2       15042    TIP3     OH2      OT      -0.834000       15.9994           0
     45125 W2       15042    TIP3     H1       HT       0.417000       1.00800           0
     45126 W2       15042    TIP3     H2       HT       0.417000       1.00800           0
     45127 W2       15043    TIP3     OH2      OT      -0.834000       15.9994           0
     45128 W2       15043    TIP3     H1       HT       0.417000       1.00800           0
     45129 W2       15043    TIP3     H2       HT       0.417000       1.00800           0
     45130 W2       15044    TIP3     OH2      OT      -0.834000       15.9994           0
     45131 W2       15044    TIP3     H1       HT       0.417000       1.00800           0
     45132 W2       15044    TIP3     H2       HT       0.417000       1.00800           0
     45133 W2       15045    TIP3     OH2      OT      -0.834000       15.9994           0
     45134 W2       15045    TIP3     H1       HT       0.417000       1.00800           0
     45135 W2       15045    TIP3     H2       HT       0.417000       1.00800           0
     45136 W2       15046    TIP3     OH2      OT      -0.834000       15.9994           0
     45137 W2       15046    TIP3     H1       HT       0.417000       1.00800           0
     45138 W2       15046    TIP3     H2       HT       0.417000       1.00800           0
     45139 W2       15047    TIP3     OH2      OT      -0.834000       15.9994           0
     45140 W2       15047    TIP3     H1       HT       0.417000       1.00800           0
     45141 W2       15047    TIP3     H2       HT       0.417000       1.00800           0
     45142 W2       15048    TIP3     OH2      OT      -0.834000       15.9994           0
     45143 W2       15048    TIP3     H1       HT       0.417000       1.00800           0
     45144 W2       15048    TIP3     H2       HT       0.417000       1.00800           0
     45145 W2       15049    TIP3     OH2      OT      -0.834000       15.9994           0
     45146 W2       15049    TIP3     H1       HT       0.417000       1.00800           0
     45147 W2       15049    TIP3     H2       HT       0.417000       1.00800           0
     45148 W2       15050    TIP3     OH2      OT      -0.834000       15.9994           0
     45149 W2       15050    TIP3     H1       HT       0.417000       1.00800           0
     45150 W2       15050    TIP3     H2       HT       0.417000       1.00800           0
     45151 W2       15051    TIP3     OH2      OT      -0.834000       15.9994           0
     45152 W2       15051    TIP3     H1       HT       0.417000       1.00800           0
     45153 W2       15051    TIP3     H2       HT       0.417000       1.00800           0
     45154 W2       15052    TIP3     OH2      OT      -0.834000       15.9994           0
     45155 W2       15052    TIP3     H1       HT       0.417000       1.00800           0
     45156 W2       15052    TIP3     H2       HT       0.417000       1.00800           0
     45157 W2       15053    TIP3     OH2      OT      -0.834000       15.9994           0
     45158 W2       15053    TIP3     H1       HT       0.417000       1.00800           0
     45159 W2       15053    TIP3     H2       HT       0.417000       1.00800           0
     45160 W2       15054    TIP3     OH2      OT      -0.834000       15.9994           0
     45161 W2       15054    TIP3     H1       HT       0.417000       1.00800           0
     45162 W2       15054    TIP3     H2       HT       0.417000       1.00800           0
     45163 W2       15055    TIP3     OH2      OT      -0.834000       15.9994           0
     45164 W2       15055    TIP3     H1       HT       0.417000       1.00800           0
     45165 W2       15055    TIP3     H2       HT       0.417000       1.00800           0
     45166 W2       15056    TIP3     OH2      OT      -0.834000       15.9994           0
     45167 W2       15056    TIP3     H1       HT       0.417000       1.00800           0
     45168 W2       15056    TIP3     H2       HT       0.417000       1.00800           0
     45169 W2       15057    TIP3     OH2      OT      -0.834000       15.9994           0
     45170 W2       15057    TIP3     H1       HT       0.417000       1.00800           0
     45171 W2       15057    TIP3     H2       HT       0.417000       1.00800           0
     45172 W2       15058    TIP3     OH2      OT      -0.834000       15.9994           0
     45173 W2       15058    TIP3     H1       HT       0.417000       1.00800           0
     45174 W2       15058    TIP3     H2       HT       0.417000       1.00800           0
     45175 W2       15059    TIP3     OH2      OT      -0.834000       15.9994           0
     45176 W2       15059    TIP3     H1       HT       0.417000       1.00800           0
     45177 W2       15059    TIP3     H2       HT       0.417000       1.00800           0
     45178 W2       15060    TIP3     OH2      OT      -0.834000       15.9994           0
     45179 W2       15060    TIP3     H1       HT       0.417000       1.00800           0
     45180 W2       15060    TIP3     H2       HT       0.417000       1.00800           0
     45181 W2       15061    TIP3     OH2      OT      -0.834000       15.9994           0
     45182 W2       15061    TIP3     H1       HT       0.417000       1.00800           0
     45183 W2       15061    TIP3     H2       HT       0.417000       1.00800           0
     45184 W2       15062    TIP3     OH2      OT      -0.834000       15.9994           0
     45185 W2       15062    TIP3     H1       HT       0.417000       1.00800           0
     45186 W2       15062    TIP3     H2       HT       0.417000       1.00800           0
     45187 W2       15063    TIP3     OH2      OT      -0.834000       15.9994           0
     45188 W2       15063    TIP3     H1       HT       0.417000       1.00800           0
     45189 W2       15063    TIP3     H2       HT       0.417000       1.00800           0
     45190 W2       15064    TIP3     OH2      OT      -0.834000       15.9994           0
     45191 W2       15064    TIP3     H1       HT       0.417000       1.00800           0
     45192 W2       15064    TIP3     H2       HT       0.417000       1.00800           0
     45193 W2       15065    TIP3     OH2      OT      -0.834000       15.9994           0
     45194 W2       15065    TIP3     H1       HT       0.417000       1.00800           0
     45195 W2       15065    TIP3     H2       HT       0.417000       1.00800           0
     45196 W2       15066    TIP3     OH2      OT      -0.834000       15.9994           0
     45197 W2       15066    TIP3     H1       HT       0.417000       1.00800           0
     45198 W2       15066    TIP3     H2       HT       0.417000       1.00800           0
     45199 W2       15067    TIP3     OH2      OT      -0.834000       15.9994           0
     45200 W2       15067    TIP3     H1       HT       0.417000       1.00800           0
     45201 W2       15067    TIP3     H2       HT       0.417000       1.00800           0
     45202 W2       15068    TIP3     OH2      OT      -0.834000       15.9994           0
     45203 W2       15068    TIP3     H1       HT       0.417000       1.00800           0
     45204 W2       15068    TIP3     H2       HT       0.417000       1.00800           0
     45205 W2       15069    TIP3     OH2      OT      -0.834000       15.9994           0
     45206 W2       15069    TIP3     H1       HT       0.417000       1.00800           0
     45207 W2       15069    TIP3     H2       HT       0.417000       1.00800           0
     45208 W2       15070    TIP3     OH2      OT      -0.834000       15.9994           0
     45209 W2       15070    TIP3     H1       HT       0.417000       1.00800           0
     45210 W2       15070    TIP3     H2       HT       0.417000       1.00800           0
     45211 W2       15071    TIP3     OH2      OT      -0.834000       15.9994           0
     45212 W2       15071    TIP3     H1       HT       0.417000       1.00800           0
     45213 W2       15071    TIP3     H2       HT       0.417000       1.00800           0
     45214 W2       15072    TIP3     OH2      OT      -0.834000       15.9994           0
     45215 W2       15072    TIP3     H1       HT       0.417000       1.00800           0
     45216 W2       15072    TIP3     H2       HT       0.417000       1.00800           0
     45217 W2       15073    TIP3     OH2      OT      -0.834000       15.9994           0
     45218 W2       15073    TIP3     H1       HT       0.417000       1.00800           0
     45219 W2       15073    TIP3     H2       HT       0.417000       1.00800           0
     45220 W2       15074    TIP3     OH2      OT      -0.834000       15.9994           0
     45221 W2       15074    TIP3     H1       HT       0.417000       1.00800           0
     45222 W2       15074    TIP3     H2       HT       0.417000       1.00800           0
     45223 W2       15075    TIP3     OH2      OT      -0.834000       15.9994           0
     45224 W2       15075    TIP3     H1       HT       0.417000       1.00800           0
     45225 W2       15075    TIP3     H2       HT       0.417000       1.00800           0
     45226 W2       15076    TIP3     OH2      OT      -0.834000       15.9994           0
     45227 W2       15076    TIP3     H1       HT       0.417000       1.00800           0
     45228 W2       15076    TIP3     H2       HT       0.417000       1.00800           0
     45229 W2       15077    TIP3     OH2      OT      -0.834000       15.9994           0
     45230 W2       15077    TIP3     H1       HT       0.417000       1.00800           0
     45231 W2       15077    TIP3     H2       HT       0.417000       1.00800           0
     45232 W2       15078    TIP3     OH2      OT      -0.834000       15.9994           0
     45233 W2       15078    TIP3     H1       HT       0.417000       1.00800           0
     45234 W2       15078    TIP3     H2       HT       0.417000       1.00800           0
     45235 W2       15079    TIP3     OH2      OT      -0.834000       15.9994           0
     45236 W2       15079    TIP3     H1       HT       0.417000       1.00800           0
     45237 W2       15079    TIP3     H2       HT       0.417000       1.00800           0
     45238 W2       15080    TIP3     OH2      OT      -0.834000       15.9994           0
     45239 W2       15080    TIP3     H1       HT       0.417000       1.00800           0
     45240 W2       15080    TIP3     H2       HT       0.417000       1.00800           0
     45241 W2       15081    TIP3     OH2      OT      -0.834000       15.9994           0
     45242 W2       15081    TIP3     H1       HT       0.417000       1.00800           0
     45243 W2       15081    TIP3     H2       HT       0.417000       1.00800           0
     45244 W2       15082    TIP3     OH2      OT      -0.834000       15.9994           0
     45245 W2       15082    TIP3     H1       HT       0.417000       1.00800           0
     45246 W2       15082    TIP3     H2       HT       0.417000       1.00800           0
     45247 W2       15083    TIP3     OH2      OT      -0.834000       15.9994           0
     45248 W2       15083    TIP3     H1       HT       0.417000       1.00800           0
     45249 W2       15083    TIP3     H2       HT       0.417000       1.00800           0
     45250 W2       15084    TIP3     OH2      OT      -0.834000       15.9994           0
     45251 W2       15084    TIP3     H1       HT       0.417000       1.00800           0
     45252 W2       15084    TIP3     H2       HT       0.417000       1.00800           0
     45253 W2       15085    TIP3     OH2      OT      -0.834000       15.9994           0
     45254 W2       15085    TIP3     H1       HT       0.417000       1.00800           0
     45255 W2       15085    TIP3     H2       HT       0.417000       1.00800           0
     45256 W2       15086    TIP3     OH2      OT      -0.834000       15.9994           0
     45257 W2       15086    TIP3     H1       HT       0.417000       1.00800           0
     45258 W2       15086    TIP3     H2       HT       0.417000       1.00800           0
     45259 W2       15087    TIP3     OH2      OT      -0.834000       15.9994           0
     45260 W2       15087    TIP3     H1       HT       0.417000       1.00800           0
     45261 W2       15087    TIP3     H2       HT       0.417000       1.00800           0
     45262 W2       15088    TIP3     OH2      OT      -0.834000       15.9994           0
     45263 W2       15088    TIP3     H1       HT       0.417000       1.00800           0
     45264 W2       15088    TIP3     H2       HT       0.417000       1.00800           0
     45265 W2       15089    TIP3     OH2      OT      -0.834000       15.9994           0
     45266 W2       15089    TIP3     H1       HT       0.417000       1.00800           0
     45267 W2       15089    TIP3     H2       HT       0.417000       1.00800           0
     45268 W2       15090    TIP3     OH2      OT      -0.834000       15.9994           0
     45269 W2       15090    TIP3     H1       HT       0.417000       1.00800           0
     45270 W2       15090    TIP3     H2       HT       0.417000       1.00800           0
     45271 W2       15091    TIP3     OH2      OT      -0.834000       15.9994           0
     45272 W2       15091    TIP3     H1       HT       0.417000       1.00800           0
     45273 W2       15091    TIP3     H2       HT       0.417000       1.00800           0
     45274 W2       15092    TIP3     OH2      OT      -0.834000       15.9994           0
     45275 W2       15092    TIP3     H1       HT       0.417000       1.00800           0
     45276 W2       15092    TIP3     H2       HT       0.417000       1.00800           0
     45277 W2       15093    TIP3     OH2      OT      -0.834000       15.9994           0
     45278 W2       15093    TIP3     H1       HT       0.417000       1.00800           0
     45279 W2       15093    TIP3     H2       HT       0.417000       1.00800           0
     45280 W2       15094    TIP3     OH2      OT      -0.834000       15.9994           0
     45281 W2       15094    TIP3     H1       HT       0.417000       1.00800           0
     45282 W2       15094    TIP3     H2       HT       0.417000       1.00800           0
     45283 W2       15095    TIP3     OH2      OT      -0.834000       15.9994           0
     45284 W2       15095    TIP3     H1       HT       0.417000       1.00800           0
     45285 W2       15095    TIP3     H2       HT       0.417000       1.00800           0
     45286 W2       15096    TIP3     OH2      OT      -0.834000       15.9994           0
     45287 W2       15096    TIP3     H1       HT       0.417000       1.00800           0
     45288 W2       15096    TIP3     H2       HT       0.417000       1.00800           0
     45289 W2       15097    TIP3     OH2      OT      -0.834000       15.9994           0
     45290 W2       15097    TIP3     H1       HT       0.417000       1.00800           0
     45291 W2       15097    TIP3     H2       HT       0.417000       1.00800           0
     45292 W2       15098    TIP3     OH2      OT      -0.834000       15.9994           0
     45293 W2       15098    TIP3     H1       HT       0.417000       1.00800           0
     45294 W2       15098    TIP3     H2       HT       0.417000       1.00800           0
     45295 W2       15099    TIP3     OH2      OT      -0.834000       15.9994           0
     45296 W2       15099    TIP3     H1       HT       0.417000       1.00800           0
     45297 W2       15099    TIP3     H2       HT       0.417000       1.00800           0
     45298 W2       15100    TIP3     OH2      OT      -0.834000       15.9994           0
     45299 W2       15100    TIP3     H1       HT       0.417000       1.00800           0
     45300 W2       15100    TIP3     H2       HT       0.417000       1.00800           0
     45301 W2       15101    TIP3     OH2      OT      -0.834000       15.9994           0
     45302 W2       15101    TIP3     H1       HT       0.417000       1.00800           0
     45303 W2       15101    TIP3     H2       HT       0.417000       1.00800           0
     45304 W2       15102    TIP3     OH2      OT      -0.834000       15.9994           0
     45305 W2       15102    TIP3     H1       HT       0.417000       1.00800           0
     45306 W2       15102    TIP3     H2       HT       0.417000       1.00800           0
     45307 W2       15103    TIP3     OH2      OT      -0.834000       15.9994           0
     45308 W2       15103    TIP3     H1       HT       0.417000       1.00800           0
     45309 W2       15103    TIP3     H2       HT       0.417000       1.00800           0
     45310 W2       15104    TIP3     OH2      OT      -0.834000       15.9994           0
     45311 W2       15104    TIP3     H1       HT       0.417000       1.00800           0
     45312 W2       15104    TIP3     H2       HT       0.417000       1.00800           0
     45313 W2       15105    TIP3     OH2      OT      -0.834000       15.9994           0
     45314 W2       15105    TIP3     H1       HT       0.417000       1.00800           0
     45315 W2       15105    TIP3     H2       HT       0.417000       1.00800           0
     45316 W2       15106    TIP3     OH2      OT      -0.834000       15.9994           0
     45317 W2       15106    TIP3     H1       HT       0.417000       1.00800           0
     45318 W2       15106    TIP3     H2       HT       0.417000       1.00800           0
     45319 W2       15107    TIP3     OH2      OT      -0.834000       15.9994           0
     45320 W2       15107    TIP3     H1       HT       0.417000       1.00800           0
     45321 W2       15107    TIP3     H2       HT       0.417000       1.00800           0
     45322 W2       15108    TIP3     OH2      OT      -0.834000       15.9994           0
     45323 W2       15108    TIP3     H1       HT       0.417000       1.00800           0
     45324 W2       15108    TIP3     H2       HT       0.417000       1.00800           0
     45325 W2       15109    TIP3     OH2      OT      -0.834000       15.9994           0
     45326 W2       15109    TIP3     H1       HT       0.417000       1.00800           0
     45327 W2       15109    TIP3     H2       HT       0.417000       1.00800           0
     45328 W2       15110    TIP3     OH2      OT      -0.834000       15.9994           0
     45329 W2       15110    TIP3     H1       HT       0.417000       1.00800           0
     45330 W2       15110    TIP3     H2       HT       0.417000       1.00800           0
     45331 W2       15111    TIP3     OH2      OT      -0.834000       15.9994           0
     45332 W2       15111    TIP3     H1       HT       0.417000       1.00800           0
     45333 W2       15111    TIP3     H2       HT       0.417000       1.00800           0
     45334 W2       15112    TIP3     OH2      OT      -0.834000       15.9994           0
     45335 W2       15112    TIP3     H1       HT       0.417000       1.00800           0
     45336 W2       15112    TIP3     H2       HT       0.417000       1.00800           0
     45337 W2       15113    TIP3     OH2      OT      -0.834000       15.9994           0
     45338 W2       15113    TIP3     H1       HT       0.417000       1.00800           0
     45339 W2       15113    TIP3     H2       HT       0.417000       1.00800           0
     45340 W2       15114    TIP3     OH2      OT      -0.834000       15.9994           0
     45341 W2       15114    TIP3     H1       HT       0.417000       1.00800           0
     45342 W2       15114    TIP3     H2       HT       0.417000       1.00800           0
     45343 W2       15115    TIP3     OH2      OT      -0.834000       15.9994           0
     45344 W2       15115    TIP3     H1       HT       0.417000       1.00800           0
     45345 W2       15115    TIP3     H2       HT       0.417000       1.00800           0
     45346 W2       15116    TIP3     OH2      OT      -0.834000       15.9994           0
     45347 W2       15116    TIP3     H1       HT       0.417000       1.00800           0
     45348 W2       15116    TIP3     H2       HT       0.417000       1.00800           0
     45349 W2       15117    TIP3     OH2      OT      -0.834000       15.9994           0
     45350 W2       15117    TIP3     H1       HT       0.417000       1.00800           0
     45351 W2       15117    TIP3     H2       HT       0.417000       1.00800           0
     45352 W2       15118    TIP3     OH2      OT      -0.834000       15.9994           0
     45353 W2       15118    TIP3     H1       HT       0.417000       1.00800           0
     45354 W2       15118    TIP3     H2       HT       0.417000       1.00800           0
     45355 W2       15119    TIP3     OH2      OT      -0.834000       15.9994           0
     45356 W2       15119    TIP3     H1       HT       0.417000       1.00800           0
     45357 W2       15119    TIP3     H2       HT       0.417000       1.00800           0
     45358 W2       15120    TIP3     OH2      OT      -0.834000       15.9994           0
     45359 W2       15120    TIP3     H1       HT       0.417000       1.00800           0
     45360 W2       15120    TIP3     H2       HT       0.417000       1.00800           0
     45361 W2       15121    TIP3     OH2      OT      -0.834000       15.9994           0
     45362 W2       15121    TIP3     H1       HT       0.417000       1.00800           0
     45363 W2       15121    TIP3     H2       HT       0.417000       1.00800           0
     45364 W2       15122    TIP3     OH2      OT      -0.834000       15.9994           0
     45365 W2       15122    TIP3     H1       HT       0.417000       1.00800           0
     45366 W2       15122    TIP3     H2       HT       0.417000       1.00800           0
     45367 W2       15123    TIP3     OH2      OT      -0.834000       15.9994           0
     45368 W2       15123    TIP3     H1       HT       0.417000       1.00800           0
     45369 W2       15123    TIP3     H2       HT       0.417000       1.00800           0
     45370 W2       15124    TIP3     OH2      OT      -0.834000       15.9994           0
     45371 W2       15124    TIP3     H1       HT       0.417000       1.00800           0
     45372 W2       15124    TIP3     H2       HT       0.417000       1.00800           0
     45373 W2       15125    TIP3     OH2      OT      -0.834000       15.9994           0
     45374 W2       15125    TIP3     H1       HT       0.417000       1.00800           0
     45375 W2       15125    TIP3     H2       HT       0.417000       1.00800           0
     45376 W2       15126    TIP3     OH2      OT      -0.834000       15.9994           0
     45377 W2       15126    TIP3     H1       HT       0.417000       1.00800           0
     45378 W2       15126    TIP3     H2       HT       0.417000       1.00800           0
     45379 W2       15127    TIP3     OH2      OT      -0.834000       15.9994           0
     45380 W2       15127    TIP3     H1       HT       0.417000       1.00800           0
     45381 W2       15127    TIP3     H2       HT       0.417000       1.00800           0
     45382 W2       15128    TIP3     OH2      OT      -0.834000       15.9994           0
     45383 W2       15128    TIP3     H1       HT       0.417000       1.00800           0
     45384 W2       15128    TIP3     H2       HT       0.417000       1.00800           0
     45385 W2       15129    TIP3     OH2      OT      -0.834000       15.9994           0
     45386 W2       15129    TIP3     H1       HT       0.417000       1.00800           0
     45387 W2       15129    TIP3     H2       HT       0.417000       1.00800           0
     45388 W2       15130    TIP3     OH2      OT      -0.834000       15.9994           0
     45389 W2       15130    TIP3     H1       HT       0.417000       1.00800           0
     45390 W2       15130    TIP3     H2       HT       0.417000       1.00800           0
     45391 W2       15131    TIP3     OH2      OT      -0.834000       15.9994           0
     45392 W2       15131    TIP3     H1       HT       0.417000       1.00800           0
     45393 W2       15131    TIP3     H2       HT       0.417000       1.00800           0
     45394 W2       15132    TIP3     OH2      OT      -0.834000       15.9994           0
     45395 W2       15132    TIP3     H1       HT       0.417000       1.00800           0
     45396 W2       15132    TIP3     H2       HT       0.417000       1.00800           0
     45397 W2       15133    TIP3     OH2      OT      -0.834000       15.9994           0
     45398 W2       15133    TIP3     H1       HT       0.417000       1.00800           0
     45399 W2       15133    TIP3     H2       HT       0.417000       1.00800           0
     45400 W2       15134    TIP3     OH2      OT      -0.834000       15.9994           0
     45401 W2       15134    TIP3     H1       HT       0.417000       1.00800           0
     45402 W2       15134    TIP3     H2       HT       0.417000       1.00800           0
     45403 W2       15135    TIP3     OH2      OT      -0.834000       15.9994           0
     45404 W2       15135    TIP3     H1       HT       0.417000       1.00800           0
     45405 W2       15135    TIP3     H2       HT       0.417000       1.00800           0
     45406 W2       15136    TIP3     OH2      OT      -0.834000       15.9994           0
     45407 W2       15136    TIP3     H1       HT       0.417000       1.00800           0
     45408 W2       15136    TIP3     H2       HT       0.417000       1.00800           0
     45409 W2       15137    TIP3     OH2      OT      -0.834000       15.9994           0
     45410 W2       15137    TIP3     H1       HT       0.417000       1.00800           0
     45411 W2       15137    TIP3     H2       HT       0.417000       1.00800           0
     45412 W2       15138    TIP3     OH2      OT      -0.834000       15.9994           0
     45413 W2       15138    TIP3     H1       HT       0.417000       1.00800           0
     45414 W2       15138    TIP3     H2       HT       0.417000       1.00800           0
     45415 W2       15139    TIP3     OH2      OT      -0.834000       15.9994           0
     45416 W2       15139    TIP3     H1       HT       0.417000       1.00800           0
     45417 W2       15139    TIP3     H2       HT       0.417000       1.00800           0
     45418 W2       15140    TIP3     OH2      OT      -0.834000       15.9994           0
     45419 W2       15140    TIP3     H1       HT       0.417000       1.00800           0
     45420 W2       15140    TIP3     H2       HT       0.417000       1.00800           0
     45421 W2       15141    TIP3     OH2      OT      -0.834000       15.9994           0
     45422 W2       15141    TIP3     H1       HT       0.417000       1.00800           0
     45423 W2       15141    TIP3     H2       HT       0.417000       1.00800           0
     45424 W2       15142    TIP3     OH2      OT      -0.834000       15.9994           0
     45425 W2       15142    TIP3     H1       HT       0.417000       1.00800           0
     45426 W2       15142    TIP3     H2       HT       0.417000       1.00800           0
     45427 W2       15143    TIP3     OH2      OT      -0.834000       15.9994           0
     45428 W2       15143    TIP3     H1       HT       0.417000       1.00800           0
     45429 W2       15143    TIP3     H2       HT       0.417000       1.00800           0
     45430 W2       15144    TIP3     OH2      OT      -0.834000       15.9994           0
     45431 W2       15144    TIP3     H1       HT       0.417000       1.00800           0
     45432 W2       15144    TIP3     H2       HT       0.417000       1.00800           0
     45433 W2       15145    TIP3     OH2      OT      -0.834000       15.9994           0
     45434 W2       15145    TIP3     H1       HT       0.417000       1.00800           0
     45435 W2       15145    TIP3     H2       HT       0.417000       1.00800           0
     45436 W2       15146    TIP3     OH2      OT      -0.834000       15.9994           0
     45437 W2       15146    TIP3     H1       HT       0.417000       1.00800           0
     45438 W2       15146    TIP3     H2       HT       0.417000       1.00800           0
     45439 W2       15147    TIP3     OH2      OT      -0.834000       15.9994           0
     45440 W2       15147    TIP3     H1       HT       0.417000       1.00800           0
     45441 W2       15147    TIP3     H2       HT       0.417000       1.00800           0
     45442 W2       15148    TIP3     OH2      OT      -0.834000       15.9994           0
     45443 W2       15148    TIP3     H1       HT       0.417000       1.00800           0
     45444 W2       15148    TIP3     H2       HT       0.417000       1.00800           0
     45445 W2       15149    TIP3     OH2      OT      -0.834000       15.9994           0
     45446 W2       15149    TIP3     H1       HT       0.417000       1.00800           0
     45447 W2       15149    TIP3     H2       HT       0.417000       1.00800           0
     45448 W2       15150    TIP3     OH2      OT      -0.834000       15.9994           0
     45449 W2       15150    TIP3     H1       HT       0.417000       1.00800           0
     45450 W2       15150    TIP3     H2       HT       0.417000       1.00800           0
     45451 W2       15151    TIP3     OH2      OT      -0.834000       15.9994           0
     45452 W2       15151    TIP3     H1       HT       0.417000       1.00800           0
     45453 W2       15151    TIP3     H2       HT       0.417000       1.00800           0
     45454 W2       15152    TIP3     OH2      OT      -0.834000       15.9994           0
     45455 W2       15152    TIP3     H1       HT       0.417000       1.00800           0
     45456 W2       15152    TIP3     H2       HT       0.417000       1.00800           0
     45457 W2       15153    TIP3     OH2      OT      -0.834000       15.9994           0
     45458 W2       15153    TIP3     H1       HT       0.417000       1.00800           0
     45459 W2       15153    TIP3     H2       HT       0.417000       1.00800           0
     45460 W2       15154    TIP3     OH2      OT      -0.834000       15.9994           0
     45461 W2       15154    TIP3     H1       HT       0.417000       1.00800           0
     45462 W2       15154    TIP3     H2       HT       0.417000       1.00800           0
     45463 W2       15155    TIP3     OH2      OT      -0.834000       15.9994           0
     45464 W2       15155    TIP3     H1       HT       0.417000       1.00800           0
     45465 W2       15155    TIP3     H2       HT       0.417000       1.00800           0
     45466 W2       15156    TIP3     OH2      OT      -0.834000       15.9994           0
     45467 W2       15156    TIP3     H1       HT       0.417000       1.00800           0
     45468 W2       15156    TIP3     H2       HT       0.417000       1.00800           0
     45469 W2       15157    TIP3     OH2      OT      -0.834000       15.9994           0
     45470 W2       15157    TIP3     H1       HT       0.417000       1.00800           0
     45471 W2       15157    TIP3     H2       HT       0.417000       1.00800           0
     45472 W2       15158    TIP3     OH2      OT      -0.834000       15.9994           0
     45473 W2       15158    TIP3     H1       HT       0.417000       1.00800           0
     45474 W2       15158    TIP3     H2       HT       0.417000       1.00800           0
     45475 W2       15159    TIP3     OH2      OT      -0.834000       15.9994           0
     45476 W2       15159    TIP3     H1       HT       0.417000       1.00800           0
     45477 W2       15159    TIP3     H2       HT       0.417000       1.00800           0
     45478 W2       15160    TIP3     OH2      OT      -0.834000       15.9994           0
     45479 W2       15160    TIP3     H1       HT       0.417000       1.00800           0
     45480 W2       15160    TIP3     H2       HT       0.417000       1.00800           0
     45481 W2       15161    TIP3     OH2      OT      -0.834000       15.9994           0
     45482 W2       15161    TIP3     H1       HT       0.417000       1.00800           0
     45483 W2       15161    TIP3     H2       HT       0.417000       1.00800           0
     45484 W2       15162    TIP3     OH2      OT      -0.834000       15.9994           0
     45485 W2       15162    TIP3     H1       HT       0.417000       1.00800           0
     45486 W2       15162    TIP3     H2       HT       0.417000       1.00800           0
     45487 W2       15163    TIP3     OH2      OT      -0.834000       15.9994           0
     45488 W2       15163    TIP3     H1       HT       0.417000       1.00800           0
     45489 W2       15163    TIP3     H2       HT       0.417000       1.00800           0
     45490 W2       15164    TIP3     OH2      OT      -0.834000       15.9994           0
     45491 W2       15164    TIP3     H1       HT       0.417000       1.00800           0
     45492 W2       15164    TIP3     H2       HT       0.417000       1.00800           0
     45493 W2       15165    TIP3     OH2      OT      -0.834000       15.9994           0
     45494 W2       15165    TIP3     H1       HT       0.417000       1.00800           0
     45495 W2       15165    TIP3     H2       HT       0.417000       1.00800           0
     45496 W2       15166    TIP3     OH2      OT      -0.834000       15.9994           0
     45497 W2       15166    TIP3     H1       HT       0.417000       1.00800           0
     45498 W2       15166    TIP3     H2       HT       0.417000       1.00800           0
     45499 W2       15167    TIP3     OH2      OT      -0.834000       15.9994           0
     45500 W2       15167    TIP3     H1       HT       0.417000       1.00800           0
     45501 W2       15167    TIP3     H2       HT       0.417000       1.00800           0
     45502 W2       15168    TIP3     OH2      OT      -0.834000       15.9994           0
     45503 W2       15168    TIP3     H1       HT       0.417000       1.00800           0
     45504 W2       15168    TIP3     H2       HT       0.417000       1.00800           0
     45505 W2       15169    TIP3     OH2      OT      -0.834000       15.9994           0
     45506 W2       15169    TIP3     H1       HT       0.417000       1.00800           0
     45507 W2       15169    TIP3     H2       HT       0.417000       1.00800           0
     45508 W2       15170    TIP3     OH2      OT      -0.834000       15.9994           0
     45509 W2       15170    TIP3     H1       HT       0.417000       1.00800           0
     45510 W2       15170    TIP3     H2       HT       0.417000       1.00800           0
     45511 W2       15171    TIP3     OH2      OT      -0.834000       15.9994           0
     45512 W2       15171    TIP3     H1       HT       0.417000       1.00800           0
     45513 W2       15171    TIP3     H2       HT       0.417000       1.00800           0
     45514 W2       15172    TIP3     OH2      OT      -0.834000       15.9994           0
     45515 W2       15172    TIP3     H1       HT       0.417000       1.00800           0
     45516 W2       15172    TIP3     H2       HT       0.417000       1.00800           0
     45517 W2       15173    TIP3     OH2      OT      -0.834000       15.9994           0
     45518 W2       15173    TIP3     H1       HT       0.417000       1.00800           0
     45519 W2       15173    TIP3     H2       HT       0.417000       1.00800           0
     45520 W2       15174    TIP3     OH2      OT      -0.834000       15.9994           0
     45521 W2       15174    TIP3     H1       HT       0.417000       1.00800           0
     45522 W2       15174    TIP3     H2       HT       0.417000       1.00800           0
     45523 W2       15175    TIP3     OH2      OT      -0.834000       15.9994           0
     45524 W2       15175    TIP3     H1       HT       0.417000       1.00800           0
     45525 W2       15175    TIP3     H2       HT       0.417000       1.00800           0
     45526 W2       15176    TIP3     OH2      OT      -0.834000       15.9994           0
     45527 W2       15176    TIP3     H1       HT       0.417000       1.00800           0
     45528 W2       15176    TIP3     H2       HT       0.417000       1.00800           0
     45529 W2       15177    TIP3     OH2      OT      -0.834000       15.9994           0
     45530 W2       15177    TIP3     H1       HT       0.417000       1.00800           0
     45531 W2       15177    TIP3     H2       HT       0.417000       1.00800           0
     45532 W2       15178    TIP3     OH2      OT      -0.834000       15.9994           0
     45533 W2       15178    TIP3     H1       HT       0.417000       1.00800           0
     45534 W2       15178    TIP3     H2       HT       0.417000       1.00800           0
     45535 W2       15179    TIP3     OH2      OT      -0.834000       15.9994           0
     45536 W2       15179    TIP3     H1       HT       0.417000       1.00800           0
     45537 W2       15179    TIP3     H2       HT       0.417000       1.00800           0
     45538 W2       15180    TIP3     OH2      OT      -0.834000       15.9994           0
     45539 W2       15180    TIP3     H1       HT       0.417000       1.00800           0
     45540 W2       15180    TIP3     H2       HT       0.417000       1.00800           0
     45541 W2       15181    TIP3     OH2      OT      -0.834000       15.9994           0
     45542 W2       15181    TIP3     H1       HT       0.417000       1.00800           0
     45543 W2       15181    TIP3     H2       HT       0.417000       1.00800           0
     45544 W2       15182    TIP3     OH2      OT      -0.834000       15.9994           0
     45545 W2       15182    TIP3     H1       HT       0.417000       1.00800           0
     45546 W2       15182    TIP3     H2       HT       0.417000       1.00800           0
     45547 W2       15183    TIP3     OH2      OT      -0.834000       15.9994           0
     45548 W2       15183    TIP3     H1       HT       0.417000       1.00800           0
     45549 W2       15183    TIP3     H2       HT       0.417000       1.00800           0
     45550 W2       15184    TIP3     OH2      OT      -0.834000       15.9994           0
     45551 W2       15184    TIP3     H1       HT       0.417000       1.00800           0
     45552 W2       15184    TIP3     H2       HT       0.417000       1.00800           0
     45553 W2       15185    TIP3     OH2      OT      -0.834000       15.9994           0
     45554 W2       15185    TIP3     H1       HT       0.417000       1.00800           0
     45555 W2       15185    TIP3     H2       HT       0.417000       1.00800           0
     45556 W2       15186    TIP3     OH2      OT      -0.834000       15.9994           0
     45557 W2       15186    TIP3     H1       HT       0.417000       1.00800           0
     45558 W2       15186    TIP3     H2       HT       0.417000       1.00800           0
     45559 W2       15187    TIP3     OH2      OT      -0.834000       15.9994           0
     45560 W2       15187    TIP3     H1       HT       0.417000       1.00800           0
     45561 W2       15187    TIP3     H2       HT       0.417000       1.00800           0
     45562 W2       15188    TIP3     OH2      OT      -0.834000       15.9994           0
     45563 W2       15188    TIP3     H1       HT       0.417000       1.00800           0
     45564 W2       15188    TIP3     H2       HT       0.417000       1.00800           0
     45565 W2       15189    TIP3     OH2      OT      -0.834000       15.9994           0
     45566 W2       15189    TIP3     H1       HT       0.417000       1.00800           0
     45567 W2       15189    TIP3     H2       HT       0.417000       1.00800           0
     45568 W2       15190    TIP3     OH2      OT      -0.834000       15.9994           0
     45569 W2       15190    TIP3     H1       HT       0.417000       1.00800           0
     45570 W2       15190    TIP3     H2       HT       0.417000       1.00800           0
     45571 W2       15191    TIP3     OH2      OT      -0.834000       15.9994           0
     45572 W2       15191    TIP3     H1       HT       0.417000       1.00800           0
     45573 W2       15191    TIP3     H2       HT       0.417000       1.00800           0
     45574 W2       15192    TIP3     OH2      OT      -0.834000       15.9994           0
     45575 W2       15192    TIP3     H1       HT       0.417000       1.00800           0
     45576 W2       15192    TIP3     H2       HT       0.417000       1.00800           0
     45577 W2       15193    TIP3     OH2      OT      -0.834000       15.9994           0
     45578 W2       15193    TIP3     H1       HT       0.417000       1.00800           0
     45579 W2       15193    TIP3     H2       HT       0.417000       1.00800           0
     45580 W2       15194    TIP3     OH2      OT      -0.834000       15.9994           0
     45581 W2       15194    TIP3     H1       HT       0.417000       1.00800           0
     45582 W2       15194    TIP3     H2       HT       0.417000       1.00800           0
     45583 W2       15195    TIP3     OH2      OT      -0.834000       15.9994           0
     45584 W2       15195    TIP3     H1       HT       0.417000       1.00800           0
     45585 W2       15195    TIP3     H2       HT       0.417000       1.00800           0
     45586 W2       15196    TIP3     OH2      OT      -0.834000       15.9994           0
     45587 W2       15196    TIP3     H1       HT       0.417000       1.00800           0
     45588 W2       15196    TIP3     H2       HT       0.417000       1.00800           0
     45589 W2       15197    TIP3     OH2      OT      -0.834000       15.9994           0
     45590 W2       15197    TIP3     H1       HT       0.417000       1.00800           0
     45591 W2       15197    TIP3     H2       HT       0.417000       1.00800           0
     45592 W2       15198    TIP3     OH2      OT      -0.834000       15.9994           0
     45593 W2       15198    TIP3     H1       HT       0.417000       1.00800           0
     45594 W2       15198    TIP3     H2       HT       0.417000       1.00800           0
     45595 W2       15199    TIP3     OH2      OT      -0.834000       15.9994           0
     45596 W2       15199    TIP3     H1       HT       0.417000       1.00800           0
     45597 W2       15199    TIP3     H2       HT       0.417000       1.00800           0
     45598 W2       15200    TIP3     OH2      OT      -0.834000       15.9994           0
     45599 W2       15200    TIP3     H1       HT       0.417000       1.00800           0
     45600 W2       15200    TIP3     H2       HT       0.417000       1.00800           0
     45601 W2       15201    TIP3     OH2      OT      -0.834000       15.9994           0
     45602 W2       15201    TIP3     H1       HT       0.417000       1.00800           0
     45603 W2       15201    TIP3     H2       HT       0.417000       1.00800           0
     45604 W2       15202    TIP3     OH2      OT      -0.834000       15.9994           0
     45605 W2       15202    TIP3     H1       HT       0.417000       1.00800           0
     45606 W2       15202    TIP3     H2       HT       0.417000       1.00800           0
     45607 W2       15203    TIP3     OH2      OT      -0.834000       15.9994           0
     45608 W2       15203    TIP3     H1       HT       0.417000       1.00800           0
     45609 W2       15203    TIP3     H2       HT       0.417000       1.00800           0
     45610 W2       15204    TIP3     OH2      OT      -0.834000       15.9994           0
     45611 W2       15204    TIP3     H1       HT       0.417000       1.00800           0
     45612 W2       15204    TIP3     H2       HT       0.417000       1.00800           0
     45613 W2       15205    TIP3     OH2      OT      -0.834000       15.9994           0
     45614 W2       15205    TIP3     H1       HT       0.417000       1.00800           0
     45615 W2       15205    TIP3     H2       HT       0.417000       1.00800           0
     45616 W2       15206    TIP3     OH2      OT      -0.834000       15.9994           0
     45617 W2       15206    TIP3     H1       HT       0.417000       1.00800           0
     45618 W2       15206    TIP3     H2       HT       0.417000       1.00800           0
     45619 W2       15207    TIP3     OH2      OT      -0.834000       15.9994           0
     45620 W2       15207    TIP3     H1       HT       0.417000       1.00800           0
     45621 W2       15207    TIP3     H2       HT       0.417000       1.00800           0
     45622 W2       15208    TIP3     OH2      OT      -0.834000       15.9994           0
     45623 W2       15208    TIP3     H1       HT       0.417000       1.00800           0
     45624 W2       15208    TIP3     H2       HT       0.417000       1.00800           0
     45625 W2       15209    TIP3     OH2      OT      -0.834000       15.9994           0
     45626 W2       15209    TIP3     H1       HT       0.417000       1.00800           0
     45627 W2       15209    TIP3     H2       HT       0.417000       1.00800           0
     45628 W2       15210    TIP3     OH2      OT      -0.834000       15.9994           0
     45629 W2       15210    TIP3     H1       HT       0.417000       1.00800           0
     45630 W2       15210    TIP3     H2       HT       0.417000       1.00800           0
     45631 W2       15211    TIP3     OH2      OT      -0.834000       15.9994           0
     45632 W2       15211    TIP3     H1       HT       0.417000       1.00800           0
     45633 W2       15211    TIP3     H2       HT       0.417000       1.00800           0
     45634 W2       15212    TIP3     OH2      OT      -0.834000       15.9994           0
     45635 W2       15212    TIP3     H1       HT       0.417000       1.00800           0
     45636 W2       15212    TIP3     H2       HT       0.417000       1.00800           0
     45637 W2       15213    TIP3     OH2      OT      -0.834000       15.9994           0
     45638 W2       15213    TIP3     H1       HT       0.417000       1.00800           0
     45639 W2       15213    TIP3     H2       HT       0.417000       1.00800           0
     45640 W2       15214    TIP3     OH2      OT      -0.834000       15.9994           0
     45641 W2       15214    TIP3     H1       HT       0.417000       1.00800           0
     45642 W2       15214    TIP3     H2       HT       0.417000       1.00800           0
     45643 W2       15215    TIP3     OH2      OT      -0.834000       15.9994           0
     45644 W2       15215    TIP3     H1       HT       0.417000       1.00800           0
     45645 W2       15215    TIP3     H2       HT       0.417000       1.00800           0
     45646 W2       15216    TIP3     OH2      OT      -0.834000       15.9994           0
     45647 W2       15216    TIP3     H1       HT       0.417000       1.00800           0
     45648 W2       15216    TIP3     H2       HT       0.417000       1.00800           0
     45649 W2       15217    TIP3     OH2      OT      -0.834000       15.9994           0
     45650 W2       15217    TIP3     H1       HT       0.417000       1.00800           0
     45651 W2       15217    TIP3     H2       HT       0.417000       1.00800           0
     45652 W2       15218    TIP3     OH2      OT      -0.834000       15.9994           0
     45653 W2       15218    TIP3     H1       HT       0.417000       1.00800           0
     45654 W2       15218    TIP3     H2       HT       0.417000       1.00800           0
     45655 W2       15219    TIP3     OH2      OT      -0.834000       15.9994           0
     45656 W2       15219    TIP3     H1       HT       0.417000       1.00800           0
     45657 W2       15219    TIP3     H2       HT       0.417000       1.00800           0
     45658 W2       15220    TIP3     OH2      OT      -0.834000       15.9994           0
     45659 W2       15220    TIP3     H1       HT       0.417000       1.00800           0
     45660 W2       15220    TIP3     H2       HT       0.417000       1.00800           0
     45661 W2       15221    TIP3     OH2      OT      -0.834000       15.9994           0
     45662 W2       15221    TIP3     H1       HT       0.417000       1.00800           0
     45663 W2       15221    TIP3     H2       HT       0.417000       1.00800           0
     45664 W2       15222    TIP3     OH2      OT      -0.834000       15.9994           0
     45665 W2       15222    TIP3     H1       HT       0.417000       1.00800           0
     45666 W2       15222    TIP3     H2       HT       0.417000       1.00800           0
     45667 W2       15223    TIP3     OH2      OT      -0.834000       15.9994           0
     45668 W2       15223    TIP3     H1       HT       0.417000       1.00800           0
     45669 W2       15223    TIP3     H2       HT       0.417000       1.00800           0
     45670 W2       15224    TIP3     OH2      OT      -0.834000       15.9994           0
     45671 W2       15224    TIP3     H1       HT       0.417000       1.00800           0
     45672 W2       15224    TIP3     H2       HT       0.417000       1.00800           0
     45673 W2       15225    TIP3     OH2      OT      -0.834000       15.9994           0
     45674 W2       15225    TIP3     H1       HT       0.417000       1.00800           0
     45675 W2       15225    TIP3     H2       HT       0.417000       1.00800           0
     45676 W2       15226    TIP3     OH2      OT      -0.834000       15.9994           0
     45677 W2       15226    TIP3     H1       HT       0.417000       1.00800           0
     45678 W2       15226    TIP3     H2       HT       0.417000       1.00800           0
     45679 W2       15227    TIP3     OH2      OT      -0.834000       15.9994           0
     45680 W2       15227    TIP3     H1       HT       0.417000       1.00800           0
     45681 W2       15227    TIP3     H2       HT       0.417000       1.00800           0
     45682 W2       15228    TIP3     OH2      OT      -0.834000       15.9994           0
     45683 W2       15228    TIP3     H1       HT       0.417000       1.00800           0
     45684 W2       15228    TIP3     H2       HT       0.417000       1.00800           0
     45685 W2       15229    TIP3     OH2      OT      -0.834000       15.9994           0
     45686 W2       15229    TIP3     H1       HT       0.417000       1.00800           0
     45687 W2       15229    TIP3     H2       HT       0.417000       1.00800           0
     45688 W2       15230    TIP3     OH2      OT      -0.834000       15.9994           0
     45689 W2       15230    TIP3     H1       HT       0.417000       1.00800           0
     45690 W2       15230    TIP3     H2       HT       0.417000       1.00800           0
     45691 W2       15231    TIP3     OH2      OT      -0.834000       15.9994           0
     45692 W2       15231    TIP3     H1       HT       0.417000       1.00800           0
     45693 W2       15231    TIP3     H2       HT       0.417000       1.00800           0
     45694 W2       15232    TIP3     OH2      OT      -0.834000       15.9994           0
     45695 W2       15232    TIP3     H1       HT       0.417000       1.00800           0
     45696 W2       15232    TIP3     H2       HT       0.417000       1.00800           0
     45697 W2       15233    TIP3     OH2      OT      -0.834000       15.9994           0
     45698 W2       15233    TIP3     H1       HT       0.417000       1.00800           0
     45699 W2       15233    TIP3     H2       HT       0.417000       1.00800           0
     45700 W2       15234    TIP3     OH2      OT      -0.834000       15.9994           0
     45701 W2       15234    TIP3     H1       HT       0.417000       1.00800           0
     45702 W2       15234    TIP3     H2       HT       0.417000       1.00800           0
     45703 W2       15235    TIP3     OH2      OT      -0.834000       15.9994           0
     45704 W2       15235    TIP3     H1       HT       0.417000       1.00800           0
     45705 W2       15235    TIP3     H2       HT       0.417000       1.00800           0
     45706 W2       15236    TIP3     OH2      OT      -0.834000       15.9994           0
     45707 W2       15236    TIP3     H1       HT       0.417000       1.00800           0
     45708 W2       15236    TIP3     H2       HT       0.417000       1.00800           0
     45709 W2       15237    TIP3     OH2      OT      -0.834000       15.9994           0
     45710 W2       15237    TIP3     H1       HT       0.417000       1.00800           0
     45711 W2       15237    TIP3     H2       HT       0.417000       1.00800           0
     45712 W2       15238    TIP3     OH2      OT      -0.834000       15.9994           0
     45713 W2       15238    TIP3     H1       HT       0.417000       1.00800           0
     45714 W2       15238    TIP3     H2       HT       0.417000       1.00800           0
     45715 W2       15239    TIP3     OH2      OT      -0.834000       15.9994           0
     45716 W2       15239    TIP3     H1       HT       0.417000       1.00800           0
     45717 W2       15239    TIP3     H2       HT       0.417000       1.00800           0
     45718 W2       15240    TIP3     OH2      OT      -0.834000       15.9994           0
     45719 W2       15240    TIP3     H1       HT       0.417000       1.00800           0
     45720 W2       15240    TIP3     H2       HT       0.417000       1.00800           0
     45721 W2       15241    TIP3     OH2      OT      -0.834000       15.9994           0
     45722 W2       15241    TIP3     H1       HT       0.417000       1.00800           0
     45723 W2       15241    TIP3     H2       HT       0.417000       1.00800           0
     45724 W2       15242    TIP3     OH2      OT      -0.834000       15.9994           0
     45725 W2       15242    TIP3     H1       HT       0.417000       1.00800           0
     45726 W2       15242    TIP3     H2       HT       0.417000       1.00800           0
     45727 W2       15243    TIP3     OH2      OT      -0.834000       15.9994           0
     45728 W2       15243    TIP3     H1       HT       0.417000       1.00800           0
     45729 W2       15243    TIP3     H2       HT       0.417000       1.00800           0
     45730 W2       15244    TIP3     OH2      OT      -0.834000       15.9994           0
     45731 W2       15244    TIP3     H1       HT       0.417000       1.00800           0
     45732 W2       15244    TIP3     H2       HT       0.417000       1.00800           0
     45733 W2       15245    TIP3     OH2      OT      -0.834000       15.9994           0
     45734 W2       15245    TIP3     H1       HT       0.417000       1.00800           0
     45735 W2       15245    TIP3     H2       HT       0.417000       1.00800           0
     45736 W2       15246    TIP3     OH2      OT      -0.834000       15.9994           0
     45737 W2       15246    TIP3     H1       HT       0.417000       1.00800           0
     45738 W2       15246    TIP3     H2       HT       0.417000       1.00800           0
     45739 W2       15247    TIP3     OH2      OT      -0.834000       15.9994           0
     45740 W2       15247    TIP3     H1       HT       0.417000       1.00800           0
     45741 W2       15247    TIP3     H2       HT       0.417000       1.00800           0
     45742 W2       15248    TIP3     OH2      OT      -0.834000       15.9994           0
     45743 W2       15248    TIP3     H1       HT       0.417000       1.00800           0
     45744 W2       15248    TIP3     H2       HT       0.417000       1.00800           0
     45745 W2       15249    TIP3     OH2      OT      -0.834000       15.9994           0
     45746 W2       15249    TIP3     H1       HT       0.417000       1.00800           0
     45747 W2       15249    TIP3     H2       HT       0.417000       1.00800           0
     45748 W2       15250    TIP3     OH2      OT      -0.834000       15.9994           0
     45749 W2       15250    TIP3     H1       HT       0.417000       1.00800           0
     45750 W2       15250    TIP3     H2       HT       0.417000       1.00800           0
     45751 W2       15251    TIP3     OH2      OT      -0.834000       15.9994           0
     45752 W2       15251    TIP3     H1       HT       0.417000       1.00800           0
     45753 W2       15251    TIP3     H2       HT       0.417000       1.00800           0
     45754 W2       15252    TIP3     OH2      OT      -0.834000       15.9994           0
     45755 W2       15252    TIP3     H1       HT       0.417000       1.00800           0
     45756 W2       15252    TIP3     H2       HT       0.417000       1.00800           0
     45757 W2       15253    TIP3     OH2      OT      -0.834000       15.9994           0
     45758 W2       15253    TIP3     H1       HT       0.417000       1.00800           0
     45759 W2       15253    TIP3     H2       HT       0.417000       1.00800           0
     45760 W2       15254    TIP3     OH2      OT      -0.834000       15.9994           0
     45761 W2       15254    TIP3     H1       HT       0.417000       1.00800           0
     45762 W2       15254    TIP3     H2       HT       0.417000       1.00800           0
     45763 W2       15255    TIP3     OH2      OT      -0.834000       15.9994           0
     45764 W2       15255    TIP3     H1       HT       0.417000       1.00800           0
     45765 W2       15255    TIP3     H2       HT       0.417000       1.00800           0
     45766 W2       15256    TIP3     OH2      OT      -0.834000       15.9994           0
     45767 W2       15256    TIP3     H1       HT       0.417000       1.00800           0
     45768 W2       15256    TIP3     H2       HT       0.417000       1.00800           0
     45769 W2       15257    TIP3     OH2      OT      -0.834000       15.9994           0
     45770 W2       15257    TIP3     H1       HT       0.417000       1.00800           0
     45771 W2       15257    TIP3     H2       HT       0.417000       1.00800           0
     45772 W2       15258    TIP3     OH2      OT      -0.834000       15.9994           0
     45773 W2       15258    TIP3     H1       HT       0.417000       1.00800           0
     45774 W2       15258    TIP3     H2       HT       0.417000       1.00800           0
     45775 W2       15259    TIP3     OH2      OT      -0.834000       15.9994           0
     45776 W2       15259    TIP3     H1       HT       0.417000       1.00800           0
     45777 W2       15259    TIP3     H2       HT       0.417000       1.00800           0
     45778 W2       15260    TIP3     OH2      OT      -0.834000       15.9994           0
     45779 W2       15260    TIP3     H1       HT       0.417000       1.00800           0
     45780 W2       15260    TIP3     H2       HT       0.417000       1.00800           0
     45781 W2       15261    TIP3     OH2      OT      -0.834000       15.9994           0
     45782 W2       15261    TIP3     H1       HT       0.417000       1.00800           0
     45783 W2       15261    TIP3     H2       HT       0.417000       1.00800           0
     45784 W2       15262    TIP3     OH2      OT      -0.834000       15.9994           0
     45785 W2       15262    TIP3     H1       HT       0.417000       1.00800           0
     45786 W2       15262    TIP3     H2       HT       0.417000       1.00800           0
     45787 W2       15263    TIP3     OH2      OT      -0.834000       15.9994           0
     45788 W2       15263    TIP3     H1       HT       0.417000       1.00800           0
     45789 W2       15263    TIP3     H2       HT       0.417000       1.00800           0
     45790 W2       15264    TIP3     OH2      OT      -0.834000       15.9994           0
     45791 W2       15264    TIP3     H1       HT       0.417000       1.00800           0
     45792 W2       15264    TIP3     H2       HT       0.417000       1.00800           0
     45793 W2       15265    TIP3     OH2      OT      -0.834000       15.9994           0
     45794 W2       15265    TIP3     H1       HT       0.417000       1.00800           0
     45795 W2       15265    TIP3     H2       HT       0.417000       1.00800           0
     45796 W2       15266    TIP3     OH2      OT      -0.834000       15.9994           0
     45797 W2       15266    TIP3     H1       HT       0.417000       1.00800           0
     45798 W2       15266    TIP3     H2       HT       0.417000       1.00800           0
     45799 W2       15267    TIP3     OH2      OT      -0.834000       15.9994           0
     45800 W2       15267    TIP3     H1       HT       0.417000       1.00800           0
     45801 W2       15267    TIP3     H2       HT       0.417000       1.00800           0
     45802 W2       15268    TIP3     OH2      OT      -0.834000       15.9994           0
     45803 W2       15268    TIP3     H1       HT       0.417000       1.00800           0
     45804 W2       15268    TIP3     H2       HT       0.417000       1.00800           0
     45805 W2       15269    TIP3     OH2      OT      -0.834000       15.9994           0
     45806 W2       15269    TIP3     H1       HT       0.417000       1.00800           0
     45807 W2       15269    TIP3     H2       HT       0.417000       1.00800           0
     45808 W2       15270    TIP3     OH2      OT      -0.834000       15.9994           0
     45809 W2       15270    TIP3     H1       HT       0.417000       1.00800           0
     45810 W2       15270    TIP3     H2       HT       0.417000       1.00800           0
     45811 W2       15271    TIP3     OH2      OT      -0.834000       15.9994           0
     45812 W2       15271    TIP3     H1       HT       0.417000       1.00800           0
     45813 W2       15271    TIP3     H2       HT       0.417000       1.00800           0
     45814 W2       15272    TIP3     OH2      OT      -0.834000       15.9994           0
     45815 W2       15272    TIP3     H1       HT       0.417000       1.00800           0
     45816 W2       15272    TIP3     H2       HT       0.417000       1.00800           0
     45817 W2       15273    TIP3     OH2      OT      -0.834000       15.9994           0
     45818 W2       15273    TIP3     H1       HT       0.417000       1.00800           0
     45819 W2       15273    TIP3     H2       HT       0.417000       1.00800           0
     45820 W2       15274    TIP3     OH2      OT      -0.834000       15.9994           0
     45821 W2       15274    TIP3     H1       HT       0.417000       1.00800           0
     45822 W2       15274    TIP3     H2       HT       0.417000       1.00800           0
     45823 W2       15275    TIP3     OH2      OT      -0.834000       15.9994           0
     45824 W2       15275    TIP3     H1       HT       0.417000       1.00800           0
     45825 W2       15275    TIP3     H2       HT       0.417000       1.00800           0
     45826 W2       15276    TIP3     OH2      OT      -0.834000       15.9994           0
     45827 W2       15276    TIP3     H1       HT       0.417000       1.00800           0
     45828 W2       15276    TIP3     H2       HT       0.417000       1.00800           0
     45829 W2       15277    TIP3     OH2      OT      -0.834000       15.9994           0
     45830 W2       15277    TIP3     H1       HT       0.417000       1.00800           0
     45831 W2       15277    TIP3     H2       HT       0.417000       1.00800           0
     45832 W2       15278    TIP3     OH2      OT      -0.834000       15.9994           0
     45833 W2       15278    TIP3     H1       HT       0.417000       1.00800           0
     45834 W2       15278    TIP3     H2       HT       0.417000       1.00800           0
     45835 W2       15279    TIP3     OH2      OT      -0.834000       15.9994           0
     45836 W2       15279    TIP3     H1       HT       0.417000       1.00800           0
     45837 W2       15279    TIP3     H2       HT       0.417000       1.00800           0
     45838 W2       15280    TIP3     OH2      OT      -0.834000       15.9994           0
     45839 W2       15280    TIP3     H1       HT       0.417000       1.00800           0
     45840 W2       15280    TIP3     H2       HT       0.417000       1.00800           0
     45841 W2       15281    TIP3     OH2      OT      -0.834000       15.9994           0
     45842 W2       15281    TIP3     H1       HT       0.417000       1.00800           0
     45843 W2       15281    TIP3     H2       HT       0.417000       1.00800           0
     45844 W2       15282    TIP3     OH2      OT      -0.834000       15.9994           0
     45845 W2       15282    TIP3     H1       HT       0.417000       1.00800           0
     45846 W2       15282    TIP3     H2       HT       0.417000       1.00800           0
     45847 W2       15283    TIP3     OH2      OT      -0.834000       15.9994           0
     45848 W2       15283    TIP3     H1       HT       0.417000       1.00800           0
     45849 W2       15283    TIP3     H2       HT       0.417000       1.00800           0
     45850 W2       15284    TIP3     OH2      OT      -0.834000       15.9994           0
     45851 W2       15284    TIP3     H1       HT       0.417000       1.00800           0
     45852 W2       15284    TIP3     H2       HT       0.417000       1.00800           0
     45853 W2       15285    TIP3     OH2      OT      -0.834000       15.9994           0
     45854 W2       15285    TIP3     H1       HT       0.417000       1.00800           0
     45855 W2       15285    TIP3     H2       HT       0.417000       1.00800           0
     45856 W2       15286    TIP3     OH2      OT      -0.834000       15.9994           0
     45857 W2       15286    TIP3     H1       HT       0.417000       1.00800           0
     45858 W2       15286    TIP3     H2       HT       0.417000       1.00800           0
     45859 W2       15287    TIP3     OH2      OT      -0.834000       15.9994           0
     45860 W2       15287    TIP3     H1       HT       0.417000       1.00800           0
     45861 W2       15287    TIP3     H2       HT       0.417000       1.00800           0
     45862 W2       15288    TIP3     OH2      OT      -0.834000       15.9994           0
     45863 W2       15288    TIP3     H1       HT       0.417000       1.00800           0
     45864 W2       15288    TIP3     H2       HT       0.417000       1.00800           0
     45865 W2       15289    TIP3     OH2      OT      -0.834000       15.9994           0
     45866 W2       15289    TIP3     H1       HT       0.417000       1.00800           0
     45867 W2       15289    TIP3     H2       HT       0.417000       1.00800           0
     45868 W2       15290    TIP3     OH2      OT      -0.834000       15.9994           0
     45869 W2       15290    TIP3     H1       HT       0.417000       1.00800           0
     45870 W2       15290    TIP3     H2       HT       0.417000       1.00800           0
     45871 W2       15291    TIP3     OH2      OT      -0.834000       15.9994           0
     45872 W2       15291    TIP3     H1       HT       0.417000       1.00800           0
     45873 W2       15291    TIP3     H2       HT       0.417000       1.00800           0
     45874 W2       15292    TIP3     OH2      OT      -0.834000       15.9994           0
     45875 W2       15292    TIP3     H1       HT       0.417000       1.00800           0
     45876 W2       15292    TIP3     H2       HT       0.417000       1.00800           0
     45877 W2       15293    TIP3     OH2      OT      -0.834000       15.9994           0
     45878 W2       15293    TIP3     H1       HT       0.417000       1.00800           0
     45879 W2       15293    TIP3     H2       HT       0.417000       1.00800           0
     45880 W2       15294    TIP3     OH2      OT      -0.834000       15.9994           0
     45881 W2       15294    TIP3     H1       HT       0.417000       1.00800           0
     45882 W2       15294    TIP3     H2       HT       0.417000       1.00800           0
     45883 W2       15295    TIP3     OH2      OT      -0.834000       15.9994           0
     45884 W2       15295    TIP3     H1       HT       0.417000       1.00800           0
     45885 W2       15295    TIP3     H2       HT       0.417000       1.00800           0
     45886 W2       15296    TIP3     OH2      OT      -0.834000       15.9994           0
     45887 W2       15296    TIP3     H1       HT       0.417000       1.00800           0
     45888 W2       15296    TIP3     H2       HT       0.417000       1.00800           0
     45889 W2       15297    TIP3     OH2      OT      -0.834000       15.9994           0
     45890 W2       15297    TIP3     H1       HT       0.417000       1.00800           0
     45891 W2       15297    TIP3     H2       HT       0.417000       1.00800           0
     45892 W2       15298    TIP3     OH2      OT      -0.834000       15.9994           0
     45893 W2       15298    TIP3     H1       HT       0.417000       1.00800           0
     45894 W2       15298    TIP3     H2       HT       0.417000       1.00800           0
     45895 W2       15299    TIP3     OH2      OT      -0.834000       15.9994           0
     45896 W2       15299    TIP3     H1       HT       0.417000       1.00800           0
     45897 W2       15299    TIP3     H2       HT       0.417000       1.00800           0
     45898 W2       15300    TIP3     OH2      OT      -0.834000       15.9994           0
     45899 W2       15300    TIP3     H1       HT       0.417000       1.00800           0
     45900 W2       15300    TIP3     H2       HT       0.417000       1.00800           0
     45901 W2       15301    TIP3     OH2      OT      -0.834000       15.9994           0
     45902 W2       15301    TIP3     H1       HT       0.417000       1.00800           0
     45903 W2       15301    TIP3     H2       HT       0.417000       1.00800           0
     45904 W2       15302    TIP3     OH2      OT      -0.834000       15.9994           0
     45905 W2       15302    TIP3     H1       HT       0.417000       1.00800           0
     45906 W2       15302    TIP3     H2       HT       0.417000       1.00800           0
     45907 W2       15303    TIP3     OH2      OT      -0.834000       15.9994           0
     45908 W2       15303    TIP3     H1       HT       0.417000       1.00800           0
     45909 W2       15303    TIP3     H2       HT       0.417000       1.00800           0
     45910 W2       15304    TIP3     OH2      OT      -0.834000       15.9994           0
     45911 W2       15304    TIP3     H1       HT       0.417000       1.00800           0
     45912 W2       15304    TIP3     H2       HT       0.417000       1.00800           0
     45913 W2       15305    TIP3     OH2      OT      -0.834000       15.9994           0
     45914 W2       15305    TIP3     H1       HT       0.417000       1.00800           0
     45915 W2       15305    TIP3     H2       HT       0.417000       1.00800           0
     45916 W2       15306    TIP3     OH2      OT      -0.834000       15.9994           0
     45917 W2       15306    TIP3     H1       HT       0.417000       1.00800           0
     45918 W2       15306    TIP3     H2       HT       0.417000       1.00800           0
     45919 W2       15307    TIP3     OH2      OT      -0.834000       15.9994           0
     45920 W2       15307    TIP3     H1       HT       0.417000       1.00800           0
     45921 W2       15307    TIP3     H2       HT       0.417000       1.00800           0
     45922 W2       15308    TIP3     OH2      OT      -0.834000       15.9994           0
     45923 W2       15308    TIP3     H1       HT       0.417000       1.00800           0
     45924 W2       15308    TIP3     H2       HT       0.417000       1.00800           0
     45925 W2       15309    TIP3     OH2      OT      -0.834000       15.9994           0
     45926 W2       15309    TIP3     H1       HT       0.417000       1.00800           0
     45927 W2       15309    TIP3     H2       HT       0.417000       1.00800           0
     45928 W2       15310    TIP3     OH2      OT      -0.834000       15.9994           0
     45929 W2       15310    TIP3     H1       HT       0.417000       1.00800           0
     45930 W2       15310    TIP3     H2       HT       0.417000       1.00800           0
     45931 W2       15311    TIP3     OH2      OT      -0.834000       15.9994           0
     45932 W2       15311    TIP3     H1       HT       0.417000       1.00800           0
     45933 W2       15311    TIP3     H2       HT       0.417000       1.00800           0
     45934 W2       15312    TIP3     OH2      OT      -0.834000       15.9994           0
     45935 W2       15312    TIP3     H1       HT       0.417000       1.00800           0
     45936 W2       15312    TIP3     H2       HT       0.417000       1.00800           0
     45937 W2       15313    TIP3     OH2      OT      -0.834000       15.9994           0
     45938 W2       15313    TIP3     H1       HT       0.417000       1.00800           0
     45939 W2       15313    TIP3     H2       HT       0.417000       1.00800           0
     45940 W2       15314    TIP3     OH2      OT      -0.834000       15.9994           0
     45941 W2       15314    TIP3     H1       HT       0.417000       1.00800           0
     45942 W2       15314    TIP3     H2       HT       0.417000       1.00800           0
     45943 W2       15315    TIP3     OH2      OT      -0.834000       15.9994           0
     45944 W2       15315    TIP3     H1       HT       0.417000       1.00800           0
     45945 W2       15315    TIP3     H2       HT       0.417000       1.00800           0
     45946 W2       15316    TIP3     OH2      OT      -0.834000       15.9994           0
     45947 W2       15316    TIP3     H1       HT       0.417000       1.00800           0
     45948 W2       15316    TIP3     H2       HT       0.417000       1.00800           0
     45949 W2       15317    TIP3     OH2      OT      -0.834000       15.9994           0
     45950 W2       15317    TIP3     H1       HT       0.417000       1.00800           0
     45951 W2       15317    TIP3     H2       HT       0.417000       1.00800           0
     45952 W2       15318    TIP3     OH2      OT      -0.834000       15.9994           0
     45953 W2       15318    TIP3     H1       HT       0.417000       1.00800           0
     45954 W2       15318    TIP3     H2       HT       0.417000       1.00800           0
     45955 W2       15319    TIP3     OH2      OT      -0.834000       15.9994           0
     45956 W2       15319    TIP3     H1       HT       0.417000       1.00800           0
     45957 W2       15319    TIP3     H2       HT       0.417000       1.00800           0
     45958 W2       15320    TIP3     OH2      OT      -0.834000       15.9994           0
     45959 W2       15320    TIP3     H1       HT       0.417000       1.00800           0
     45960 W2       15320    TIP3     H2       HT       0.417000       1.00800           0
     45961 W2       15321    TIP3     OH2      OT      -0.834000       15.9994           0
     45962 W2       15321    TIP3     H1       HT       0.417000       1.00800           0
     45963 W2       15321    TIP3     H2       HT       0.417000       1.00800           0
     45964 W2       15322    TIP3     OH2      OT      -0.834000       15.9994           0
     45965 W2       15322    TIP3     H1       HT       0.417000       1.00800           0
     45966 W2       15322    TIP3     H2       HT       0.417000       1.00800           0
     45967 W2       15323    TIP3     OH2      OT      -0.834000       15.9994           0
     45968 W2       15323    TIP3     H1       HT       0.417000       1.00800           0
     45969 W2       15323    TIP3     H2       HT       0.417000       1.00800           0
     45970 W2       15324    TIP3     OH2      OT      -0.834000       15.9994           0
     45971 W2       15324    TIP3     H1       HT       0.417000       1.00800           0
     45972 W2       15324    TIP3     H2       HT       0.417000       1.00800           0
     45973 W2       15325    TIP3     OH2      OT      -0.834000       15.9994           0
     45974 W2       15325    TIP3     H1       HT       0.417000       1.00800           0
     45975 W2       15325    TIP3     H2       HT       0.417000       1.00800           0
     45976 W2       15326    TIP3     OH2      OT      -0.834000       15.9994           0
     45977 W2       15326    TIP3     H1       HT       0.417000       1.00800           0
     45978 W2       15326    TIP3     H2       HT       0.417000       1.00800           0
     45979 W2       15327    TIP3     OH2      OT      -0.834000       15.9994           0
     45980 W2       15327    TIP3     H1       HT       0.417000       1.00800           0
     45981 W2       15327    TIP3     H2       HT       0.417000       1.00800           0
     45982 W2       15328    TIP3     OH2      OT      -0.834000       15.9994           0
     45983 W2       15328    TIP3     H1       HT       0.417000       1.00800           0
     45984 W2       15328    TIP3     H2       HT       0.417000       1.00800           0
     45985 W2       15329    TIP3     OH2      OT      -0.834000       15.9994           0
     45986 W2       15329    TIP3     H1       HT       0.417000       1.00800           0
     45987 W2       15329    TIP3     H2       HT       0.417000       1.00800           0
     45988 W2       15330    TIP3     OH2      OT      -0.834000       15.9994           0
     45989 W2       15330    TIP3     H1       HT       0.417000       1.00800           0
     45990 W2       15330    TIP3     H2       HT       0.417000       1.00800           0
     45991 W2       15331    TIP3     OH2      OT      -0.834000       15.9994           0
     45992 W2       15331    TIP3     H1       HT       0.417000       1.00800           0
     45993 W2       15331    TIP3     H2       HT       0.417000       1.00800           0
     45994 W2       15332    TIP3     OH2      OT      -0.834000       15.9994           0
     45995 W2       15332    TIP3     H1       HT       0.417000       1.00800           0
     45996 W2       15332    TIP3     H2       HT       0.417000       1.00800           0
     45997 W2       15333    TIP3     OH2      OT      -0.834000       15.9994           0
     45998 W2       15333    TIP3     H1       HT       0.417000       1.00800           0
     45999 W2       15333    TIP3     H2       HT       0.417000       1.00800           0
     46000 W2       15334    TIP3     OH2      OT      -0.834000       15.9994           0
     46001 W2       15334    TIP3     H1       HT       0.417000       1.00800           0
     46002 W2       15334    TIP3     H2       HT       0.417000       1.00800           0
     46003 W2       15335    TIP3     OH2      OT      -0.834000       15.9994           0
     46004 W2       15335    TIP3     H1       HT       0.417000       1.00800           0
     46005 W2       15335    TIP3     H2       HT       0.417000       1.00800           0
     46006 W2       15336    TIP3     OH2      OT      -0.834000       15.9994           0
     46007 W2       15336    TIP3     H1       HT       0.417000       1.00800           0
     46008 W2       15336    TIP3     H2       HT       0.417000       1.00800           0
     46009 W2       15337    TIP3     OH2      OT      -0.834000       15.9994           0
     46010 W2       15337    TIP3     H1       HT       0.417000       1.00800           0
     46011 W2       15337    TIP3     H2       HT       0.417000       1.00800           0
     46012 W2       15338    TIP3     OH2      OT      -0.834000       15.9994           0
     46013 W2       15338    TIP3     H1       HT       0.417000       1.00800           0
     46014 W2       15338    TIP3     H2       HT       0.417000       1.00800           0
     46015 W2       15339    TIP3     OH2      OT      -0.834000       15.9994           0
     46016 W2       15339    TIP3     H1       HT       0.417000       1.00800           0
     46017 W2       15339    TIP3     H2       HT       0.417000       1.00800           0
     46018 W2       15340    TIP3     OH2      OT      -0.834000       15.9994           0
     46019 W2       15340    TIP3     H1       HT       0.417000       1.00800           0
     46020 W2       15340    TIP3     H2       HT       0.417000       1.00800           0
     46021 W2       15341    TIP3     OH2      OT      -0.834000       15.9994           0
     46022 W2       15341    TIP3     H1       HT       0.417000       1.00800           0
     46023 W2       15341    TIP3     H2       HT       0.417000       1.00800           0
     46024 W2       15342    TIP3     OH2      OT      -0.834000       15.9994           0
     46025 W2       15342    TIP3     H1       HT       0.417000       1.00800           0
     46026 W2       15342    TIP3     H2       HT       0.417000       1.00800           0
     46027 W2       15343    TIP3     OH2      OT      -0.834000       15.9994           0
     46028 W2       15343    TIP3     H1       HT       0.417000       1.00800           0
     46029 W2       15343    TIP3     H2       HT       0.417000       1.00800           0
     46030 W2       15344    TIP3     OH2      OT      -0.834000       15.9994           0
     46031 W2       15344    TIP3     H1       HT       0.417000       1.00800           0
     46032 W2       15344    TIP3     H2       HT       0.417000       1.00800           0
     46033 W2       15345    TIP3     OH2      OT      -0.834000       15.9994           0
     46034 W2       15345    TIP3     H1       HT       0.417000       1.00800           0
     46035 W2       15345    TIP3     H2       HT       0.417000       1.00800           0
     46036 W2       15346    TIP3     OH2      OT      -0.834000       15.9994           0
     46037 W2       15346    TIP3     H1       HT       0.417000       1.00800           0
     46038 W2       15346    TIP3     H2       HT       0.417000       1.00800           0
     46039 W2       15347    TIP3     OH2      OT      -0.834000       15.9994           0
     46040 W2       15347    TIP3     H1       HT       0.417000       1.00800           0
     46041 W2       15347    TIP3     H2       HT       0.417000       1.00800           0
     46042 W2       15348    TIP3     OH2      OT      -0.834000       15.9994           0
     46043 W2       15348    TIP3     H1       HT       0.417000       1.00800           0
     46044 W2       15348    TIP3     H2       HT       0.417000       1.00800           0
     46045 W2       15349    TIP3     OH2      OT      -0.834000       15.9994           0
     46046 W2       15349    TIP3     H1       HT       0.417000       1.00800           0
     46047 W2       15349    TIP3     H2       HT       0.417000       1.00800           0
     46048 W2       15350    TIP3     OH2      OT      -0.834000       15.9994           0
     46049 W2       15350    TIP3     H1       HT       0.417000       1.00800           0
     46050 W2       15350    TIP3     H2       HT       0.417000       1.00800           0
     46051 W2       15351    TIP3     OH2      OT      -0.834000       15.9994           0
     46052 W2       15351    TIP3     H1       HT       0.417000       1.00800           0
     46053 W2       15351    TIP3     H2       HT       0.417000       1.00800           0
     46054 W2       15352    TIP3     OH2      OT      -0.834000       15.9994           0
     46055 W2       15352    TIP3     H1       HT       0.417000       1.00800           0
     46056 W2       15352    TIP3     H2       HT       0.417000       1.00800           0
     46057 W2       15353    TIP3     OH2      OT      -0.834000       15.9994           0
     46058 W2       15353    TIP3     H1       HT       0.417000       1.00800           0
     46059 W2       15353    TIP3     H2       HT       0.417000       1.00800           0
     46060 W2       15354    TIP3     OH2      OT      -0.834000       15.9994           0
     46061 W2       15354    TIP3     H1       HT       0.417000       1.00800           0
     46062 W2       15354    TIP3     H2       HT       0.417000       1.00800           0
     46063 W2       15355    TIP3     OH2      OT      -0.834000       15.9994           0
     46064 W2       15355    TIP3     H1       HT       0.417000       1.00800           0
     46065 W2       15355    TIP3     H2       HT       0.417000       1.00800           0
     46066 W2       15356    TIP3     OH2      OT      -0.834000       15.9994           0
     46067 W2       15356    TIP3     H1       HT       0.417000       1.00800           0
     46068 W2       15356    TIP3     H2       HT       0.417000       1.00800           0
     46069 W2       15357    TIP3     OH2      OT      -0.834000       15.9994           0
     46070 W2       15357    TIP3     H1       HT       0.417000       1.00800           0
     46071 W2       15357    TIP3     H2       HT       0.417000       1.00800           0
     46072 W2       15358    TIP3     OH2      OT      -0.834000       15.9994           0
     46073 W2       15358    TIP3     H1       HT       0.417000       1.00800           0
     46074 W2       15358    TIP3     H2       HT       0.417000       1.00800           0
     46075 W2       15359    TIP3     OH2      OT      -0.834000       15.9994           0
     46076 W2       15359    TIP3     H1       HT       0.417000       1.00800           0
     46077 W2       15359    TIP3     H2       HT       0.417000       1.00800           0
     46078 W2       15360    TIP3     OH2      OT      -0.834000       15.9994           0
     46079 W2       15360    TIP3     H1       HT       0.417000       1.00800           0
     46080 W2       15360    TIP3     H2       HT       0.417000       1.00800           0
     46081 W2       15361    TIP3     OH2      OT      -0.834000       15.9994           0
     46082 W2       15361    TIP3     H1       HT       0.417000       1.00800           0
     46083 W2       15361    TIP3     H2       HT       0.417000       1.00800           0
     46084 W2       15362    TIP3     OH2      OT      -0.834000       15.9994           0
     46085 W2       15362    TIP3     H1       HT       0.417000       1.00800           0
     46086 W2       15362    TIP3     H2       HT       0.417000       1.00800           0
     46087 W2       15363    TIP3     OH2      OT      -0.834000       15.9994           0
     46088 W2       15363    TIP3     H1       HT       0.417000       1.00800           0
     46089 W2       15363    TIP3     H2       HT       0.417000       1.00800           0
     46090 W2       15364    TIP3     OH2      OT      -0.834000       15.9994           0
     46091 W2       15364    TIP3     H1       HT       0.417000       1.00800           0
     46092 W2       15364    TIP3     H2       HT       0.417000       1.00800           0
     46093 W2       15365    TIP3     OH2      OT      -0.834000       15.9994           0
     46094 W2       15365    TIP3     H1       HT       0.417000       1.00800           0
     46095 W2       15365    TIP3     H2       HT       0.417000       1.00800           0
     46096 W2       15366    TIP3     OH2      OT      -0.834000       15.9994           0
     46097 W2       15366    TIP3     H1       HT       0.417000       1.00800           0
     46098 W2       15366    TIP3     H2       HT       0.417000       1.00800           0
     46099 W2       15367    TIP3     OH2      OT      -0.834000       15.9994           0
     46100 W2       15367    TIP3     H1       HT       0.417000       1.00800           0
     46101 W2       15367    TIP3     H2       HT       0.417000       1.00800           0
     46102 W2       15368    TIP3     OH2      OT      -0.834000       15.9994           0
     46103 W2       15368    TIP3     H1       HT       0.417000       1.00800           0
     46104 W2       15368    TIP3     H2       HT       0.417000       1.00800           0
     46105 W2       15369    TIP3     OH2      OT      -0.834000       15.9994           0
     46106 W2       15369    TIP3     H1       HT       0.417000       1.00800           0
     46107 W2       15369    TIP3     H2       HT       0.417000       1.00800           0
     46108 W2       15370    TIP3     OH2      OT      -0.834000       15.9994           0
     46109 W2       15370    TIP3     H1       HT       0.417000       1.00800           0
     46110 W2       15370    TIP3     H2       HT       0.417000       1.00800           0
     46111 W2       15371    TIP3     OH2      OT      -0.834000       15.9994           0
     46112 W2       15371    TIP3     H1       HT       0.417000       1.00800           0
     46113 W2       15371    TIP3     H2       HT       0.417000       1.00800           0
     46114 W2       15372    TIP3     OH2      OT      -0.834000       15.9994           0
     46115 W2       15372    TIP3     H1       HT       0.417000       1.00800           0
     46116 W2       15372    TIP3     H2       HT       0.417000       1.00800           0
     46117 W2       15373    TIP3     OH2      OT      -0.834000       15.9994           0
     46118 W2       15373    TIP3     H1       HT       0.417000       1.00800           0
     46119 W2       15373    TIP3     H2       HT       0.417000       1.00800           0
     46120 W2       15374    TIP3     OH2      OT      -0.834000       15.9994           0
     46121 W2       15374    TIP3     H1       HT       0.417000       1.00800           0
     46122 W2       15374    TIP3     H2       HT       0.417000       1.00800           0
     46123 W2       15375    TIP3     OH2      OT      -0.834000       15.9994           0
     46124 W2       15375    TIP3     H1       HT       0.417000       1.00800           0
     46125 W2       15375    TIP3     H2       HT       0.417000       1.00800           0
     46126 W2       15376    TIP3     OH2      OT      -0.834000       15.9994           0
     46127 W2       15376    TIP3     H1       HT       0.417000       1.00800           0
     46128 W2       15376    TIP3     H2       HT       0.417000       1.00800           0
     46129 W2       15377    TIP3     OH2      OT      -0.834000       15.9994           0
     46130 W2       15377    TIP3     H1       HT       0.417000       1.00800           0
     46131 W2       15377    TIP3     H2       HT       0.417000       1.00800           0
     46132 W2       15378    TIP3     OH2      OT      -0.834000       15.9994           0
     46133 W2       15378    TIP3     H1       HT       0.417000       1.00800           0
     46134 W2       15378    TIP3     H2       HT       0.417000       1.00800           0
     46135 W2       15379    TIP3     OH2      OT      -0.834000       15.9994           0
     46136 W2       15379    TIP3     H1       HT       0.417000       1.00800           0
     46137 W2       15379    TIP3     H2       HT       0.417000       1.00800           0
     46138 W2       15380    TIP3     OH2      OT      -0.834000       15.9994           0
     46139 W2       15380    TIP3     H1       HT       0.417000       1.00800           0
     46140 W2       15380    TIP3     H2       HT       0.417000       1.00800           0
     46141 W2       15381    TIP3     OH2      OT      -0.834000       15.9994           0
     46142 W2       15381    TIP3     H1       HT       0.417000       1.00800           0
     46143 W2       15381    TIP3     H2       HT       0.417000       1.00800           0
     46144 W2       15382    TIP3     OH2      OT      -0.834000       15.9994           0
     46145 W2       15382    TIP3     H1       HT       0.417000       1.00800           0
     46146 W2       15382    TIP3     H2       HT       0.417000       1.00800           0
     46147 W2       15383    TIP3     OH2      OT      -0.834000       15.9994           0
     46148 W2       15383    TIP3     H1       HT       0.417000       1.00800           0
     46149 W2       15383    TIP3     H2       HT       0.417000       1.00800           0
     46150 W2       15384    TIP3     OH2      OT      -0.834000       15.9994           0
     46151 W2       15384    TIP3     H1       HT       0.417000       1.00800           0
     46152 W2       15384    TIP3     H2       HT       0.417000       1.00800           0
     46153 W2       15385    TIP3     OH2      OT      -0.834000       15.9994           0
     46154 W2       15385    TIP3     H1       HT       0.417000       1.00800           0
     46155 W2       15385    TIP3     H2       HT       0.417000       1.00800           0
     46156 W2       15386    TIP3     OH2      OT      -0.834000       15.9994           0
     46157 W2       15386    TIP3     H1       HT       0.417000       1.00800           0
     46158 W2       15386    TIP3     H2       HT       0.417000       1.00800           0
     46159 W2       15387    TIP3     OH2      OT      -0.834000       15.9994           0
     46160 W2       15387    TIP3     H1       HT       0.417000       1.00800           0
     46161 W2       15387    TIP3     H2       HT       0.417000       1.00800           0
     46162 W2       15388    TIP3     OH2      OT      -0.834000       15.9994           0
     46163 W2       15388    TIP3     H1       HT       0.417000       1.00800           0
     46164 W2       15388    TIP3     H2       HT       0.417000       1.00800           0
     46165 W2       15389    TIP3     OH2      OT      -0.834000       15.9994           0
     46166 W2       15389    TIP3     H1       HT       0.417000       1.00800           0
     46167 W2       15389    TIP3     H2       HT       0.417000       1.00800           0
     46168 W2       15390    TIP3     OH2      OT      -0.834000       15.9994           0
     46169 W2       15390    TIP3     H1       HT       0.417000       1.00800           0
     46170 W2       15390    TIP3     H2       HT       0.417000       1.00800           0
     46171 W2       15391    TIP3     OH2      OT      -0.834000       15.9994           0
     46172 W2       15391    TIP3     H1       HT       0.417000       1.00800           0
     46173 W2       15391    TIP3     H2       HT       0.417000       1.00800           0
     46174 W2       15392    TIP3     OH2      OT      -0.834000       15.9994           0
     46175 W2       15392    TIP3     H1       HT       0.417000       1.00800           0
     46176 W2       15392    TIP3     H2       HT       0.417000       1.00800           0
     46177 W2       15393    TIP3     OH2      OT      -0.834000       15.9994           0
     46178 W2       15393    TIP3     H1       HT       0.417000       1.00800           0
     46179 W2       15393    TIP3     H2       HT       0.417000       1.00800           0
     46180 W2       15394    TIP3     OH2      OT      -0.834000       15.9994           0
     46181 W2       15394    TIP3     H1       HT       0.417000       1.00800           0
     46182 W2       15394    TIP3     H2       HT       0.417000       1.00800           0
     46183 W2       15395    TIP3     OH2      OT      -0.834000       15.9994           0
     46184 W2       15395    TIP3     H1       HT       0.417000       1.00800           0
     46185 W2       15395    TIP3     H2       HT       0.417000       1.00800           0
     46186 W2       15396    TIP3     OH2      OT      -0.834000       15.9994           0
     46187 W2       15396    TIP3     H1       HT       0.417000       1.00800           0
     46188 W2       15396    TIP3     H2       HT       0.417000       1.00800           0
     46189 W2       15397    TIP3     OH2      OT      -0.834000       15.9994           0
     46190 W2       15397    TIP3     H1       HT       0.417000       1.00800           0
     46191 W2       15397    TIP3     H2       HT       0.417000       1.00800           0
     46192 W2       15398    TIP3     OH2      OT      -0.834000       15.9994           0
     46193 W2       15398    TIP3     H1       HT       0.417000       1.00800           0
     46194 W2       15398    TIP3     H2       HT       0.417000       1.00800           0
     46195 W2       15399    TIP3     OH2      OT      -0.834000       15.9994           0
     46196 W2       15399    TIP3     H1       HT       0.417000       1.00800           0
     46197 W2       15399    TIP3     H2       HT       0.417000       1.00800           0
     46198 W2       15400    TIP3     OH2      OT      -0.834000       15.9994           0
     46199 W2       15400    TIP3     H1       HT       0.417000       1.00800           0
     46200 W2       15400    TIP3     H2       HT       0.417000       1.00800           0
     46201 W2       15401    TIP3     OH2      OT      -0.834000       15.9994           0
     46202 W2       15401    TIP3     H1       HT       0.417000       1.00800           0
     46203 W2       15401    TIP3     H2       HT       0.417000       1.00800           0
     46204 W2       15402    TIP3     OH2      OT      -0.834000       15.9994           0
     46205 W2       15402    TIP3     H1       HT       0.417000       1.00800           0
     46206 W2       15402    TIP3     H2       HT       0.417000       1.00800           0
     46207 W2       15403    TIP3     OH2      OT      -0.834000       15.9994           0
     46208 W2       15403    TIP3     H1       HT       0.417000       1.00800           0
     46209 W2       15403    TIP3     H2       HT       0.417000       1.00800           0
     46210 W2       15404    TIP3     OH2      OT      -0.834000       15.9994           0
     46211 W2       15404    TIP3     H1       HT       0.417000       1.00800           0
     46212 W2       15404    TIP3     H2       HT       0.417000       1.00800           0
     46213 W2       15405    TIP3     OH2      OT      -0.834000       15.9994           0
     46214 W2       15405    TIP3     H1       HT       0.417000       1.00800           0
     46215 W2       15405    TIP3     H2       HT       0.417000       1.00800           0
     46216 W2       15406    TIP3     OH2      OT      -0.834000       15.9994           0
     46217 W2       15406    TIP3     H1       HT       0.417000       1.00800           0
     46218 W2       15406    TIP3     H2       HT       0.417000       1.00800           0
     46219 W2       15407    TIP3     OH2      OT      -0.834000       15.9994           0
     46220 W2       15407    TIP3     H1       HT       0.417000       1.00800           0
     46221 W2       15407    TIP3     H2       HT       0.417000       1.00800           0
     46222 W2       15408    TIP3     OH2      OT      -0.834000       15.9994           0
     46223 W2       15408    TIP3     H1       HT       0.417000       1.00800           0
     46224 W2       15408    TIP3     H2       HT       0.417000       1.00800           0
     46225 W2       15409    TIP3     OH2      OT      -0.834000       15.9994           0
     46226 W2       15409    TIP3     H1       HT       0.417000       1.00800           0
     46227 W2       15409    TIP3     H2       HT       0.417000       1.00800           0
     46228 W2       15410    TIP3     OH2      OT      -0.834000       15.9994           0
     46229 W2       15410    TIP3     H1       HT       0.417000       1.00800           0
     46230 W2       15410    TIP3     H2       HT       0.417000       1.00800           0
     46231 W2       15411    TIP3     OH2      OT      -0.834000       15.9994           0
     46232 W2       15411    TIP3     H1       HT       0.417000       1.00800           0
     46233 W2       15411    TIP3     H2       HT       0.417000       1.00800           0
     46234 W2       15412    TIP3     OH2      OT      -0.834000       15.9994           0
     46235 W2       15412    TIP3     H1       HT       0.417000       1.00800           0
     46236 W2       15412    TIP3     H2       HT       0.417000       1.00800           0
     46237 W2       15413    TIP3     OH2      OT      -0.834000       15.9994           0
     46238 W2       15413    TIP3     H1       HT       0.417000       1.00800           0
     46239 W2       15413    TIP3     H2       HT       0.417000       1.00800           0
     46240 W2       15414    TIP3     OH2      OT      -0.834000       15.9994           0
     46241 W2       15414    TIP3     H1       HT       0.417000       1.00800           0
     46242 W2       15414    TIP3     H2       HT       0.417000       1.00800           0
     46243 W2       15415    TIP3     OH2      OT      -0.834000       15.9994           0
     46244 W2       15415    TIP3     H1       HT       0.417000       1.00800           0
     46245 W2       15415    TIP3     H2       HT       0.417000       1.00800           0
     46246 W2       15416    TIP3     OH2      OT      -0.834000       15.9994           0
     46247 W2       15416    TIP3     H1       HT       0.417000       1.00800           0
     46248 W2       15416    TIP3     H2       HT       0.417000       1.00800           0
     46249 W2       15417    TIP3     OH2      OT      -0.834000       15.9994           0
     46250 W2       15417    TIP3     H1       HT       0.417000       1.00800           0
     46251 W2       15417    TIP3     H2       HT       0.417000       1.00800           0
     46252 W2       15418    TIP3     OH2      OT      -0.834000       15.9994           0
     46253 W2       15418    TIP3     H1       HT       0.417000       1.00800           0
     46254 W2       15418    TIP3     H2       HT       0.417000       1.00800           0
     46255 W2       15419    TIP3     OH2      OT      -0.834000       15.9994           0
     46256 W2       15419    TIP3     H1       HT       0.417000       1.00800           0
     46257 W2       15419    TIP3     H2       HT       0.417000       1.00800           0
     46258 W2       15420    TIP3     OH2      OT      -0.834000       15.9994           0
     46259 W2       15420    TIP3     H1       HT       0.417000       1.00800           0
     46260 W2       15420    TIP3     H2       HT       0.417000       1.00800           0
     46261 W2       15421    TIP3     OH2      OT      -0.834000       15.9994           0
     46262 W2       15421    TIP3     H1       HT       0.417000       1.00800           0
     46263 W2       15421    TIP3     H2       HT       0.417000       1.00800           0
     46264 W2       15422    TIP3     OH2      OT      -0.834000       15.9994           0
     46265 W2       15422    TIP3     H1       HT       0.417000       1.00800           0
     46266 W2       15422    TIP3     H2       HT       0.417000       1.00800           0
     46267 W2       15423    TIP3     OH2      OT      -0.834000       15.9994           0
     46268 W2       15423    TIP3     H1       HT       0.417000       1.00800           0
     46269 W2       15423    TIP3     H2       HT       0.417000       1.00800           0
     46270 W2       15424    TIP3     OH2      OT      -0.834000       15.9994           0
     46271 W2       15424    TIP3     H1       HT       0.417000       1.00800           0
     46272 W2       15424    TIP3     H2       HT       0.417000       1.00800           0
     46273 W2       15425    TIP3     OH2      OT      -0.834000       15.9994           0
     46274 W2       15425    TIP3     H1       HT       0.417000       1.00800           0
     46275 W2       15425    TIP3     H2       HT       0.417000       1.00800           0
     46276 W2       15426    TIP3     OH2      OT      -0.834000       15.9994           0
     46277 W2       15426    TIP3     H1       HT       0.417000       1.00800           0
     46278 W2       15426    TIP3     H2       HT       0.417000       1.00800           0
     46279 W2       15427    TIP3     OH2      OT      -0.834000       15.9994           0
     46280 W2       15427    TIP3     H1       HT       0.417000       1.00800           0
     46281 W2       15427    TIP3     H2       HT       0.417000       1.00800           0
     46282 W2       15428    TIP3     OH2      OT      -0.834000       15.9994           0
     46283 W2       15428    TIP3     H1       HT       0.417000       1.00800           0
     46284 W2       15428    TIP3     H2       HT       0.417000       1.00800           0
     46285 W2       15429    TIP3     OH2      OT      -0.834000       15.9994           0
     46286 W2       15429    TIP3     H1       HT       0.417000       1.00800           0
     46287 W2       15429    TIP3     H2       HT       0.417000       1.00800           0
     46288 W2       15430    TIP3     OH2      OT      -0.834000       15.9994           0
     46289 W2       15430    TIP3     H1       HT       0.417000       1.00800           0
     46290 W2       15430    TIP3     H2       HT       0.417000       1.00800           0
     46291 W2       15431    TIP3     OH2      OT      -0.834000       15.9994           0
     46292 W2       15431    TIP3     H1       HT       0.417000       1.00800           0
     46293 W2       15431    TIP3     H2       HT       0.417000       1.00800           0
     46294 W2       15432    TIP3     OH2      OT      -0.834000       15.9994           0
     46295 W2       15432    TIP3     H1       HT       0.417000       1.00800           0
     46296 W2       15432    TIP3     H2       HT       0.417000       1.00800           0
     46297 W2       15433    TIP3     OH2      OT      -0.834000       15.9994           0
     46298 W2       15433    TIP3     H1       HT       0.417000       1.00800           0
     46299 W2       15433    TIP3     H2       HT       0.417000       1.00800           0
     46300 W2       15434    TIP3     OH2      OT      -0.834000       15.9994           0
     46301 W2       15434    TIP3     H1       HT       0.417000       1.00800           0
     46302 W2       15434    TIP3     H2       HT       0.417000       1.00800           0
     46303 W2       15435    TIP3     OH2      OT      -0.834000       15.9994           0
     46304 W2       15435    TIP3     H1       HT       0.417000       1.00800           0
     46305 W2       15435    TIP3     H2       HT       0.417000       1.00800           0
     46306 W2       15436    TIP3     OH2      OT      -0.834000       15.9994           0
     46307 W2       15436    TIP3     H1       HT       0.417000       1.00800           0
     46308 W2       15436    TIP3     H2       HT       0.417000       1.00800           0
     46309 W2       15437    TIP3     OH2      OT      -0.834000       15.9994           0
     46310 W2       15437    TIP3     H1       HT       0.417000       1.00800           0
     46311 W2       15437    TIP3     H2       HT       0.417000       1.00800           0
     46312 W2       15438    TIP3     OH2      OT      -0.834000       15.9994           0
     46313 W2       15438    TIP3     H1       HT       0.417000       1.00800           0
     46314 W2       15438    TIP3     H2       HT       0.417000       1.00800           0
     46315 W2       15439    TIP3     OH2      OT      -0.834000       15.9994           0
     46316 W2       15439    TIP3     H1       HT       0.417000       1.00800           0
     46317 W2       15439    TIP3     H2       HT       0.417000       1.00800           0
     46318 W2       15440    TIP3     OH2      OT      -0.834000       15.9994           0
     46319 W2       15440    TIP3     H1       HT       0.417000       1.00800           0
     46320 W2       15440    TIP3     H2       HT       0.417000       1.00800           0
     46321 W2       15441    TIP3     OH2      OT      -0.834000       15.9994           0
     46322 W2       15441    TIP3     H1       HT       0.417000       1.00800           0
     46323 W2       15441    TIP3     H2       HT       0.417000       1.00800           0
     46324 W2       15442    TIP3     OH2      OT      -0.834000       15.9994           0
     46325 W2       15442    TIP3     H1       HT       0.417000       1.00800           0
     46326 W2       15442    TIP3     H2       HT       0.417000       1.00800           0
     46327 W2       15443    TIP3     OH2      OT      -0.834000       15.9994           0
     46328 W2       15443    TIP3     H1       HT       0.417000       1.00800           0
     46329 W2       15443    TIP3     H2       HT       0.417000       1.00800           0
     46330 W2       15444    TIP3     OH2      OT      -0.834000       15.9994           0
     46331 W2       15444    TIP3     H1       HT       0.417000       1.00800           0
     46332 W2       15444    TIP3     H2       HT       0.417000       1.00800           0
     46333 W2       15445    TIP3     OH2      OT      -0.834000       15.9994           0
     46334 W2       15445    TIP3     H1       HT       0.417000       1.00800           0
     46335 W2       15445    TIP3     H2       HT       0.417000       1.00800           0
     46336 W2       15446    TIP3     OH2      OT      -0.834000       15.9994           0
     46337 W2       15446    TIP3     H1       HT       0.417000       1.00800           0
     46338 W2       15446    TIP3     H2       HT       0.417000       1.00800           0
     46339 W2       15447    TIP3     OH2      OT      -0.834000       15.9994           0
     46340 W2       15447    TIP3     H1       HT       0.417000       1.00800           0
     46341 W2       15447    TIP3     H2       HT       0.417000       1.00800           0
     46342 W2       15448    TIP3     OH2      OT      -0.834000       15.9994           0
     46343 W2       15448    TIP3     H1       HT       0.417000       1.00800           0
     46344 W2       15448    TIP3     H2       HT       0.417000       1.00800           0
     46345 W2       15449    TIP3     OH2      OT      -0.834000       15.9994           0
     46346 W2       15449    TIP3     H1       HT       0.417000       1.00800           0
     46347 W2       15449    TIP3     H2       HT       0.417000       1.00800           0
     46348 W2       15450    TIP3     OH2      OT      -0.834000       15.9994           0
     46349 W2       15450    TIP3     H1       HT       0.417000       1.00800           0
     46350 W2       15450    TIP3     H2       HT       0.417000       1.00800           0
     46351 W2       15451    TIP3     OH2      OT      -0.834000       15.9994           0
     46352 W2       15451    TIP3     H1       HT       0.417000       1.00800           0
     46353 W2       15451    TIP3     H2       HT       0.417000       1.00800           0
     46354 W2       15452    TIP3     OH2      OT      -0.834000       15.9994           0
     46355 W2       15452    TIP3     H1       HT       0.417000       1.00800           0
     46356 W2       15452    TIP3     H2       HT       0.417000       1.00800           0
     46357 W2       15453    TIP3     OH2      OT      -0.834000       15.9994           0
     46358 W2       15453    TIP3     H1       HT       0.417000       1.00800           0
     46359 W2       15453    TIP3     H2       HT       0.417000       1.00800           0
     46360 W2       15454    TIP3     OH2      OT      -0.834000       15.9994           0
     46361 W2       15454    TIP3     H1       HT       0.417000       1.00800           0
     46362 W2       15454    TIP3     H2       HT       0.417000       1.00800           0
     46363 W2       15455    TIP3     OH2      OT      -0.834000       15.9994           0
     46364 W2       15455    TIP3     H1       HT       0.417000       1.00800           0
     46365 W2       15455    TIP3     H2       HT       0.417000       1.00800           0
     46366 W2       15456    TIP3     OH2      OT      -0.834000       15.9994           0
     46367 W2       15456    TIP3     H1       HT       0.417000       1.00800           0
     46368 W2       15456    TIP3     H2       HT       0.417000       1.00800           0
     46369 W2       15457    TIP3     OH2      OT      -0.834000       15.9994           0
     46370 W2       15457    TIP3     H1       HT       0.417000       1.00800           0
     46371 W2       15457    TIP3     H2       HT       0.417000       1.00800           0
     46372 W2       15458    TIP3     OH2      OT      -0.834000       15.9994           0
     46373 W2       15458    TIP3     H1       HT       0.417000       1.00800           0
     46374 W2       15458    TIP3     H2       HT       0.417000       1.00800           0
     46375 W2       15459    TIP3     OH2      OT      -0.834000       15.9994           0
     46376 W2       15459    TIP3     H1       HT       0.417000       1.00800           0
     46377 W2       15459    TIP3     H2       HT       0.417000       1.00800           0
     46378 W2       15460    TIP3     OH2      OT      -0.834000       15.9994           0
     46379 W2       15460    TIP3     H1       HT       0.417000       1.00800           0
     46380 W2       15460    TIP3     H2       HT       0.417000       1.00800           0
     46381 W2       15461    TIP3     OH2      OT      -0.834000       15.9994           0
     46382 W2       15461    TIP3     H1       HT       0.417000       1.00800           0
     46383 W2       15461    TIP3     H2       HT       0.417000       1.00800           0
     46384 W2       15462    TIP3     OH2      OT      -0.834000       15.9994           0
     46385 W2       15462    TIP3     H1       HT       0.417000       1.00800           0
     46386 W2       15462    TIP3     H2       HT       0.417000       1.00800           0
     46387 W2       15463    TIP3     OH2      OT      -0.834000       15.9994           0
     46388 W2       15463    TIP3     H1       HT       0.417000       1.00800           0
     46389 W2       15463    TIP3     H2       HT       0.417000       1.00800           0
     46390 W2       15464    TIP3     OH2      OT      -0.834000       15.9994           0
     46391 W2       15464    TIP3     H1       HT       0.417000       1.00800           0
     46392 W2       15464    TIP3     H2       HT       0.417000       1.00800           0
     46393 W2       15465    TIP3     OH2      OT      -0.834000       15.9994           0
     46394 W2       15465    TIP3     H1       HT       0.417000       1.00800           0
     46395 W2       15465    TIP3     H2       HT       0.417000       1.00800           0
     46396 W2       15466    TIP3     OH2      OT      -0.834000       15.9994           0
     46397 W2       15466    TIP3     H1       HT       0.417000       1.00800           0
     46398 W2       15466    TIP3     H2       HT       0.417000       1.00800           0
     46399 W2       15467    TIP3     OH2      OT      -0.834000       15.9994           0
     46400 W2       15467    TIP3     H1       HT       0.417000       1.00800           0
     46401 W2       15467    TIP3     H2       HT       0.417000       1.00800           0
     46402 W2       15468    TIP3     OH2      OT      -0.834000       15.9994           0
     46403 W2       15468    TIP3     H1       HT       0.417000       1.00800           0
     46404 W2       15468    TIP3     H2       HT       0.417000       1.00800           0
     46405 W2       15469    TIP3     OH2      OT      -0.834000       15.9994           0
     46406 W2       15469    TIP3     H1       HT       0.417000       1.00800           0
     46407 W2       15469    TIP3     H2       HT       0.417000       1.00800           0
     46408 W2       15470    TIP3     OH2      OT      -0.834000       15.9994           0
     46409 W2       15470    TIP3     H1       HT       0.417000       1.00800           0
     46410 W2       15470    TIP3     H2       HT       0.417000       1.00800           0
     46411 W2       15471    TIP3     OH2      OT      -0.834000       15.9994           0
     46412 W2       15471    TIP3     H1       HT       0.417000       1.00800           0
     46413 W2       15471    TIP3     H2       HT       0.417000       1.00800           0
     46414 W2       15472    TIP3     OH2      OT      -0.834000       15.9994           0
     46415 W2       15472    TIP3     H1       HT       0.417000       1.00800           0
     46416 W2       15472    TIP3     H2       HT       0.417000       1.00800           0
     46417 W2       15473    TIP3     OH2      OT      -0.834000       15.9994           0
     46418 W2       15473    TIP3     H1       HT       0.417000       1.00800           0
     46419 W2       15473    TIP3     H2       HT       0.417000       1.00800           0
     46420 W2       15474    TIP3     OH2      OT      -0.834000       15.9994           0
     46421 W2       15474    TIP3     H1       HT       0.417000       1.00800           0
     46422 W2       15474    TIP3     H2       HT       0.417000       1.00800           0
     46423 W2       15475    TIP3     OH2      OT      -0.834000       15.9994           0
     46424 W2       15475    TIP3     H1       HT       0.417000       1.00800           0
     46425 W2       15475    TIP3     H2       HT       0.417000       1.00800           0
     46426 W2       15476    TIP3     OH2      OT      -0.834000       15.9994           0
     46427 W2       15476    TIP3     H1       HT       0.417000       1.00800           0
     46428 W2       15476    TIP3     H2       HT       0.417000       1.00800           0
     46429 W2       15477    TIP3     OH2      OT      -0.834000       15.9994           0
     46430 W2       15477    TIP3     H1       HT       0.417000       1.00800           0
     46431 W2       15477    TIP3     H2       HT       0.417000       1.00800           0
     46432 W2       15478    TIP3     OH2      OT      -0.834000       15.9994           0
     46433 W2       15478    TIP3     H1       HT       0.417000       1.00800           0
     46434 W2       15478    TIP3     H2       HT       0.417000       1.00800           0
     46435 W2       15479    TIP3     OH2      OT      -0.834000       15.9994           0
     46436 W2       15479    TIP3     H1       HT       0.417000       1.00800           0
     46437 W2       15479    TIP3     H2       HT       0.417000       1.00800           0
     46438 W2       15480    TIP3     OH2      OT      -0.834000       15.9994           0
     46439 W2       15480    TIP3     H1       HT       0.417000       1.00800           0
     46440 W2       15480    TIP3     H2       HT       0.417000       1.00800           0
     46441 W2       15481    TIP3     OH2      OT      -0.834000       15.9994           0
     46442 W2       15481    TIP3     H1       HT       0.417000       1.00800           0
     46443 W2       15481    TIP3     H2       HT       0.417000       1.00800           0
     46444 W2       15482    TIP3     OH2      OT      -0.834000       15.9994           0
     46445 W2       15482    TIP3     H1       HT       0.417000       1.00800           0
     46446 W2       15482    TIP3     H2       HT       0.417000       1.00800           0
     46447 W2       15483    TIP3     OH2      OT      -0.834000       15.9994           0
     46448 W2       15483    TIP3     H1       HT       0.417000       1.00800           0
     46449 W2       15483    TIP3     H2       HT       0.417000       1.00800           0
     46450 W2       15484    TIP3     OH2      OT      -0.834000       15.9994           0
     46451 W2       15484    TIP3     H1       HT       0.417000       1.00800           0
     46452 W2       15484    TIP3     H2       HT       0.417000       1.00800           0
     46453 W2       15485    TIP3     OH2      OT      -0.834000       15.9994           0
     46454 W2       15485    TIP3     H1       HT       0.417000       1.00800           0
     46455 W2       15485    TIP3     H2       HT       0.417000       1.00800           0
     46456 W2       15486    TIP3     OH2      OT      -0.834000       15.9994           0
     46457 W2       15486    TIP3     H1       HT       0.417000       1.00800           0
     46458 W2       15486    TIP3     H2       HT       0.417000       1.00800           0
     46459 W2       15487    TIP3     OH2      OT      -0.834000       15.9994           0
     46460 W2       15487    TIP3     H1       HT       0.417000       1.00800           0
     46461 W2       15487    TIP3     H2       HT       0.417000       1.00800           0
     46462 W2       15488    TIP3     OH2      OT      -0.834000       15.9994           0
     46463 W2       15488    TIP3     H1       HT       0.417000       1.00800           0
     46464 W2       15488    TIP3     H2       HT       0.417000       1.00800           0
     46465 W2       15489    TIP3     OH2      OT      -0.834000       15.9994           0
     46466 W2       15489    TIP3     H1       HT       0.417000       1.00800           0
     46467 W2       15489    TIP3     H2       HT       0.417000       1.00800           0
     46468 W2       15490    TIP3     OH2      OT      -0.834000       15.9994           0
     46469 W2       15490    TIP3     H1       HT       0.417000       1.00800           0
     46470 W2       15490    TIP3     H2       HT       0.417000       1.00800           0
     46471 W2       15491    TIP3     OH2      OT      -0.834000       15.9994           0
     46472 W2       15491    TIP3     H1       HT       0.417000       1.00800           0
     46473 W2       15491    TIP3     H2       HT       0.417000       1.00800           0
     46474 W2       15492    TIP3     OH2      OT      -0.834000       15.9994           0
     46475 W2       15492    TIP3     H1       HT       0.417000       1.00800           0
     46476 W2       15492    TIP3     H2       HT       0.417000       1.00800           0
     46477 W2       15493    TIP3     OH2      OT      -0.834000       15.9994           0
     46478 W2       15493    TIP3     H1       HT       0.417000       1.00800           0
     46479 W2       15493    TIP3     H2       HT       0.417000       1.00800           0
     46480 W2       15494    TIP3     OH2      OT      -0.834000       15.9994           0
     46481 W2       15494    TIP3     H1       HT       0.417000       1.00800           0
     46482 W2       15494    TIP3     H2       HT       0.417000       1.00800           0
     46483 W2       15495    TIP3     OH2      OT      -0.834000       15.9994           0
     46484 W2       15495    TIP3     H1       HT       0.417000       1.00800           0
     46485 W2       15495    TIP3     H2       HT       0.417000       1.00800           0
     46486 W2       15496    TIP3     OH2      OT      -0.834000       15.9994           0
     46487 W2       15496    TIP3     H1       HT       0.417000       1.00800           0
     46488 W2       15496    TIP3     H2       HT       0.417000       1.00800           0
     46489 W2       15497    TIP3     OH2      OT      -0.834000       15.9994           0
     46490 W2       15497    TIP3     H1       HT       0.417000       1.00800           0
     46491 W2       15497    TIP3     H2       HT       0.417000       1.00800           0
     46492 W2       15498    TIP3     OH2      OT      -0.834000       15.9994           0
     46493 W2       15498    TIP3     H1       HT       0.417000       1.00800           0
     46494 W2       15498    TIP3     H2       HT       0.417000       1.00800           0
     46495 W2       15499    TIP3     OH2      OT      -0.834000       15.9994           0
     46496 W2       15499    TIP3     H1       HT       0.417000       1.00800           0
     46497 W2       15499    TIP3     H2       HT       0.417000       1.00800           0
     46498 W2       15500    TIP3     OH2      OT      -0.834000       15.9994           0
     46499 W2       15500    TIP3     H1       HT       0.417000       1.00800           0
     46500 W2       15500    TIP3     H2       HT       0.417000       1.00800           0
     46501 W2       15501    TIP3     OH2      OT      -0.834000       15.9994           0
     46502 W2       15501    TIP3     H1       HT       0.417000       1.00800           0
     46503 W2       15501    TIP3     H2       HT       0.417000       1.00800           0
     46504 W2       15502    TIP3     OH2      OT      -0.834000       15.9994           0
     46505 W2       15502    TIP3     H1       HT       0.417000       1.00800           0
     46506 W2       15502    TIP3     H2       HT       0.417000       1.00800           0
     46507 W2       15503    TIP3     OH2      OT      -0.834000       15.9994           0
     46508 W2       15503    TIP3     H1       HT       0.417000       1.00800           0
     46509 W2       15503    TIP3     H2       HT       0.417000       1.00800           0
     46510 W2       15504    TIP3     OH2      OT      -0.834000       15.9994           0
     46511 W2       15504    TIP3     H1       HT       0.417000       1.00800           0
     46512 W2       15504    TIP3     H2       HT       0.417000       1.00800           0
     46513 W2       15505    TIP3     OH2      OT      -0.834000       15.9994           0
     46514 W2       15505    TIP3     H1       HT       0.417000       1.00800           0
     46515 W2       15505    TIP3     H2       HT       0.417000       1.00800           0
     46516 W2       15506    TIP3     OH2      OT      -0.834000       15.9994           0
     46517 W2       15506    TIP3     H1       HT       0.417000       1.00800           0
     46518 W2       15506    TIP3     H2       HT       0.417000       1.00800           0
     46519 W2       15507    TIP3     OH2      OT      -0.834000       15.9994           0
     46520 W2       15507    TIP3     H1       HT       0.417000       1.00800           0
     46521 W2       15507    TIP3     H2       HT       0.417000       1.00800           0
     46522 W2       15508    TIP3     OH2      OT      -0.834000       15.9994           0
     46523 W2       15508    TIP3     H1       HT       0.417000       1.00800           0
     46524 W2       15508    TIP3     H2       HT       0.417000       1.00800           0
     46525 W2       15509    TIP3     OH2      OT      -0.834000       15.9994           0
     46526 W2       15509    TIP3     H1       HT       0.417000       1.00800           0
     46527 W2       15509    TIP3     H2       HT       0.417000       1.00800           0
     46528 W2       15510    TIP3     OH2      OT      -0.834000       15.9994           0
     46529 W2       15510    TIP3     H1       HT       0.417000       1.00800           0
     46530 W2       15510    TIP3     H2       HT       0.417000       1.00800           0
     46531 W2       15511    TIP3     OH2      OT      -0.834000       15.9994           0
     46532 W2       15511    TIP3     H1       HT       0.417000       1.00800           0
     46533 W2       15511    TIP3     H2       HT       0.417000       1.00800           0
     46534 W2       15512    TIP3     OH2      OT      -0.834000       15.9994           0
     46535 W2       15512    TIP3     H1       HT       0.417000       1.00800           0
     46536 W2       15512    TIP3     H2       HT       0.417000       1.00800           0
     46537 W2       15513    TIP3     OH2      OT      -0.834000       15.9994           0
     46538 W2       15513    TIP3     H1       HT       0.417000       1.00800           0
     46539 W2       15513    TIP3     H2       HT       0.417000       1.00800           0
     46540 W2       15514    TIP3     OH2      OT      -0.834000       15.9994           0
     46541 W2       15514    TIP3     H1       HT       0.417000       1.00800           0
     46542 W2       15514    TIP3     H2       HT       0.417000       1.00800           0
     46543 W2       15515    TIP3     OH2      OT      -0.834000       15.9994           0
     46544 W2       15515    TIP3     H1       HT       0.417000       1.00800           0
     46545 W2       15515    TIP3     H2       HT       0.417000       1.00800           0
     46546 W2       15516    TIP3     OH2      OT      -0.834000       15.9994           0
     46547 W2       15516    TIP3     H1       HT       0.417000       1.00800           0
     46548 W2       15516    TIP3     H2       HT       0.417000       1.00800           0
     46549 W2       15517    TIP3     OH2      OT      -0.834000       15.9994           0
     46550 W2       15517    TIP3     H1       HT       0.417000       1.00800           0
     46551 W2       15517    TIP3     H2       HT       0.417000       1.00800           0
     46552 W2       15518    TIP3     OH2      OT      -0.834000       15.9994           0
     46553 W2       15518    TIP3     H1       HT       0.417000       1.00800           0
     46554 W2       15518    TIP3     H2       HT       0.417000       1.00800           0
     46555 W2       15519    TIP3     OH2      OT      -0.834000       15.9994           0
     46556 W2       15519    TIP3     H1       HT       0.417000       1.00800           0
     46557 W2       15519    TIP3     H2       HT       0.417000       1.00800           0
     46558 W2       15520    TIP3     OH2      OT      -0.834000       15.9994           0
     46559 W2       15520    TIP3     H1       HT       0.417000       1.00800           0
     46560 W2       15520    TIP3     H2       HT       0.417000       1.00800           0
     46561 W2       15521    TIP3     OH2      OT      -0.834000       15.9994           0
     46562 W2       15521    TIP3     H1       HT       0.417000       1.00800           0
     46563 W2       15521    TIP3     H2       HT       0.417000       1.00800           0
     46564 W2       15522    TIP3     OH2      OT      -0.834000       15.9994           0
     46565 W2       15522    TIP3     H1       HT       0.417000       1.00800           0
     46566 W2       15522    TIP3     H2       HT       0.417000       1.00800           0
     46567 W2       15523    TIP3     OH2      OT      -0.834000       15.9994           0
     46568 W2       15523    TIP3     H1       HT       0.417000       1.00800           0
     46569 W2       15523    TIP3     H2       HT       0.417000       1.00800           0
     46570 W2       15524    TIP3     OH2      OT      -0.834000       15.9994           0
     46571 W2       15524    TIP3     H1       HT       0.417000       1.00800           0
     46572 W2       15524    TIP3     H2       HT       0.417000       1.00800           0
     46573 W2       15525    TIP3     OH2      OT      -0.834000       15.9994           0
     46574 W2       15525    TIP3     H1       HT       0.417000       1.00800           0
     46575 W2       15525    TIP3     H2       HT       0.417000       1.00800           0
     46576 W2       15526    TIP3     OH2      OT      -0.834000       15.9994           0
     46577 W2       15526    TIP3     H1       HT       0.417000       1.00800           0
     46578 W2       15526    TIP3     H2       HT       0.417000       1.00800           0
     46579 W2       15527    TIP3     OH2      OT      -0.834000       15.9994           0
     46580 W2       15527    TIP3     H1       HT       0.417000       1.00800           0
     46581 W2       15527    TIP3     H2       HT       0.417000       1.00800           0
     46582 W2       15528    TIP3     OH2      OT      -0.834000       15.9994           0
     46583 W2       15528    TIP3     H1       HT       0.417000       1.00800           0
     46584 W2       15528    TIP3     H2       HT       0.417000       1.00800           0
     46585 W2       15529    TIP3     OH2      OT      -0.834000       15.9994           0
     46586 W2       15529    TIP3     H1       HT       0.417000       1.00800           0
     46587 W2       15529    TIP3     H2       HT       0.417000       1.00800           0
     46588 W2       15530    TIP3     OH2      OT      -0.834000       15.9994           0
     46589 W2       15530    TIP3     H1       HT       0.417000       1.00800           0
     46590 W2       15530    TIP3     H2       HT       0.417000       1.00800           0
     46591 W2       15531    TIP3     OH2      OT      -0.834000       15.9994           0
     46592 W2       15531    TIP3     H1       HT       0.417000       1.00800           0
     46593 W2       15531    TIP3     H2       HT       0.417000       1.00800           0
     46594 W2       15532    TIP3     OH2      OT      -0.834000       15.9994           0
     46595 W2       15532    TIP3     H1       HT       0.417000       1.00800           0
     46596 W2       15532    TIP3     H2       HT       0.417000       1.00800           0
     46597 W2       15533    TIP3     OH2      OT      -0.834000       15.9994           0
     46598 W2       15533    TIP3     H1       HT       0.417000       1.00800           0
     46599 W2       15533    TIP3     H2       HT       0.417000       1.00800           0
     46600 W2       15534    TIP3     OH2      OT      -0.834000       15.9994           0
     46601 W2       15534    TIP3     H1       HT       0.417000       1.00800           0
     46602 W2       15534    TIP3     H2       HT       0.417000       1.00800           0
     46603 W2       15535    TIP3     OH2      OT      -0.834000       15.9994           0
     46604 W2       15535    TIP3     H1       HT       0.417000       1.00800           0
     46605 W2       15535    TIP3     H2       HT       0.417000       1.00800           0
     46606 W2       15536    TIP3     OH2      OT      -0.834000       15.9994           0
     46607 W2       15536    TIP3     H1       HT       0.417000       1.00800           0
     46608 W2       15536    TIP3     H2       HT       0.417000       1.00800           0
     46609 W2       15537    TIP3     OH2      OT      -0.834000       15.9994           0
     46610 W2       15537    TIP3     H1       HT       0.417000       1.00800           0
     46611 W2       15537    TIP3     H2       HT       0.417000       1.00800           0
     46612 W2       15538    TIP3     OH2      OT      -0.834000       15.9994           0
     46613 W2       15538    TIP3     H1       HT       0.417000       1.00800           0
     46614 W2       15538    TIP3     H2       HT       0.417000       1.00800           0
     46615 W2       15539    TIP3     OH2      OT      -0.834000       15.9994           0
     46616 W2       15539    TIP3     H1       HT       0.417000       1.00800           0
     46617 W2       15539    TIP3     H2       HT       0.417000       1.00800           0
     46618 W2       15540    TIP3     OH2      OT      -0.834000       15.9994           0
     46619 W2       15540    TIP3     H1       HT       0.417000       1.00800           0
     46620 W2       15540    TIP3     H2       HT       0.417000       1.00800           0
     46621 W2       15541    TIP3     OH2      OT      -0.834000       15.9994           0
     46622 W2       15541    TIP3     H1       HT       0.417000       1.00800           0
     46623 W2       15541    TIP3     H2       HT       0.417000       1.00800           0
     46624 W2       15542    TIP3     OH2      OT      -0.834000       15.9994           0
     46625 W2       15542    TIP3     H1       HT       0.417000       1.00800           0
     46626 W2       15542    TIP3     H2       HT       0.417000       1.00800           0
     46627 W2       15543    TIP3     OH2      OT      -0.834000       15.9994           0
     46628 W2       15543    TIP3     H1       HT       0.417000       1.00800           0
     46629 W2       15543    TIP3     H2       HT       0.417000       1.00800           0
     46630 W2       15544    TIP3     OH2      OT      -0.834000       15.9994           0
     46631 W2       15544    TIP3     H1       HT       0.417000       1.00800           0
     46632 W2       15544    TIP3     H2       HT       0.417000       1.00800           0
     46633 W2       15545    TIP3     OH2      OT      -0.834000       15.9994           0
     46634 W2       15545    TIP3     H1       HT       0.417000       1.00800           0
     46635 W2       15545    TIP3     H2       HT       0.417000       1.00800           0
     46636 W2       15546    TIP3     OH2      OT      -0.834000       15.9994           0
     46637 W2       15546    TIP3     H1       HT       0.417000       1.00800           0
     46638 W2       15546    TIP3     H2       HT       0.417000       1.00800           0
     46639 W2       15547    TIP3     OH2      OT      -0.834000       15.9994           0
     46640 W2       15547    TIP3     H1       HT       0.417000       1.00800           0
     46641 W2       15547    TIP3     H2       HT       0.417000       1.00800           0
     46642 W2       15548    TIP3     OH2      OT      -0.834000       15.9994           0
     46643 W2       15548    TIP3     H1       HT       0.417000       1.00800           0
     46644 W2       15548    TIP3     H2       HT       0.417000       1.00800           0
     46645 W2       15549    TIP3     OH2      OT      -0.834000       15.9994           0
     46646 W2       15549    TIP3     H1       HT       0.417000       1.00800           0
     46647 W2       15549    TIP3     H2       HT       0.417000       1.00800           0
     46648 W2       15550    TIP3     OH2      OT      -0.834000       15.9994           0
     46649 W2       15550    TIP3     H1       HT       0.417000       1.00800           0
     46650 W2       15550    TIP3     H2       HT       0.417000       1.00800           0
     46651 W2       15551    TIP3     OH2      OT      -0.834000       15.9994           0
     46652 W2       15551    TIP3     H1       HT       0.417000       1.00800           0
     46653 W2       15551    TIP3     H2       HT       0.417000       1.00800           0
     46654 W2       15552    TIP3     OH2      OT      -0.834000       15.9994           0
     46655 W2       15552    TIP3     H1       HT       0.417000       1.00800           0
     46656 W2       15552    TIP3     H2       HT       0.417000       1.00800           0
     46657 W2       15553    TIP3     OH2      OT      -0.834000       15.9994           0
     46658 W2       15553    TIP3     H1       HT       0.417000       1.00800           0
     46659 W2       15553    TIP3     H2       HT       0.417000       1.00800           0
     46660 W2       15554    TIP3     OH2      OT      -0.834000       15.9994           0
     46661 W2       15554    TIP3     H1       HT       0.417000       1.00800           0
     46662 W2       15554    TIP3     H2       HT       0.417000       1.00800           0
     46663 W2       15555    TIP3     OH2      OT      -0.834000       15.9994           0
     46664 W2       15555    TIP3     H1       HT       0.417000       1.00800           0
     46665 W2       15555    TIP3     H2       HT       0.417000       1.00800           0
     46666 W2       15556    TIP3     OH2      OT      -0.834000       15.9994           0
     46667 W2       15556    TIP3     H1       HT       0.417000       1.00800           0
     46668 W2       15556    TIP3     H2       HT       0.417000       1.00800           0
     46669 W2       15557    TIP3     OH2      OT      -0.834000       15.9994           0
     46670 W2       15557    TIP3     H1       HT       0.417000       1.00800           0
     46671 W2       15557    TIP3     H2       HT       0.417000       1.00800           0
     46672 W2       15558    TIP3     OH2      OT      -0.834000       15.9994           0
     46673 W2       15558    TIP3     H1       HT       0.417000       1.00800           0
     46674 W2       15558    TIP3     H2       HT       0.417000       1.00800           0
     46675 W2       15559    TIP3     OH2      OT      -0.834000       15.9994           0
     46676 W2       15559    TIP3     H1       HT       0.417000       1.00800           0
     46677 W2       15559    TIP3     H2       HT       0.417000       1.00800           0
     46678 W2       15560    TIP3     OH2      OT      -0.834000       15.9994           0
     46679 W2       15560    TIP3     H1       HT       0.417000       1.00800           0
     46680 W2       15560    TIP3     H2       HT       0.417000       1.00800           0
     46681 W2       15561    TIP3     OH2      OT      -0.834000       15.9994           0
     46682 W2       15561    TIP3     H1       HT       0.417000       1.00800           0
     46683 W2       15561    TIP3     H2       HT       0.417000       1.00800           0
     46684 W2       15562    TIP3     OH2      OT      -0.834000       15.9994           0
     46685 W2       15562    TIP3     H1       HT       0.417000       1.00800           0
     46686 W2       15562    TIP3     H2       HT       0.417000       1.00800           0
     46687 W2       15563    TIP3     OH2      OT      -0.834000       15.9994           0
     46688 W2       15563    TIP3     H1       HT       0.417000       1.00800           0
     46689 W2       15563    TIP3     H2       HT       0.417000       1.00800           0
     46690 W2       15564    TIP3     OH2      OT      -0.834000       15.9994           0
     46691 W2       15564    TIP3     H1       HT       0.417000       1.00800           0
     46692 W2       15564    TIP3     H2       HT       0.417000       1.00800           0
     46693 W2       15565    TIP3     OH2      OT      -0.834000       15.9994           0
     46694 W2       15565    TIP3     H1       HT       0.417000       1.00800           0
     46695 W2       15565    TIP3     H2       HT       0.417000       1.00800           0
     46696 W2       15566    TIP3     OH2      OT      -0.834000       15.9994           0
     46697 W2       15566    TIP3     H1       HT       0.417000       1.00800           0
     46698 W2       15566    TIP3     H2       HT       0.417000       1.00800           0
     46699 W2       15567    TIP3     OH2      OT      -0.834000       15.9994           0
     46700 W2       15567    TIP3     H1       HT       0.417000       1.00800           0
     46701 W2       15567    TIP3     H2       HT       0.417000       1.00800           0
     46702 W2       15568    TIP3     OH2      OT      -0.834000       15.9994           0
     46703 W2       15568    TIP3     H1       HT       0.417000       1.00800           0
     46704 W2       15568    TIP3     H2       HT       0.417000       1.00800           0
     46705 W2       15569    TIP3     OH2      OT      -0.834000       15.9994           0
     46706 W2       15569    TIP3     H1       HT       0.417000       1.00800           0
     46707 W2       15569    TIP3     H2       HT       0.417000       1.00800           0
     46708 W2       15570    TIP3     OH2      OT      -0.834000       15.9994           0
     46709 W2       15570    TIP3     H1       HT       0.417000       1.00800           0
     46710 W2       15570    TIP3     H2       HT       0.417000       1.00800           0
     46711 W2       15571    TIP3     OH2      OT      -0.834000       15.9994           0
     46712 W2       15571    TIP3     H1       HT       0.417000       1.00800           0
     46713 W2       15571    TIP3     H2       HT       0.417000       1.00800           0
     46714 W2       15572    TIP3     OH2      OT      -0.834000       15.9994           0
     46715 W2       15572    TIP3     H1       HT       0.417000       1.00800           0
     46716 W2       15572    TIP3     H2       HT       0.417000       1.00800           0
     46717 W2       15573    TIP3     OH2      OT      -0.834000       15.9994           0
     46718 W2       15573    TIP3     H1       HT       0.417000       1.00800           0
     46719 W2       15573    TIP3     H2       HT       0.417000       1.00800           0
     46720 W2       15574    TIP3     OH2      OT      -0.834000       15.9994           0
     46721 W2       15574    TIP3     H1       HT       0.417000       1.00800           0
     46722 W2       15574    TIP3     H2       HT       0.417000       1.00800           0
     46723 W2       15575    TIP3     OH2      OT      -0.834000       15.9994           0
     46724 W2       15575    TIP3     H1       HT       0.417000       1.00800           0
     46725 W2       15575    TIP3     H2       HT       0.417000       1.00800           0
     46726 W2       15576    TIP3     OH2      OT      -0.834000       15.9994           0
     46727 W2       15576    TIP3     H1       HT       0.417000       1.00800           0
     46728 W2       15576    TIP3     H2       HT       0.417000       1.00800           0
     46729 W2       15577    TIP3     OH2      OT      -0.834000       15.9994           0
     46730 W2       15577    TIP3     H1       HT       0.417000       1.00800           0
     46731 W2       15577    TIP3     H2       HT       0.417000       1.00800           0
     46732 W2       15578    TIP3     OH2      OT      -0.834000       15.9994           0
     46733 W2       15578    TIP3     H1       HT       0.417000       1.00800           0
     46734 W2       15578    TIP3     H2       HT       0.417000       1.00800           0
     46735 W2       15579    TIP3     OH2      OT      -0.834000       15.9994           0
     46736 W2       15579    TIP3     H1       HT       0.417000       1.00800           0
     46737 W2       15579    TIP3     H2       HT       0.417000       1.00800           0
     46738 W2       15580    TIP3     OH2      OT      -0.834000       15.9994           0
     46739 W2       15580    TIP3     H1       HT       0.417000       1.00800           0
     46740 W2       15580    TIP3     H2       HT       0.417000       1.00800           0
     46741 W2       15581    TIP3     OH2      OT      -0.834000       15.9994           0
     46742 W2       15581    TIP3     H1       HT       0.417000       1.00800           0
     46743 W2       15581    TIP3     H2       HT       0.417000       1.00800           0
     46744 W2       15582    TIP3     OH2      OT      -0.834000       15.9994           0
     46745 W2       15582    TIP3     H1       HT       0.417000       1.00800           0
     46746 W2       15582    TIP3     H2       HT       0.417000       1.00800           0
     46747 W2       15583    TIP3     OH2      OT      -0.834000       15.9994           0
     46748 W2       15583    TIP3     H1       HT       0.417000       1.00800           0
     46749 W2       15583    TIP3     H2       HT       0.417000       1.00800           0
     46750 W2       15584    TIP3     OH2      OT      -0.834000       15.9994           0
     46751 W2       15584    TIP3     H1       HT       0.417000       1.00800           0
     46752 W2       15584    TIP3     H2       HT       0.417000       1.00800           0
     46753 W2       15585    TIP3     OH2      OT      -0.834000       15.9994           0
     46754 W2       15585    TIP3     H1       HT       0.417000       1.00800           0
     46755 W2       15585    TIP3     H2       HT       0.417000       1.00800           0
     46756 W2       15586    TIP3     OH2      OT      -0.834000       15.9994           0
     46757 W2       15586    TIP3     H1       HT       0.417000       1.00800           0
     46758 W2       15586    TIP3     H2       HT       0.417000       1.00800           0
     46759 W2       15587    TIP3     OH2      OT      -0.834000       15.9994           0
     46760 W2       15587    TIP3     H1       HT       0.417000       1.00800           0
     46761 W2       15587    TIP3     H2       HT       0.417000       1.00800           0
     46762 W2       15588    TIP3     OH2      OT      -0.834000       15.9994           0
     46763 W2       15588    TIP3     H1       HT       0.417000       1.00800           0
     46764 W2       15588    TIP3     H2       HT       0.417000       1.00800           0
     46765 W2       15589    TIP3     OH2      OT      -0.834000       15.9994           0
     46766 W2       15589    TIP3     H1       HT       0.417000       1.00800           0
     46767 W2       15589    TIP3     H2       HT       0.417000       1.00800           0
     46768 W2       15590    TIP3     OH2      OT      -0.834000       15.9994           0
     46769 W2       15590    TIP3     H1       HT       0.417000       1.00800           0
     46770 W2       15590    TIP3     H2       HT       0.417000       1.00800           0
     46771 W2       15591    TIP3     OH2      OT      -0.834000       15.9994           0
     46772 W2       15591    TIP3     H1       HT       0.417000       1.00800           0
     46773 W2       15591    TIP3     H2       HT       0.417000       1.00800           0
     46774 W2       15592    TIP3     OH2      OT      -0.834000       15.9994           0
     46775 W2       15592    TIP3     H1       HT       0.417000       1.00800           0
     46776 W2       15592    TIP3     H2       HT       0.417000       1.00800           0
     46777 W2       15593    TIP3     OH2      OT      -0.834000       15.9994           0
     46778 W2       15593    TIP3     H1       HT       0.417000       1.00800           0
     46779 W2       15593    TIP3     H2       HT       0.417000       1.00800           0
     46780 W2       15594    TIP3     OH2      OT      -0.834000       15.9994           0
     46781 W2       15594    TIP3     H1       HT       0.417000       1.00800           0
     46782 W2       15594    TIP3     H2       HT       0.417000       1.00800           0
     46783 W2       15595    TIP3     OH2      OT      -0.834000       15.9994           0
     46784 W2       15595    TIP3     H1       HT       0.417000       1.00800           0
     46785 W2       15595    TIP3     H2       HT       0.417000       1.00800           0
     46786 W2       15596    TIP3     OH2      OT      -0.834000       15.9994           0
     46787 W2       15596    TIP3     H1       HT       0.417000       1.00800           0
     46788 W2       15596    TIP3     H2       HT       0.417000       1.00800           0
     46789 W2       15597    TIP3     OH2      OT      -0.834000       15.9994           0
     46790 W2       15597    TIP3     H1       HT       0.417000       1.00800           0
     46791 W2       15597    TIP3     H2       HT       0.417000       1.00800           0
     46792 W2       15598    TIP3     OH2      OT      -0.834000       15.9994           0
     46793 W2       15598    TIP3     H1       HT       0.417000       1.00800           0
     46794 W2       15598    TIP3     H2       HT       0.417000       1.00800           0
     46795 W2       15599    TIP3     OH2      OT      -0.834000       15.9994           0
     46796 W2       15599    TIP3     H1       HT       0.417000       1.00800           0
     46797 W2       15599    TIP3     H2       HT       0.417000       1.00800           0
     46798 W2       15600    TIP3     OH2      OT      -0.834000       15.9994           0
     46799 W2       15600    TIP3     H1       HT       0.417000       1.00800           0
     46800 W2       15600    TIP3     H2       HT       0.417000       1.00800           0
     46801 W2       15601    TIP3     OH2      OT      -0.834000       15.9994           0
     46802 W2       15601    TIP3     H1       HT       0.417000       1.00800           0
     46803 W2       15601    TIP3     H2       HT       0.417000       1.00800           0
     46804 W2       15602    TIP3     OH2      OT      -0.834000       15.9994           0
     46805 W2       15602    TIP3     H1       HT       0.417000       1.00800           0
     46806 W2       15602    TIP3     H2       HT       0.417000       1.00800           0
     46807 W2       15603    TIP3     OH2      OT      -0.834000       15.9994           0
     46808 W2       15603    TIP3     H1       HT       0.417000       1.00800           0
     46809 W2       15603    TIP3     H2       HT       0.417000       1.00800           0
     46810 W2       15604    TIP3     OH2      OT      -0.834000       15.9994           0
     46811 W2       15604    TIP3     H1       HT       0.417000       1.00800           0
     46812 W2       15604    TIP3     H2       HT       0.417000       1.00800           0
     46813 W2       15605    TIP3     OH2      OT      -0.834000       15.9994           0
     46814 W2       15605    TIP3     H1       HT       0.417000       1.00800           0
     46815 W2       15605    TIP3     H2       HT       0.417000       1.00800           0
     46816 W2       15606    TIP3     OH2      OT      -0.834000       15.9994           0
     46817 W2       15606    TIP3     H1       HT       0.417000       1.00800           0
     46818 W2       15606    TIP3     H2       HT       0.417000       1.00800           0
     46819 W2       15607    TIP3     OH2      OT      -0.834000       15.9994           0
     46820 W2       15607    TIP3     H1       HT       0.417000       1.00800           0
     46821 W2       15607    TIP3     H2       HT       0.417000       1.00800           0
     46822 W2       15608    TIP3     OH2      OT      -0.834000       15.9994           0
     46823 W2       15608    TIP3     H1       HT       0.417000       1.00800           0
     46824 W2       15608    TIP3     H2       HT       0.417000       1.00800           0
     46825 W2       15609    TIP3     OH2      OT      -0.834000       15.9994           0
     46826 W2       15609    TIP3     H1       HT       0.417000       1.00800           0
     46827 W2       15609    TIP3     H2       HT       0.417000       1.00800           0
     46828 W2       15610    TIP3     OH2      OT      -0.834000       15.9994           0
     46829 W2       15610    TIP3     H1       HT       0.417000       1.00800           0
     46830 W2       15610    TIP3     H2       HT       0.417000       1.00800           0
     46831 W2       15611    TIP3     OH2      OT      -0.834000       15.9994           0
     46832 W2       15611    TIP3     H1       HT       0.417000       1.00800           0
     46833 W2       15611    TIP3     H2       HT       0.417000       1.00800           0
     46834 W2       15612    TIP3     OH2      OT      -0.834000       15.9994           0
     46835 W2       15612    TIP3     H1       HT       0.417000       1.00800           0
     46836 W2       15612    TIP3     H2       HT       0.417000       1.00800           0
     46837 W2       15613    TIP3     OH2      OT      -0.834000       15.9994           0
     46838 W2       15613    TIP3     H1       HT       0.417000       1.00800           0
     46839 W2       15613    TIP3     H2       HT       0.417000       1.00800           0
     46840 W2       15614    TIP3     OH2      OT      -0.834000       15.9994           0
     46841 W2       15614    TIP3     H1       HT       0.417000       1.00800           0
     46842 W2       15614    TIP3     H2       HT       0.417000       1.00800           0
     46843 W2       15615    TIP3     OH2      OT      -0.834000       15.9994           0
     46844 W2       15615    TIP3     H1       HT       0.417000       1.00800           0
     46845 W2       15615    TIP3     H2       HT       0.417000       1.00800           0
     46846 W2       15616    TIP3     OH2      OT      -0.834000       15.9994           0
     46847 W2       15616    TIP3     H1       HT       0.417000       1.00800           0
     46848 W2       15616    TIP3     H2       HT       0.417000       1.00800           0
     46849 W2       15617    TIP3     OH2      OT      -0.834000       15.9994           0
     46850 W2       15617    TIP3     H1       HT       0.417000       1.00800           0
     46851 W2       15617    TIP3     H2       HT       0.417000       1.00800           0
     46852 W2       15618    TIP3     OH2      OT      -0.834000       15.9994           0
     46853 W2       15618    TIP3     H1       HT       0.417000       1.00800           0
     46854 W2       15618    TIP3     H2       HT       0.417000       1.00800           0
     46855 W2       15619    TIP3     OH2      OT      -0.834000       15.9994           0
     46856 W2       15619    TIP3     H1       HT       0.417000       1.00800           0
     46857 W2       15619    TIP3     H2       HT       0.417000       1.00800           0
     46858 W2       15620    TIP3     OH2      OT      -0.834000       15.9994           0
     46859 W2       15620    TIP3     H1       HT       0.417000       1.00800           0
     46860 W2       15620    TIP3     H2       HT       0.417000       1.00800           0
     46861 W2       15621    TIP3     OH2      OT      -0.834000       15.9994           0
     46862 W2       15621    TIP3     H1       HT       0.417000       1.00800           0
     46863 W2       15621    TIP3     H2       HT       0.417000       1.00800           0
     46864 W2       15622    TIP3     OH2      OT      -0.834000       15.9994           0
     46865 W2       15622    TIP3     H1       HT       0.417000       1.00800           0
     46866 W2       15622    TIP3     H2       HT       0.417000       1.00800           0
     46867 W2       15623    TIP3     OH2      OT      -0.834000       15.9994           0
     46868 W2       15623    TIP3     H1       HT       0.417000       1.00800           0
     46869 W2       15623    TIP3     H2       HT       0.417000       1.00800           0
     46870 W2       15624    TIP3     OH2      OT      -0.834000       15.9994           0
     46871 W2       15624    TIP3     H1       HT       0.417000       1.00800           0
     46872 W2       15624    TIP3     H2       HT       0.417000       1.00800           0
     46873 W2       15625    TIP3     OH2      OT      -0.834000       15.9994           0
     46874 W2       15625    TIP3     H1       HT       0.417000       1.00800           0
     46875 W2       15625    TIP3     H2       HT       0.417000       1.00800           0
     46876 W2       15626    TIP3     OH2      OT      -0.834000       15.9994           0
     46877 W2       15626    TIP3     H1       HT       0.417000       1.00800           0
     46878 W2       15626    TIP3     H2       HT       0.417000       1.00800           0
     46879 W2       15627    TIP3     OH2      OT      -0.834000       15.9994           0
     46880 W2       15627    TIP3     H1       HT       0.417000       1.00800           0
     46881 W2       15627    TIP3     H2       HT       0.417000       1.00800           0
     46882 W2       15628    TIP3     OH2      OT      -0.834000       15.9994           0
     46883 W2       15628    TIP3     H1       HT       0.417000       1.00800           0
     46884 W2       15628    TIP3     H2       HT       0.417000       1.00800           0
     46885 W2       15629    TIP3     OH2      OT      -0.834000       15.9994           0
     46886 W2       15629    TIP3     H1       HT       0.417000       1.00800           0
     46887 W2       15629    TIP3     H2       HT       0.417000       1.00800           0
     46888 W2       15630    TIP3     OH2      OT      -0.834000       15.9994           0
     46889 W2       15630    TIP3     H1       HT       0.417000       1.00800           0
     46890 W2       15630    TIP3     H2       HT       0.417000       1.00800           0
     46891 W2       15631    TIP3     OH2      OT      -0.834000       15.9994           0
     46892 W2       15631    TIP3     H1       HT       0.417000       1.00800           0
     46893 W2       15631    TIP3     H2       HT       0.417000       1.00800           0
     46894 W2       15632    TIP3     OH2      OT      -0.834000       15.9994           0
     46895 W2       15632    TIP3     H1       HT       0.417000       1.00800           0
     46896 W2       15632    TIP3     H2       HT       0.417000       1.00800           0
     46897 W2       15633    TIP3     OH2      OT      -0.834000       15.9994           0
     46898 W2       15633    TIP3     H1       HT       0.417000       1.00800           0
     46899 W2       15633    TIP3     H2       HT       0.417000       1.00800           0
     46900 W2       15634    TIP3     OH2      OT      -0.834000       15.9994           0
     46901 W2       15634    TIP3     H1       HT       0.417000       1.00800           0
     46902 W2       15634    TIP3     H2       HT       0.417000       1.00800           0
     46903 W2       15635    TIP3     OH2      OT      -0.834000       15.9994           0
     46904 W2       15635    TIP3     H1       HT       0.417000       1.00800           0
     46905 W2       15635    TIP3     H2       HT       0.417000       1.00800           0
     46906 W2       15636    TIP3     OH2      OT      -0.834000       15.9994           0
     46907 W2       15636    TIP3     H1       HT       0.417000       1.00800           0
     46908 W2       15636    TIP3     H2       HT       0.417000       1.00800           0
     46909 W2       15637    TIP3     OH2      OT      -0.834000       15.9994           0
     46910 W2       15637    TIP3     H1       HT       0.417000       1.00800           0
     46911 W2       15637    TIP3     H2       HT       0.417000       1.00800           0
     46912 W2       15638    TIP3     OH2      OT      -0.834000       15.9994           0
     46913 W2       15638    TIP3     H1       HT       0.417000       1.00800           0
     46914 W2       15638    TIP3     H2       HT       0.417000       1.00800           0
     46915 W2       15639    TIP3     OH2      OT      -0.834000       15.9994           0
     46916 W2       15639    TIP3     H1       HT       0.417000       1.00800           0
     46917 W2       15639    TIP3     H2       HT       0.417000       1.00800           0
     46918 W2       15640    TIP3     OH2      OT      -0.834000       15.9994           0
     46919 W2       15640    TIP3     H1       HT       0.417000       1.00800           0
     46920 W2       15640    TIP3     H2       HT       0.417000       1.00800           0
     46921 W2       15641    TIP3     OH2      OT      -0.834000       15.9994           0
     46922 W2       15641    TIP3     H1       HT       0.417000       1.00800           0
     46923 W2       15641    TIP3     H2       HT       0.417000       1.00800           0
     46924 W2       15642    TIP3     OH2      OT      -0.834000       15.9994           0
     46925 W2       15642    TIP3     H1       HT       0.417000       1.00800           0
     46926 W2       15642    TIP3     H2       HT       0.417000       1.00800           0
     46927 W2       15643    TIP3     OH2      OT      -0.834000       15.9994           0
     46928 W2       15643    TIP3     H1       HT       0.417000       1.00800           0
     46929 W2       15643    TIP3     H2       HT       0.417000       1.00800           0
     46930 W2       15644    TIP3     OH2      OT      -0.834000       15.9994           0
     46931 W2       15644    TIP3     H1       HT       0.417000       1.00800           0
     46932 W2       15644    TIP3     H2       HT       0.417000       1.00800           0
     46933 W2       15645    TIP3     OH2      OT      -0.834000       15.9994           0
     46934 W2       15645    TIP3     H1       HT       0.417000       1.00800           0
     46935 W2       15645    TIP3     H2       HT       0.417000       1.00800           0
     46936 W2       15646    TIP3     OH2      OT      -0.834000       15.9994           0
     46937 W2       15646    TIP3     H1       HT       0.417000       1.00800           0
     46938 W2       15646    TIP3     H2       HT       0.417000       1.00800           0
     46939 W2       15647    TIP3     OH2      OT      -0.834000       15.9994           0
     46940 W2       15647    TIP3     H1       HT       0.417000       1.00800           0
     46941 W2       15647    TIP3     H2       HT       0.417000       1.00800           0
     46942 W2       15648    TIP3     OH2      OT      -0.834000       15.9994           0
     46943 W2       15648    TIP3     H1       HT       0.417000       1.00800           0
     46944 W2       15648    TIP3     H2       HT       0.417000       1.00800           0
     46945 W2       15649    TIP3     OH2      OT      -0.834000       15.9994           0
     46946 W2       15649    TIP3     H1       HT       0.417000       1.00800           0
     46947 W2       15649    TIP3     H2       HT       0.417000       1.00800           0
     46948 W2       15650    TIP3     OH2      OT      -0.834000       15.9994           0
     46949 W2       15650    TIP3     H1       HT       0.417000       1.00800           0
     46950 W2       15650    TIP3     H2       HT       0.417000       1.00800           0
     46951 W2       15651    TIP3     OH2      OT      -0.834000       15.9994           0
     46952 W2       15651    TIP3     H1       HT       0.417000       1.00800           0
     46953 W2       15651    TIP3     H2       HT       0.417000       1.00800           0
     46954 W2       15652    TIP3     OH2      OT      -0.834000       15.9994           0
     46955 W2       15652    TIP3     H1       HT       0.417000       1.00800           0
     46956 W2       15652    TIP3     H2       HT       0.417000       1.00800           0
     46957 W2       15653    TIP3     OH2      OT      -0.834000       15.9994           0
     46958 W2       15653    TIP3     H1       HT       0.417000       1.00800           0
     46959 W2       15653    TIP3     H2       HT       0.417000       1.00800           0
     46960 W2       15654    TIP3     OH2      OT      -0.834000       15.9994           0
     46961 W2       15654    TIP3     H1       HT       0.417000       1.00800           0
     46962 W2       15654    TIP3     H2       HT       0.417000       1.00800           0
     46963 W2       15655    TIP3     OH2      OT      -0.834000       15.9994           0
     46964 W2       15655    TIP3     H1       HT       0.417000       1.00800           0
     46965 W2       15655    TIP3     H2       HT       0.417000       1.00800           0
     46966 W2       15656    TIP3     OH2      OT      -0.834000       15.9994           0
     46967 W2       15656    TIP3     H1       HT       0.417000       1.00800           0
     46968 W2       15656    TIP3     H2       HT       0.417000       1.00800           0
     46969 W2       15657    TIP3     OH2      OT      -0.834000       15.9994           0
     46970 W2       15657    TIP3     H1       HT       0.417000       1.00800           0
     46971 W2       15657    TIP3     H2       HT       0.417000       1.00800           0
     46972 W2       15658    TIP3     OH2      OT      -0.834000       15.9994           0
     46973 W2       15658    TIP3     H1       HT       0.417000       1.00800           0
     46974 W2       15658    TIP3     H2       HT       0.417000       1.00800           0
     46975 W2       15659    TIP3     OH2      OT      -0.834000       15.9994           0
     46976 W2       15659    TIP3     H1       HT       0.417000       1.00800           0
     46977 W2       15659    TIP3     H2       HT       0.417000       1.00800           0
     46978 W2       15660    TIP3     OH2      OT      -0.834000       15.9994           0
     46979 W2       15660    TIP3     H1       HT       0.417000       1.00800           0
     46980 W2       15660    TIP3     H2       HT       0.417000       1.00800           0
     46981 W2       15661    TIP3     OH2      OT      -0.834000       15.9994           0
     46982 W2       15661    TIP3     H1       HT       0.417000       1.00800           0
     46983 W2       15661    TIP3     H2       HT       0.417000       1.00800           0
     46984 W2       15662    TIP3     OH2      OT      -0.834000       15.9994           0
     46985 W2       15662    TIP3     H1       HT       0.417000       1.00800           0
     46986 W2       15662    TIP3     H2       HT       0.417000       1.00800           0
     46987 W2       15663    TIP3     OH2      OT      -0.834000       15.9994           0
     46988 W2       15663    TIP3     H1       HT       0.417000       1.00800           0
     46989 W2       15663    TIP3     H2       HT       0.417000       1.00800           0
     46990 W2       15664    TIP3     OH2      OT      -0.834000       15.9994           0
     46991 W2       15664    TIP3     H1       HT       0.417000       1.00800           0
     46992 W2       15664    TIP3     H2       HT       0.417000       1.00800           0
     46993 W2       15665    TIP3     OH2      OT      -0.834000       15.9994           0
     46994 W2       15665    TIP3     H1       HT       0.417000       1.00800           0
     46995 W2       15665    TIP3     H2       HT       0.417000       1.00800           0
     46996 W2       15666    TIP3     OH2      OT      -0.834000       15.9994           0
     46997 W2       15666    TIP3     H1       HT       0.417000       1.00800           0
     46998 W2       15666    TIP3     H2       HT       0.417000       1.00800           0
     46999 W2       15667    TIP3     OH2      OT      -0.834000       15.9994           0
     47000 W2       15667    TIP3     H1       HT       0.417000       1.00800           0
     47001 W2       15667    TIP3     H2       HT       0.417000       1.00800           0
     47002 W2       15668    TIP3     OH2      OT      -0.834000       15.9994           0
     47003 W2       15668    TIP3     H1       HT       0.417000       1.00800           0
     47004 W2       15668    TIP3     H2       HT       0.417000       1.00800           0
     47005 W2       15669    TIP3     OH2      OT      -0.834000       15.9994           0
     47006 W2       15669    TIP3     H1       HT       0.417000       1.00800           0
     47007 W2       15669    TIP3     H2       HT       0.417000       1.00800           0
     47008 W2       15670    TIP3     OH2      OT      -0.834000       15.9994           0
     47009 W2       15670    TIP3     H1       HT       0.417000       1.00800           0
     47010 W2       15670    TIP3     H2       HT       0.417000       1.00800           0
     47011 W2       15671    TIP3     OH2      OT      -0.834000       15.9994           0
     47012 W2       15671    TIP3     H1       HT       0.417000       1.00800           0
     47013 W2       15671    TIP3     H2       HT       0.417000       1.00800           0
     47014 W2       15672    TIP3     OH2      OT      -0.834000       15.9994           0
     47015 W2       15672    TIP3     H1       HT       0.417000       1.00800           0
     47016 W2       15672    TIP3     H2       HT       0.417000       1.00800           0
     47017 W2       15673    TIP3     OH2      OT      -0.834000       15.9994           0
     47018 W2       15673    TIP3     H1       HT       0.417000       1.00800           0
     47019 W2       15673    TIP3     H2       HT       0.417000       1.00800           0
     47020 W2       15674    TIP3     OH2      OT      -0.834000       15.9994           0
     47021 W2       15674    TIP3     H1       HT       0.417000       1.00800           0
     47022 W2       15674    TIP3     H2       HT       0.417000       1.00800           0
     47023 W2       15675    TIP3     OH2      OT      -0.834000       15.9994           0
     47024 W2       15675    TIP3     H1       HT       0.417000       1.00800           0
     47025 W2       15675    TIP3     H2       HT       0.417000       1.00800           0
     47026 W2       15676    TIP3     OH2      OT      -0.834000       15.9994           0
     47027 W2       15676    TIP3     H1       HT       0.417000       1.00800           0
     47028 W2       15676    TIP3     H2       HT       0.417000       1.00800           0
     47029 W2       15677    TIP3     OH2      OT      -0.834000       15.9994           0
     47030 W2       15677    TIP3     H1       HT       0.417000       1.00800           0
     47031 W2       15677    TIP3     H2       HT       0.417000       1.00800           0
     47032 W2       15678    TIP3     OH2      OT      -0.834000       15.9994           0
     47033 W2       15678    TIP3     H1       HT       0.417000       1.00800           0
     47034 W2       15678    TIP3     H2       HT       0.417000       1.00800           0
     47035 W2       15679    TIP3     OH2      OT      -0.834000       15.9994           0
     47036 W2       15679    TIP3     H1       HT       0.417000       1.00800           0
     47037 W2       15679    TIP3     H2       HT       0.417000       1.00800           0
     47038 W2       15680    TIP3     OH2      OT      -0.834000       15.9994           0
     47039 W2       15680    TIP3     H1       HT       0.417000       1.00800           0
     47040 W2       15680    TIP3     H2       HT       0.417000       1.00800           0
     47041 W2       15681    TIP3     OH2      OT      -0.834000       15.9994           0
     47042 W2       15681    TIP3     H1       HT       0.417000       1.00800           0
     47043 W2       15681    TIP3     H2       HT       0.417000       1.00800           0
     47044 W2       15682    TIP3     OH2      OT      -0.834000       15.9994           0
     47045 W2       15682    TIP3     H1       HT       0.417000       1.00800           0
     47046 W2       15682    TIP3     H2       HT       0.417000       1.00800           0
     47047 W2       15683    TIP3     OH2      OT      -0.834000       15.9994           0
     47048 W2       15683    TIP3     H1       HT       0.417000       1.00800           0
     47049 W2       15683    TIP3     H2       HT       0.417000       1.00800           0
     47050 W2       15684    TIP3     OH2      OT      -0.834000       15.9994           0
     47051 W2       15684    TIP3     H1       HT       0.417000       1.00800           0
     47052 W2       15684    TIP3     H2       HT       0.417000       1.00800           0
     47053 W2       15685    TIP3     OH2      OT      -0.834000       15.9994           0
     47054 W2       15685    TIP3     H1       HT       0.417000       1.00800           0
     47055 W2       15685    TIP3     H2       HT       0.417000       1.00800           0
     47056 W2       15686    TIP3     OH2      OT      -0.834000       15.9994           0
     47057 W2       15686    TIP3     H1       HT       0.417000       1.00800           0
     47058 W2       15686    TIP3     H2       HT       0.417000       1.00800           0
     47059 W2       15687    TIP3     OH2      OT      -0.834000       15.9994           0
     47060 W2       15687    TIP3     H1       HT       0.417000       1.00800           0
     47061 W2       15687    TIP3     H2       HT       0.417000       1.00800           0
     47062 W2       15688    TIP3     OH2      OT      -0.834000       15.9994           0
     47063 W2       15688    TIP3     H1       HT       0.417000       1.00800           0
     47064 W2       15688    TIP3     H2       HT       0.417000       1.00800           0
     47065 W2       15689    TIP3     OH2      OT      -0.834000       15.9994           0
     47066 W2       15689    TIP3     H1       HT       0.417000       1.00800           0
     47067 W2       15689    TIP3     H2       HT       0.417000       1.00800           0
     47068 W2       15690    TIP3     OH2      OT      -0.834000       15.9994           0
     47069 W2       15690    TIP3     H1       HT       0.417000       1.00800           0
     47070 W2       15690    TIP3     H2       HT       0.417000       1.00800           0
     47071 W2       15691    TIP3     OH2      OT      -0.834000       15.9994           0
     47072 W2       15691    TIP3     H1       HT       0.417000       1.00800           0
     47073 W2       15691    TIP3     H2       HT       0.417000       1.00800           0
     47074 W2       15692    TIP3     OH2      OT      -0.834000       15.9994           0
     47075 W2       15692    TIP3     H1       HT       0.417000       1.00800           0
     47076 W2       15692    TIP3     H2       HT       0.417000       1.00800           0
     47077 W2       15693    TIP3     OH2      OT      -0.834000       15.9994           0
     47078 W2       15693    TIP3     H1       HT       0.417000       1.00800           0
     47079 W2       15693    TIP3     H2       HT       0.417000       1.00800           0
     47080 W2       15694    TIP3     OH2      OT      -0.834000       15.9994           0
     47081 W2       15694    TIP3     H1       HT       0.417000       1.00800           0
     47082 W2       15694    TIP3     H2       HT       0.417000       1.00800           0
     47083 W2       15695    TIP3     OH2      OT      -0.834000       15.9994           0
     47084 W2       15695    TIP3     H1       HT       0.417000       1.00800           0
     47085 W2       15695    TIP3     H2       HT       0.417000       1.00800           0
     47086 W2       15696    TIP3     OH2      OT      -0.834000       15.9994           0
     47087 W2       15696    TIP3     H1       HT       0.417000       1.00800           0
     47088 W2       15696    TIP3     H2       HT       0.417000       1.00800           0
     47089 W2       15697    TIP3     OH2      OT      -0.834000       15.9994           0
     47090 W2       15697    TIP3     H1       HT       0.417000       1.00800           0
     47091 W2       15697    TIP3     H2       HT       0.417000       1.00800           0
     47092 W2       15698    TIP3     OH2      OT      -0.834000       15.9994           0
     47093 W2       15698    TIP3     H1       HT       0.417000       1.00800           0
     47094 W2       15698    TIP3     H2       HT       0.417000       1.00800           0
     47095 W2       15699    TIP3     OH2      OT      -0.834000       15.9994           0
     47096 W2       15699    TIP3     H1       HT       0.417000       1.00800           0
     47097 W2       15699    TIP3     H2       HT       0.417000       1.00800           0
     47098 W2       15700    TIP3     OH2      OT      -0.834000       15.9994           0
     47099 W2       15700    TIP3     H1       HT       0.417000       1.00800           0
     47100 W2       15700    TIP3     H2       HT       0.417000       1.00800           0
     47101 W2       15701    TIP3     OH2      OT      -0.834000       15.9994           0
     47102 W2       15701    TIP3     H1       HT       0.417000       1.00800           0
     47103 W2       15701    TIP3     H2       HT       0.417000       1.00800           0
     47104 W2       15702    TIP3     OH2      OT      -0.834000       15.9994           0
     47105 W2       15702    TIP3     H1       HT       0.417000       1.00800           0
     47106 W2       15702    TIP3     H2       HT       0.417000       1.00800           0
     47107 W2       15703    TIP3     OH2      OT      -0.834000       15.9994           0
     47108 W2       15703    TIP3     H1       HT       0.417000       1.00800           0
     47109 W2       15703    TIP3     H2       HT       0.417000       1.00800           0
     47110 W2       15704    TIP3     OH2      OT      -0.834000       15.9994           0
     47111 W2       15704    TIP3     H1       HT       0.417000       1.00800           0
     47112 W2       15704    TIP3     H2       HT       0.417000       1.00800           0
     47113 W2       15705    TIP3     OH2      OT      -0.834000       15.9994           0
     47114 W2       15705    TIP3     H1       HT       0.417000       1.00800           0
     47115 W2       15705    TIP3     H2       HT       0.417000       1.00800           0
     47116 W2       15706    TIP3     OH2      OT      -0.834000       15.9994           0
     47117 W2       15706    TIP3     H1       HT       0.417000       1.00800           0
     47118 W2       15706    TIP3     H2       HT       0.417000       1.00800           0
     47119 W2       15707    TIP3     OH2      OT      -0.834000       15.9994           0
     47120 W2       15707    TIP3     H1       HT       0.417000       1.00800           0
     47121 W2       15707    TIP3     H2       HT       0.417000       1.00800           0
     47122 W2       15708    TIP3     OH2      OT      -0.834000       15.9994           0
     47123 W2       15708    TIP3     H1       HT       0.417000       1.00800           0
     47124 W2       15708    TIP3     H2       HT       0.417000       1.00800           0
     47125 W2       15709    TIP3     OH2      OT      -0.834000       15.9994           0
     47126 W2       15709    TIP3     H1       HT       0.417000       1.00800           0
     47127 W2       15709    TIP3     H2       HT       0.417000       1.00800           0
     47128 W2       15710    TIP3     OH2      OT      -0.834000       15.9994           0
     47129 W2       15710    TIP3     H1       HT       0.417000       1.00800           0
     47130 W2       15710    TIP3     H2       HT       0.417000       1.00800           0
     47131 W2       15711    TIP3     OH2      OT      -0.834000       15.9994           0
     47132 W2       15711    TIP3     H1       HT       0.417000       1.00800           0
     47133 W2       15711    TIP3     H2       HT       0.417000       1.00800           0
     47134 W2       15712    TIP3     OH2      OT      -0.834000       15.9994           0
     47135 W2       15712    TIP3     H1       HT       0.417000       1.00800           0
     47136 W2       15712    TIP3     H2       HT       0.417000       1.00800           0
     47137 W2       15713    TIP3     OH2      OT      -0.834000       15.9994           0
     47138 W2       15713    TIP3     H1       HT       0.417000       1.00800           0
     47139 W2       15713    TIP3     H2       HT       0.417000       1.00800           0
     47140 W2       15714    TIP3     OH2      OT      -0.834000       15.9994           0
     47141 W2       15714    TIP3     H1       HT       0.417000       1.00800           0
     47142 W2       15714    TIP3     H2       HT       0.417000       1.00800           0
     47143 W2       15715    TIP3     OH2      OT      -0.834000       15.9994           0
     47144 W2       15715    TIP3     H1       HT       0.417000       1.00800           0
     47145 W2       15715    TIP3     H2       HT       0.417000       1.00800           0
     47146 W2       15716    TIP3     OH2      OT      -0.834000       15.9994           0
     47147 W2       15716    TIP3     H1       HT       0.417000       1.00800           0
     47148 W2       15716    TIP3     H2       HT       0.417000       1.00800           0
     47149 W2       15717    TIP3     OH2      OT      -0.834000       15.9994           0
     47150 W2       15717    TIP3     H1       HT       0.417000       1.00800           0
     47151 W2       15717    TIP3     H2       HT       0.417000       1.00800           0
     47152 W2       15718    TIP3     OH2      OT      -0.834000       15.9994           0
     47153 W2       15718    TIP3     H1       HT       0.417000       1.00800           0
     47154 W2       15718    TIP3     H2       HT       0.417000       1.00800           0
     47155 W2       15719    TIP3     OH2      OT      -0.834000       15.9994           0
     47156 W2       15719    TIP3     H1       HT       0.417000       1.00800           0
     47157 W2       15719    TIP3     H2       HT       0.417000       1.00800           0
     47158 W2       15720    TIP3     OH2      OT      -0.834000       15.9994           0
     47159 W2       15720    TIP3     H1       HT       0.417000       1.00800           0
     47160 W2       15720    TIP3     H2       HT       0.417000       1.00800           0
     47161 W2       15721    TIP3     OH2      OT      -0.834000       15.9994           0
     47162 W2       15721    TIP3     H1       HT       0.417000       1.00800           0
     47163 W2       15721    TIP3     H2       HT       0.417000       1.00800           0
     47164 W2       15722    TIP3     OH2      OT      -0.834000       15.9994           0
     47165 W2       15722    TIP3     H1       HT       0.417000       1.00800           0
     47166 W2       15722    TIP3     H2       HT       0.417000       1.00800           0
     47167 W2       15723    TIP3     OH2      OT      -0.834000       15.9994           0
     47168 W2       15723    TIP3     H1       HT       0.417000       1.00800           0
     47169 W2       15723    TIP3     H2       HT       0.417000       1.00800           0
     47170 W2       15724    TIP3     OH2      OT      -0.834000       15.9994           0
     47171 W2       15724    TIP3     H1       HT       0.417000       1.00800           0
     47172 W2       15724    TIP3     H2       HT       0.417000       1.00800           0
     47173 W2       15725    TIP3     OH2      OT      -0.834000       15.9994           0
     47174 W2       15725    TIP3     H1       HT       0.417000       1.00800           0
     47175 W2       15725    TIP3     H2       HT       0.417000       1.00800           0
     47176 W2       15726    TIP3     OH2      OT      -0.834000       15.9994           0
     47177 W2       15726    TIP3     H1       HT       0.417000       1.00800           0
     47178 W2       15726    TIP3     H2       HT       0.417000       1.00800           0
     47179 W2       15727    TIP3     OH2      OT      -0.834000       15.9994           0
     47180 W2       15727    TIP3     H1       HT       0.417000       1.00800           0
     47181 W2       15727    TIP3     H2       HT       0.417000       1.00800           0
     47182 W2       15728    TIP3     OH2      OT      -0.834000       15.9994           0
     47183 W2       15728    TIP3     H1       HT       0.417000       1.00800           0
     47184 W2       15728    TIP3     H2       HT       0.417000       1.00800           0
     47185 W2       15729    TIP3     OH2      OT      -0.834000       15.9994           0
     47186 W2       15729    TIP3     H1       HT       0.417000       1.00800           0
     47187 W2       15729    TIP3     H2       HT       0.417000       1.00800           0
     47188 W2       15730    TIP3     OH2      OT      -0.834000       15.9994           0
     47189 W2       15730    TIP3     H1       HT       0.417000       1.00800           0
     47190 W2       15730    TIP3     H2       HT       0.417000       1.00800           0
     47191 W2       15731    TIP3     OH2      OT      -0.834000       15.9994           0
     47192 W2       15731    TIP3     H1       HT       0.417000       1.00800           0
     47193 W2       15731    TIP3     H2       HT       0.417000       1.00800           0
     47194 W2       15732    TIP3     OH2      OT      -0.834000       15.9994           0
     47195 W2       15732    TIP3     H1       HT       0.417000       1.00800           0
     47196 W2       15732    TIP3     H2       HT       0.417000       1.00800           0
     47197 W2       15733    TIP3     OH2      OT      -0.834000       15.9994           0
     47198 W2       15733    TIP3     H1       HT       0.417000       1.00800           0
     47199 W2       15733    TIP3     H2       HT       0.417000       1.00800           0
     47200 W2       15734    TIP3     OH2      OT      -0.834000       15.9994           0
     47201 W2       15734    TIP3     H1       HT       0.417000       1.00800           0
     47202 W2       15734    TIP3     H2       HT       0.417000       1.00800           0
     47203 W2       15735    TIP3     OH2      OT      -0.834000       15.9994           0
     47204 W2       15735    TIP3     H1       HT       0.417000       1.00800           0
     47205 W2       15735    TIP3     H2       HT       0.417000       1.00800           0
     47206 W2       15736    TIP3     OH2      OT      -0.834000       15.9994           0
     47207 W2       15736    TIP3     H1       HT       0.417000       1.00800           0
     47208 W2       15736    TIP3     H2       HT       0.417000       1.00800           0
     47209 W2       15737    TIP3     OH2      OT      -0.834000       15.9994           0
     47210 W2       15737    TIP3     H1       HT       0.417000       1.00800           0
     47211 W2       15737    TIP3     H2       HT       0.417000       1.00800           0
     47212 W2       15738    TIP3     OH2      OT      -0.834000       15.9994           0
     47213 W2       15738    TIP3     H1       HT       0.417000       1.00800           0
     47214 W2       15738    TIP3     H2       HT       0.417000       1.00800           0
     47215 W2       15739    TIP3     OH2      OT      -0.834000       15.9994           0
     47216 W2       15739    TIP3     H1       HT       0.417000       1.00800           0
     47217 W2       15739    TIP3     H2       HT       0.417000       1.00800           0
     47218 W2       15740    TIP3     OH2      OT      -0.834000       15.9994           0
     47219 W2       15740    TIP3     H1       HT       0.417000       1.00800           0
     47220 W2       15740    TIP3     H2       HT       0.417000       1.00800           0
     47221 W2       15741    TIP3     OH2      OT      -0.834000       15.9994           0
     47222 W2       15741    TIP3     H1       HT       0.417000       1.00800           0
     47223 W2       15741    TIP3     H2       HT       0.417000       1.00800           0
     47224 W2       15742    TIP3     OH2      OT      -0.834000       15.9994           0
     47225 W2       15742    TIP3     H1       HT       0.417000       1.00800           0
     47226 W2       15742    TIP3     H2       HT       0.417000       1.00800           0
     47227 W2       15743    TIP3     OH2      OT      -0.834000       15.9994           0
     47228 W2       15743    TIP3     H1       HT       0.417000       1.00800           0
     47229 W2       15743    TIP3     H2       HT       0.417000       1.00800           0
     47230 W2       15744    TIP3     OH2      OT      -0.834000       15.9994           0
     47231 W2       15744    TIP3     H1       HT       0.417000       1.00800           0
     47232 W2       15744    TIP3     H2       HT       0.417000       1.00800           0
     47233 W2       15745    TIP3     OH2      OT      -0.834000       15.9994           0
     47234 W2       15745    TIP3     H1       HT       0.417000       1.00800           0
     47235 W2       15745    TIP3     H2       HT       0.417000       1.00800           0
     47236 W2       15746    TIP3     OH2      OT      -0.834000       15.9994           0
     47237 W2       15746    TIP3     H1       HT       0.417000       1.00800           0
     47238 W2       15746    TIP3     H2       HT       0.417000       1.00800           0
     47239 W2       15747    TIP3     OH2      OT      -0.834000       15.9994           0
     47240 W2       15747    TIP3     H1       HT       0.417000       1.00800           0
     47241 W2       15747    TIP3     H2       HT       0.417000       1.00800           0
     47242 W2       15748    TIP3     OH2      OT      -0.834000       15.9994           0
     47243 W2       15748    TIP3     H1       HT       0.417000       1.00800           0
     47244 W2       15748    TIP3     H2       HT       0.417000       1.00800           0
     47245 W2       15749    TIP3     OH2      OT      -0.834000       15.9994           0
     47246 W2       15749    TIP3     H1       HT       0.417000       1.00800           0
     47247 W2       15749    TIP3     H2       HT       0.417000       1.00800           0
     47248 W2       15750    TIP3     OH2      OT      -0.834000       15.9994           0
     47249 W2       15750    TIP3     H1       HT       0.417000       1.00800           0
     47250 W2       15750    TIP3     H2       HT       0.417000       1.00800           0
     47251 W2       15751    TIP3     OH2      OT      -0.834000       15.9994           0
     47252 W2       15751    TIP3     H1       HT       0.417000       1.00800           0
     47253 W2       15751    TIP3     H2       HT       0.417000       1.00800           0
     47254 W2       15752    TIP3     OH2      OT      -0.834000       15.9994           0
     47255 W2       15752    TIP3     H1       HT       0.417000       1.00800           0
     47256 W2       15752    TIP3     H2       HT       0.417000       1.00800           0
     47257 W2       15753    TIP3     OH2      OT      -0.834000       15.9994           0
     47258 W2       15753    TIP3     H1       HT       0.417000       1.00800           0
     47259 W2       15753    TIP3     H2       HT       0.417000       1.00800           0
     47260 W2       15754    TIP3     OH2      OT      -0.834000       15.9994           0
     47261 W2       15754    TIP3     H1       HT       0.417000       1.00800           0
     47262 W2       15754    TIP3     H2       HT       0.417000       1.00800           0
     47263 W2       15755    TIP3     OH2      OT      -0.834000       15.9994           0
     47264 W2       15755    TIP3     H1       HT       0.417000       1.00800           0
     47265 W2       15755    TIP3     H2       HT       0.417000       1.00800           0
     47266 W2       15756    TIP3     OH2      OT      -0.834000       15.9994           0
     47267 W2       15756    TIP3     H1       HT       0.417000       1.00800           0
     47268 W2       15756    TIP3     H2       HT       0.417000       1.00800           0
     47269 W2       15757    TIP3     OH2      OT      -0.834000       15.9994           0
     47270 W2       15757    TIP3     H1       HT       0.417000       1.00800           0
     47271 W2       15757    TIP3     H2       HT       0.417000       1.00800           0
     47272 W2       15758    TIP3     OH2      OT      -0.834000       15.9994           0
     47273 W2       15758    TIP3     H1       HT       0.417000       1.00800           0
     47274 W2       15758    TIP3     H2       HT       0.417000       1.00800           0
     47275 W2       15759    TIP3     OH2      OT      -0.834000       15.9994           0
     47276 W2       15759    TIP3     H1       HT       0.417000       1.00800           0
     47277 W2       15759    TIP3     H2       HT       0.417000       1.00800           0
     47278 W2       15760    TIP3     OH2      OT      -0.834000       15.9994           0
     47279 W2       15760    TIP3     H1       HT       0.417000       1.00800           0
     47280 W2       15760    TIP3     H2       HT       0.417000       1.00800           0
     47281 W2       15761    TIP3     OH2      OT      -0.834000       15.9994           0
     47282 W2       15761    TIP3     H1       HT       0.417000       1.00800           0
     47283 W2       15761    TIP3     H2       HT       0.417000       1.00800           0
     47284 W2       15762    TIP3     OH2      OT      -0.834000       15.9994           0
     47285 W2       15762    TIP3     H1       HT       0.417000       1.00800           0
     47286 W2       15762    TIP3     H2       HT       0.417000       1.00800           0
     47287 W2       15763    TIP3     OH2      OT      -0.834000       15.9994           0
     47288 W2       15763    TIP3     H1       HT       0.417000       1.00800           0
     47289 W2       15763    TIP3     H2       HT       0.417000       1.00800           0
     47290 W2       15764    TIP3     OH2      OT      -0.834000       15.9994           0
     47291 W2       15764    TIP3     H1       HT       0.417000       1.00800           0
     47292 W2       15764    TIP3     H2       HT       0.417000       1.00800           0
     47293 W2       15765    TIP3     OH2      OT      -0.834000       15.9994           0
     47294 W2       15765    TIP3     H1       HT       0.417000       1.00800           0
     47295 W2       15765    TIP3     H2       HT       0.417000       1.00800           0
     47296 W2       15766    TIP3     OH2      OT      -0.834000       15.9994           0
     47297 W2       15766    TIP3     H1       HT       0.417000       1.00800           0
     47298 W2       15766    TIP3     H2       HT       0.417000       1.00800           0
     47299 W2       15767    TIP3     OH2      OT      -0.834000       15.9994           0
     47300 W2       15767    TIP3     H1       HT       0.417000       1.00800           0
     47301 W2       15767    TIP3     H2       HT       0.417000       1.00800           0
     47302 W2       15768    TIP3     OH2      OT      -0.834000       15.9994           0
     47303 W2       15768    TIP3     H1       HT       0.417000       1.00800           0
     47304 W2       15768    TIP3     H2       HT       0.417000       1.00800           0
     47305 W2       15769    TIP3     OH2      OT      -0.834000       15.9994           0
     47306 W2       15769    TIP3     H1       HT       0.417000       1.00800           0
     47307 W2       15769    TIP3     H2       HT       0.417000       1.00800           0
     47308 W2       15770    TIP3     OH2      OT      -0.834000       15.9994           0
     47309 W2       15770    TIP3     H1       HT       0.417000       1.00800           0
     47310 W2       15770    TIP3     H2       HT       0.417000       1.00800           0
     47311 W2       15771    TIP3     OH2      OT      -0.834000       15.9994           0
     47312 W2       15771    TIP3     H1       HT       0.417000       1.00800           0
     47313 W2       15771    TIP3     H2       HT       0.417000       1.00800           0
     47314 W2       15772    TIP3     OH2      OT      -0.834000       15.9994           0
     47315 W2       15772    TIP3     H1       HT       0.417000       1.00800           0
     47316 W2       15772    TIP3     H2       HT       0.417000       1.00800           0
     47317 W2       15773    TIP3     OH2      OT      -0.834000       15.9994           0
     47318 W2       15773    TIP3     H1       HT       0.417000       1.00800           0
     47319 W2       15773    TIP3     H2       HT       0.417000       1.00800           0
     47320 W2       15774    TIP3     OH2      OT      -0.834000       15.9994           0
     47321 W2       15774    TIP3     H1       HT       0.417000       1.00800           0
     47322 W2       15774    TIP3     H2       HT       0.417000       1.00800           0
     47323 W2       15775    TIP3     OH2      OT      -0.834000       15.9994           0
     47324 W2       15775    TIP3     H1       HT       0.417000       1.00800           0
     47325 W2       15775    TIP3     H2       HT       0.417000       1.00800           0
     47326 W2       15776    TIP3     OH2      OT      -0.834000       15.9994           0
     47327 W2       15776    TIP3     H1       HT       0.417000       1.00800           0
     47328 W2       15776    TIP3     H2       HT       0.417000       1.00800           0
     47329 W2       15777    TIP3     OH2      OT      -0.834000       15.9994           0
     47330 W2       15777    TIP3     H1       HT       0.417000       1.00800           0
     47331 W2       15777    TIP3     H2       HT       0.417000       1.00800           0
     47332 W2       15778    TIP3     OH2      OT      -0.834000       15.9994           0
     47333 W2       15778    TIP3     H1       HT       0.417000       1.00800           0
     47334 W2       15778    TIP3     H2       HT       0.417000       1.00800           0
     47335 W2       15779    TIP3     OH2      OT      -0.834000       15.9994           0
     47336 W2       15779    TIP3     H1       HT       0.417000       1.00800           0
     47337 W2       15779    TIP3     H2       HT       0.417000       1.00800           0
     47338 W2       15780    TIP3     OH2      OT      -0.834000       15.9994           0
     47339 W2       15780    TIP3     H1       HT       0.417000       1.00800           0
     47340 W2       15780    TIP3     H2       HT       0.417000       1.00800           0
     47341 W2       15781    TIP3     OH2      OT      -0.834000       15.9994           0
     47342 W2       15781    TIP3     H1       HT       0.417000       1.00800           0
     47343 W2       15781    TIP3     H2       HT       0.417000       1.00800           0
     47344 W2       15782    TIP3     OH2      OT      -0.834000       15.9994           0
     47345 W2       15782    TIP3     H1       HT       0.417000       1.00800           0
     47346 W2       15782    TIP3     H2       HT       0.417000       1.00800           0
     47347 W2       15783    TIP3     OH2      OT      -0.834000       15.9994           0
     47348 W2       15783    TIP3     H1       HT       0.417000       1.00800           0
     47349 W2       15783    TIP3     H2       HT       0.417000       1.00800           0
     47350 W2       15784    TIP3     OH2      OT      -0.834000       15.9994           0
     47351 W2       15784    TIP3     H1       HT       0.417000       1.00800           0
     47352 W2       15784    TIP3     H2       HT       0.417000       1.00800           0
     47353 W2       15785    TIP3     OH2      OT      -0.834000       15.9994           0
     47354 W2       15785    TIP3     H1       HT       0.417000       1.00800           0
     47355 W2       15785    TIP3     H2       HT       0.417000       1.00800           0
     47356 W2       15786    TIP3     OH2      OT      -0.834000       15.9994           0
     47357 W2       15786    TIP3     H1       HT       0.417000       1.00800           0
     47358 W2       15786    TIP3     H2       HT       0.417000       1.00800           0
     47359 W2       15787    TIP3     OH2      OT      -0.834000       15.9994           0
     47360 W2       15787    TIP3     H1       HT       0.417000       1.00800           0
     47361 W2       15787    TIP3     H2       HT       0.417000       1.00800           0
     47362 W2       15788    TIP3     OH2      OT      -0.834000       15.9994           0
     47363 W2       15788    TIP3     H1       HT       0.417000       1.00800           0
     47364 W2       15788    TIP3     H2       HT       0.417000       1.00800           0
     47365 W2       15789    TIP3     OH2      OT      -0.834000       15.9994           0
     47366 W2       15789    TIP3     H1       HT       0.417000       1.00800           0
     47367 W2       15789    TIP3     H2       HT       0.417000       1.00800           0
     47368 W2       15790    TIP3     OH2      OT      -0.834000       15.9994           0
     47369 W2       15790    TIP3     H1       HT       0.417000       1.00800           0
     47370 W2       15790    TIP3     H2       HT       0.417000       1.00800           0
     47371 W2       15791    TIP3     OH2      OT      -0.834000       15.9994           0
     47372 W2       15791    TIP3     H1       HT       0.417000       1.00800           0
     47373 W2       15791    TIP3     H2       HT       0.417000       1.00800           0
     47374 W2       15792    TIP3     OH2      OT      -0.834000       15.9994           0
     47375 W2       15792    TIP3     H1       HT       0.417000       1.00800           0
     47376 W2       15792    TIP3     H2       HT       0.417000       1.00800           0
     47377 W2       15793    TIP3     OH2      OT      -0.834000       15.9994           0
     47378 W2       15793    TIP3     H1       HT       0.417000       1.00800           0
     47379 W2       15793    TIP3     H2       HT       0.417000       1.00800           0
     47380 W2       15794    TIP3     OH2      OT      -0.834000       15.9994           0
     47381 W2       15794    TIP3     H1       HT       0.417000       1.00800           0
     47382 W2       15794    TIP3     H2       HT       0.417000       1.00800           0
     47383 W2       15795    TIP3     OH2      OT      -0.834000       15.9994           0
     47384 W2       15795    TIP3     H1       HT       0.417000       1.00800           0
     47385 W2       15795    TIP3     H2       HT       0.417000       1.00800           0
     47386 W2       15796    TIP3     OH2      OT      -0.834000       15.9994           0
     47387 W2       15796    TIP3     H1       HT       0.417000       1.00800           0
     47388 W2       15796    TIP3     H2       HT       0.417000       1.00800           0
     47389 W2       15797    TIP3     OH2      OT      -0.834000       15.9994           0
     47390 W2       15797    TIP3     H1       HT       0.417000       1.00800           0
     47391 W2       15797    TIP3     H2       HT       0.417000       1.00800           0
     47392 W2       15798    TIP3     OH2      OT      -0.834000       15.9994           0
     47393 W2       15798    TIP3     H1       HT       0.417000       1.00800           0
     47394 W2       15798    TIP3     H2       HT       0.417000       1.00800           0
     47395 W2       15799    TIP3     OH2      OT      -0.834000       15.9994           0
     47396 W2       15799    TIP3     H1       HT       0.417000       1.00800           0
     47397 W2       15799    TIP3     H2       HT       0.417000       1.00800           0
     47398 W2       15800    TIP3     OH2      OT      -0.834000       15.9994           0
     47399 W2       15800    TIP3     H1       HT       0.417000       1.00800           0
     47400 W2       15800    TIP3     H2       HT       0.417000       1.00800           0
     47401 W2       15801    TIP3     OH2      OT      -0.834000       15.9994           0
     47402 W2       15801    TIP3     H1       HT       0.417000       1.00800           0
     47403 W2       15801    TIP3     H2       HT       0.417000       1.00800           0
     47404 W2       15802    TIP3     OH2      OT      -0.834000       15.9994           0
     47405 W2       15802    TIP3     H1       HT       0.417000       1.00800           0
     47406 W2       15802    TIP3     H2       HT       0.417000       1.00800           0
     47407 W2       15803    TIP3     OH2      OT      -0.834000       15.9994           0
     47408 W2       15803    TIP3     H1       HT       0.417000       1.00800           0
     47409 W2       15803    TIP3     H2       HT       0.417000       1.00800           0
     47410 W2       15804    TIP3     OH2      OT      -0.834000       15.9994           0
     47411 W2       15804    TIP3     H1       HT       0.417000       1.00800           0
     47412 W2       15804    TIP3     H2       HT       0.417000       1.00800           0
     47413 W2       15805    TIP3     OH2      OT      -0.834000       15.9994           0
     47414 W2       15805    TIP3     H1       HT       0.417000       1.00800           0
     47415 W2       15805    TIP3     H2       HT       0.417000       1.00800           0
     47416 W2       15806    TIP3     OH2      OT      -0.834000       15.9994           0
     47417 W2       15806    TIP3     H1       HT       0.417000       1.00800           0
     47418 W2       15806    TIP3     H2       HT       0.417000       1.00800           0
     47419 W2       15807    TIP3     OH2      OT      -0.834000       15.9994           0
     47420 W2       15807    TIP3     H1       HT       0.417000       1.00800           0
     47421 W2       15807    TIP3     H2       HT       0.417000       1.00800           0
     47422 W2       15808    TIP3     OH2      OT      -0.834000       15.9994           0
     47423 W2       15808    TIP3     H1       HT       0.417000       1.00800           0
     47424 W2       15808    TIP3     H2       HT       0.417000       1.00800           0
     47425 W2       15809    TIP3     OH2      OT      -0.834000       15.9994           0
     47426 W2       15809    TIP3     H1       HT       0.417000       1.00800           0
     47427 W2       15809    TIP3     H2       HT       0.417000       1.00800           0
     47428 W2       15810    TIP3     OH2      OT      -0.834000       15.9994           0
     47429 W2       15810    TIP3     H1       HT       0.417000       1.00800           0
     47430 W2       15810    TIP3     H2       HT       0.417000       1.00800           0
     47431 W2       15811    TIP3     OH2      OT      -0.834000       15.9994           0
     47432 W2       15811    TIP3     H1       HT       0.417000       1.00800           0
     47433 W2       15811    TIP3     H2       HT       0.417000       1.00800           0
     47434 W2       15812    TIP3     OH2      OT      -0.834000       15.9994           0
     47435 W2       15812    TIP3     H1       HT       0.417000       1.00800           0
     47436 W2       15812    TIP3     H2       HT       0.417000       1.00800           0
     47437 W2       15813    TIP3     OH2      OT      -0.834000       15.9994           0
     47438 W2       15813    TIP3     H1       HT       0.417000       1.00800           0
     47439 W2       15813    TIP3     H2       HT       0.417000       1.00800           0
     47440 W2       15814    TIP3     OH2      OT      -0.834000       15.9994           0
     47441 W2       15814    TIP3     H1       HT       0.417000       1.00800           0
     47442 W2       15814    TIP3     H2       HT       0.417000       1.00800           0
     47443 W2       15815    TIP3     OH2      OT      -0.834000       15.9994           0
     47444 W2       15815    TIP3     H1       HT       0.417000       1.00800           0
     47445 W2       15815    TIP3     H2       HT       0.417000       1.00800           0
     47446 W2       15816    TIP3     OH2      OT      -0.834000       15.9994           0
     47447 W2       15816    TIP3     H1       HT       0.417000       1.00800           0
     47448 W2       15816    TIP3     H2       HT       0.417000       1.00800           0
     47449 W2       15817    TIP3     OH2      OT      -0.834000       15.9994           0
     47450 W2       15817    TIP3     H1       HT       0.417000       1.00800           0
     47451 W2       15817    TIP3     H2       HT       0.417000       1.00800           0
     47452 W2       15818    TIP3     OH2      OT      -0.834000       15.9994           0
     47453 W2       15818    TIP3     H1       HT       0.417000       1.00800           0
     47454 W2       15818    TIP3     H2       HT       0.417000       1.00800           0
     47455 W2       15819    TIP3     OH2      OT      -0.834000       15.9994           0
     47456 W2       15819    TIP3     H1       HT       0.417000       1.00800           0
     47457 W2       15819    TIP3     H2       HT       0.417000       1.00800           0
     47458 W2       15820    TIP3     OH2      OT      -0.834000       15.9994           0
     47459 W2       15820    TIP3     H1       HT       0.417000       1.00800           0
     47460 W2       15820    TIP3     H2       HT       0.417000       1.00800           0
     47461 W2       15821    TIP3     OH2      OT      -0.834000       15.9994           0
     47462 W2       15821    TIP3     H1       HT       0.417000       1.00800           0
     47463 W2       15821    TIP3     H2       HT       0.417000       1.00800           0
     47464 W2       15822    TIP3     OH2      OT      -0.834000       15.9994           0
     47465 W2       15822    TIP3     H1       HT       0.417000       1.00800           0
     47466 W2       15822    TIP3     H2       HT       0.417000       1.00800           0
     47467 W2       15823    TIP3     OH2      OT      -0.834000       15.9994           0
     47468 W2       15823    TIP3     H1       HT       0.417000       1.00800           0
     47469 W2       15823    TIP3     H2       HT       0.417000       1.00800           0
     47470 W2       15824    TIP3     OH2      OT      -0.834000       15.9994           0
     47471 W2       15824    TIP3     H1       HT       0.417000       1.00800           0
     47472 W2       15824    TIP3     H2       HT       0.417000       1.00800           0
     47473 W2       15825    TIP3     OH2      OT      -0.834000       15.9994           0
     47474 W2       15825    TIP3     H1       HT       0.417000       1.00800           0
     47475 W2       15825    TIP3     H2       HT       0.417000       1.00800           0
     47476 W2       15826    TIP3     OH2      OT      -0.834000       15.9994           0
     47477 W2       15826    TIP3     H1       HT       0.417000       1.00800           0
     47478 W2       15826    TIP3     H2       HT       0.417000       1.00800           0
     47479 W2       15827    TIP3     OH2      OT      -0.834000       15.9994           0
     47480 W2       15827    TIP3     H1       HT       0.417000       1.00800           0
     47481 W2       15827    TIP3     H2       HT       0.417000       1.00800           0
     47482 W2       15828    TIP3     OH2      OT      -0.834000       15.9994           0
     47483 W2       15828    TIP3     H1       HT       0.417000       1.00800           0
     47484 W2       15828    TIP3     H2       HT       0.417000       1.00800           0
     47485 W2       15829    TIP3     OH2      OT      -0.834000       15.9994           0
     47486 W2       15829    TIP3     H1       HT       0.417000       1.00800           0
     47487 W2       15829    TIP3     H2       HT       0.417000       1.00800           0
     47488 W2       15830    TIP3     OH2      OT      -0.834000       15.9994           0
     47489 W2       15830    TIP3     H1       HT       0.417000       1.00800           0
     47490 W2       15830    TIP3     H2       HT       0.417000       1.00800           0
     47491 W2       15831    TIP3     OH2      OT      -0.834000       15.9994           0
     47492 W2       15831    TIP3     H1       HT       0.417000       1.00800           0
     47493 W2       15831    TIP3     H2       HT       0.417000       1.00800           0
     47494 W2       15832    TIP3     OH2      OT      -0.834000       15.9994           0
     47495 W2       15832    TIP3     H1       HT       0.417000       1.00800           0
     47496 W2       15832    TIP3     H2       HT       0.417000       1.00800           0
     47497 W2       15833    TIP3     OH2      OT      -0.834000       15.9994           0
     47498 W2       15833    TIP3     H1       HT       0.417000       1.00800           0
     47499 W2       15833    TIP3     H2       HT       0.417000       1.00800           0
     47500 W2       15834    TIP3     OH2      OT      -0.834000       15.9994           0
     47501 W2       15834    TIP3     H1       HT       0.417000       1.00800           0
     47502 W2       15834    TIP3     H2       HT       0.417000       1.00800           0
     47503 W2       15835    TIP3     OH2      OT      -0.834000       15.9994           0
     47504 W2       15835    TIP3     H1       HT       0.417000       1.00800           0
     47505 W2       15835    TIP3     H2       HT       0.417000       1.00800           0
     47506 W2       15836    TIP3     OH2      OT      -0.834000       15.9994           0
     47507 W2       15836    TIP3     H1       HT       0.417000       1.00800           0
     47508 W2       15836    TIP3     H2       HT       0.417000       1.00800           0
     47509 W2       15837    TIP3     OH2      OT      -0.834000       15.9994           0
     47510 W2       15837    TIP3     H1       HT       0.417000       1.00800           0
     47511 W2       15837    TIP3     H2       HT       0.417000       1.00800           0
     47512 W2       15838    TIP3     OH2      OT      -0.834000       15.9994           0
     47513 W2       15838    TIP3     H1       HT       0.417000       1.00800           0
     47514 W2       15838    TIP3     H2       HT       0.417000       1.00800           0
     47515 W2       15839    TIP3     OH2      OT      -0.834000       15.9994           0
     47516 W2       15839    TIP3     H1       HT       0.417000       1.00800           0
     47517 W2       15839    TIP3     H2       HT       0.417000       1.00800           0
     47518 W2       15840    TIP3     OH2      OT      -0.834000       15.9994           0
     47519 W2       15840    TIP3     H1       HT       0.417000       1.00800           0
     47520 W2       15840    TIP3     H2       HT       0.417000       1.00800           0
     47521 W2       15841    TIP3     OH2      OT      -0.834000       15.9994           0
     47522 W2       15841    TIP3     H1       HT       0.417000       1.00800           0
     47523 W2       15841    TIP3     H2       HT       0.417000       1.00800           0
     47524 W2       15842    TIP3     OH2      OT      -0.834000       15.9994           0
     47525 W2       15842    TIP3     H1       HT       0.417000       1.00800           0
     47526 W2       15842    TIP3     H2       HT       0.417000       1.00800           0
     47527 W2       15843    TIP3     OH2      OT      -0.834000       15.9994           0
     47528 W2       15843    TIP3     H1       HT       0.417000       1.00800           0
     47529 W2       15843    TIP3     H2       HT       0.417000       1.00800           0
     47530 W2       15844    TIP3     OH2      OT      -0.834000       15.9994           0
     47531 W2       15844    TIP3     H1       HT       0.417000       1.00800           0
     47532 W2       15844    TIP3     H2       HT       0.417000       1.00800           0
     47533 W2       15845    TIP3     OH2      OT      -0.834000       15.9994           0
     47534 W2       15845    TIP3     H1       HT       0.417000       1.00800           0
     47535 W2       15845    TIP3     H2       HT       0.417000       1.00800           0
     47536 W2       15846    TIP3     OH2      OT      -0.834000       15.9994           0
     47537 W2       15846    TIP3     H1       HT       0.417000       1.00800           0
     47538 W2       15846    TIP3     H2       HT       0.417000       1.00800           0
     47539 W2       15847    TIP3     OH2      OT      -0.834000       15.9994           0
     47540 W2       15847    TIP3     H1       HT       0.417000       1.00800           0
     47541 W2       15847    TIP3     H2       HT       0.417000       1.00800           0
     47542 W2       15848    TIP3     OH2      OT      -0.834000       15.9994           0
     47543 W2       15848    TIP3     H1       HT       0.417000       1.00800           0
     47544 W2       15848    TIP3     H2       HT       0.417000       1.00800           0
     47545 W2       15849    TIP3     OH2      OT      -0.834000       15.9994           0
     47546 W2       15849    TIP3     H1       HT       0.417000       1.00800           0
     47547 W2       15849    TIP3     H2       HT       0.417000       1.00800           0
     47548 W2       15850    TIP3     OH2      OT      -0.834000       15.9994           0
     47549 W2       15850    TIP3     H1       HT       0.417000       1.00800           0
     47550 W2       15850    TIP3     H2       HT       0.417000       1.00800           0
     47551 W2       15851    TIP3     OH2      OT      -0.834000       15.9994           0
     47552 W2       15851    TIP3     H1       HT       0.417000       1.00800           0
     47553 W2       15851    TIP3     H2       HT       0.417000       1.00800           0
     47554 W2       15852    TIP3     OH2      OT      -0.834000       15.9994           0
     47555 W2       15852    TIP3     H1       HT       0.417000       1.00800           0
     47556 W2       15852    TIP3     H2       HT       0.417000       1.00800           0
     47557 W2       15853    TIP3     OH2      OT      -0.834000       15.9994           0
     47558 W2       15853    TIP3     H1       HT       0.417000       1.00800           0
     47559 W2       15853    TIP3     H2       HT       0.417000       1.00800           0
     47560 W2       15854    TIP3     OH2      OT      -0.834000       15.9994           0
     47561 W2       15854    TIP3     H1       HT       0.417000       1.00800           0
     47562 W2       15854    TIP3     H2       HT       0.417000       1.00800           0
     47563 W2       15855    TIP3     OH2      OT      -0.834000       15.9994           0
     47564 W2       15855    TIP3     H1       HT       0.417000       1.00800           0
     47565 W2       15855    TIP3     H2       HT       0.417000       1.00800           0
     47566 W2       15856    TIP3     OH2      OT      -0.834000       15.9994           0
     47567 W2       15856    TIP3     H1       HT       0.417000       1.00800           0
     47568 W2       15856    TIP3     H2       HT       0.417000       1.00800           0
     47569 W2       15857    TIP3     OH2      OT      -0.834000       15.9994           0
     47570 W2       15857    TIP3     H1       HT       0.417000       1.00800           0
     47571 W2       15857    TIP3     H2       HT       0.417000       1.00800           0
     47572 W2       15858    TIP3     OH2      OT      -0.834000       15.9994           0
     47573 W2       15858    TIP3     H1       HT       0.417000       1.00800           0
     47574 W2       15858    TIP3     H2       HT       0.417000       1.00800           0
     47575 W2       15859    TIP3     OH2      OT      -0.834000       15.9994           0
     47576 W2       15859    TIP3     H1       HT       0.417000       1.00800           0
     47577 W2       15859    TIP3     H2       HT       0.417000       1.00800           0
     47578 W2       15860    TIP3     OH2      OT      -0.834000       15.9994           0
     47579 W2       15860    TIP3     H1       HT       0.417000       1.00800           0
     47580 W2       15860    TIP3     H2       HT       0.417000       1.00800           0
     47581 W2       15861    TIP3     OH2      OT      -0.834000       15.9994           0
     47582 W2       15861    TIP3     H1       HT       0.417000       1.00800           0
     47583 W2       15861    TIP3     H2       HT       0.417000       1.00800           0
     47584 W2       15862    TIP3     OH2      OT      -0.834000       15.9994           0
     47585 W2       15862    TIP3     H1       HT       0.417000       1.00800           0
     47586 W2       15862    TIP3     H2       HT       0.417000       1.00800           0
     47587 W2       15863    TIP3     OH2      OT      -0.834000       15.9994           0
     47588 W2       15863    TIP3     H1       HT       0.417000       1.00800           0
     47589 W2       15863    TIP3     H2       HT       0.417000       1.00800           0
     47590 W2       15864    TIP3     OH2      OT      -0.834000       15.9994           0
     47591 W2       15864    TIP3     H1       HT       0.417000       1.00800           0
     47592 W2       15864    TIP3     H2       HT       0.417000       1.00800           0
     47593 W2       15865    TIP3     OH2      OT      -0.834000       15.9994           0
     47594 W2       15865    TIP3     H1       HT       0.417000       1.00800           0
     47595 W2       15865    TIP3     H2       HT       0.417000       1.00800           0
     47596 W2       15866    TIP3     OH2      OT      -0.834000       15.9994           0
     47597 W2       15866    TIP3     H1       HT       0.417000       1.00800           0
     47598 W2       15866    TIP3     H2       HT       0.417000       1.00800           0
     47599 W2       15867    TIP3     OH2      OT      -0.834000       15.9994           0
     47600 W2       15867    TIP3     H1       HT       0.417000       1.00800           0
     47601 W2       15867    TIP3     H2       HT       0.417000       1.00800           0
     47602 W2       15868    TIP3     OH2      OT      -0.834000       15.9994           0
     47603 W2       15868    TIP3     H1       HT       0.417000       1.00800           0
     47604 W2       15868    TIP3     H2       HT       0.417000       1.00800           0
     47605 W2       15869    TIP3     OH2      OT      -0.834000       15.9994           0
     47606 W2       15869    TIP3     H1       HT       0.417000       1.00800           0
     47607 W2       15869    TIP3     H2       HT       0.417000       1.00800           0
     47608 W2       15870    TIP3     OH2      OT      -0.834000       15.9994           0
     47609 W2       15870    TIP3     H1       HT       0.417000       1.00800           0
     47610 W2       15870    TIP3     H2       HT       0.417000       1.00800           0
     47611 W2       15871    TIP3     OH2      OT      -0.834000       15.9994           0
     47612 W2       15871    TIP3     H1       HT       0.417000       1.00800           0
     47613 W2       15871    TIP3     H2       HT       0.417000       1.00800           0
     47614 W2       15872    TIP3     OH2      OT      -0.834000       15.9994           0
     47615 W2       15872    TIP3     H1       HT       0.417000       1.00800           0
     47616 W2       15872    TIP3     H2       HT       0.417000       1.00800           0
     47617 W2       15873    TIP3     OH2      OT      -0.834000       15.9994           0
     47618 W2       15873    TIP3     H1       HT       0.417000       1.00800           0
     47619 W2       15873    TIP3     H2       HT       0.417000       1.00800           0
     47620 W2       15874    TIP3     OH2      OT      -0.834000       15.9994           0
     47621 W2       15874    TIP3     H1       HT       0.417000       1.00800           0
     47622 W2       15874    TIP3     H2       HT       0.417000       1.00800           0
     47623 W2       15875    TIP3     OH2      OT      -0.834000       15.9994           0
     47624 W2       15875    TIP3     H1       HT       0.417000       1.00800           0
     47625 W2       15875    TIP3     H2       HT       0.417000       1.00800           0
     47626 W2       15876    TIP3     OH2      OT      -0.834000       15.9994           0
     47627 W2       15876    TIP3     H1       HT       0.417000       1.00800           0
     47628 W2       15876    TIP3     H2       HT       0.417000       1.00800           0
     47629 W2       15877    TIP3     OH2      OT      -0.834000       15.9994           0
     47630 W2       15877    TIP3     H1       HT       0.417000       1.00800           0
     47631 W2       15877    TIP3     H2       HT       0.417000       1.00800           0
     47632 W2       15878    TIP3     OH2      OT      -0.834000       15.9994           0
     47633 W2       15878    TIP3     H1       HT       0.417000       1.00800           0
     47634 W2       15878    TIP3     H2       HT       0.417000       1.00800           0
     47635 W2       15879    TIP3     OH2      OT      -0.834000       15.9994           0
     47636 W2       15879    TIP3     H1       HT       0.417000       1.00800           0
     47637 W2       15879    TIP3     H2       HT       0.417000       1.00800           0
     47638 W2       15880    TIP3     OH2      OT      -0.834000       15.9994           0
     47639 W2       15880    TIP3     H1       HT       0.417000       1.00800           0
     47640 W2       15880    TIP3     H2       HT       0.417000       1.00800           0
     47641 W2       15881    TIP3     OH2      OT      -0.834000       15.9994           0
     47642 W2       15881    TIP3     H1       HT       0.417000       1.00800           0
     47643 W2       15881    TIP3     H2       HT       0.417000       1.00800           0
     47644 W2       15882    TIP3     OH2      OT      -0.834000       15.9994           0
     47645 W2       15882    TIP3     H1       HT       0.417000       1.00800           0
     47646 W2       15882    TIP3     H2       HT       0.417000       1.00800           0
     47647 W2       15883    TIP3     OH2      OT      -0.834000       15.9994           0
     47648 W2       15883    TIP3     H1       HT       0.417000       1.00800           0
     47649 W2       15883    TIP3     H2       HT       0.417000       1.00800           0
     47650 W2       15884    TIP3     OH2      OT      -0.834000       15.9994           0
     47651 W2       15884    TIP3     H1       HT       0.417000       1.00800           0
     47652 W2       15884    TIP3     H2       HT       0.417000       1.00800           0
     47653 W2       15885    TIP3     OH2      OT      -0.834000       15.9994           0
     47654 W2       15885    TIP3     H1       HT       0.417000       1.00800           0
     47655 W2       15885    TIP3     H2       HT       0.417000       1.00800           0
     47656 W2       15886    TIP3     OH2      OT      -0.834000       15.9994           0
     47657 W2       15886    TIP3     H1       HT       0.417000       1.00800           0
     47658 W2       15886    TIP3     H2       HT       0.417000       1.00800           0
     47659 W2       15887    TIP3     OH2      OT      -0.834000       15.9994           0
     47660 W2       15887    TIP3     H1       HT       0.417000       1.00800           0
     47661 W2       15887    TIP3     H2       HT       0.417000       1.00800           0
     47662 W2       15888    TIP3     OH2      OT      -0.834000       15.9994           0
     47663 W2       15888    TIP3     H1       HT       0.417000       1.00800           0
     47664 W2       15888    TIP3     H2       HT       0.417000       1.00800           0
     47665 W2       15889    TIP3     OH2      OT      -0.834000       15.9994           0
     47666 W2       15889    TIP3     H1       HT       0.417000       1.00800           0
     47667 W2       15889    TIP3     H2       HT       0.417000       1.00800           0
     47668 W2       15890    TIP3     OH2      OT      -0.834000       15.9994           0
     47669 W2       15890    TIP3     H1       HT       0.417000       1.00800           0
     47670 W2       15890    TIP3     H2       HT       0.417000       1.00800           0
     47671 W2       15891    TIP3     OH2      OT      -0.834000       15.9994           0
     47672 W2       15891    TIP3     H1       HT       0.417000       1.00800           0
     47673 W2       15891    TIP3     H2       HT       0.417000       1.00800           0
     47674 W2       15892    TIP3     OH2      OT      -0.834000       15.9994           0
     47675 W2       15892    TIP3     H1       HT       0.417000       1.00800           0
     47676 W2       15892    TIP3     H2       HT       0.417000       1.00800           0
     47677 W2       15893    TIP3     OH2      OT      -0.834000       15.9994           0
     47678 W2       15893    TIP3     H1       HT       0.417000       1.00800           0
     47679 W2       15893    TIP3     H2       HT       0.417000       1.00800           0
     47680 W2       15894    TIP3     OH2      OT      -0.834000       15.9994           0
     47681 W2       15894    TIP3     H1       HT       0.417000       1.00800           0
     47682 W2       15894    TIP3     H2       HT       0.417000       1.00800           0
     47683 W2       15895    TIP3     OH2      OT      -0.834000       15.9994           0
     47684 W2       15895    TIP3     H1       HT       0.417000       1.00800           0
     47685 W2       15895    TIP3     H2       HT       0.417000       1.00800           0
     47686 W2       15896    TIP3     OH2      OT      -0.834000       15.9994           0
     47687 W2       15896    TIP3     H1       HT       0.417000       1.00800           0
     47688 W2       15896    TIP3     H2       HT       0.417000       1.00800           0
     47689 W2       15897    TIP3     OH2      OT      -0.834000       15.9994           0
     47690 W2       15897    TIP3     H1       HT       0.417000       1.00800           0
     47691 W2       15897    TIP3     H2       HT       0.417000       1.00800           0
     47692 W2       15898    TIP3     OH2      OT      -0.834000       15.9994           0
     47693 W2       15898    TIP3     H1       HT       0.417000       1.00800           0
     47694 W2       15898    TIP3     H2       HT       0.417000       1.00800           0
     47695 W2       15899    TIP3     OH2      OT      -0.834000       15.9994           0
     47696 W2       15899    TIP3     H1       HT       0.417000       1.00800           0
     47697 W2       15899    TIP3     H2       HT       0.417000       1.00800           0
     47698 W2       15900    TIP3     OH2      OT      -0.834000       15.9994           0
     47699 W2       15900    TIP3     H1       HT       0.417000       1.00800           0
     47700 W2       15900    TIP3     H2       HT       0.417000       1.00800           0
     47701 W2       15901    TIP3     OH2      OT      -0.834000       15.9994           0
     47702 W2       15901    TIP3     H1       HT       0.417000       1.00800           0
     47703 W2       15901    TIP3     H2       HT       0.417000       1.00800           0
     47704 W2       15902    TIP3     OH2      OT      -0.834000       15.9994           0
     47705 W2       15902    TIP3     H1       HT       0.417000       1.00800           0
     47706 W2       15902    TIP3     H2       HT       0.417000       1.00800           0
     47707 W2       15903    TIP3     OH2      OT      -0.834000       15.9994           0
     47708 W2       15903    TIP3     H1       HT       0.417000       1.00800           0
     47709 W2       15903    TIP3     H2       HT       0.417000       1.00800           0
     47710 W2       15904    TIP3     OH2      OT      -0.834000       15.9994           0
     47711 W2       15904    TIP3     H1       HT       0.417000       1.00800           0
     47712 W2       15904    TIP3     H2       HT       0.417000       1.00800           0
     47713 W2       15905    TIP3     OH2      OT      -0.834000       15.9994           0
     47714 W2       15905    TIP3     H1       HT       0.417000       1.00800           0
     47715 W2       15905    TIP3     H2       HT       0.417000       1.00800           0
     47716 W2       15906    TIP3     OH2      OT      -0.834000       15.9994           0
     47717 W2       15906    TIP3     H1       HT       0.417000       1.00800           0
     47718 W2       15906    TIP3     H2       HT       0.417000       1.00800           0
     47719 W2       15907    TIP3     OH2      OT      -0.834000       15.9994           0
     47720 W2       15907    TIP3     H1       HT       0.417000       1.00800           0
     47721 W2       15907    TIP3     H2       HT       0.417000       1.00800           0
     47722 W2       15908    TIP3     OH2      OT      -0.834000       15.9994           0
     47723 W2       15908    TIP3     H1       HT       0.417000       1.00800           0
     47724 W2       15908    TIP3     H2       HT       0.417000       1.00800           0
     47725 W2       15909    TIP3     OH2      OT      -0.834000       15.9994           0
     47726 W2       15909    TIP3     H1       HT       0.417000       1.00800           0
     47727 W2       15909    TIP3     H2       HT       0.417000       1.00800           0
     47728 W2       15910    TIP3     OH2      OT      -0.834000       15.9994           0
     47729 W2       15910    TIP3     H1       HT       0.417000       1.00800           0
     47730 W2       15910    TIP3     H2       HT       0.417000       1.00800           0
     47731 W2       15911    TIP3     OH2      OT      -0.834000       15.9994           0
     47732 W2       15911    TIP3     H1       HT       0.417000       1.00800           0
     47733 W2       15911    TIP3     H2       HT       0.417000       1.00800           0
     47734 W2       15912    TIP3     OH2      OT      -0.834000       15.9994           0
     47735 W2       15912    TIP3     H1       HT       0.417000       1.00800           0
     47736 W2       15912    TIP3     H2       HT       0.417000       1.00800           0
     47737 W2       15913    TIP3     OH2      OT      -0.834000       15.9994           0
     47738 W2       15913    TIP3     H1       HT       0.417000       1.00800           0
     47739 W2       15913    TIP3     H2       HT       0.417000       1.00800           0
     47740 W2       15914    TIP3     OH2      OT      -0.834000       15.9994           0
     47741 W2       15914    TIP3     H1       HT       0.417000       1.00800           0
     47742 W2       15914    TIP3     H2       HT       0.417000       1.00800           0
     47743 W2       15915    TIP3     OH2      OT      -0.834000       15.9994           0
     47744 W2       15915    TIP3     H1       HT       0.417000       1.00800           0
     47745 W2       15915    TIP3     H2       HT       0.417000       1.00800           0
     47746 W2       15916    TIP3     OH2      OT      -0.834000       15.9994           0
     47747 W2       15916    TIP3     H1       HT       0.417000       1.00800           0
     47748 W2       15916    TIP3     H2       HT       0.417000       1.00800           0
     47749 W2       15917    TIP3     OH2      OT      -0.834000       15.9994           0
     47750 W2       15917    TIP3     H1       HT       0.417000       1.00800           0
     47751 W2       15917    TIP3     H2       HT       0.417000       1.00800           0
     47752 W2       15918    TIP3     OH2      OT      -0.834000       15.9994           0
     47753 W2       15918    TIP3     H1       HT       0.417000       1.00800           0
     47754 W2       15918    TIP3     H2       HT       0.417000       1.00800           0
     47755 W2       15919    TIP3     OH2      OT      -0.834000       15.9994           0
     47756 W2       15919    TIP3     H1       HT       0.417000       1.00800           0
     47757 W2       15919    TIP3     H2       HT       0.417000       1.00800           0
     47758 W2       15920    TIP3     OH2      OT      -0.834000       15.9994           0
     47759 W2       15920    TIP3     H1       HT       0.417000       1.00800           0
     47760 W2       15920    TIP3     H2       HT       0.417000       1.00800           0
     47761 W2       15921    TIP3     OH2      OT      -0.834000       15.9994           0
     47762 W2       15921    TIP3     H1       HT       0.417000       1.00800           0
     47763 W2       15921    TIP3     H2       HT       0.417000       1.00800           0
     47764 W2       15922    TIP3     OH2      OT      -0.834000       15.9994           0
     47765 W2       15922    TIP3     H1       HT       0.417000       1.00800           0
     47766 W2       15922    TIP3     H2       HT       0.417000       1.00800           0
     47767 W2       15923    TIP3     OH2      OT      -0.834000       15.9994           0
     47768 W2       15923    TIP3     H1       HT       0.417000       1.00800           0
     47769 W2       15923    TIP3     H2       HT       0.417000       1.00800           0
     47770 W2       15924    TIP3     OH2      OT      -0.834000       15.9994           0
     47771 W2       15924    TIP3     H1       HT       0.417000       1.00800           0
     47772 W2       15924    TIP3     H2       HT       0.417000       1.00800           0
     47773 W2       15925    TIP3     OH2      OT      -0.834000       15.9994           0
     47774 W2       15925    TIP3     H1       HT       0.417000       1.00800           0
     47775 W2       15925    TIP3     H2       HT       0.417000       1.00800           0
     47776 W2       15926    TIP3     OH2      OT      -0.834000       15.9994           0
     47777 W2       15926    TIP3     H1       HT       0.417000       1.00800           0
     47778 W2       15926    TIP3     H2       HT       0.417000       1.00800           0
     47779 W2       15927    TIP3     OH2      OT      -0.834000       15.9994           0
     47780 W2       15927    TIP3     H1       HT       0.417000       1.00800           0
     47781 W2       15927    TIP3     H2       HT       0.417000       1.00800           0
     47782 W2       15928    TIP3     OH2      OT      -0.834000       15.9994           0
     47783 W2       15928    TIP3     H1       HT       0.417000       1.00800           0
     47784 W2       15928    TIP3     H2       HT       0.417000       1.00800           0
     47785 W2       15929    TIP3     OH2      OT      -0.834000       15.9994           0
     47786 W2       15929    TIP3     H1       HT       0.417000       1.00800           0
     47787 W2       15929    TIP3     H2       HT       0.417000       1.00800           0
     47788 W2       15930    TIP3     OH2      OT      -0.834000       15.9994           0
     47789 W2       15930    TIP3     H1       HT       0.417000       1.00800           0
     47790 W2       15930    TIP3     H2       HT       0.417000       1.00800           0
     47791 W2       15931    TIP3     OH2      OT      -0.834000       15.9994           0
     47792 W2       15931    TIP3     H1       HT       0.417000       1.00800           0
     47793 W2       15931    TIP3     H2       HT       0.417000       1.00800           0
     47794 W2       15932    TIP3     OH2      OT      -0.834000       15.9994           0
     47795 W2       15932    TIP3     H1       HT       0.417000       1.00800           0
     47796 W2       15932    TIP3     H2       HT       0.417000       1.00800           0
     47797 W2       15933    TIP3     OH2      OT      -0.834000       15.9994           0
     47798 W2       15933    TIP3     H1       HT       0.417000       1.00800           0
     47799 W2       15933    TIP3     H2       HT       0.417000       1.00800           0
     47800 W2       15934    TIP3     OH2      OT      -0.834000       15.9994           0
     47801 W2       15934    TIP3     H1       HT       0.417000       1.00800           0
     47802 W2       15934    TIP3     H2       HT       0.417000       1.00800           0
     47803 W2       15935    TIP3     OH2      OT      -0.834000       15.9994           0
     47804 W2       15935    TIP3     H1       HT       0.417000       1.00800           0
     47805 W2       15935    TIP3     H2       HT       0.417000       1.00800           0
     47806 W2       15936    TIP3     OH2      OT      -0.834000       15.9994           0
     47807 W2       15936    TIP3     H1       HT       0.417000       1.00800           0
     47808 W2       15936    TIP3     H2       HT       0.417000       1.00800           0
     47809 W2       15937    TIP3     OH2      OT      -0.834000       15.9994           0
     47810 W2       15937    TIP3     H1       HT       0.417000       1.00800           0
     47811 W2       15937    TIP3     H2       HT       0.417000       1.00800           0
     47812 W2       15938    TIP3     OH2      OT      -0.834000       15.9994           0
     47813 W2       15938    TIP3     H1       HT       0.417000       1.00800           0
     47814 W2       15938    TIP3     H2       HT       0.417000       1.00800           0
     47815 W2       15939    TIP3     OH2      OT      -0.834000       15.9994           0
     47816 W2       15939    TIP3     H1       HT       0.417000       1.00800           0
     47817 W2       15939    TIP3     H2       HT       0.417000       1.00800           0
     47818 W2       15940    TIP3     OH2      OT      -0.834000       15.9994           0
     47819 W2       15940    TIP3     H1       HT       0.417000       1.00800           0
     47820 W2       15940    TIP3     H2       HT       0.417000       1.00800           0
     47821 W2       15941    TIP3     OH2      OT      -0.834000       15.9994           0
     47822 W2       15941    TIP3     H1       HT       0.417000       1.00800           0
     47823 W2       15941    TIP3     H2       HT       0.417000       1.00800           0
     47824 W2       15942    TIP3     OH2      OT      -0.834000       15.9994           0
     47825 W2       15942    TIP3     H1       HT       0.417000       1.00800           0
     47826 W2       15942    TIP3     H2       HT       0.417000       1.00800           0
     47827 W2       15943    TIP3     OH2      OT      -0.834000       15.9994           0
     47828 W2       15943    TIP3     H1       HT       0.417000       1.00800           0
     47829 W2       15943    TIP3     H2       HT       0.417000       1.00800           0
     47830 W2       15944    TIP3     OH2      OT      -0.834000       15.9994           0
     47831 W2       15944    TIP3     H1       HT       0.417000       1.00800           0
     47832 W2       15944    TIP3     H2       HT       0.417000       1.00800           0
     47833 W2       15945    TIP3     OH2      OT      -0.834000       15.9994           0
     47834 W2       15945    TIP3     H1       HT       0.417000       1.00800           0
     47835 W2       15945    TIP3     H2       HT       0.417000       1.00800           0
     47836 W2       15946    TIP3     OH2      OT      -0.834000       15.9994           0
     47837 W2       15946    TIP3     H1       HT       0.417000       1.00800           0
     47838 W2       15946    TIP3     H2       HT       0.417000       1.00800           0
     47839 W2       15947    TIP3     OH2      OT      -0.834000       15.9994           0
     47840 W2       15947    TIP3     H1       HT       0.417000       1.00800           0
     47841 W2       15947    TIP3     H2       HT       0.417000       1.00800           0
     47842 W2       15948    TIP3     OH2      OT      -0.834000       15.9994           0
     47843 W2       15948    TIP3     H1       HT       0.417000       1.00800           0
     47844 W2       15948    TIP3     H2       HT       0.417000       1.00800           0
     47845 W2       15949    TIP3     OH2      OT      -0.834000       15.9994           0
     47846 W2       15949    TIP3     H1       HT       0.417000       1.00800           0
     47847 W2       15949    TIP3     H2       HT       0.417000       1.00800           0
     47848 W2       15950    TIP3     OH2      OT      -0.834000       15.9994           0
     47849 W2       15950    TIP3     H1       HT       0.417000       1.00800           0
     47850 W2       15950    TIP3     H2       HT       0.417000       1.00800           0
     47851 W2       15951    TIP3     OH2      OT      -0.834000       15.9994           0
     47852 W2       15951    TIP3     H1       HT       0.417000       1.00800           0
     47853 W2       15951    TIP3     H2       HT       0.417000       1.00800           0
     47854 W2       15952    TIP3     OH2      OT      -0.834000       15.9994           0
     47855 W2       15952    TIP3     H1       HT       0.417000       1.00800           0
     47856 W2       15952    TIP3     H2       HT       0.417000       1.00800           0
     47857 W2       15953    TIP3     OH2      OT      -0.834000       15.9994           0
     47858 W2       15953    TIP3     H1       HT       0.417000       1.00800           0
     47859 W2       15953    TIP3     H2       HT       0.417000       1.00800           0
     47860 W2       15954    TIP3     OH2      OT      -0.834000       15.9994           0
     47861 W2       15954    TIP3     H1       HT       0.417000       1.00800           0
     47862 W2       15954    TIP3     H2       HT       0.417000       1.00800           0
     47863 W2       15955    TIP3     OH2      OT      -0.834000       15.9994           0
     47864 W2       15955    TIP3     H1       HT       0.417000       1.00800           0
     47865 W2       15955    TIP3     H2       HT       0.417000       1.00800           0
     47866 W2       15956    TIP3     OH2      OT      -0.834000       15.9994           0
     47867 W2       15956    TIP3     H1       HT       0.417000       1.00800           0
     47868 W2       15956    TIP3     H2       HT       0.417000       1.00800           0
     47869 W2       15957    TIP3     OH2      OT      -0.834000       15.9994           0
     47870 W2       15957    TIP3     H1       HT       0.417000       1.00800           0
     47871 W2       15957    TIP3     H2       HT       0.417000       1.00800           0
     47872 W2       15958    TIP3     OH2      OT      -0.834000       15.9994           0
     47873 W2       15958    TIP3     H1       HT       0.417000       1.00800           0
     47874 W2       15958    TIP3     H2       HT       0.417000       1.00800           0
     47875 W2       15959    TIP3     OH2      OT      -0.834000       15.9994           0
     47876 W2       15959    TIP3     H1       HT       0.417000       1.00800           0
     47877 W2       15959    TIP3     H2       HT       0.417000       1.00800           0
     47878 W2       15960    TIP3     OH2      OT      -0.834000       15.9994           0
     47879 W2       15960    TIP3     H1       HT       0.417000       1.00800           0
     47880 W2       15960    TIP3     H2       HT       0.417000       1.00800           0
     47881 W2       15961    TIP3     OH2      OT      -0.834000       15.9994           0
     47882 W2       15961    TIP3     H1       HT       0.417000       1.00800           0
     47883 W2       15961    TIP3     H2       HT       0.417000       1.00800           0
     47884 W2       15962    TIP3     OH2      OT      -0.834000       15.9994           0
     47885 W2       15962    TIP3     H1       HT       0.417000       1.00800           0
     47886 W2       15962    TIP3     H2       HT       0.417000       1.00800           0
     47887 W2       15963    TIP3     OH2      OT      -0.834000       15.9994           0
     47888 W2       15963    TIP3     H1       HT       0.417000       1.00800           0
     47889 W2       15963    TIP3     H2       HT       0.417000       1.00800           0
     47890 W2       15964    TIP3     OH2      OT      -0.834000       15.9994           0
     47891 W2       15964    TIP3     H1       HT       0.417000       1.00800           0
     47892 W2       15964    TIP3     H2       HT       0.417000       1.00800           0
     47893 W2       15965    TIP3     OH2      OT      -0.834000       15.9994           0
     47894 W2       15965    TIP3     H1       HT       0.417000       1.00800           0
     47895 W2       15965    TIP3     H2       HT       0.417000       1.00800           0
     47896 W2       15966    TIP3     OH2      OT      -0.834000       15.9994           0
     47897 W2       15966    TIP3     H1       HT       0.417000       1.00800           0
     47898 W2       15966    TIP3     H2       HT       0.417000       1.00800           0
     47899 W2       15967    TIP3     OH2      OT      -0.834000       15.9994           0
     47900 W2       15967    TIP3     H1       HT       0.417000       1.00800           0
     47901 W2       15967    TIP3     H2       HT       0.417000       1.00800           0
     47902 W2       15968    TIP3     OH2      OT      -0.834000       15.9994           0
     47903 W2       15968    TIP3     H1       HT       0.417000       1.00800           0
     47904 W2       15968    TIP3     H2       HT       0.417000       1.00800           0
     47905 W2       15969    TIP3     OH2      OT      -0.834000       15.9994           0
     47906 W2       15969    TIP3     H1       HT       0.417000       1.00800           0
     47907 W2       15969    TIP3     H2       HT       0.417000       1.00800           0
     47908 W2       15970    TIP3     OH2      OT      -0.834000       15.9994           0
     47909 W2       15970    TIP3     H1       HT       0.417000       1.00800           0
     47910 W2       15970    TIP3     H2       HT       0.417000       1.00800           0
     47911 W2       15971    TIP3     OH2      OT      -0.834000       15.9994           0
     47912 W2       15971    TIP3     H1       HT       0.417000       1.00800           0
     47913 W2       15971    TIP3     H2       HT       0.417000       1.00800           0
     47914 W2       15972    TIP3     OH2      OT      -0.834000       15.9994           0
     47915 W2       15972    TIP3     H1       HT       0.417000       1.00800           0
     47916 W2       15972    TIP3     H2       HT       0.417000       1.00800           0
     47917 W2       15973    TIP3     OH2      OT      -0.834000       15.9994           0
     47918 W2       15973    TIP3     H1       HT       0.417000       1.00800           0
     47919 W2       15973    TIP3     H2       HT       0.417000       1.00800           0
     47920 W2       15974    TIP3     OH2      OT      -0.834000       15.9994           0
     47921 W2       15974    TIP3     H1       HT       0.417000       1.00800           0
     47922 W2       15974    TIP3     H2       HT       0.417000       1.00800           0
     47923 W2       15975    TIP3     OH2      OT      -0.834000       15.9994           0
     47924 W2       15975    TIP3     H1       HT       0.417000       1.00800           0
     47925 W2       15975    TIP3     H2       HT       0.417000       1.00800           0
     47926 W2       15976    TIP3     OH2      OT      -0.834000       15.9994           0
     47927 W2       15976    TIP3     H1       HT       0.417000       1.00800           0
     47928 W2       15976    TIP3     H2       HT       0.417000       1.00800           0
     47929 W2       15977    TIP3     OH2      OT      -0.834000       15.9994           0
     47930 W2       15977    TIP3     H1       HT       0.417000       1.00800           0
     47931 W2       15977    TIP3     H2       HT       0.417000       1.00800           0
     47932 W2       15978    TIP3     OH2      OT      -0.834000       15.9994           0
     47933 W2       15978    TIP3     H1       HT       0.417000       1.00800           0
     47934 W2       15978    TIP3     H2       HT       0.417000       1.00800           0
     47935 W2       15979    TIP3     OH2      OT      -0.834000       15.9994           0
     47936 W2       15979    TIP3     H1       HT       0.417000       1.00800           0
     47937 W2       15979    TIP3     H2       HT       0.417000       1.00800           0
     47938 W2       15980    TIP3     OH2      OT      -0.834000       15.9994           0
     47939 W2       15980    TIP3     H1       HT       0.417000       1.00800           0
     47940 W2       15980    TIP3     H2       HT       0.417000       1.00800           0
     47941 W2       15981    TIP3     OH2      OT      -0.834000       15.9994           0
     47942 W2       15981    TIP3     H1       HT       0.417000       1.00800           0
     47943 W2       15981    TIP3     H2       HT       0.417000       1.00800           0
     47944 W2       15982    TIP3     OH2      OT      -0.834000       15.9994           0
     47945 W2       15982    TIP3     H1       HT       0.417000       1.00800           0
     47946 W2       15982    TIP3     H2       HT       0.417000       1.00800           0
     47947 W2       15983    TIP3     OH2      OT      -0.834000       15.9994           0
     47948 W2       15983    TIP3     H1       HT       0.417000       1.00800           0
     47949 W2       15983    TIP3     H2       HT       0.417000       1.00800           0
     47950 W2       15984    TIP3     OH2      OT      -0.834000       15.9994           0
     47951 W2       15984    TIP3     H1       HT       0.417000       1.00800           0
     47952 W2       15984    TIP3     H2       HT       0.417000       1.00800           0
     47953 W2       15985    TIP3     OH2      OT      -0.834000       15.9994           0
     47954 W2       15985    TIP3     H1       HT       0.417000       1.00800           0
     47955 W2       15985    TIP3     H2       HT       0.417000       1.00800           0
     47956 W2       15986    TIP3     OH2      OT      -0.834000       15.9994           0
     47957 W2       15986    TIP3     H1       HT       0.417000       1.00800           0
     47958 W2       15986    TIP3     H2       HT       0.417000       1.00800           0
     47959 W2       15987    TIP3     OH2      OT      -0.834000       15.9994           0
     47960 W2       15987    TIP3     H1       HT       0.417000       1.00800           0
     47961 W2       15987    TIP3     H2       HT       0.417000       1.00800           0
     47962 W2       15988    TIP3     OH2      OT      -0.834000       15.9994           0
     47963 W2       15988    TIP3     H1       HT       0.417000       1.00800           0
     47964 W2       15988    TIP3     H2       HT       0.417000       1.00800           0
     47965 W2       15989    TIP3     OH2      OT      -0.834000       15.9994           0
     47966 W2       15989    TIP3     H1       HT       0.417000       1.00800           0
     47967 W2       15989    TIP3     H2       HT       0.417000       1.00800           0
     47968 W2       15990    TIP3     OH2      OT      -0.834000       15.9994           0
     47969 W2       15990    TIP3     H1       HT       0.417000       1.00800           0
     47970 W2       15990    TIP3     H2       HT       0.417000       1.00800           0
     47971 W2       15991    TIP3     OH2      OT      -0.834000       15.9994           0
     47972 W2       15991    TIP3     H1       HT       0.417000       1.00800           0
     47973 W2       15991    TIP3     H2       HT       0.417000       1.00800           0
     47974 W2       15992    TIP3     OH2      OT      -0.834000       15.9994           0
     47975 W2       15992    TIP3     H1       HT       0.417000       1.00800           0
     47976 W2       15992    TIP3     H2       HT       0.417000       1.00800           0
     47977 W2       15993    TIP3     OH2      OT      -0.834000       15.9994           0
     47978 W2       15993    TIP3     H1       HT       0.417000       1.00800           0
     47979 W2       15993    TIP3     H2       HT       0.417000       1.00800           0
     47980 W2       15994    TIP3     OH2      OT      -0.834000       15.9994           0
     47981 W2       15994    TIP3     H1       HT       0.417000       1.00800           0
     47982 W2       15994    TIP3     H2       HT       0.417000       1.00800           0
     47983 W2       15995    TIP3     OH2      OT      -0.834000       15.9994           0
     47984 W2       15995    TIP3     H1       HT       0.417000       1.00800           0
     47985 W2       15995    TIP3     H2       HT       0.417000       1.00800           0
     47986 W2       15996    TIP3     OH2      OT      -0.834000       15.9994           0
     47987 W2       15996    TIP3     H1       HT       0.417000       1.00800           0
     47988 W2       15996    TIP3     H2       HT       0.417000       1.00800           0
     47989 W2       15997    TIP3     OH2      OT      -0.834000       15.9994           0
     47990 W2       15997    TIP3     H1       HT       0.417000       1.00800           0
     47991 W2       15997    TIP3     H2       HT       0.417000       1.00800           0
     47992 W2       15998    TIP3     OH2      OT      -0.834000       15.9994           0
     47993 W2       15998    TIP3     H1       HT       0.417000       1.00800           0
     47994 W2       15998    TIP3     H2       HT       0.417000       1.00800           0
     47995 W2       15999    TIP3     OH2      OT      -0.834000       15.9994           0
     47996 W2       15999    TIP3     H1       HT       0.417000       1.00800           0
     47997 W2       15999    TIP3     H2       HT       0.417000       1.00800           0
     47998 W2       16000    TIP3     OH2      OT      -0.834000       15.9994           0
     47999 W2       16000    TIP3     H1       HT       0.417000       1.00800           0
     48000 W2       16000    TIP3     H2       HT       0.417000       1.00800           0
     48001 W2       16001    TIP3     OH2      OT      -0.834000       15.9994           0
     48002 W2       16001    TIP3     H1       HT       0.417000       1.00800           0
     48003 W2       16001    TIP3     H2       HT       0.417000       1.00800           0
     48004 W2       16002    TIP3     OH2      OT      -0.834000       15.9994           0
     48005 W2       16002    TIP3     H1       HT       0.417000       1.00800           0
     48006 W2       16002    TIP3     H2       HT       0.417000       1.00800           0
     48007 W2       16003    TIP3     OH2      OT      -0.834000       15.9994           0
     48008 W2       16003    TIP3     H1       HT       0.417000       1.00800           0
     48009 W2       16003    TIP3     H2       HT       0.417000       1.00800           0
     48010 W2       16004    TIP3     OH2      OT      -0.834000       15.9994           0
     48011 W2       16004    TIP3     H1       HT       0.417000       1.00800           0
     48012 W2       16004    TIP3     H2       HT       0.417000       1.00800           0
     48013 W2       16005    TIP3     OH2      OT      -0.834000       15.9994           0
     48014 W2       16005    TIP3     H1       HT       0.417000       1.00800           0
     48015 W2       16005    TIP3     H2       HT       0.417000       1.00800           0
     48016 W2       16006    TIP3     OH2      OT      -0.834000       15.9994           0
     48017 W2       16006    TIP3     H1       HT       0.417000       1.00800           0
     48018 W2       16006    TIP3     H2       HT       0.417000       1.00800           0
     48019 W2       16007    TIP3     OH2      OT      -0.834000       15.9994           0
     48020 W2       16007    TIP3     H1       HT       0.417000       1.00800           0
     48021 W2       16007    TIP3     H2       HT       0.417000       1.00800           0
     48022 W2       16008    TIP3     OH2      OT      -0.834000       15.9994           0
     48023 W2       16008    TIP3     H1       HT       0.417000       1.00800           0
     48024 W2       16008    TIP3     H2       HT       0.417000       1.00800           0
     48025 W2       16009    TIP3     OH2      OT      -0.834000       15.9994           0
     48026 W2       16009    TIP3     H1       HT       0.417000       1.00800           0
     48027 W2       16009    TIP3     H2       HT       0.417000       1.00800           0
     48028 W2       16010    TIP3     OH2      OT      -0.834000       15.9994           0
     48029 W2       16010    TIP3     H1       HT       0.417000       1.00800           0
     48030 W2       16010    TIP3     H2       HT       0.417000       1.00800           0
     48031 W2       16011    TIP3     OH2      OT      -0.834000       15.9994           0
     48032 W2       16011    TIP3     H1       HT       0.417000       1.00800           0
     48033 W2       16011    TIP3     H2       HT       0.417000       1.00800           0
     48034 W2       16012    TIP3     OH2      OT      -0.834000       15.9994           0
     48035 W2       16012    TIP3     H1       HT       0.417000       1.00800           0
     48036 W2       16012    TIP3     H2       HT       0.417000       1.00800           0
     48037 W2       16013    TIP3     OH2      OT      -0.834000       15.9994           0
     48038 W2       16013    TIP3     H1       HT       0.417000       1.00800           0
     48039 W2       16013    TIP3     H2       HT       0.417000       1.00800           0
     48040 W2       16014    TIP3     OH2      OT      -0.834000       15.9994           0
     48041 W2       16014    TIP3     H1       HT       0.417000       1.00800           0
     48042 W2       16014    TIP3     H2       HT       0.417000       1.00800           0
     48043 W2       16015    TIP3     OH2      OT      -0.834000       15.9994           0
     48044 W2       16015    TIP3     H1       HT       0.417000       1.00800           0
     48045 W2       16015    TIP3     H2       HT       0.417000       1.00800           0
     48046 W2       16016    TIP3     OH2      OT      -0.834000       15.9994           0
     48047 W2       16016    TIP3     H1       HT       0.417000       1.00800           0
     48048 W2       16016    TIP3     H2       HT       0.417000       1.00800           0
     48049 W2       16017    TIP3     OH2      OT      -0.834000       15.9994           0
     48050 W2       16017    TIP3     H1       HT       0.417000       1.00800           0
     48051 W2       16017    TIP3     H2       HT       0.417000       1.00800           0
     48052 W2       16018    TIP3     OH2      OT      -0.834000       15.9994           0
     48053 W2       16018    TIP3     H1       HT       0.417000       1.00800           0
     48054 W2       16018    TIP3     H2       HT       0.417000       1.00800           0
     48055 W2       16019    TIP3     OH2      OT      -0.834000       15.9994           0
     48056 W2       16019    TIP3     H1       HT       0.417000       1.00800           0
     48057 W2       16019    TIP3     H2       HT       0.417000       1.00800           0
     48058 W2       16020    TIP3     OH2      OT      -0.834000       15.9994           0
     48059 W2       16020    TIP3     H1       HT       0.417000       1.00800           0
     48060 W2       16020    TIP3     H2       HT       0.417000       1.00800           0
     48061 W2       16021    TIP3     OH2      OT      -0.834000       15.9994           0
     48062 W2       16021    TIP3     H1       HT       0.417000       1.00800           0
     48063 W2       16021    TIP3     H2       HT       0.417000       1.00800           0
     48064 W2       16022    TIP3     OH2      OT      -0.834000       15.9994           0
     48065 W2       16022    TIP3     H1       HT       0.417000       1.00800           0
     48066 W2       16022    TIP3     H2       HT       0.417000       1.00800           0
     48067 W2       16023    TIP3     OH2      OT      -0.834000       15.9994           0
     48068 W2       16023    TIP3     H1       HT       0.417000       1.00800           0
     48069 W2       16023    TIP3     H2       HT       0.417000       1.00800           0
     48070 W2       16024    TIP3     OH2      OT      -0.834000       15.9994           0
     48071 W2       16024    TIP3     H1       HT       0.417000       1.00800           0
     48072 W2       16024    TIP3     H2       HT       0.417000       1.00800           0
     48073 W2       16025    TIP3     OH2      OT      -0.834000       15.9994           0
     48074 W2       16025    TIP3     H1       HT       0.417000       1.00800           0
     48075 W2       16025    TIP3     H2       HT       0.417000       1.00800           0
     48076 W2       16026    TIP3     OH2      OT      -0.834000       15.9994           0
     48077 W2       16026    TIP3     H1       HT       0.417000       1.00800           0
     48078 W2       16026    TIP3     H2       HT       0.417000       1.00800           0
     48079 W2       16027    TIP3     OH2      OT      -0.834000       15.9994           0
     48080 W2       16027    TIP3     H1       HT       0.417000       1.00800           0
     48081 W2       16027    TIP3     H2       HT       0.417000       1.00800           0
     48082 W2       16028    TIP3     OH2      OT      -0.834000       15.9994           0
     48083 W2       16028    TIP3     H1       HT       0.417000       1.00800           0
     48084 W2       16028    TIP3     H2       HT       0.417000       1.00800           0
     48085 W2       16029    TIP3     OH2      OT      -0.834000       15.9994           0
     48086 W2       16029    TIP3     H1       HT       0.417000       1.00800           0
     48087 W2       16029    TIP3     H2       HT       0.417000       1.00800           0
     48088 W2       16030    TIP3     OH2      OT      -0.834000       15.9994           0
     48089 W2       16030    TIP3     H1       HT       0.417000       1.00800           0
     48090 W2       16030    TIP3     H2       HT       0.417000       1.00800           0
     48091 W2       16031    TIP3     OH2      OT      -0.834000       15.9994           0
     48092 W2       16031    TIP3     H1       HT       0.417000       1.00800           0
     48093 W2       16031    TIP3     H2       HT       0.417000       1.00800           0
     48094 W2       16032    TIP3     OH2      OT      -0.834000       15.9994           0
     48095 W2       16032    TIP3     H1       HT       0.417000       1.00800           0
     48096 W2       16032    TIP3     H2       HT       0.417000       1.00800           0
     48097 W2       16033    TIP3     OH2      OT      -0.834000       15.9994           0
     48098 W2       16033    TIP3     H1       HT       0.417000       1.00800           0
     48099 W2       16033    TIP3     H2       HT       0.417000       1.00800           0
     48100 W2       16034    TIP3     OH2      OT      -0.834000       15.9994           0
     48101 W2       16034    TIP3     H1       HT       0.417000       1.00800           0
     48102 W2       16034    TIP3     H2       HT       0.417000       1.00800           0
     48103 W2       16035    TIP3     OH2      OT      -0.834000       15.9994           0
     48104 W2       16035    TIP3     H1       HT       0.417000       1.00800           0
     48105 W2       16035    TIP3     H2       HT       0.417000       1.00800           0
     48106 W2       16036    TIP3     OH2      OT      -0.834000       15.9994           0
     48107 W2       16036    TIP3     H1       HT       0.417000       1.00800           0
     48108 W2       16036    TIP3     H2       HT       0.417000       1.00800           0
     48109 W2       16037    TIP3     OH2      OT      -0.834000       15.9994           0
     48110 W2       16037    TIP3     H1       HT       0.417000       1.00800           0
     48111 W2       16037    TIP3     H2       HT       0.417000       1.00800           0
     48112 W2       16038    TIP3     OH2      OT      -0.834000       15.9994           0
     48113 W2       16038    TIP3     H1       HT       0.417000       1.00800           0
     48114 W2       16038    TIP3     H2       HT       0.417000       1.00800           0
     48115 W2       16039    TIP3     OH2      OT      -0.834000       15.9994           0
     48116 W2       16039    TIP3     H1       HT       0.417000       1.00800           0
     48117 W2       16039    TIP3     H2       HT       0.417000       1.00800           0
     48118 W2       16040    TIP3     OH2      OT      -0.834000       15.9994           0
     48119 W2       16040    TIP3     H1       HT       0.417000       1.00800           0
     48120 W2       16040    TIP3     H2       HT       0.417000       1.00800           0
     48121 W2       16041    TIP3     OH2      OT      -0.834000       15.9994           0
     48122 W2       16041    TIP3     H1       HT       0.417000       1.00800           0
     48123 W2       16041    TIP3     H2       HT       0.417000       1.00800           0
     48124 W2       16042    TIP3     OH2      OT      -0.834000       15.9994           0
     48125 W2       16042    TIP3     H1       HT       0.417000       1.00800           0
     48126 W2       16042    TIP3     H2       HT       0.417000       1.00800           0
     48127 W2       16043    TIP3     OH2      OT      -0.834000       15.9994           0
     48128 W2       16043    TIP3     H1       HT       0.417000       1.00800           0
     48129 W2       16043    TIP3     H2       HT       0.417000       1.00800           0
     48130 W2       16044    TIP3     OH2      OT      -0.834000       15.9994           0
     48131 W2       16044    TIP3     H1       HT       0.417000       1.00800           0
     48132 W2       16044    TIP3     H2       HT       0.417000       1.00800           0
     48133 W2       16045    TIP3     OH2      OT      -0.834000       15.9994           0
     48134 W2       16045    TIP3     H1       HT       0.417000       1.00800           0
     48135 W2       16045    TIP3     H2       HT       0.417000       1.00800           0
     48136 W2       16046    TIP3     OH2      OT      -0.834000       15.9994           0
     48137 W2       16046    TIP3     H1       HT       0.417000       1.00800           0
     48138 W2       16046    TIP3     H2       HT       0.417000       1.00800           0
     48139 W2       16047    TIP3     OH2      OT      -0.834000       15.9994           0
     48140 W2       16047    TIP3     H1       HT       0.417000       1.00800           0
     48141 W2       16047    TIP3     H2       HT       0.417000       1.00800           0
     48142 W2       16048    TIP3     OH2      OT      -0.834000       15.9994           0
     48143 W2       16048    TIP3     H1       HT       0.417000       1.00800           0
     48144 W2       16048    TIP3     H2       HT       0.417000       1.00800           0
     48145 W2       16049    TIP3     OH2      OT      -0.834000       15.9994           0
     48146 W2       16049    TIP3     H1       HT       0.417000       1.00800           0
     48147 W2       16049    TIP3     H2       HT       0.417000       1.00800           0
     48148 W2       16050    TIP3     OH2      OT      -0.834000       15.9994           0
     48149 W2       16050    TIP3     H1       HT       0.417000       1.00800           0
     48150 W2       16050    TIP3     H2       HT       0.417000       1.00800           0
     48151 W2       16051    TIP3     OH2      OT      -0.834000       15.9994           0
     48152 W2       16051    TIP3     H1       HT       0.417000       1.00800           0
     48153 W2       16051    TIP3     H2       HT       0.417000       1.00800           0
     48154 W2       16052    TIP3     OH2      OT      -0.834000       15.9994           0
     48155 W2       16052    TIP3     H1       HT       0.417000       1.00800           0
     48156 W2       16052    TIP3     H2       HT       0.417000       1.00800           0
     48157 W2       16053    TIP3     OH2      OT      -0.834000       15.9994           0
     48158 W2       16053    TIP3     H1       HT       0.417000       1.00800           0
     48159 W2       16053    TIP3     H2       HT       0.417000       1.00800           0
     48160 W2       16054    TIP3     OH2      OT      -0.834000       15.9994           0
     48161 W2       16054    TIP3     H1       HT       0.417000       1.00800           0
     48162 W2       16054    TIP3     H2       HT       0.417000       1.00800           0
     48163 W2       16055    TIP3     OH2      OT      -0.834000       15.9994           0
     48164 W2       16055    TIP3     H1       HT       0.417000       1.00800           0
     48165 W2       16055    TIP3     H2       HT       0.417000       1.00800           0
     48166 W2       16056    TIP3     OH2      OT      -0.834000       15.9994           0
     48167 W2       16056    TIP3     H1       HT       0.417000       1.00800           0
     48168 W2       16056    TIP3     H2       HT       0.417000       1.00800           0
     48169 W2       16057    TIP3     OH2      OT      -0.834000       15.9994           0
     48170 W2       16057    TIP3     H1       HT       0.417000       1.00800           0
     48171 W2       16057    TIP3     H2       HT       0.417000       1.00800           0
     48172 W2       16058    TIP3     OH2      OT      -0.834000       15.9994           0
     48173 W2       16058    TIP3     H1       HT       0.417000       1.00800           0
     48174 W2       16058    TIP3     H2       HT       0.417000       1.00800           0
     48175 W2       16059    TIP3     OH2      OT      -0.834000       15.9994           0
     48176 W2       16059    TIP3     H1       HT       0.417000       1.00800           0
     48177 W2       16059    TIP3     H2       HT       0.417000       1.00800           0
     48178 W2       16060    TIP3     OH2      OT      -0.834000       15.9994           0
     48179 W2       16060    TIP3     H1       HT       0.417000       1.00800           0
     48180 W2       16060    TIP3     H2       HT       0.417000       1.00800           0
     48181 W2       16061    TIP3     OH2      OT      -0.834000       15.9994           0
     48182 W2       16061    TIP3     H1       HT       0.417000       1.00800           0
     48183 W2       16061    TIP3     H2       HT       0.417000       1.00800           0
     48184 W2       16062    TIP3     OH2      OT      -0.834000       15.9994           0
     48185 W2       16062    TIP3     H1       HT       0.417000       1.00800           0
     48186 W2       16062    TIP3     H2       HT       0.417000       1.00800           0
     48187 W2       16063    TIP3     OH2      OT      -0.834000       15.9994           0
     48188 W2       16063    TIP3     H1       HT       0.417000       1.00800           0
     48189 W2       16063    TIP3     H2       HT       0.417000       1.00800           0
     48190 W2       16064    TIP3     OH2      OT      -0.834000       15.9994           0
     48191 W2       16064    TIP3     H1       HT       0.417000       1.00800           0
     48192 W2       16064    TIP3     H2       HT       0.417000       1.00800           0
     48193 W2       16065    TIP3     OH2      OT      -0.834000       15.9994           0
     48194 W2       16065    TIP3     H1       HT       0.417000       1.00800           0
     48195 W2       16065    TIP3     H2       HT       0.417000       1.00800           0
     48196 W2       16066    TIP3     OH2      OT      -0.834000       15.9994           0
     48197 W2       16066    TIP3     H1       HT       0.417000       1.00800           0
     48198 W2       16066    TIP3     H2       HT       0.417000       1.00800           0
     48199 W2       16067    TIP3     OH2      OT      -0.834000       15.9994           0
     48200 W2       16067    TIP3     H1       HT       0.417000       1.00800           0
     48201 W2       16067    TIP3     H2       HT       0.417000       1.00800           0
     48202 W2       16068    TIP3     OH2      OT      -0.834000       15.9994           0
     48203 W2       16068    TIP3     H1       HT       0.417000       1.00800           0
     48204 W2       16068    TIP3     H2       HT       0.417000       1.00800           0
     48205 W2       16069    TIP3     OH2      OT      -0.834000       15.9994           0
     48206 W2       16069    TIP3     H1       HT       0.417000       1.00800           0
     48207 W2       16069    TIP3     H2       HT       0.417000       1.00800           0
     48208 W2       16070    TIP3     OH2      OT      -0.834000       15.9994           0
     48209 W2       16070    TIP3     H1       HT       0.417000       1.00800           0
     48210 W2       16070    TIP3     H2       HT       0.417000       1.00800           0
     48211 W2       16071    TIP3     OH2      OT      -0.834000       15.9994           0
     48212 W2       16071    TIP3     H1       HT       0.417000       1.00800           0
     48213 W2       16071    TIP3     H2       HT       0.417000       1.00800           0
     48214 W2       16072    TIP3     OH2      OT      -0.834000       15.9994           0
     48215 W2       16072    TIP3     H1       HT       0.417000       1.00800           0
     48216 W2       16072    TIP3     H2       HT       0.417000       1.00800           0
     48217 W2       16073    TIP3     OH2      OT      -0.834000       15.9994           0
     48218 W2       16073    TIP3     H1       HT       0.417000       1.00800           0
     48219 W2       16073    TIP3     H2       HT       0.417000       1.00800           0
     48220 W2       16074    TIP3     OH2      OT      -0.834000       15.9994           0
     48221 W2       16074    TIP3     H1       HT       0.417000       1.00800           0
     48222 W2       16074    TIP3     H2       HT       0.417000       1.00800           0
     48223 W2       16075    TIP3     OH2      OT      -0.834000       15.9994           0
     48224 W2       16075    TIP3     H1       HT       0.417000       1.00800           0
     48225 W2       16075    TIP3     H2       HT       0.417000       1.00800           0
     48226 W2       16076    TIP3     OH2      OT      -0.834000       15.9994           0
     48227 W2       16076    TIP3     H1       HT       0.417000       1.00800           0
     48228 W2       16076    TIP3     H2       HT       0.417000       1.00800           0
     48229 W2       16077    TIP3     OH2      OT      -0.834000       15.9994           0
     48230 W2       16077    TIP3     H1       HT       0.417000       1.00800           0
     48231 W2       16077    TIP3     H2       HT       0.417000       1.00800           0
     48232 W2       16078    TIP3     OH2      OT      -0.834000       15.9994           0
     48233 W2       16078    TIP3     H1       HT       0.417000       1.00800           0
     48234 W2       16078    TIP3     H2       HT       0.417000       1.00800           0
     48235 W2       16079    TIP3     OH2      OT      -0.834000       15.9994           0
     48236 W2       16079    TIP3     H1       HT       0.417000       1.00800           0
     48237 W2       16079    TIP3     H2       HT       0.417000       1.00800           0
     48238 W2       16080    TIP3     OH2      OT      -0.834000       15.9994           0
     48239 W2       16080    TIP3     H1       HT       0.417000       1.00800           0
     48240 W2       16080    TIP3     H2       HT       0.417000       1.00800           0
     48241 W2       16081    TIP3     OH2      OT      -0.834000       15.9994           0
     48242 W2       16081    TIP3     H1       HT       0.417000       1.00800           0
     48243 W2       16081    TIP3     H2       HT       0.417000       1.00800           0
     48244 W2       16082    TIP3     OH2      OT      -0.834000       15.9994           0
     48245 W2       16082    TIP3     H1       HT       0.417000       1.00800           0
     48246 W2       16082    TIP3     H2       HT       0.417000       1.00800           0
     48247 W2       16083    TIP3     OH2      OT      -0.834000       15.9994           0
     48248 W2       16083    TIP3     H1       HT       0.417000       1.00800           0
     48249 W2       16083    TIP3     H2       HT       0.417000       1.00800           0
     48250 W2       16084    TIP3     OH2      OT      -0.834000       15.9994           0
     48251 W2       16084    TIP3     H1       HT       0.417000       1.00800           0
     48252 W2       16084    TIP3     H2       HT       0.417000       1.00800           0
     48253 W2       16085    TIP3     OH2      OT      -0.834000       15.9994           0
     48254 W2       16085    TIP3     H1       HT       0.417000       1.00800           0
     48255 W2       16085    TIP3     H2       HT       0.417000       1.00800           0
     48256 W2       16086    TIP3     OH2      OT      -0.834000       15.9994           0
     48257 W2       16086    TIP3     H1       HT       0.417000       1.00800           0
     48258 W2       16086    TIP3     H2       HT       0.417000       1.00800           0
     48259 W2       16087    TIP3     OH2      OT      -0.834000       15.9994           0
     48260 W2       16087    TIP3     H1       HT       0.417000       1.00800           0
     48261 W2       16087    TIP3     H2       HT       0.417000       1.00800           0
     48262 W2       16088    TIP3     OH2      OT      -0.834000       15.9994           0
     48263 W2       16088    TIP3     H1       HT       0.417000       1.00800           0
     48264 W2       16088    TIP3     H2       HT       0.417000       1.00800           0
     48265 W2       16089    TIP3     OH2      OT      -0.834000       15.9994           0
     48266 W2       16089    TIP3     H1       HT       0.417000       1.00800           0
     48267 W2       16089    TIP3     H2       HT       0.417000       1.00800           0
     48268 W2       16090    TIP3     OH2      OT      -0.834000       15.9994           0
     48269 W2       16090    TIP3     H1       HT       0.417000       1.00800           0
     48270 W2       16090    TIP3     H2       HT       0.417000       1.00800           0
     48271 W2       16091    TIP3     OH2      OT      -0.834000       15.9994           0
     48272 W2       16091    TIP3     H1       HT       0.417000       1.00800           0
     48273 W2       16091    TIP3     H2       HT       0.417000       1.00800           0
     48274 W2       16092    TIP3     OH2      OT      -0.834000       15.9994           0
     48275 W2       16092    TIP3     H1       HT       0.417000       1.00800           0
     48276 W2       16092    TIP3     H2       HT       0.417000       1.00800           0
     48277 W2       16093    TIP3     OH2      OT      -0.834000       15.9994           0
     48278 W2       16093    TIP3     H1       HT       0.417000       1.00800           0
     48279 W2       16093    TIP3     H2       HT       0.417000       1.00800           0
     48280 W2       16094    TIP3     OH2      OT      -0.834000       15.9994           0
     48281 W2       16094    TIP3     H1       HT       0.417000       1.00800           0
     48282 W2       16094    TIP3     H2       HT       0.417000       1.00800           0
     48283 W2       16095    TIP3     OH2      OT      -0.834000       15.9994           0
     48284 W2       16095    TIP3     H1       HT       0.417000       1.00800           0
     48285 W2       16095    TIP3     H2       HT       0.417000       1.00800           0
     48286 W2       16096    TIP3     OH2      OT      -0.834000       15.9994           0
     48287 W2       16096    TIP3     H1       HT       0.417000       1.00800           0
     48288 W2       16096    TIP3     H2       HT       0.417000       1.00800           0
     48289 W2       16097    TIP3     OH2      OT      -0.834000       15.9994           0
     48290 W2       16097    TIP3     H1       HT       0.417000       1.00800           0
     48291 W2       16097    TIP3     H2       HT       0.417000       1.00800           0
     48292 W2       16098    TIP3     OH2      OT      -0.834000       15.9994           0
     48293 W2       16098    TIP3     H1       HT       0.417000       1.00800           0
     48294 W2       16098    TIP3     H2       HT       0.417000       1.00800           0
     48295 W2       16099    TIP3     OH2      OT      -0.834000       15.9994           0
     48296 W2       16099    TIP3     H1       HT       0.417000       1.00800           0
     48297 W2       16099    TIP3     H2       HT       0.417000       1.00800           0
     48298 W2       16100    TIP3     OH2      OT      -0.834000       15.9994           0
     48299 W2       16100    TIP3     H1       HT       0.417000       1.00800           0
     48300 W2       16100    TIP3     H2       HT       0.417000       1.00800           0
     48301 W2       16101    TIP3     OH2      OT      -0.834000       15.9994           0
     48302 W2       16101    TIP3     H1       HT       0.417000       1.00800           0
     48303 W2       16101    TIP3     H2       HT       0.417000       1.00800           0
     48304 W2       16102    TIP3     OH2      OT      -0.834000       15.9994           0
     48305 W2       16102    TIP3     H1       HT       0.417000       1.00800           0
     48306 W2       16102    TIP3     H2       HT       0.417000       1.00800           0
     48307 W2       16103    TIP3     OH2      OT      -0.834000       15.9994           0
     48308 W2       16103    TIP3     H1       HT       0.417000       1.00800           0
     48309 W2       16103    TIP3     H2       HT       0.417000       1.00800           0
     48310 W2       16104    TIP3     OH2      OT      -0.834000       15.9994           0
     48311 W2       16104    TIP3     H1       HT       0.417000       1.00800           0
     48312 W2       16104    TIP3     H2       HT       0.417000       1.00800           0
     48313 W2       16105    TIP3     OH2      OT      -0.834000       15.9994           0
     48314 W2       16105    TIP3     H1       HT       0.417000       1.00800           0
     48315 W2       16105    TIP3     H2       HT       0.417000       1.00800           0
     48316 W2       16106    TIP3     OH2      OT      -0.834000       15.9994           0
     48317 W2       16106    TIP3     H1       HT       0.417000       1.00800           0
     48318 W2       16106    TIP3     H2       HT       0.417000       1.00800           0
     48319 W2       16107    TIP3     OH2      OT      -0.834000       15.9994           0
     48320 W2       16107    TIP3     H1       HT       0.417000       1.00800           0
     48321 W2       16107    TIP3     H2       HT       0.417000       1.00800           0
     48322 W2       16108    TIP3     OH2      OT      -0.834000       15.9994           0
     48323 W2       16108    TIP3     H1       HT       0.417000       1.00800           0
     48324 W2       16108    TIP3     H2       HT       0.417000       1.00800           0
     48325 W2       16109    TIP3     OH2      OT      -0.834000       15.9994           0
     48326 W2       16109    TIP3     H1       HT       0.417000       1.00800           0
     48327 W2       16109    TIP3     H2       HT       0.417000       1.00800           0
     48328 W2       16110    TIP3     OH2      OT      -0.834000       15.9994           0
     48329 W2       16110    TIP3     H1       HT       0.417000       1.00800           0
     48330 W2       16110    TIP3     H2       HT       0.417000       1.00800           0
     48331 W2       16111    TIP3     OH2      OT      -0.834000       15.9994           0
     48332 W2       16111    TIP3     H1       HT       0.417000       1.00800           0
     48333 W2       16111    TIP3     H2       HT       0.417000       1.00800           0
     48334 W2       16112    TIP3     OH2      OT      -0.834000       15.9994           0
     48335 W2       16112    TIP3     H1       HT       0.417000       1.00800           0
     48336 W2       16112    TIP3     H2       HT       0.417000       1.00800           0
     48337 W2       16113    TIP3     OH2      OT      -0.834000       15.9994           0
     48338 W2       16113    TIP3     H1       HT       0.417000       1.00800           0
     48339 W2       16113    TIP3     H2       HT       0.417000       1.00800           0
     48340 W2       16114    TIP3     OH2      OT      -0.834000       15.9994           0
     48341 W2       16114    TIP3     H1       HT       0.417000       1.00800           0
     48342 W2       16114    TIP3     H2       HT       0.417000       1.00800           0
     48343 W2       16115    TIP3     OH2      OT      -0.834000       15.9994           0
     48344 W2       16115    TIP3     H1       HT       0.417000       1.00800           0
     48345 W2       16115    TIP3     H2       HT       0.417000       1.00800           0
     48346 W2       16116    TIP3     OH2      OT      -0.834000       15.9994           0
     48347 W2       16116    TIP3     H1       HT       0.417000       1.00800           0
     48348 W2       16116    TIP3     H2       HT       0.417000       1.00800           0
     48349 W2       16117    TIP3     OH2      OT      -0.834000       15.9994           0
     48350 W2       16117    TIP3     H1       HT       0.417000       1.00800           0
     48351 W2       16117    TIP3     H2       HT       0.417000       1.00800           0
     48352 W2       16118    TIP3     OH2      OT      -0.834000       15.9994           0
     48353 W2       16118    TIP3     H1       HT       0.417000       1.00800           0
     48354 W2       16118    TIP3     H2       HT       0.417000       1.00800           0
     48355 W2       16119    TIP3     OH2      OT      -0.834000       15.9994           0
     48356 W2       16119    TIP3     H1       HT       0.417000       1.00800           0
     48357 W2       16119    TIP3     H2       HT       0.417000       1.00800           0
     48358 W2       16120    TIP3     OH2      OT      -0.834000       15.9994           0
     48359 W2       16120    TIP3     H1       HT       0.417000       1.00800           0
     48360 W2       16120    TIP3     H2       HT       0.417000       1.00800           0
     48361 W2       16121    TIP3     OH2      OT      -0.834000       15.9994           0
     48362 W2       16121    TIP3     H1       HT       0.417000       1.00800           0
     48363 W2       16121    TIP3     H2       HT       0.417000       1.00800           0
     48364 W2       16122    TIP3     OH2      OT      -0.834000       15.9994           0
     48365 W2       16122    TIP3     H1       HT       0.417000       1.00800           0
     48366 W2       16122    TIP3     H2       HT       0.417000       1.00800           0
     48367 W2       16123    TIP3     OH2      OT      -0.834000       15.9994           0
     48368 W2       16123    TIP3     H1       HT       0.417000       1.00800           0
     48369 W2       16123    TIP3     H2       HT       0.417000       1.00800           0
     48370 W2       16124    TIP3     OH2      OT      -0.834000       15.9994           0
     48371 W2       16124    TIP3     H1       HT       0.417000       1.00800           0
     48372 W2       16124    TIP3     H2       HT       0.417000       1.00800           0
     48373 W2       16125    TIP3     OH2      OT      -0.834000       15.9994           0
     48374 W2       16125    TIP3     H1       HT       0.417000       1.00800           0
     48375 W2       16125    TIP3     H2       HT       0.417000       1.00800           0
     48376 W2       16126    TIP3     OH2      OT      -0.834000       15.9994           0
     48377 W2       16126    TIP3     H1       HT       0.417000       1.00800           0
     48378 W2       16126    TIP3     H2       HT       0.417000       1.00800           0
     48379 W2       16127    TIP3     OH2      OT      -0.834000       15.9994           0
     48380 W2       16127    TIP3     H1       HT       0.417000       1.00800           0
     48381 W2       16127    TIP3     H2       HT       0.417000       1.00800           0
     48382 W2       16128    TIP3     OH2      OT      -0.834000       15.9994           0
     48383 W2       16128    TIP3     H1       HT       0.417000       1.00800           0
     48384 W2       16128    TIP3     H2       HT       0.417000       1.00800           0
     48385 W2       16129    TIP3     OH2      OT      -0.834000       15.9994           0
     48386 W2       16129    TIP3     H1       HT       0.417000       1.00800           0
     48387 W2       16129    TIP3     H2       HT       0.417000       1.00800           0
     48388 W2       16130    TIP3     OH2      OT      -0.834000       15.9994           0
     48389 W2       16130    TIP3     H1       HT       0.417000       1.00800           0
     48390 W2       16130    TIP3     H2       HT       0.417000       1.00800           0
     48391 W2       16131    TIP3     OH2      OT      -0.834000       15.9994           0
     48392 W2       16131    TIP3     H1       HT       0.417000       1.00800           0
     48393 W2       16131    TIP3     H2       HT       0.417000       1.00800           0
     48394 W2       16132    TIP3     OH2      OT      -0.834000       15.9994           0
     48395 W2       16132    TIP3     H1       HT       0.417000       1.00800           0
     48396 W2       16132    TIP3     H2       HT       0.417000       1.00800           0
     48397 W2       16133    TIP3     OH2      OT      -0.834000       15.9994           0
     48398 W2       16133    TIP3     H1       HT       0.417000       1.00800           0
     48399 W2       16133    TIP3     H2       HT       0.417000       1.00800           0
     48400 W2       16134    TIP3     OH2      OT      -0.834000       15.9994           0
     48401 W2       16134    TIP3     H1       HT       0.417000       1.00800           0
     48402 W2       16134    TIP3     H2       HT       0.417000       1.00800           0
     48403 W2       16135    TIP3     OH2      OT      -0.834000       15.9994           0
     48404 W2       16135    TIP3     H1       HT       0.417000       1.00800           0
     48405 W2       16135    TIP3     H2       HT       0.417000       1.00800           0
     48406 W2       16136    TIP3     OH2      OT      -0.834000       15.9994           0
     48407 W2       16136    TIP3     H1       HT       0.417000       1.00800           0
     48408 W2       16136    TIP3     H2       HT       0.417000       1.00800           0
     48409 W2       16137    TIP3     OH2      OT      -0.834000       15.9994           0
     48410 W2       16137    TIP3     H1       HT       0.417000       1.00800           0
     48411 W2       16137    TIP3     H2       HT       0.417000       1.00800           0
     48412 W2       16138    TIP3     OH2      OT      -0.834000       15.9994           0
     48413 W2       16138    TIP3     H1       HT       0.417000       1.00800           0
     48414 W2       16138    TIP3     H2       HT       0.417000       1.00800           0
     48415 W2       16139    TIP3     OH2      OT      -0.834000       15.9994           0
     48416 W2       16139    TIP3     H1       HT       0.417000       1.00800           0
     48417 W2       16139    TIP3     H2       HT       0.417000       1.00800           0
     48418 W2       16140    TIP3     OH2      OT      -0.834000       15.9994           0
     48419 W2       16140    TIP3     H1       HT       0.417000       1.00800           0
     48420 W2       16140    TIP3     H2       HT       0.417000       1.00800           0
     48421 W2       16141    TIP3     OH2      OT      -0.834000       15.9994           0
     48422 W2       16141    TIP3     H1       HT       0.417000       1.00800           0
     48423 W2       16141    TIP3     H2       HT       0.417000       1.00800           0
     48424 W2       16142    TIP3     OH2      OT      -0.834000       15.9994           0
     48425 W2       16142    TIP3     H1       HT       0.417000       1.00800           0
     48426 W2       16142    TIP3     H2       HT       0.417000       1.00800           0
     48427 W2       16143    TIP3     OH2      OT      -0.834000       15.9994           0
     48428 W2       16143    TIP3     H1       HT       0.417000       1.00800           0
     48429 W2       16143    TIP3     H2       HT       0.417000       1.00800           0
     48430 W2       16144    TIP3     OH2      OT      -0.834000       15.9994           0
     48431 W2       16144    TIP3     H1       HT       0.417000       1.00800           0
     48432 W2       16144    TIP3     H2       HT       0.417000       1.00800           0
     48433 W2       16145    TIP3     OH2      OT      -0.834000       15.9994           0
     48434 W2       16145    TIP3     H1       HT       0.417000       1.00800           0
     48435 W2       16145    TIP3     H2       HT       0.417000       1.00800           0
     48436 W2       16146    TIP3     OH2      OT      -0.834000       15.9994           0
     48437 W2       16146    TIP3     H1       HT       0.417000       1.00800           0
     48438 W2       16146    TIP3     H2       HT       0.417000       1.00800           0
     48439 W2       16147    TIP3     OH2      OT      -0.834000       15.9994           0
     48440 W2       16147    TIP3     H1       HT       0.417000       1.00800           0
     48441 W2       16147    TIP3     H2       HT       0.417000       1.00800           0
     48442 W2       16148    TIP3     OH2      OT      -0.834000       15.9994           0
     48443 W2       16148    TIP3     H1       HT       0.417000       1.00800           0
     48444 W2       16148    TIP3     H2       HT       0.417000       1.00800           0
     48445 W2       16149    TIP3     OH2      OT      -0.834000       15.9994           0
     48446 W2       16149    TIP3     H1       HT       0.417000       1.00800           0
     48447 W2       16149    TIP3     H2       HT       0.417000       1.00800           0
     48448 W2       16150    TIP3     OH2      OT      -0.834000       15.9994           0
     48449 W2       16150    TIP3     H1       HT       0.417000       1.00800           0
     48450 W2       16150    TIP3     H2       HT       0.417000       1.00800           0
     48451 W2       16151    TIP3     OH2      OT      -0.834000       15.9994           0
     48452 W2       16151    TIP3     H1       HT       0.417000       1.00800           0
     48453 W2       16151    TIP3     H2       HT       0.417000       1.00800           0
     48454 W2       16152    TIP3     OH2      OT      -0.834000       15.9994           0
     48455 W2       16152    TIP3     H1       HT       0.417000       1.00800           0
     48456 W2       16152    TIP3     H2       HT       0.417000       1.00800           0
     48457 W2       16153    TIP3     OH2      OT      -0.834000       15.9994           0
     48458 W2       16153    TIP3     H1       HT       0.417000       1.00800           0
     48459 W2       16153    TIP3     H2       HT       0.417000       1.00800           0
     48460 W2       16154    TIP3     OH2      OT      -0.834000       15.9994           0
     48461 W2       16154    TIP3     H1       HT       0.417000       1.00800           0
     48462 W2       16154    TIP3     H2       HT       0.417000       1.00800           0
     48463 W2       16155    TIP3     OH2      OT      -0.834000       15.9994           0
     48464 W2       16155    TIP3     H1       HT       0.417000       1.00800           0
     48465 W2       16155    TIP3     H2       HT       0.417000       1.00800           0
     48466 W2       16156    TIP3     OH2      OT      -0.834000       15.9994           0
     48467 W2       16156    TIP3     H1       HT       0.417000       1.00800           0
     48468 W2       16156    TIP3     H2       HT       0.417000       1.00800           0
     48469 W2       16157    TIP3     OH2      OT      -0.834000       15.9994           0
     48470 W2       16157    TIP3     H1       HT       0.417000       1.00800           0
     48471 W2       16157    TIP3     H2       HT       0.417000       1.00800           0
     48472 W2       16158    TIP3     OH2      OT      -0.834000       15.9994           0
     48473 W2       16158    TIP3     H1       HT       0.417000       1.00800           0
     48474 W2       16158    TIP3     H2       HT       0.417000       1.00800           0
     48475 W2       16159    TIP3     OH2      OT      -0.834000       15.9994           0
     48476 W2       16159    TIP3     H1       HT       0.417000       1.00800           0
     48477 W2       16159    TIP3     H2       HT       0.417000       1.00800           0
     48478 W2       16160    TIP3     OH2      OT      -0.834000       15.9994           0
     48479 W2       16160    TIP3     H1       HT       0.417000       1.00800           0
     48480 W2       16160    TIP3     H2       HT       0.417000       1.00800           0
     48481 W2       16161    TIP3     OH2      OT      -0.834000       15.9994           0
     48482 W2       16161    TIP3     H1       HT       0.417000       1.00800           0
     48483 W2       16161    TIP3     H2       HT       0.417000       1.00800           0
     48484 W2       16162    TIP3     OH2      OT      -0.834000       15.9994           0
     48485 W2       16162    TIP3     H1       HT       0.417000       1.00800           0
     48486 W2       16162    TIP3     H2       HT       0.417000       1.00800           0
     48487 W2       16163    TIP3     OH2      OT      -0.834000       15.9994           0
     48488 W2       16163    TIP3     H1       HT       0.417000       1.00800           0
     48489 W2       16163    TIP3     H2       HT       0.417000       1.00800           0
     48490 W2       16164    TIP3     OH2      OT      -0.834000       15.9994           0
     48491 W2       16164    TIP3     H1       HT       0.417000       1.00800           0
     48492 W2       16164    TIP3     H2       HT       0.417000       1.00800           0
     48493 W2       16165    TIP3     OH2      OT      -0.834000       15.9994           0
     48494 W2       16165    TIP3     H1       HT       0.417000       1.00800           0
     48495 W2       16165    TIP3     H2       HT       0.417000       1.00800           0
     48496 W2       16166    TIP3     OH2      OT      -0.834000       15.9994           0
     48497 W2       16166    TIP3     H1       HT       0.417000       1.00800           0
     48498 W2       16166    TIP3     H2       HT       0.417000       1.00800           0
     48499 W2       16167    TIP3     OH2      OT      -0.834000       15.9994           0
     48500 W2       16167    TIP3     H1       HT       0.417000       1.00800           0
     48501 W2       16167    TIP3     H2       HT       0.417000       1.00800           0
     48502 W2       16168    TIP3     OH2      OT      -0.834000       15.9994           0
     48503 W2       16168    TIP3     H1       HT       0.417000       1.00800           0
     48504 W2       16168    TIP3     H2       HT       0.417000       1.00800           0
     48505 W2       16169    TIP3     OH2      OT      -0.834000       15.9994           0
     48506 W2       16169    TIP3     H1       HT       0.417000       1.00800           0
     48507 W2       16169    TIP3     H2       HT       0.417000       1.00800           0
     48508 W2       16170    TIP3     OH2      OT      -0.834000       15.9994           0
     48509 W2       16170    TIP3     H1       HT       0.417000       1.00800           0
     48510 W2       16170    TIP3     H2       HT       0.417000       1.00800           0
     48511 W2       16171    TIP3     OH2      OT      -0.834000       15.9994           0
     48512 W2       16171    TIP3     H1       HT       0.417000       1.00800           0
     48513 W2       16171    TIP3     H2       HT       0.417000       1.00800           0
     48514 W2       16172    TIP3     OH2      OT      -0.834000       15.9994           0
     48515 W2       16172    TIP3     H1       HT       0.417000       1.00800           0
     48516 W2       16172    TIP3     H2       HT       0.417000       1.00800           0
     48517 W2       16173    TIP3     OH2      OT      -0.834000       15.9994           0
     48518 W2       16173    TIP3     H1       HT       0.417000       1.00800           0
     48519 W2       16173    TIP3     H2       HT       0.417000       1.00800           0
     48520 W2       16174    TIP3     OH2      OT      -0.834000       15.9994           0
     48521 W2       16174    TIP3     H1       HT       0.417000       1.00800           0
     48522 W2       16174    TIP3     H2       HT       0.417000       1.00800           0
     48523 W2       16175    TIP3     OH2      OT      -0.834000       15.9994           0
     48524 W2       16175    TIP3     H1       HT       0.417000       1.00800           0
     48525 W2       16175    TIP3     H2       HT       0.417000       1.00800           0
     48526 W2       16176    TIP3     OH2      OT      -0.834000       15.9994           0
     48527 W2       16176    TIP3     H1       HT       0.417000       1.00800           0
     48528 W2       16176    TIP3     H2       HT       0.417000       1.00800           0
     48529 W2       16177    TIP3     OH2      OT      -0.834000       15.9994           0
     48530 W2       16177    TIP3     H1       HT       0.417000       1.00800           0
     48531 W2       16177    TIP3     H2       HT       0.417000       1.00800           0
     48532 W2       16178    TIP3     OH2      OT      -0.834000       15.9994           0
     48533 W2       16178    TIP3     H1       HT       0.417000       1.00800           0
     48534 W2       16178    TIP3     H2       HT       0.417000       1.00800           0
     48535 W2       16179    TIP3     OH2      OT      -0.834000       15.9994           0
     48536 W2       16179    TIP3     H1       HT       0.417000       1.00800           0
     48537 W2       16179    TIP3     H2       HT       0.417000       1.00800           0
     48538 W2       16180    TIP3     OH2      OT      -0.834000       15.9994           0
     48539 W2       16180    TIP3     H1       HT       0.417000       1.00800           0
     48540 W2       16180    TIP3     H2       HT       0.417000       1.00800           0
     48541 W2       16181    TIP3     OH2      OT      -0.834000       15.9994           0
     48542 W2       16181    TIP3     H1       HT       0.417000       1.00800           0
     48543 W2       16181    TIP3     H2       HT       0.417000       1.00800           0
     48544 W2       16182    TIP3     OH2      OT      -0.834000       15.9994           0
     48545 W2       16182    TIP3     H1       HT       0.417000       1.00800           0
     48546 W2       16182    TIP3     H2       HT       0.417000       1.00800           0
     48547 W2       16183    TIP3     OH2      OT      -0.834000       15.9994           0
     48548 W2       16183    TIP3     H1       HT       0.417000       1.00800           0
     48549 W2       16183    TIP3     H2       HT       0.417000       1.00800           0
     48550 W2       16184    TIP3     OH2      OT      -0.834000       15.9994           0
     48551 W2       16184    TIP3     H1       HT       0.417000       1.00800           0
     48552 W2       16184    TIP3     H2       HT       0.417000       1.00800           0
     48553 W2       16185    TIP3     OH2      OT      -0.834000       15.9994           0
     48554 W2       16185    TIP3     H1       HT       0.417000       1.00800           0
     48555 W2       16185    TIP3     H2       HT       0.417000       1.00800           0
     48556 W2       16186    TIP3     OH2      OT      -0.834000       15.9994           0
     48557 W2       16186    TIP3     H1       HT       0.417000       1.00800           0
     48558 W2       16186    TIP3     H2       HT       0.417000       1.00800           0
     48559 W2       16187    TIP3     OH2      OT      -0.834000       15.9994           0
     48560 W2       16187    TIP3     H1       HT       0.417000       1.00800           0
     48561 W2       16187    TIP3     H2       HT       0.417000       1.00800           0
     48562 W2       16188    TIP3     OH2      OT      -0.834000       15.9994           0
     48563 W2       16188    TIP3     H1       HT       0.417000       1.00800           0
     48564 W2       16188    TIP3     H2       HT       0.417000       1.00800           0
     48565 W2       16189    TIP3     OH2      OT      -0.834000       15.9994           0
     48566 W2       16189    TIP3     H1       HT       0.417000       1.00800           0
     48567 W2       16189    TIP3     H2       HT       0.417000       1.00800           0
     48568 W2       16190    TIP3     OH2      OT      -0.834000       15.9994           0
     48569 W2       16190    TIP3     H1       HT       0.417000       1.00800           0
     48570 W2       16190    TIP3     H2       HT       0.417000       1.00800           0
     48571 W2       16191    TIP3     OH2      OT      -0.834000       15.9994           0
     48572 W2       16191    TIP3     H1       HT       0.417000       1.00800           0
     48573 W2       16191    TIP3     H2       HT       0.417000       1.00800           0
     48574 W2       16192    TIP3     OH2      OT      -0.834000       15.9994           0
     48575 W2       16192    TIP3     H1       HT       0.417000       1.00800           0
     48576 W2       16192    TIP3     H2       HT       0.417000       1.00800           0
     48577 W2       16193    TIP3     OH2      OT      -0.834000       15.9994           0
     48578 W2       16193    TIP3     H1       HT       0.417000       1.00800           0
     48579 W2       16193    TIP3     H2       HT       0.417000       1.00800           0
     48580 W2       16194    TIP3     OH2      OT      -0.834000       15.9994           0
     48581 W2       16194    TIP3     H1       HT       0.417000       1.00800           0
     48582 W2       16194    TIP3     H2       HT       0.417000       1.00800           0
     48583 W2       16195    TIP3     OH2      OT      -0.834000       15.9994           0
     48584 W2       16195    TIP3     H1       HT       0.417000       1.00800           0
     48585 W2       16195    TIP3     H2       HT       0.417000       1.00800           0
     48586 W2       16196    TIP3     OH2      OT      -0.834000       15.9994           0
     48587 W2       16196    TIP3     H1       HT       0.417000       1.00800           0
     48588 W2       16196    TIP3     H2       HT       0.417000       1.00800           0
     48589 W2       16197    TIP3     OH2      OT      -0.834000       15.9994           0
     48590 W2       16197    TIP3     H1       HT       0.417000       1.00800           0
     48591 W2       16197    TIP3     H2       HT       0.417000       1.00800           0
     48592 W2       16198    TIP3     OH2      OT      -0.834000       15.9994           0
     48593 W2       16198    TIP3     H1       HT       0.417000       1.00800           0
     48594 W2       16198    TIP3     H2       HT       0.417000       1.00800           0
     48595 W2       16199    TIP3     OH2      OT      -0.834000       15.9994           0
     48596 W2       16199    TIP3     H1       HT       0.417000       1.00800           0
     48597 W2       16199    TIP3     H2       HT       0.417000       1.00800           0
     48598 W2       16200    TIP3     OH2      OT      -0.834000       15.9994           0
     48599 W2       16200    TIP3     H1       HT       0.417000       1.00800           0
     48600 W2       16200    TIP3     H2       HT       0.417000       1.00800           0
     48601 W2       16201    TIP3     OH2      OT      -0.834000       15.9994           0
     48602 W2       16201    TIP3     H1       HT       0.417000       1.00800           0
     48603 W2       16201    TIP3     H2       HT       0.417000       1.00800           0
     48604 W2       16202    TIP3     OH2      OT      -0.834000       15.9994           0
     48605 W2       16202    TIP3     H1       HT       0.417000       1.00800           0
     48606 W2       16202    TIP3     H2       HT       0.417000       1.00800           0
     48607 W2       16203    TIP3     OH2      OT      -0.834000       15.9994           0
     48608 W2       16203    TIP3     H1       HT       0.417000       1.00800           0
     48609 W2       16203    TIP3     H2       HT       0.417000       1.00800           0
     48610 W2       16204    TIP3     OH2      OT      -0.834000       15.9994           0
     48611 W2       16204    TIP3     H1       HT       0.417000       1.00800           0
     48612 W2       16204    TIP3     H2       HT       0.417000       1.00800           0
     48613 W2       16205    TIP3     OH2      OT      -0.834000       15.9994           0
     48614 W2       16205    TIP3     H1       HT       0.417000       1.00800           0
     48615 W2       16205    TIP3     H2       HT       0.417000       1.00800           0
     48616 W2       16206    TIP3     OH2      OT      -0.834000       15.9994           0
     48617 W2       16206    TIP3     H1       HT       0.417000       1.00800           0
     48618 W2       16206    TIP3     H2       HT       0.417000       1.00800           0
     48619 W2       16207    TIP3     OH2      OT      -0.834000       15.9994           0
     48620 W2       16207    TIP3     H1       HT       0.417000       1.00800           0
     48621 W2       16207    TIP3     H2       HT       0.417000       1.00800           0
     48622 W2       16208    TIP3     OH2      OT      -0.834000       15.9994           0
     48623 W2       16208    TIP3     H1       HT       0.417000       1.00800           0
     48624 W2       16208    TIP3     H2       HT       0.417000       1.00800           0
     48625 W2       16209    TIP3     OH2      OT      -0.834000       15.9994           0
     48626 W2       16209    TIP3     H1       HT       0.417000       1.00800           0
     48627 W2       16209    TIP3     H2       HT       0.417000       1.00800           0
     48628 W2       16210    TIP3     OH2      OT      -0.834000       15.9994           0
     48629 W2       16210    TIP3     H1       HT       0.417000       1.00800           0
     48630 W2       16210    TIP3     H2       HT       0.417000       1.00800           0
     48631 W2       16211    TIP3     OH2      OT      -0.834000       15.9994           0
     48632 W2       16211    TIP3     H1       HT       0.417000       1.00800           0
     48633 W2       16211    TIP3     H2       HT       0.417000       1.00800           0
     48634 W2       16212    TIP3     OH2      OT      -0.834000       15.9994           0
     48635 W2       16212    TIP3     H1       HT       0.417000       1.00800           0
     48636 W2       16212    TIP3     H2       HT       0.417000       1.00800           0
     48637 W2       16213    TIP3     OH2      OT      -0.834000       15.9994           0
     48638 W2       16213    TIP3     H1       HT       0.417000       1.00800           0
     48639 W2       16213    TIP3     H2       HT       0.417000       1.00800           0
     48640 W2       16214    TIP3     OH2      OT      -0.834000       15.9994           0
     48641 W2       16214    TIP3     H1       HT       0.417000       1.00800           0
     48642 W2       16214    TIP3     H2       HT       0.417000       1.00800           0
     48643 W2       16215    TIP3     OH2      OT      -0.834000       15.9994           0
     48644 W2       16215    TIP3     H1       HT       0.417000       1.00800           0
     48645 W2       16215    TIP3     H2       HT       0.417000       1.00800           0
     48646 W2       16216    TIP3     OH2      OT      -0.834000       15.9994           0
     48647 W2       16216    TIP3     H1       HT       0.417000       1.00800           0
     48648 W2       16216    TIP3     H2       HT       0.417000       1.00800           0
     48649 W2       16217    TIP3     OH2      OT      -0.834000       15.9994           0
     48650 W2       16217    TIP3     H1       HT       0.417000       1.00800           0
     48651 W2       16217    TIP3     H2       HT       0.417000       1.00800           0
     48652 W2       16218    TIP3     OH2      OT      -0.834000       15.9994           0
     48653 W2       16218    TIP3     H1       HT       0.417000       1.00800           0
     48654 W2       16218    TIP3     H2       HT       0.417000       1.00800           0
     48655 W2       16219    TIP3     OH2      OT      -0.834000       15.9994           0
     48656 W2       16219    TIP3     H1       HT       0.417000       1.00800           0
     48657 W2       16219    TIP3     H2       HT       0.417000       1.00800           0
     48658 W2       16220    TIP3     OH2      OT      -0.834000       15.9994           0
     48659 W2       16220    TIP3     H1       HT       0.417000       1.00800           0
     48660 W2       16220    TIP3     H2       HT       0.417000       1.00800           0
     48661 W2       16221    TIP3     OH2      OT      -0.834000       15.9994           0
     48662 W2       16221    TIP3     H1       HT       0.417000       1.00800           0
     48663 W2       16221    TIP3     H2       HT       0.417000       1.00800           0
     48664 W2       16222    TIP3     OH2      OT      -0.834000       15.9994           0
     48665 W2       16222    TIP3     H1       HT       0.417000       1.00800           0
     48666 W2       16222    TIP3     H2       HT       0.417000       1.00800           0
     48667 W2       16223    TIP3     OH2      OT      -0.834000       15.9994           0
     48668 W2       16223    TIP3     H1       HT       0.417000       1.00800           0
     48669 W2       16223    TIP3     H2       HT       0.417000       1.00800           0
     48670 W2       16224    TIP3     OH2      OT      -0.834000       15.9994           0
     48671 W2       16224    TIP3     H1       HT       0.417000       1.00800           0
     48672 W2       16224    TIP3     H2       HT       0.417000       1.00800           0
     48673 W2       16225    TIP3     OH2      OT      -0.834000       15.9994           0
     48674 W2       16225    TIP3     H1       HT       0.417000       1.00800           0
     48675 W2       16225    TIP3     H2       HT       0.417000       1.00800           0
     48676 W2       16226    TIP3     OH2      OT      -0.834000       15.9994           0
     48677 W2       16226    TIP3     H1       HT       0.417000       1.00800           0
     48678 W2       16226    TIP3     H2       HT       0.417000       1.00800           0
     48679 W2       16227    TIP3     OH2      OT      -0.834000       15.9994           0
     48680 W2       16227    TIP3     H1       HT       0.417000       1.00800           0
     48681 W2       16227    TIP3     H2       HT       0.417000       1.00800           0
     48682 W2       16228    TIP3     OH2      OT      -0.834000       15.9994           0
     48683 W2       16228    TIP3     H1       HT       0.417000       1.00800           0
     48684 W2       16228    TIP3     H2       HT       0.417000       1.00800           0
     48685 W2       16229    TIP3     OH2      OT      -0.834000       15.9994           0
     48686 W2       16229    TIP3     H1       HT       0.417000       1.00800           0
     48687 W2       16229    TIP3     H2       HT       0.417000       1.00800           0
     48688 W2       16230    TIP3     OH2      OT      -0.834000       15.9994           0
     48689 W2       16230    TIP3     H1       HT       0.417000       1.00800           0
     48690 W2       16230    TIP3     H2       HT       0.417000       1.00800           0
     48691 W2       16231    TIP3     OH2      OT      -0.834000       15.9994           0
     48692 W2       16231    TIP3     H1       HT       0.417000       1.00800           0
     48693 W2       16231    TIP3     H2       HT       0.417000       1.00800           0
     48694 W2       16232    TIP3     OH2      OT      -0.834000       15.9994           0
     48695 W2       16232    TIP3     H1       HT       0.417000       1.00800           0
     48696 W2       16232    TIP3     H2       HT       0.417000       1.00800           0
     48697 W2       16233    TIP3     OH2      OT      -0.834000       15.9994           0
     48698 W2       16233    TIP3     H1       HT       0.417000       1.00800           0
     48699 W2       16233    TIP3     H2       HT       0.417000       1.00800           0
     48700 W2       16234    TIP3     OH2      OT      -0.834000       15.9994           0
     48701 W2       16234    TIP3     H1       HT       0.417000       1.00800           0
     48702 W2       16234    TIP3     H2       HT       0.417000       1.00800           0
     48703 W2       16235    TIP3     OH2      OT      -0.834000       15.9994           0
     48704 W2       16235    TIP3     H1       HT       0.417000       1.00800           0
     48705 W2       16235    TIP3     H2       HT       0.417000       1.00800           0
     48706 W2       16236    TIP3     OH2      OT      -0.834000       15.9994           0
     48707 W2       16236    TIP3     H1       HT       0.417000       1.00800           0
     48708 W2       16236    TIP3     H2       HT       0.417000       1.00800           0
     48709 W2       16237    TIP3     OH2      OT      -0.834000       15.9994           0
     48710 W2       16237    TIP3     H1       HT       0.417000       1.00800           0
     48711 W2       16237    TIP3     H2       HT       0.417000       1.00800           0
     48712 W2       16238    TIP3     OH2      OT      -0.834000       15.9994           0
     48713 W2       16238    TIP3     H1       HT       0.417000       1.00800           0
     48714 W2       16238    TIP3     H2       HT       0.417000       1.00800           0
     48715 W2       16239    TIP3     OH2      OT      -0.834000       15.9994           0
     48716 W2       16239    TIP3     H1       HT       0.417000       1.00800           0
     48717 W2       16239    TIP3     H2       HT       0.417000       1.00800           0
     48718 W2       16240    TIP3     OH2      OT      -0.834000       15.9994           0
     48719 W2       16240    TIP3     H1       HT       0.417000       1.00800           0
     48720 W2       16240    TIP3     H2       HT       0.417000       1.00800           0
     48721 W2       16241    TIP3     OH2      OT      -0.834000       15.9994           0
     48722 W2       16241    TIP3     H1       HT       0.417000       1.00800           0
     48723 W2       16241    TIP3     H2       HT       0.417000       1.00800           0
     48724 W2       16242    TIP3     OH2      OT      -0.834000       15.9994           0
     48725 W2       16242    TIP3     H1       HT       0.417000       1.00800           0
     48726 W2       16242    TIP3     H2       HT       0.417000       1.00800           0
     48727 W2       16243    TIP3     OH2      OT      -0.834000       15.9994           0
     48728 W2       16243    TIP3     H1       HT       0.417000       1.00800           0
     48729 W2       16243    TIP3     H2       HT       0.417000       1.00800           0
     48730 W2       16244    TIP3     OH2      OT      -0.834000       15.9994           0
     48731 W2       16244    TIP3     H1       HT       0.417000       1.00800           0
     48732 W2       16244    TIP3     H2       HT       0.417000       1.00800           0
     48733 W2       16245    TIP3     OH2      OT      -0.834000       15.9994           0
     48734 W2       16245    TIP3     H1       HT       0.417000       1.00800           0
     48735 W2       16245    TIP3     H2       HT       0.417000       1.00800           0
     48736 W2       16246    TIP3     OH2      OT      -0.834000       15.9994           0
     48737 W2       16246    TIP3     H1       HT       0.417000       1.00800           0
     48738 W2       16246    TIP3     H2       HT       0.417000       1.00800           0
     48739 W2       16247    TIP3     OH2      OT      -0.834000       15.9994           0
     48740 W2       16247    TIP3     H1       HT       0.417000       1.00800           0
     48741 W2       16247    TIP3     H2       HT       0.417000       1.00800           0
     48742 W2       16248    TIP3     OH2      OT      -0.834000       15.9994           0
     48743 W2       16248    TIP3     H1       HT       0.417000       1.00800           0
     48744 W2       16248    TIP3     H2       HT       0.417000       1.00800           0
     48745 W2       16249    TIP3     OH2      OT      -0.834000       15.9994           0
     48746 W2       16249    TIP3     H1       HT       0.417000       1.00800           0
     48747 W2       16249    TIP3     H2       HT       0.417000       1.00800           0
     48748 W2       16250    TIP3     OH2      OT      -0.834000       15.9994           0
     48749 W2       16250    TIP3     H1       HT       0.417000       1.00800           0
     48750 W2       16250    TIP3     H2       HT       0.417000       1.00800           0
     48751 W2       16251    TIP3     OH2      OT      -0.834000       15.9994           0
     48752 W2       16251    TIP3     H1       HT       0.417000       1.00800           0
     48753 W2       16251    TIP3     H2       HT       0.417000       1.00800           0
     48754 W2       16252    TIP3     OH2      OT      -0.834000       15.9994           0
     48755 W2       16252    TIP3     H1       HT       0.417000       1.00800           0
     48756 W2       16252    TIP3     H2       HT       0.417000       1.00800           0
     48757 W2       16253    TIP3     OH2      OT      -0.834000       15.9994           0
     48758 W2       16253    TIP3     H1       HT       0.417000       1.00800           0
     48759 W2       16253    TIP3     H2       HT       0.417000       1.00800           0
     48760 W2       16254    TIP3     OH2      OT      -0.834000       15.9994           0
     48761 W2       16254    TIP3     H1       HT       0.417000       1.00800           0
     48762 W2       16254    TIP3     H2       HT       0.417000       1.00800           0
     48763 W2       16255    TIP3     OH2      OT      -0.834000       15.9994           0
     48764 W2       16255    TIP3     H1       HT       0.417000       1.00800           0
     48765 W2       16255    TIP3     H2       HT       0.417000       1.00800           0
     48766 W2       16256    TIP3     OH2      OT      -0.834000       15.9994           0
     48767 W2       16256    TIP3     H1       HT       0.417000       1.00800           0
     48768 W2       16256    TIP3     H2       HT       0.417000       1.00800           0
     48769 W2       16257    TIP3     OH2      OT      -0.834000       15.9994           0
     48770 W2       16257    TIP3     H1       HT       0.417000       1.00800           0
     48771 W2       16257    TIP3     H2       HT       0.417000       1.00800           0
     48772 W2       16258    TIP3     OH2      OT      -0.834000       15.9994           0
     48773 W2       16258    TIP3     H1       HT       0.417000       1.00800           0
     48774 W2       16258    TIP3     H2       HT       0.417000       1.00800           0
     48775 W2       16259    TIP3     OH2      OT      -0.834000       15.9994           0
     48776 W2       16259    TIP3     H1       HT       0.417000       1.00800           0
     48777 W2       16259    TIP3     H2       HT       0.417000       1.00800           0
     48778 W2       16260    TIP3     OH2      OT      -0.834000       15.9994           0
     48779 W2       16260    TIP3     H1       HT       0.417000       1.00800           0
     48780 W2       16260    TIP3     H2       HT       0.417000       1.00800           0
     48781 W2       16261    TIP3     OH2      OT      -0.834000       15.9994           0
     48782 W2       16261    TIP3     H1       HT       0.417000       1.00800           0
     48783 W2       16261    TIP3     H2       HT       0.417000       1.00800           0
     48784 W2       16262    TIP3     OH2      OT      -0.834000       15.9994           0
     48785 W2       16262    TIP3     H1       HT       0.417000       1.00800           0
     48786 W2       16262    TIP3     H2       HT       0.417000       1.00800           0
     48787 W2       16263    TIP3     OH2      OT      -0.834000       15.9994           0
     48788 W2       16263    TIP3     H1       HT       0.417000       1.00800           0
     48789 W2       16263    TIP3     H2       HT       0.417000       1.00800           0
     48790 W2       16264    TIP3     OH2      OT      -0.834000       15.9994           0
     48791 W2       16264    TIP3     H1       HT       0.417000       1.00800           0
     48792 W2       16264    TIP3     H2       HT       0.417000       1.00800           0
     48793 W2       16265    TIP3     OH2      OT      -0.834000       15.9994           0
     48794 W2       16265    TIP3     H1       HT       0.417000       1.00800           0
     48795 W2       16265    TIP3     H2       HT       0.417000       1.00800           0
     48796 W2       16266    TIP3     OH2      OT      -0.834000       15.9994           0
     48797 W2       16266    TIP3     H1       HT       0.417000       1.00800           0
     48798 W2       16266    TIP3     H2       HT       0.417000       1.00800           0
     48799 W2       16267    TIP3     OH2      OT      -0.834000       15.9994           0
     48800 W2       16267    TIP3     H1       HT       0.417000       1.00800           0
     48801 W2       16267    TIP3     H2       HT       0.417000       1.00800           0
     48802 W2       16268    TIP3     OH2      OT      -0.834000       15.9994           0
     48803 W2       16268    TIP3     H1       HT       0.417000       1.00800           0
     48804 W2       16268    TIP3     H2       HT       0.417000       1.00800           0
     48805 W2       16269    TIP3     OH2      OT      -0.834000       15.9994           0
     48806 W2       16269    TIP3     H1       HT       0.417000       1.00800           0
     48807 W2       16269    TIP3     H2       HT       0.417000       1.00800           0
     48808 W2       16270    TIP3     OH2      OT      -0.834000       15.9994           0
     48809 W2       16270    TIP3     H1       HT       0.417000       1.00800           0
     48810 W2       16270    TIP3     H2       HT       0.417000       1.00800           0
     48811 W2       16271    TIP3     OH2      OT      -0.834000       15.9994           0
     48812 W2       16271    TIP3     H1       HT       0.417000       1.00800           0
     48813 W2       16271    TIP3     H2       HT       0.417000       1.00800           0
     48814 W2       16272    TIP3     OH2      OT      -0.834000       15.9994           0
     48815 W2       16272    TIP3     H1       HT       0.417000       1.00800           0
     48816 W2       16272    TIP3     H2       HT       0.417000       1.00800           0
     48817 W2       16273    TIP3     OH2      OT      -0.834000       15.9994           0
     48818 W2       16273    TIP3     H1       HT       0.417000       1.00800           0
     48819 W2       16273    TIP3     H2       HT       0.417000       1.00800           0
     48820 W2       16274    TIP3     OH2      OT      -0.834000       15.9994           0
     48821 W2       16274    TIP3     H1       HT       0.417000       1.00800           0
     48822 W2       16274    TIP3     H2       HT       0.417000       1.00800           0
     48823 W2       16275    TIP3     OH2      OT      -0.834000       15.9994           0
     48824 W2       16275    TIP3     H1       HT       0.417000       1.00800           0
     48825 W2       16275    TIP3     H2       HT       0.417000       1.00800           0
     48826 W2       16276    TIP3     OH2      OT      -0.834000       15.9994           0
     48827 W2       16276    TIP3     H1       HT       0.417000       1.00800           0
     48828 W2       16276    TIP3     H2       HT       0.417000       1.00800           0
     48829 W2       16277    TIP3     OH2      OT      -0.834000       15.9994           0
     48830 W2       16277    TIP3     H1       HT       0.417000       1.00800           0
     48831 W2       16277    TIP3     H2       HT       0.417000       1.00800           0
     48832 W2       16278    TIP3     OH2      OT      -0.834000       15.9994           0
     48833 W2       16278    TIP3     H1       HT       0.417000       1.00800           0
     48834 W2       16278    TIP3     H2       HT       0.417000       1.00800           0
     48835 W2       16279    TIP3     OH2      OT      -0.834000       15.9994           0
     48836 W2       16279    TIP3     H1       HT       0.417000       1.00800           0
     48837 W2       16279    TIP3     H2       HT       0.417000       1.00800           0
     48838 W2       16280    TIP3     OH2      OT      -0.834000       15.9994           0
     48839 W2       16280    TIP3     H1       HT       0.417000       1.00800           0
     48840 W2       16280    TIP3     H2       HT       0.417000       1.00800           0
     48841 W2       16281    TIP3     OH2      OT      -0.834000       15.9994           0
     48842 W2       16281    TIP3     H1       HT       0.417000       1.00800           0
     48843 W2       16281    TIP3     H2       HT       0.417000       1.00800           0
     48844 W2       16282    TIP3     OH2      OT      -0.834000       15.9994           0
     48845 W2       16282    TIP3     H1       HT       0.417000       1.00800           0
     48846 W2       16282    TIP3     H2       HT       0.417000       1.00800           0
     48847 W2       16283    TIP3     OH2      OT      -0.834000       15.9994           0
     48848 W2       16283    TIP3     H1       HT       0.417000       1.00800           0
     48849 W2       16283    TIP3     H2       HT       0.417000       1.00800           0
     48850 W2       16284    TIP3     OH2      OT      -0.834000       15.9994           0
     48851 W2       16284    TIP3     H1       HT       0.417000       1.00800           0
     48852 W2       16284    TIP3     H2       HT       0.417000       1.00800           0
     48853 W2       16285    TIP3     OH2      OT      -0.834000       15.9994           0
     48854 W2       16285    TIP3     H1       HT       0.417000       1.00800           0
     48855 W2       16285    TIP3     H2       HT       0.417000       1.00800           0
     48856 W2       16286    TIP3     OH2      OT      -0.834000       15.9994           0
     48857 W2       16286    TIP3     H1       HT       0.417000       1.00800           0
     48858 W2       16286    TIP3     H2       HT       0.417000       1.00800           0
     48859 W2       16287    TIP3     OH2      OT      -0.834000       15.9994           0
     48860 W2       16287    TIP3     H1       HT       0.417000       1.00800           0
     48861 W2       16287    TIP3     H2       HT       0.417000       1.00800           0
     48862 W2       16288    TIP3     OH2      OT      -0.834000       15.9994           0
     48863 W2       16288    TIP3     H1       HT       0.417000       1.00800           0
     48864 W2       16288    TIP3     H2       HT       0.417000       1.00800           0
     48865 W2       16289    TIP3     OH2      OT      -0.834000       15.9994           0
     48866 W2       16289    TIP3     H1       HT       0.417000       1.00800           0
     48867 W2       16289    TIP3     H2       HT       0.417000       1.00800           0
     48868 W2       16290    TIP3     OH2      OT      -0.834000       15.9994           0
     48869 W2       16290    TIP3     H1       HT       0.417000       1.00800           0
     48870 W2       16290    TIP3     H2       HT       0.417000       1.00800           0
     48871 W2       16291    TIP3     OH2      OT      -0.834000       15.9994           0
     48872 W2       16291    TIP3     H1       HT       0.417000       1.00800           0
     48873 W2       16291    TIP3     H2       HT       0.417000       1.00800           0
     48874 W2       16292    TIP3     OH2      OT      -0.834000       15.9994           0
     48875 W2       16292    TIP3     H1       HT       0.417000       1.00800           0
     48876 W2       16292    TIP3     H2       HT       0.417000       1.00800           0
     48877 W2       16293    TIP3     OH2      OT      -0.834000       15.9994           0
     48878 W2       16293    TIP3     H1       HT       0.417000       1.00800           0
     48879 W2       16293    TIP3     H2       HT       0.417000       1.00800           0
     48880 W2       16294    TIP3     OH2      OT      -0.834000       15.9994           0
     48881 W2       16294    TIP3     H1       HT       0.417000       1.00800           0
     48882 W2       16294    TIP3     H2       HT       0.417000       1.00800           0
     48883 W2       16295    TIP3     OH2      OT      -0.834000       15.9994           0
     48884 W2       16295    TIP3     H1       HT       0.417000       1.00800           0
     48885 W2       16295    TIP3     H2       HT       0.417000       1.00800           0
     48886 W2       16296    TIP3     OH2      OT      -0.834000       15.9994           0
     48887 W2       16296    TIP3     H1       HT       0.417000       1.00800           0
     48888 W2       16296    TIP3     H2       HT       0.417000       1.00800           0
     48889 W2       16297    TIP3     OH2      OT      -0.834000       15.9994           0
     48890 W2       16297    TIP3     H1       HT       0.417000       1.00800           0
     48891 W2       16297    TIP3     H2       HT       0.417000       1.00800           0
     48892 W2       16298    TIP3     OH2      OT      -0.834000       15.9994           0
     48893 W2       16298    TIP3     H1       HT       0.417000       1.00800           0
     48894 W2       16298    TIP3     H2       HT       0.417000       1.00800           0
     48895 W2       16299    TIP3     OH2      OT      -0.834000       15.9994           0
     48896 W2       16299    TIP3     H1       HT       0.417000       1.00800           0
     48897 W2       16299    TIP3     H2       HT       0.417000       1.00800           0
     48898 W2       16300    TIP3     OH2      OT      -0.834000       15.9994           0
     48899 W2       16300    TIP3     H1       HT       0.417000       1.00800           0
     48900 W2       16300    TIP3     H2       HT       0.417000       1.00800           0
     48901 W2       16301    TIP3     OH2      OT      -0.834000       15.9994           0
     48902 W2       16301    TIP3     H1       HT       0.417000       1.00800           0
     48903 W2       16301    TIP3     H2       HT       0.417000       1.00800           0
     48904 W2       16302    TIP3     OH2      OT      -0.834000       15.9994           0
     48905 W2       16302    TIP3     H1       HT       0.417000       1.00800           0
     48906 W2       16302    TIP3     H2       HT       0.417000       1.00800           0
     48907 W2       16303    TIP3     OH2      OT      -0.834000       15.9994           0
     48908 W2       16303    TIP3     H1       HT       0.417000       1.00800           0
     48909 W2       16303    TIP3     H2       HT       0.417000       1.00800           0
     48910 W2       16304    TIP3     OH2      OT      -0.834000       15.9994           0
     48911 W2       16304    TIP3     H1       HT       0.417000       1.00800           0
     48912 W2       16304    TIP3     H2       HT       0.417000       1.00800           0
     48913 W2       16305    TIP3     OH2      OT      -0.834000       15.9994           0
     48914 W2       16305    TIP3     H1       HT       0.417000       1.00800           0
     48915 W2       16305    TIP3     H2       HT       0.417000       1.00800           0
     48916 W2       16306    TIP3     OH2      OT      -0.834000       15.9994           0
     48917 W2       16306    TIP3     H1       HT       0.417000       1.00800           0
     48918 W2       16306    TIP3     H2       HT       0.417000       1.00800           0
     48919 W2       16307    TIP3     OH2      OT      -0.834000       15.9994           0
     48920 W2       16307    TIP3     H1       HT       0.417000       1.00800           0
     48921 W2       16307    TIP3     H2       HT       0.417000       1.00800           0
     48922 W2       16308    TIP3     OH2      OT      -0.834000       15.9994           0
     48923 W2       16308    TIP3     H1       HT       0.417000       1.00800           0
     48924 W2       16308    TIP3     H2       HT       0.417000       1.00800           0
     48925 W2       16309    TIP3     OH2      OT      -0.834000       15.9994           0
     48926 W2       16309    TIP3     H1       HT       0.417000       1.00800           0
     48927 W2       16309    TIP3     H2       HT       0.417000       1.00800           0
     48928 W2       16310    TIP3     OH2      OT      -0.834000       15.9994           0
     48929 W2       16310    TIP3     H1       HT       0.417000       1.00800           0
     48930 W2       16310    TIP3     H2       HT       0.417000       1.00800           0
     48931 W2       16311    TIP3     OH2      OT      -0.834000       15.9994           0
     48932 W2       16311    TIP3     H1       HT       0.417000       1.00800           0
     48933 W2       16311    TIP3     H2       HT       0.417000       1.00800           0
     48934 W2       16312    TIP3     OH2      OT      -0.834000       15.9994           0
     48935 W2       16312    TIP3     H1       HT       0.417000       1.00800           0
     48936 W2       16312    TIP3     H2       HT       0.417000       1.00800           0
     48937 W2       16313    TIP3     OH2      OT      -0.834000       15.9994           0
     48938 W2       16313    TIP3     H1       HT       0.417000       1.00800           0
     48939 W2       16313    TIP3     H2       HT       0.417000       1.00800           0
     48940 W2       16314    TIP3     OH2      OT      -0.834000       15.9994           0
     48941 W2       16314    TIP3     H1       HT       0.417000       1.00800           0
     48942 W2       16314    TIP3     H2       HT       0.417000       1.00800           0
     48943 W2       16315    TIP3     OH2      OT      -0.834000       15.9994           0
     48944 W2       16315    TIP3     H1       HT       0.417000       1.00800           0
     48945 W2       16315    TIP3     H2       HT       0.417000       1.00800           0
     48946 W2       16316    TIP3     OH2      OT      -0.834000       15.9994           0
     48947 W2       16316    TIP3     H1       HT       0.417000       1.00800           0
     48948 W2       16316    TIP3     H2       HT       0.417000       1.00800           0
     48949 W2       16317    TIP3     OH2      OT      -0.834000       15.9994           0
     48950 W2       16317    TIP3     H1       HT       0.417000       1.00800           0
     48951 W2       16317    TIP3     H2       HT       0.417000       1.00800           0
     48952 W2       16318    TIP3     OH2      OT      -0.834000       15.9994           0
     48953 W2       16318    TIP3     H1       HT       0.417000       1.00800           0
     48954 W2       16318    TIP3     H2       HT       0.417000       1.00800           0
     48955 W2       16319    TIP3     OH2      OT      -0.834000       15.9994           0
     48956 W2       16319    TIP3     H1       HT       0.417000       1.00800           0
     48957 W2       16319    TIP3     H2       HT       0.417000       1.00800           0
     48958 W2       16320    TIP3     OH2      OT      -0.834000       15.9994           0
     48959 W2       16320    TIP3     H1       HT       0.417000       1.00800           0
     48960 W2       16320    TIP3     H2       HT       0.417000       1.00800           0
     48961 W2       16321    TIP3     OH2      OT      -0.834000       15.9994           0
     48962 W2       16321    TIP3     H1       HT       0.417000       1.00800           0
     48963 W2       16321    TIP3     H2       HT       0.417000       1.00800           0
     48964 W2       16322    TIP3     OH2      OT      -0.834000       15.9994           0
     48965 W2       16322    TIP3     H1       HT       0.417000       1.00800           0
     48966 W2       16322    TIP3     H2       HT       0.417000       1.00800           0
     48967 W2       16323    TIP3     OH2      OT      -0.834000       15.9994           0
     48968 W2       16323    TIP3     H1       HT       0.417000       1.00800           0
     48969 W2       16323    TIP3     H2       HT       0.417000       1.00800           0
     48970 W2       16324    TIP3     OH2      OT      -0.834000       15.9994           0
     48971 W2       16324    TIP3     H1       HT       0.417000       1.00800           0
     48972 W2       16324    TIP3     H2       HT       0.417000       1.00800           0
     48973 W2       16325    TIP3     OH2      OT      -0.834000       15.9994           0
     48974 W2       16325    TIP3     H1       HT       0.417000       1.00800           0
     48975 W2       16325    TIP3     H2       HT       0.417000       1.00800           0
     48976 W2       16326    TIP3     OH2      OT      -0.834000       15.9994           0
     48977 W2       16326    TIP3     H1       HT       0.417000       1.00800           0
     48978 W2       16326    TIP3     H2       HT       0.417000       1.00800           0
     48979 W2       16327    TIP3     OH2      OT      -0.834000       15.9994           0
     48980 W2       16327    TIP3     H1       HT       0.417000       1.00800           0
     48981 W2       16327    TIP3     H2       HT       0.417000       1.00800           0
     48982 W2       16328    TIP3     OH2      OT      -0.834000       15.9994           0
     48983 W2       16328    TIP3     H1       HT       0.417000       1.00800           0
     48984 W2       16328    TIP3     H2       HT       0.417000       1.00800           0
     48985 W2       16329    TIP3     OH2      OT      -0.834000       15.9994           0
     48986 W2       16329    TIP3     H1       HT       0.417000       1.00800           0
     48987 W2       16329    TIP3     H2       HT       0.417000       1.00800           0
     48988 W2       16330    TIP3     OH2      OT      -0.834000       15.9994           0
     48989 W2       16330    TIP3     H1       HT       0.417000       1.00800           0
     48990 W2       16330    TIP3     H2       HT       0.417000       1.00800           0
     48991 W2       16331    TIP3     OH2      OT      -0.834000       15.9994           0
     48992 W2       16331    TIP3     H1       HT       0.417000       1.00800           0
     48993 W2       16331    TIP3     H2       HT       0.417000       1.00800           0
     48994 W2       16332    TIP3     OH2      OT      -0.834000       15.9994           0
     48995 W2       16332    TIP3     H1       HT       0.417000       1.00800           0
     48996 W2       16332    TIP3     H2       HT       0.417000       1.00800           0
     48997 W2       16333    TIP3     OH2      OT      -0.834000       15.9994           0
     48998 W2       16333    TIP3     H1       HT       0.417000       1.00800           0
     48999 W2       16333    TIP3     H2       HT       0.417000       1.00800           0
     49000 W2       16334    TIP3     OH2      OT      -0.834000       15.9994           0
     49001 W2       16334    TIP3     H1       HT       0.417000       1.00800           0
     49002 W2       16334    TIP3     H2       HT       0.417000       1.00800           0
     49003 W2       16335    TIP3     OH2      OT      -0.834000       15.9994           0
     49004 W2       16335    TIP3     H1       HT       0.417000       1.00800           0
     49005 W2       16335    TIP3     H2       HT       0.417000       1.00800           0
     49006 W2       16336    TIP3     OH2      OT      -0.834000       15.9994           0
     49007 W2       16336    TIP3     H1       HT       0.417000       1.00800           0
     49008 W2       16336    TIP3     H2       HT       0.417000       1.00800           0
     49009 W2       16337    TIP3     OH2      OT      -0.834000       15.9994           0
     49010 W2       16337    TIP3     H1       HT       0.417000       1.00800           0
     49011 W2       16337    TIP3     H2       HT       0.417000       1.00800           0
     49012 W2       16338    TIP3     OH2      OT      -0.834000       15.9994           0
     49013 W2       16338    TIP3     H1       HT       0.417000       1.00800           0
     49014 W2       16338    TIP3     H2       HT       0.417000       1.00800           0
     49015 W2       16339    TIP3     OH2      OT      -0.834000       15.9994           0
     49016 W2       16339    TIP3     H1       HT       0.417000       1.00800           0
     49017 W2       16339    TIP3     H2       HT       0.417000       1.00800           0
     49018 W2       16340    TIP3     OH2      OT      -0.834000       15.9994           0
     49019 W2       16340    TIP3     H1       HT       0.417000       1.00800           0
     49020 W2       16340    TIP3     H2       HT       0.417000       1.00800           0
     49021 W2       16341    TIP3     OH2      OT      -0.834000       15.9994           0
     49022 W2       16341    TIP3     H1       HT       0.417000       1.00800           0
     49023 W2       16341    TIP3     H2       HT       0.417000       1.00800           0
     49024 W2       16342    TIP3     OH2      OT      -0.834000       15.9994           0
     49025 W2       16342    TIP3     H1       HT       0.417000       1.00800           0
     49026 W2       16342    TIP3     H2       HT       0.417000       1.00800           0
     49027 W2       16343    TIP3     OH2      OT      -0.834000       15.9994           0
     49028 W2       16343    TIP3     H1       HT       0.417000       1.00800           0
     49029 W2       16343    TIP3     H2       HT       0.417000       1.00800           0
     49030 W2       16344    TIP3     OH2      OT      -0.834000       15.9994           0
     49031 W2       16344    TIP3     H1       HT       0.417000       1.00800           0
     49032 W2       16344    TIP3     H2       HT       0.417000       1.00800           0
     49033 W2       16345    TIP3     OH2      OT      -0.834000       15.9994           0
     49034 W2       16345    TIP3     H1       HT       0.417000       1.00800           0
     49035 W2       16345    TIP3     H2       HT       0.417000       1.00800           0
     49036 W2       16346    TIP3     OH2      OT      -0.834000       15.9994           0
     49037 W2       16346    TIP3     H1       HT       0.417000       1.00800           0
     49038 W2       16346    TIP3     H2       HT       0.417000       1.00800           0
     49039 W2       16347    TIP3     OH2      OT      -0.834000       15.9994           0
     49040 W2       16347    TIP3     H1       HT       0.417000       1.00800           0
     49041 W2       16347    TIP3     H2       HT       0.417000       1.00800           0
     49042 W2       16348    TIP3     OH2      OT      -0.834000       15.9994           0
     49043 W2       16348    TIP3     H1       HT       0.417000       1.00800           0
     49044 W2       16348    TIP3     H2       HT       0.417000       1.00800           0
     49045 W2       16349    TIP3     OH2      OT      -0.834000       15.9994           0
     49046 W2       16349    TIP3     H1       HT       0.417000       1.00800           0
     49047 W2       16349    TIP3     H2       HT       0.417000       1.00800           0
     49048 W2       16350    TIP3     OH2      OT      -0.834000       15.9994           0
     49049 W2       16350    TIP3     H1       HT       0.417000       1.00800           0
     49050 W2       16350    TIP3     H2       HT       0.417000       1.00800           0
     49051 W2       16351    TIP3     OH2      OT      -0.834000       15.9994           0
     49052 W2       16351    TIP3     H1       HT       0.417000       1.00800           0
     49053 W2       16351    TIP3     H2       HT       0.417000       1.00800           0
     49054 W2       16352    TIP3     OH2      OT      -0.834000       15.9994           0
     49055 W2       16352    TIP3     H1       HT       0.417000       1.00800           0
     49056 W2       16352    TIP3     H2       HT       0.417000       1.00800           0
     49057 W2       16353    TIP3     OH2      OT      -0.834000       15.9994           0
     49058 W2       16353    TIP3     H1       HT       0.417000       1.00800           0
     49059 W2       16353    TIP3     H2       HT       0.417000       1.00800           0
     49060 W2       16354    TIP3     OH2      OT      -0.834000       15.9994           0
     49061 W2       16354    TIP3     H1       HT       0.417000       1.00800           0
     49062 W2       16354    TIP3     H2       HT       0.417000       1.00800           0
     49063 W2       16355    TIP3     OH2      OT      -0.834000       15.9994           0
     49064 W2       16355    TIP3     H1       HT       0.417000       1.00800           0
     49065 W2       16355    TIP3     H2       HT       0.417000       1.00800           0
     49066 W2       16356    TIP3     OH2      OT      -0.834000       15.9994           0
     49067 W2       16356    TIP3     H1       HT       0.417000       1.00800           0
     49068 W2       16356    TIP3     H2       HT       0.417000       1.00800           0
     49069 W2       16357    TIP3     OH2      OT      -0.834000       15.9994           0
     49070 W2       16357    TIP3     H1       HT       0.417000       1.00800           0
     49071 W2       16357    TIP3     H2       HT       0.417000       1.00800           0
     49072 W2       16358    TIP3     OH2      OT      -0.834000       15.9994           0
     49073 W2       16358    TIP3     H1       HT       0.417000       1.00800           0
     49074 W2       16358    TIP3     H2       HT       0.417000       1.00800           0
     49075 W2       16359    TIP3     OH2      OT      -0.834000       15.9994           0
     49076 W2       16359    TIP3     H1       HT       0.417000       1.00800           0
     49077 W2       16359    TIP3     H2       HT       0.417000       1.00800           0
     49078 W2       16360    TIP3     OH2      OT      -0.834000       15.9994           0
     49079 W2       16360    TIP3     H1       HT       0.417000       1.00800           0
     49080 W2       16360    TIP3     H2       HT       0.417000       1.00800           0
     49081 W2       16361    TIP3     OH2      OT      -0.834000       15.9994           0
     49082 W2       16361    TIP3     H1       HT       0.417000       1.00800           0
     49083 W2       16361    TIP3     H2       HT       0.417000       1.00800           0
     49084 W2       16362    TIP3     OH2      OT      -0.834000       15.9994           0
     49085 W2       16362    TIP3     H1       HT       0.417000       1.00800           0
     49086 W2       16362    TIP3     H2       HT       0.417000       1.00800           0
     49087 W2       16363    TIP3     OH2      OT      -0.834000       15.9994           0
     49088 W2       16363    TIP3     H1       HT       0.417000       1.00800           0
     49089 W2       16363    TIP3     H2       HT       0.417000       1.00800           0
     49090 W2       16364    TIP3     OH2      OT      -0.834000       15.9994           0
     49091 W2       16364    TIP3     H1       HT       0.417000       1.00800           0
     49092 W2       16364    TIP3     H2       HT       0.417000       1.00800           0
     49093 W2       16365    TIP3     OH2      OT      -0.834000       15.9994           0
     49094 W2       16365    TIP3     H1       HT       0.417000       1.00800           0
     49095 W2       16365    TIP3     H2       HT       0.417000       1.00800           0
     49096 W2       16366    TIP3     OH2      OT      -0.834000       15.9994           0
     49097 W2       16366    TIP3     H1       HT       0.417000       1.00800           0
     49098 W2       16366    TIP3     H2       HT       0.417000       1.00800           0
     49099 W2       16367    TIP3     OH2      OT      -0.834000       15.9994           0
     49100 W2       16367    TIP3     H1       HT       0.417000       1.00800           0
     49101 W2       16367    TIP3     H2       HT       0.417000       1.00800           0
     49102 W2       16368    TIP3     OH2      OT      -0.834000       15.9994           0
     49103 W2       16368    TIP3     H1       HT       0.417000       1.00800           0
     49104 W2       16368    TIP3     H2       HT       0.417000       1.00800           0
     49105 W2       16369    TIP3     OH2      OT      -0.834000       15.9994           0
     49106 W2       16369    TIP3     H1       HT       0.417000       1.00800           0
     49107 W2       16369    TIP3     H2       HT       0.417000       1.00800           0
     49108 W2       16370    TIP3     OH2      OT      -0.834000       15.9994           0
     49109 W2       16370    TIP3     H1       HT       0.417000       1.00800           0
     49110 W2       16370    TIP3     H2       HT       0.417000       1.00800           0
     49111 W2       16371    TIP3     OH2      OT      -0.834000       15.9994           0
     49112 W2       16371    TIP3     H1       HT       0.417000       1.00800           0
     49113 W2       16371    TIP3     H2       HT       0.417000       1.00800           0
     49114 W2       16372    TIP3     OH2      OT      -0.834000       15.9994           0
     49115 W2       16372    TIP3     H1       HT       0.417000       1.00800           0
     49116 W2       16372    TIP3     H2       HT       0.417000       1.00800           0
     49117 W2       16373    TIP3     OH2      OT      -0.834000       15.9994           0
     49118 W2       16373    TIP3     H1       HT       0.417000       1.00800           0
     49119 W2       16373    TIP3     H2       HT       0.417000       1.00800           0
     49120 W2       16374    TIP3     OH2      OT      -0.834000       15.9994           0
     49121 W2       16374    TIP3     H1       HT       0.417000       1.00800           0
     49122 W2       16374    TIP3     H2       HT       0.417000       1.00800           0
     49123 W2       16375    TIP3     OH2      OT      -0.834000       15.9994           0
     49124 W2       16375    TIP3     H1       HT       0.417000       1.00800           0
     49125 W2       16375    TIP3     H2       HT       0.417000       1.00800           0
     49126 W2       16376    TIP3     OH2      OT      -0.834000       15.9994           0
     49127 W2       16376    TIP3     H1       HT       0.417000       1.00800           0
     49128 W2       16376    TIP3     H2       HT       0.417000       1.00800           0
     49129 W2       16377    TIP3     OH2      OT      -0.834000       15.9994           0
     49130 W2       16377    TIP3     H1       HT       0.417000       1.00800           0
     49131 W2       16377    TIP3     H2       HT       0.417000       1.00800           0
     49132 W2       16378    TIP3     OH2      OT      -0.834000       15.9994           0
     49133 W2       16378    TIP3     H1       HT       0.417000       1.00800           0
     49134 W2       16378    TIP3     H2       HT       0.417000       1.00800           0
     49135 W2       16379    TIP3     OH2      OT      -0.834000       15.9994           0
     49136 W2       16379    TIP3     H1       HT       0.417000       1.00800           0
     49137 W2       16379    TIP3     H2       HT       0.417000       1.00800           0
     49138 W2       16380    TIP3     OH2      OT      -0.834000       15.9994           0
     49139 W2       16380    TIP3     H1       HT       0.417000       1.00800           0
     49140 W2       16380    TIP3     H2       HT       0.417000       1.00800           0
     49141 W2       16381    TIP3     OH2      OT      -0.834000       15.9994           0
     49142 W2       16381    TIP3     H1       HT       0.417000       1.00800           0
     49143 W2       16381    TIP3     H2       HT       0.417000       1.00800           0
     49144 W2       16382    TIP3     OH2      OT      -0.834000       15.9994           0
     49145 W2       16382    TIP3     H1       HT       0.417000       1.00800           0
     49146 W2       16382    TIP3     H2       HT       0.417000       1.00800           0
     49147 W2       16383    TIP3     OH2      OT      -0.834000       15.9994           0
     49148 W2       16383    TIP3     H1       HT       0.417000       1.00800           0
     49149 W2       16383    TIP3     H2       HT       0.417000       1.00800           0
     49150 W2       16384    TIP3     OH2      OT      -0.834000       15.9994           0
     49151 W2       16384    TIP3     H1       HT       0.417000       1.00800           0
     49152 W2       16384    TIP3     H2       HT       0.417000       1.00800           0
     49153 W2       16385    TIP3     OH2      OT      -0.834000       15.9994           0
     49154 W2       16385    TIP3     H1       HT       0.417000       1.00800           0
     49155 W2       16385    TIP3     H2       HT       0.417000       1.00800           0
     49156 W2       16386    TIP3     OH2      OT      -0.834000       15.9994           0
     49157 W2       16386    TIP3     H1       HT       0.417000       1.00800           0
     49158 W2       16386    TIP3     H2       HT       0.417000       1.00800           0
     49159 W2       16387    TIP3     OH2      OT      -0.834000       15.9994           0
     49160 W2       16387    TIP3     H1       HT       0.417000       1.00800           0
     49161 W2       16387    TIP3     H2       HT       0.417000       1.00800           0
     49162 W2       16388    TIP3     OH2      OT      -0.834000       15.9994           0
     49163 W2       16388    TIP3     H1       HT       0.417000       1.00800           0
     49164 W2       16388    TIP3     H2       HT       0.417000       1.00800           0
     49165 W2       16389    TIP3     OH2      OT      -0.834000       15.9994           0
     49166 W2       16389    TIP3     H1       HT       0.417000       1.00800           0
     49167 W2       16389    TIP3     H2       HT       0.417000       1.00800           0
     49168 W2       16390    TIP3     OH2      OT      -0.834000       15.9994           0
     49169 W2       16390    TIP3     H1       HT       0.417000       1.00800           0
     49170 W2       16390    TIP3     H2       HT       0.417000       1.00800           0
     49171 W2       16391    TIP3     OH2      OT      -0.834000       15.9994           0
     49172 W2       16391    TIP3     H1       HT       0.417000       1.00800           0
     49173 W2       16391    TIP3     H2       HT       0.417000       1.00800           0
     49174 W2       16392    TIP3     OH2      OT      -0.834000       15.9994           0
     49175 W2       16392    TIP3     H1       HT       0.417000       1.00800           0
     49176 W2       16392    TIP3     H2       HT       0.417000       1.00800           0
     49177 W2       16393    TIP3     OH2      OT      -0.834000       15.9994           0
     49178 W2       16393    TIP3     H1       HT       0.417000       1.00800           0
     49179 W2       16393    TIP3     H2       HT       0.417000       1.00800           0
     49180 W2       16394    TIP3     OH2      OT      -0.834000       15.9994           0
     49181 W2       16394    TIP3     H1       HT       0.417000       1.00800           0
     49182 W2       16394    TIP3     H2       HT       0.417000       1.00800           0
     49183 W2       16395    TIP3     OH2      OT      -0.834000       15.9994           0
     49184 W2       16395    TIP3     H1       HT       0.417000       1.00800           0
     49185 W2       16395    TIP3     H2       HT       0.417000       1.00800           0
     49186 W2       16396    TIP3     OH2      OT      -0.834000       15.9994           0
     49187 W2       16396    TIP3     H1       HT       0.417000       1.00800           0
     49188 W2       16396    TIP3     H2       HT       0.417000       1.00800           0
     49189 W2       16397    TIP3     OH2      OT      -0.834000       15.9994           0
     49190 W2       16397    TIP3     H1       HT       0.417000       1.00800           0
     49191 W2       16397    TIP3     H2       HT       0.417000       1.00800           0
     49192 W2       16398    TIP3     OH2      OT      -0.834000       15.9994           0
     49193 W2       16398    TIP3     H1       HT       0.417000       1.00800           0
     49194 W2       16398    TIP3     H2       HT       0.417000       1.00800           0
     49195 W2       16399    TIP3     OH2      OT      -0.834000       15.9994           0
     49196 W2       16399    TIP3     H1       HT       0.417000       1.00800           0
     49197 W2       16399    TIP3     H2       HT       0.417000       1.00800           0
     49198 W2       16400    TIP3     OH2      OT      -0.834000       15.9994           0
     49199 W2       16400    TIP3     H1       HT       0.417000       1.00800           0
     49200 W2       16400    TIP3     H2       HT       0.417000       1.00800           0
     49201 W2       16401    TIP3     OH2      OT      -0.834000       15.9994           0
     49202 W2       16401    TIP3     H1       HT       0.417000       1.00800           0
     49203 W2       16401    TIP3     H2       HT       0.417000       1.00800           0
     49204 W2       16402    TIP3     OH2      OT      -0.834000       15.9994           0
     49205 W2       16402    TIP3     H1       HT       0.417000       1.00800           0
     49206 W2       16402    TIP3     H2       HT       0.417000       1.00800           0
     49207 W2       16403    TIP3     OH2      OT      -0.834000       15.9994           0
     49208 W2       16403    TIP3     H1       HT       0.417000       1.00800           0
     49209 W2       16403    TIP3     H2       HT       0.417000       1.00800           0
     49210 W2       16404    TIP3     OH2      OT      -0.834000       15.9994           0
     49211 W2       16404    TIP3     H1       HT       0.417000       1.00800           0
     49212 W2       16404    TIP3     H2       HT       0.417000       1.00800           0
     49213 W2       16405    TIP3     OH2      OT      -0.834000       15.9994           0
     49214 W2       16405    TIP3     H1       HT       0.417000       1.00800           0
     49215 W2       16405    TIP3     H2       HT       0.417000       1.00800           0
     49216 W2       16406    TIP3     OH2      OT      -0.834000       15.9994           0
     49217 W2       16406    TIP3     H1       HT       0.417000       1.00800           0
     49218 W2       16406    TIP3     H2       HT       0.417000       1.00800           0
     49219 W2       16407    TIP3     OH2      OT      -0.834000       15.9994           0
     49220 W2       16407    TIP3     H1       HT       0.417000       1.00800           0
     49221 W2       16407    TIP3     H2       HT       0.417000       1.00800           0
     49222 W2       16408    TIP3     OH2      OT      -0.834000       15.9994           0
     49223 W2       16408    TIP3     H1       HT       0.417000       1.00800           0
     49224 W2       16408    TIP3     H2       HT       0.417000       1.00800           0
     49225 W2       16409    TIP3     OH2      OT      -0.834000       15.9994           0
     49226 W2       16409    TIP3     H1       HT       0.417000       1.00800           0
     49227 W2       16409    TIP3     H2       HT       0.417000       1.00800           0
     49228 W2       16410    TIP3     OH2      OT      -0.834000       15.9994           0
     49229 W2       16410    TIP3     H1       HT       0.417000       1.00800           0
     49230 W2       16410    TIP3     H2       HT       0.417000       1.00800           0
     49231 W2       16411    TIP3     OH2      OT      -0.834000       15.9994           0
     49232 W2       16411    TIP3     H1       HT       0.417000       1.00800           0
     49233 W2       16411    TIP3     H2       HT       0.417000       1.00800           0
     49234 W2       16412    TIP3     OH2      OT      -0.834000       15.9994           0
     49235 W2       16412    TIP3     H1       HT       0.417000       1.00800           0
     49236 W2       16412    TIP3     H2       HT       0.417000       1.00800           0
     49237 W2       16413    TIP3     OH2      OT      -0.834000       15.9994           0
     49238 W2       16413    TIP3     H1       HT       0.417000       1.00800           0
     49239 W2       16413    TIP3     H2       HT       0.417000       1.00800           0
     49240 W2       16414    TIP3     OH2      OT      -0.834000       15.9994           0
     49241 W2       16414    TIP3     H1       HT       0.417000       1.00800           0
     49242 W2       16414    TIP3     H2       HT       0.417000       1.00800           0
     49243 W2       16415    TIP3     OH2      OT      -0.834000       15.9994           0
     49244 W2       16415    TIP3     H1       HT       0.417000       1.00800           0
     49245 W2       16415    TIP3     H2       HT       0.417000       1.00800           0
     49246 W2       16416    TIP3     OH2      OT      -0.834000       15.9994           0
     49247 W2       16416    TIP3     H1       HT       0.417000       1.00800           0
     49248 W2       16416    TIP3     H2       HT       0.417000       1.00800           0
     49249 W2       16417    TIP3     OH2      OT      -0.834000       15.9994           0
     49250 W2       16417    TIP3     H1       HT       0.417000       1.00800           0
     49251 W2       16417    TIP3     H2       HT       0.417000       1.00800           0
     49252 W2       16418    TIP3     OH2      OT      -0.834000       15.9994           0
     49253 W2       16418    TIP3     H1       HT       0.417000       1.00800           0
     49254 W2       16418    TIP3     H2       HT       0.417000       1.00800           0
     49255 W2       16419    TIP3     OH2      OT      -0.834000       15.9994           0
     49256 W2       16419    TIP3     H1       HT       0.417000       1.00800           0
     49257 W2       16419    TIP3     H2       HT       0.417000       1.00800           0
     49258 W2       16420    TIP3     OH2      OT      -0.834000       15.9994           0
     49259 W2       16420    TIP3     H1       HT       0.417000       1.00800           0
     49260 W2       16420    TIP3     H2       HT       0.417000       1.00800           0
     49261 W2       16421    TIP3     OH2      OT      -0.834000       15.9994           0
     49262 W2       16421    TIP3     H1       HT       0.417000       1.00800           0
     49263 W2       16421    TIP3     H2       HT       0.417000       1.00800           0
     49264 W2       16422    TIP3     OH2      OT      -0.834000       15.9994           0
     49265 W2       16422    TIP3     H1       HT       0.417000       1.00800           0
     49266 W2       16422    TIP3     H2       HT       0.417000       1.00800           0
     49267 W2       16423    TIP3     OH2      OT      -0.834000       15.9994           0
     49268 W2       16423    TIP3     H1       HT       0.417000       1.00800           0
     49269 W2       16423    TIP3     H2       HT       0.417000       1.00800           0
     49270 W2       16424    TIP3     OH2      OT      -0.834000       15.9994           0
     49271 W2       16424    TIP3     H1       HT       0.417000       1.00800           0
     49272 W2       16424    TIP3     H2       HT       0.417000       1.00800           0
     49273 W2       16425    TIP3     OH2      OT      -0.834000       15.9994           0
     49274 W2       16425    TIP3     H1       HT       0.417000       1.00800           0
     49275 W2       16425    TIP3     H2       HT       0.417000       1.00800           0
     49276 W2       16426    TIP3     OH2      OT      -0.834000       15.9994           0
     49277 W2       16426    TIP3     H1       HT       0.417000       1.00800           0
     49278 W2       16426    TIP3     H2       HT       0.417000       1.00800           0
     49279 W2       16427    TIP3     OH2      OT      -0.834000       15.9994           0
     49280 W2       16427    TIP3     H1       HT       0.417000       1.00800           0
     49281 W2       16427    TIP3     H2       HT       0.417000       1.00800           0
     49282 W2       16428    TIP3     OH2      OT      -0.834000       15.9994           0
     49283 W2       16428    TIP3     H1       HT       0.417000       1.00800           0
     49284 W2       16428    TIP3     H2       HT       0.417000       1.00800           0
     49285 W2       16429    TIP3     OH2      OT      -0.834000       15.9994           0
     49286 W2       16429    TIP3     H1       HT       0.417000       1.00800           0
     49287 W2       16429    TIP3     H2       HT       0.417000       1.00800           0
     49288 W2       16430    TIP3     OH2      OT      -0.834000       15.9994           0
     49289 W2       16430    TIP3     H1       HT       0.417000       1.00800           0
     49290 W2       16430    TIP3     H2       HT       0.417000       1.00800           0
     49291 W2       16431    TIP3     OH2      OT      -0.834000       15.9994           0
     49292 W2       16431    TIP3     H1       HT       0.417000       1.00800           0
     49293 W2       16431    TIP3     H2       HT       0.417000       1.00800           0
     49294 W2       16432    TIP3     OH2      OT      -0.834000       15.9994           0
     49295 W2       16432    TIP3     H1       HT       0.417000       1.00800           0
     49296 W2       16432    TIP3     H2       HT       0.417000       1.00800           0
     49297 W2       16433    TIP3     OH2      OT      -0.834000       15.9994           0
     49298 W2       16433    TIP3     H1       HT       0.417000       1.00800           0
     49299 W2       16433    TIP3     H2       HT       0.417000       1.00800           0
     49300 W2       16434    TIP3     OH2      OT      -0.834000       15.9994           0
     49301 W2       16434    TIP3     H1       HT       0.417000       1.00800           0
     49302 W2       16434    TIP3     H2       HT       0.417000       1.00800           0
     49303 W2       16435    TIP3     OH2      OT      -0.834000       15.9994           0
     49304 W2       16435    TIP3     H1       HT       0.417000       1.00800           0
     49305 W2       16435    TIP3     H2       HT       0.417000       1.00800           0
     49306 W2       16436    TIP3     OH2      OT      -0.834000       15.9994           0
     49307 W2       16436    TIP3     H1       HT       0.417000       1.00800           0
     49308 W2       16436    TIP3     H2       HT       0.417000       1.00800           0
     49309 W2       16437    TIP3     OH2      OT      -0.834000       15.9994           0
     49310 W2       16437    TIP3     H1       HT       0.417000       1.00800           0
     49311 W2       16437    TIP3     H2       HT       0.417000       1.00800           0
     49312 W2       16438    TIP3     OH2      OT      -0.834000       15.9994           0
     49313 W2       16438    TIP3     H1       HT       0.417000       1.00800           0
     49314 W2       16438    TIP3     H2       HT       0.417000       1.00800           0
     49315 W2       16439    TIP3     OH2      OT      -0.834000       15.9994           0
     49316 W2       16439    TIP3     H1       HT       0.417000       1.00800           0
     49317 W2       16439    TIP3     H2       HT       0.417000       1.00800           0
     49318 W2       16440    TIP3     OH2      OT      -0.834000       15.9994           0
     49319 W2       16440    TIP3     H1       HT       0.417000       1.00800           0
     49320 W2       16440    TIP3     H2       HT       0.417000       1.00800           0
     49321 W2       16441    TIP3     OH2      OT      -0.834000       15.9994           0
     49322 W2       16441    TIP3     H1       HT       0.417000       1.00800           0
     49323 W2       16441    TIP3     H2       HT       0.417000       1.00800           0
     49324 W2       16442    TIP3     OH2      OT      -0.834000       15.9994           0
     49325 W2       16442    TIP3     H1       HT       0.417000       1.00800           0
     49326 W2       16442    TIP3     H2       HT       0.417000       1.00800           0
     49327 W2       16443    TIP3     OH2      OT      -0.834000       15.9994           0
     49328 W2       16443    TIP3     H1       HT       0.417000       1.00800           0
     49329 W2       16443    TIP3     H2       HT       0.417000       1.00800           0
     49330 W2       16444    TIP3     OH2      OT      -0.834000       15.9994           0
     49331 W2       16444    TIP3     H1       HT       0.417000       1.00800           0
     49332 W2       16444    TIP3     H2       HT       0.417000       1.00800           0
     49333 W2       16445    TIP3     OH2      OT      -0.834000       15.9994           0
     49334 W2       16445    TIP3     H1       HT       0.417000       1.00800           0
     49335 W2       16445    TIP3     H2       HT       0.417000       1.00800           0
     49336 W2       16446    TIP3     OH2      OT      -0.834000       15.9994           0
     49337 W2       16446    TIP3     H1       HT       0.417000       1.00800           0
     49338 W2       16446    TIP3     H2       HT       0.417000       1.00800           0
     49339 W2       16447    TIP3     OH2      OT      -0.834000       15.9994           0
     49340 W2       16447    TIP3     H1       HT       0.417000       1.00800           0
     49341 W2       16447    TIP3     H2       HT       0.417000       1.00800           0
     49342 W2       16448    TIP3     OH2      OT      -0.834000       15.9994           0
     49343 W2       16448    TIP3     H1       HT       0.417000       1.00800           0
     49344 W2       16448    TIP3     H2       HT       0.417000       1.00800           0
     49345 W2       16449    TIP3     OH2      OT      -0.834000       15.9994           0
     49346 W2       16449    TIP3     H1       HT       0.417000       1.00800           0
     49347 W2       16449    TIP3     H2       HT       0.417000       1.00800           0
     49348 W2       16450    TIP3     OH2      OT      -0.834000       15.9994           0
     49349 W2       16450    TIP3     H1       HT       0.417000       1.00800           0
     49350 W2       16450    TIP3     H2       HT       0.417000       1.00800           0
     49351 W2       16451    TIP3     OH2      OT      -0.834000       15.9994           0
     49352 W2       16451    TIP3     H1       HT       0.417000       1.00800           0
     49353 W2       16451    TIP3     H2       HT       0.417000       1.00800           0
     49354 W2       16452    TIP3     OH2      OT      -0.834000       15.9994           0
     49355 W2       16452    TIP3     H1       HT       0.417000       1.00800           0
     49356 W2       16452    TIP3     H2       HT       0.417000       1.00800           0
     49357 W2       16453    TIP3     OH2      OT      -0.834000       15.9994           0
     49358 W2       16453    TIP3     H1       HT       0.417000       1.00800           0
     49359 W2       16453    TIP3     H2       HT       0.417000       1.00800           0
     49360 W2       16454    TIP3     OH2      OT      -0.834000       15.9994           0
     49361 W2       16454    TIP3     H1       HT       0.417000       1.00800           0
     49362 W2       16454    TIP3     H2       HT       0.417000       1.00800           0
     49363 W2       16455    TIP3     OH2      OT      -0.834000       15.9994           0
     49364 W2       16455    TIP3     H1       HT       0.417000       1.00800           0
     49365 W2       16455    TIP3     H2       HT       0.417000       1.00800           0
     49366 W2       16456    TIP3     OH2      OT      -0.834000       15.9994           0
     49367 W2       16456    TIP3     H1       HT       0.417000       1.00800           0
     49368 W2       16456    TIP3     H2       HT       0.417000       1.00800           0
     49369 W2       16457    TIP3     OH2      OT      -0.834000       15.9994           0
     49370 W2       16457    TIP3     H1       HT       0.417000       1.00800           0
     49371 W2       16457    TIP3     H2       HT       0.417000       1.00800           0
     49372 W2       16458    TIP3     OH2      OT      -0.834000       15.9994           0
     49373 W2       16458    TIP3     H1       HT       0.417000       1.00800           0
     49374 W2       16458    TIP3     H2       HT       0.417000       1.00800           0
     49375 W2       16459    TIP3     OH2      OT      -0.834000       15.9994           0
     49376 W2       16459    TIP3     H1       HT       0.417000       1.00800           0
     49377 W2       16459    TIP3     H2       HT       0.417000       1.00800           0
     49378 W2       16460    TIP3     OH2      OT      -0.834000       15.9994           0
     49379 W2       16460    TIP3     H1       HT       0.417000       1.00800           0
     49380 W2       16460    TIP3     H2       HT       0.417000       1.00800           0
     49381 W2       16461    TIP3     OH2      OT      -0.834000       15.9994           0
     49382 W2       16461    TIP3     H1       HT       0.417000       1.00800           0
     49383 W2       16461    TIP3     H2       HT       0.417000       1.00800           0
     49384 W2       16462    TIP3     OH2      OT      -0.834000       15.9994           0
     49385 W2       16462    TIP3     H1       HT       0.417000       1.00800           0
     49386 W2       16462    TIP3     H2       HT       0.417000       1.00800           0
     49387 W2       16463    TIP3     OH2      OT      -0.834000       15.9994           0
     49388 W2       16463    TIP3     H1       HT       0.417000       1.00800           0
     49389 W2       16463    TIP3     H2       HT       0.417000       1.00800           0
     49390 W2       16464    TIP3     OH2      OT      -0.834000       15.9994           0
     49391 W2       16464    TIP3     H1       HT       0.417000       1.00800           0
     49392 W2       16464    TIP3     H2       HT       0.417000       1.00800           0
     49393 W2       16465    TIP3     OH2      OT      -0.834000       15.9994           0
     49394 W2       16465    TIP3     H1       HT       0.417000       1.00800           0
     49395 W2       16465    TIP3     H2       HT       0.417000       1.00800           0
     49396 W2       16466    TIP3     OH2      OT      -0.834000       15.9994           0
     49397 W2       16466    TIP3     H1       HT       0.417000       1.00800           0
     49398 W2       16466    TIP3     H2       HT       0.417000       1.00800           0
     49399 W2       16467    TIP3     OH2      OT      -0.834000       15.9994           0
     49400 W2       16467    TIP3     H1       HT       0.417000       1.00800           0
     49401 W2       16467    TIP3     H2       HT       0.417000       1.00800           0
     49402 W2       16468    TIP3     OH2      OT      -0.834000       15.9994           0
     49403 W2       16468    TIP3     H1       HT       0.417000       1.00800           0
     49404 W2       16468    TIP3     H2       HT       0.417000       1.00800           0
     49405 W2       16469    TIP3     OH2      OT      -0.834000       15.9994           0
     49406 W2       16469    TIP3     H1       HT       0.417000       1.00800           0
     49407 W2       16469    TIP3     H2       HT       0.417000       1.00800           0
     49408 W2       16470    TIP3     OH2      OT      -0.834000       15.9994           0
     49409 W2       16470    TIP3     H1       HT       0.417000       1.00800           0
     49410 W2       16470    TIP3     H2       HT       0.417000       1.00800           0
     49411 W2       16471    TIP3     OH2      OT      -0.834000       15.9994           0
     49412 W2       16471    TIP3     H1       HT       0.417000       1.00800           0
     49413 W2       16471    TIP3     H2       HT       0.417000       1.00800           0
     49414 W2       16472    TIP3     OH2      OT      -0.834000       15.9994           0
     49415 W2       16472    TIP3     H1       HT       0.417000       1.00800           0
     49416 W2       16472    TIP3     H2       HT       0.417000       1.00800           0
     49417 W2       16473    TIP3     OH2      OT      -0.834000       15.9994           0
     49418 W2       16473    TIP3     H1       HT       0.417000       1.00800           0
     49419 W2       16473    TIP3     H2       HT       0.417000       1.00800           0
     49420 W2       16474    TIP3     OH2      OT      -0.834000       15.9994           0
     49421 W2       16474    TIP3     H1       HT       0.417000       1.00800           0
     49422 W2       16474    TIP3     H2       HT       0.417000       1.00800           0
     49423 W2       16475    TIP3     OH2      OT      -0.834000       15.9994           0
     49424 W2       16475    TIP3     H1       HT       0.417000       1.00800           0
     49425 W2       16475    TIP3     H2       HT       0.417000       1.00800           0
     49426 W2       16476    TIP3     OH2      OT      -0.834000       15.9994           0
     49427 W2       16476    TIP3     H1       HT       0.417000       1.00800           0
     49428 W2       16476    TIP3     H2       HT       0.417000       1.00800           0
     49429 W2       16477    TIP3     OH2      OT      -0.834000       15.9994           0
     49430 W2       16477    TIP3     H1       HT       0.417000       1.00800           0
     49431 W2       16477    TIP3     H2       HT       0.417000       1.00800           0
     49432 W2       16478    TIP3     OH2      OT      -0.834000       15.9994           0
     49433 W2       16478    TIP3     H1       HT       0.417000       1.00800           0
     49434 W2       16478    TIP3     H2       HT       0.417000       1.00800           0
     49435 W2       16479    TIP3     OH2      OT      -0.834000       15.9994           0
     49436 W2       16479    TIP3     H1       HT       0.417000       1.00800           0
     49437 W2       16479    TIP3     H2       HT       0.417000       1.00800           0
     49438 W2       16480    TIP3     OH2      OT      -0.834000       15.9994           0
     49439 W2       16480    TIP3     H1       HT       0.417000       1.00800           0
     49440 W2       16480    TIP3     H2       HT       0.417000       1.00800           0
     49441 W2       16481    TIP3     OH2      OT      -0.834000       15.9994           0
     49442 W2       16481    TIP3     H1       HT       0.417000       1.00800           0
     49443 W2       16481    TIP3     H2       HT       0.417000       1.00800           0
     49444 W2       16482    TIP3     OH2      OT      -0.834000       15.9994           0
     49445 W2       16482    TIP3     H1       HT       0.417000       1.00800           0
     49446 W2       16482    TIP3     H2       HT       0.417000       1.00800           0
     49447 W2       16483    TIP3     OH2      OT      -0.834000       15.9994           0
     49448 W2       16483    TIP3     H1       HT       0.417000       1.00800           0
     49449 W2       16483    TIP3     H2       HT       0.417000       1.00800           0
     49450 W2       16484    TIP3     OH2      OT      -0.834000       15.9994           0
     49451 W2       16484    TIP3     H1       HT       0.417000       1.00800           0
     49452 W2       16484    TIP3     H2       HT       0.417000       1.00800           0
     49453 W2       16485    TIP3     OH2      OT      -0.834000       15.9994           0
     49454 W2       16485    TIP3     H1       HT       0.417000       1.00800           0
     49455 W2       16485    TIP3     H2       HT       0.417000       1.00800           0
     49456 W2       16486    TIP3     OH2      OT      -0.834000       15.9994           0
     49457 W2       16486    TIP3     H1       HT       0.417000       1.00800           0
     49458 W2       16486    TIP3     H2       HT       0.417000       1.00800           0
     49459 W2       16487    TIP3     OH2      OT      -0.834000       15.9994           0
     49460 W2       16487    TIP3     H1       HT       0.417000       1.00800           0
     49461 W2       16487    TIP3     H2       HT       0.417000       1.00800           0
     49462 W2       16488    TIP3     OH2      OT      -0.834000       15.9994           0
     49463 W2       16488    TIP3     H1       HT       0.417000       1.00800           0
     49464 W2       16488    TIP3     H2       HT       0.417000       1.00800           0
     49465 W2       16489    TIP3     OH2      OT      -0.834000       15.9994           0
     49466 W2       16489    TIP3     H1       HT       0.417000       1.00800           0
     49467 W2       16489    TIP3     H2       HT       0.417000       1.00800           0
     49468 W2       16490    TIP3     OH2      OT      -0.834000       15.9994           0
     49469 W2       16490    TIP3     H1       HT       0.417000       1.00800           0
     49470 W2       16490    TIP3     H2       HT       0.417000       1.00800           0
     49471 W2       16491    TIP3     OH2      OT      -0.834000       15.9994           0
     49472 W2       16491    TIP3     H1       HT       0.417000       1.00800           0
     49473 W2       16491    TIP3     H2       HT       0.417000       1.00800           0
     49474 W2       16492    TIP3     OH2      OT      -0.834000       15.9994           0
     49475 W2       16492    TIP3     H1       HT       0.417000       1.00800           0
     49476 W2       16492    TIP3     H2       HT       0.417000       1.00800           0
     49477 W2       16493    TIP3     OH2      OT      -0.834000       15.9994           0
     49478 W2       16493    TIP3     H1       HT       0.417000       1.00800           0
     49479 W2       16493    TIP3     H2       HT       0.417000       1.00800           0
     49480 W2       16494    TIP3     OH2      OT      -0.834000       15.9994           0
     49481 W2       16494    TIP3     H1       HT       0.417000       1.00800           0
     49482 W2       16494    TIP3     H2       HT       0.417000       1.00800           0
     49483 W2       16495    TIP3     OH2      OT      -0.834000       15.9994           0
     49484 W2       16495    TIP3     H1       HT       0.417000       1.00800           0
     49485 W2       16495    TIP3     H2       HT       0.417000       1.00800           0
     49486 W2       16496    TIP3     OH2      OT      -0.834000       15.9994           0
     49487 W2       16496    TIP3     H1       HT       0.417000       1.00800           0
     49488 W2       16496    TIP3     H2       HT       0.417000       1.00800           0
     49489 W2       16497    TIP3     OH2      OT      -0.834000       15.9994           0
     49490 W2       16497    TIP3     H1       HT       0.417000       1.00800           0
     49491 W2       16497    TIP3     H2       HT       0.417000       1.00800           0
     49492 W2       16498    TIP3     OH2      OT      -0.834000       15.9994           0
     49493 W2       16498    TIP3     H1       HT       0.417000       1.00800           0
     49494 W2       16498    TIP3     H2       HT       0.417000       1.00800           0
     49495 W2       16499    TIP3     OH2      OT      -0.834000       15.9994           0
     49496 W2       16499    TIP3     H1       HT       0.417000       1.00800           0
     49497 W2       16499    TIP3     H2       HT       0.417000       1.00800           0
     49498 W2       16500    TIP3     OH2      OT      -0.834000       15.9994           0
     49499 W2       16500    TIP3     H1       HT       0.417000       1.00800           0
     49500 W2       16500    TIP3     H2       HT       0.417000       1.00800           0
     49501 W2       16501    TIP3     OH2      OT      -0.834000       15.9994           0
     49502 W2       16501    TIP3     H1       HT       0.417000       1.00800           0
     49503 W2       16501    TIP3     H2       HT       0.417000       1.00800           0
     49504 W2       16502    TIP3     OH2      OT      -0.834000       15.9994           0
     49505 W2       16502    TIP3     H1       HT       0.417000       1.00800           0
     49506 W2       16502    TIP3     H2       HT       0.417000       1.00800           0
     49507 W2       16503    TIP3     OH2      OT      -0.834000       15.9994           0
     49508 W2       16503    TIP3     H1       HT       0.417000       1.00800           0
     49509 W2       16503    TIP3     H2       HT       0.417000       1.00800           0
     49510 W2       16504    TIP3     OH2      OT      -0.834000       15.9994           0
     49511 W2       16504    TIP3     H1       HT       0.417000       1.00800           0
     49512 W2       16504    TIP3     H2       HT       0.417000       1.00800           0
     49513 W2       16505    TIP3     OH2      OT      -0.834000       15.9994           0
     49514 W2       16505    TIP3     H1       HT       0.417000       1.00800           0
     49515 W2       16505    TIP3     H2       HT       0.417000       1.00800           0
     49516 W2       16506    TIP3     OH2      OT      -0.834000       15.9994           0
     49517 W2       16506    TIP3     H1       HT       0.417000       1.00800           0
     49518 W2       16506    TIP3     H2       HT       0.417000       1.00800           0
     49519 W2       16507    TIP3     OH2      OT      -0.834000       15.9994           0
     49520 W2       16507    TIP3     H1       HT       0.417000       1.00800           0
     49521 W2       16507    TIP3     H2       HT       0.417000       1.00800           0
     49522 W2       16508    TIP3     OH2      OT      -0.834000       15.9994           0
     49523 W2       16508    TIP3     H1       HT       0.417000       1.00800           0
     49524 W2       16508    TIP3     H2       HT       0.417000       1.00800           0
     49525 W2       16509    TIP3     OH2      OT      -0.834000       15.9994           0
     49526 W2       16509    TIP3     H1       HT       0.417000       1.00800           0
     49527 W2       16509    TIP3     H2       HT       0.417000       1.00800           0
     49528 W2       16510    TIP3     OH2      OT      -0.834000       15.9994           0
     49529 W2       16510    TIP3     H1       HT       0.417000       1.00800           0
     49530 W2       16510    TIP3     H2       HT       0.417000       1.00800           0
     49531 W2       16511    TIP3     OH2      OT      -0.834000       15.9994           0
     49532 W2       16511    TIP3     H1       HT       0.417000       1.00800           0
     49533 W2       16511    TIP3     H2       HT       0.417000       1.00800           0
     49534 W2       16512    TIP3     OH2      OT      -0.834000       15.9994           0
     49535 W2       16512    TIP3     H1       HT       0.417000       1.00800           0
     49536 W2       16512    TIP3     H2       HT       0.417000       1.00800           0
     49537 W2       16513    TIP3     OH2      OT      -0.834000       15.9994           0
     49538 W2       16513    TIP3     H1       HT       0.417000       1.00800           0
     49539 W2       16513    TIP3     H2       HT       0.417000       1.00800           0
     49540 W2       16514    TIP3     OH2      OT      -0.834000       15.9994           0
     49541 W2       16514    TIP3     H1       HT       0.417000       1.00800           0
     49542 W2       16514    TIP3     H2       HT       0.417000       1.00800           0
     49543 W2       16515    TIP3     OH2      OT      -0.834000       15.9994           0
     49544 W2       16515    TIP3     H1       HT       0.417000       1.00800           0
     49545 W2       16515    TIP3     H2       HT       0.417000       1.00800           0
     49546 W2       16516    TIP3     OH2      OT      -0.834000       15.9994           0
     49547 W2       16516    TIP3     H1       HT       0.417000       1.00800           0
     49548 W2       16516    TIP3     H2       HT       0.417000       1.00800           0
     49549 W2       16517    TIP3     OH2      OT      -0.834000       15.9994           0
     49550 W2       16517    TIP3     H1       HT       0.417000       1.00800           0
     49551 W2       16517    TIP3     H2       HT       0.417000       1.00800           0
     49552 W2       16518    TIP3     OH2      OT      -0.834000       15.9994           0
     49553 W2       16518    TIP3     H1       HT       0.417000       1.00800           0
     49554 W2       16518    TIP3     H2       HT       0.417000       1.00800           0
     49555 W2       16519    TIP3     OH2      OT      -0.834000       15.9994           0
     49556 W2       16519    TIP3     H1       HT       0.417000       1.00800           0
     49557 W2       16519    TIP3     H2       HT       0.417000       1.00800           0
     49558 W2       16520    TIP3     OH2      OT      -0.834000       15.9994           0
     49559 W2       16520    TIP3     H1       HT       0.417000       1.00800           0
     49560 W2       16520    TIP3     H2       HT       0.417000       1.00800           0
     49561 W2       16521    TIP3     OH2      OT      -0.834000       15.9994           0
     49562 W2       16521    TIP3     H1       HT       0.417000       1.00800           0
     49563 W2       16521    TIP3     H2       HT       0.417000       1.00800           0
     49564 W2       16522    TIP3     OH2      OT      -0.834000       15.9994           0
     49565 W2       16522    TIP3     H1       HT       0.417000       1.00800           0
     49566 W2       16522    TIP3     H2       HT       0.417000       1.00800           0
     49567 W2       16523    TIP3     OH2      OT      -0.834000       15.9994           0
     49568 W2       16523    TIP3     H1       HT       0.417000       1.00800           0
     49569 W2       16523    TIP3     H2       HT       0.417000       1.00800           0
     49570 W2       16524    TIP3     OH2      OT      -0.834000       15.9994           0
     49571 W2       16524    TIP3     H1       HT       0.417000       1.00800           0
     49572 W2       16524    TIP3     H2       HT       0.417000       1.00800           0
     49573 W2       16525    TIP3     OH2      OT      -0.834000       15.9994           0
     49574 W2       16525    TIP3     H1       HT       0.417000       1.00800           0
     49575 W2       16525    TIP3     H2       HT       0.417000       1.00800           0
     49576 W2       16526    TIP3     OH2      OT      -0.834000       15.9994           0
     49577 W2       16526    TIP3     H1       HT       0.417000       1.00800           0
     49578 W2       16526    TIP3     H2       HT       0.417000       1.00800           0
     49579 W2       16527    TIP3     OH2      OT      -0.834000       15.9994           0
     49580 W2       16527    TIP3     H1       HT       0.417000       1.00800           0
     49581 W2       16527    TIP3     H2       HT       0.417000       1.00800           0
     49582 W2       16528    TIP3     OH2      OT      -0.834000       15.9994           0
     49583 W2       16528    TIP3     H1       HT       0.417000       1.00800           0
     49584 W2       16528    TIP3     H2       HT       0.417000       1.00800           0
     49585 W2       16529    TIP3     OH2      OT      -0.834000       15.9994           0
     49586 W2       16529    TIP3     H1       HT       0.417000       1.00800           0
     49587 W2       16529    TIP3     H2       HT       0.417000       1.00800           0
     49588 W2       16530    TIP3     OH2      OT      -0.834000       15.9994           0
     49589 W2       16530    TIP3     H1       HT       0.417000       1.00800           0
     49590 W2       16530    TIP3     H2       HT       0.417000       1.00800           0
     49591 W2       16531    TIP3     OH2      OT      -0.834000       15.9994           0
     49592 W2       16531    TIP3     H1       HT       0.417000       1.00800           0
     49593 W2       16531    TIP3     H2       HT       0.417000       1.00800           0
     49594 W2       16532    TIP3     OH2      OT      -0.834000       15.9994           0
     49595 W2       16532    TIP3     H1       HT       0.417000       1.00800           0
     49596 W2       16532    TIP3     H2       HT       0.417000       1.00800           0
     49597 W2       16533    TIP3     OH2      OT      -0.834000       15.9994           0
     49598 W2       16533    TIP3     H1       HT       0.417000       1.00800           0
     49599 W2       16533    TIP3     H2       HT       0.417000       1.00800           0
     49600 W2       16534    TIP3     OH2      OT      -0.834000       15.9994           0
     49601 W2       16534    TIP3     H1       HT       0.417000       1.00800           0
     49602 W2       16534    TIP3     H2       HT       0.417000       1.00800           0
     49603 W2       16535    TIP3     OH2      OT      -0.834000       15.9994           0
     49604 W2       16535    TIP3     H1       HT       0.417000       1.00800           0
     49605 W2       16535    TIP3     H2       HT       0.417000       1.00800           0
     49606 W2       16536    TIP3     OH2      OT      -0.834000       15.9994           0
     49607 W2       16536    TIP3     H1       HT       0.417000       1.00800           0
     49608 W2       16536    TIP3     H2       HT       0.417000       1.00800           0
     49609 W2       16537    TIP3     OH2      OT      -0.834000       15.9994           0
     49610 W2       16537    TIP3     H1       HT       0.417000       1.00800           0
     49611 W2       16537    TIP3     H2       HT       0.417000       1.00800           0
     49612 W2       16538    TIP3     OH2      OT      -0.834000       15.9994           0
     49613 W2       16538    TIP3     H1       HT       0.417000       1.00800           0
     49614 W2       16538    TIP3     H2       HT       0.417000       1.00800           0
     49615 W2       16539    TIP3     OH2      OT      -0.834000       15.9994           0
     49616 W2       16539    TIP3     H1       HT       0.417000       1.00800           0
     49617 W2       16539    TIP3     H2       HT       0.417000       1.00800           0
     49618 W2       16540    TIP3     OH2      OT      -0.834000       15.9994           0
     49619 W2       16540    TIP3     H1       HT       0.417000       1.00800           0
     49620 W2       16540    TIP3     H2       HT       0.417000       1.00800           0
     49621 W2       16541    TIP3     OH2      OT      -0.834000       15.9994           0
     49622 W2       16541    TIP3     H1       HT       0.417000       1.00800           0
     49623 W2       16541    TIP3     H2       HT       0.417000       1.00800           0
     49624 W2       16542    TIP3     OH2      OT      -0.834000       15.9994           0
     49625 W2       16542    TIP3     H1       HT       0.417000       1.00800           0
     49626 W2       16542    TIP3     H2       HT       0.417000       1.00800           0
     49627 W2       16543    TIP3     OH2      OT      -0.834000       15.9994           0
     49628 W2       16543    TIP3     H1       HT       0.417000       1.00800           0
     49629 W2       16543    TIP3     H2       HT       0.417000       1.00800           0
     49630 W2       16544    TIP3     OH2      OT      -0.834000       15.9994           0
     49631 W2       16544    TIP3     H1       HT       0.417000       1.00800           0
     49632 W2       16544    TIP3     H2       HT       0.417000       1.00800           0
     49633 W2       16545    TIP3     OH2      OT      -0.834000       15.9994           0
     49634 W2       16545    TIP3     H1       HT       0.417000       1.00800           0
     49635 W2       16545    TIP3     H2       HT       0.417000       1.00800           0
     49636 W2       16546    TIP3     OH2      OT      -0.834000       15.9994           0
     49637 W2       16546    TIP3     H1       HT       0.417000       1.00800           0
     49638 W2       16546    TIP3     H2       HT       0.417000       1.00800           0
     49639 W2       16547    TIP3     OH2      OT      -0.834000       15.9994           0
     49640 W2       16547    TIP3     H1       HT       0.417000       1.00800           0
     49641 W2       16547    TIP3     H2       HT       0.417000       1.00800           0
     49642 W2       16548    TIP3     OH2      OT      -0.834000       15.9994           0
     49643 W2       16548    TIP3     H1       HT       0.417000       1.00800           0
     49644 W2       16548    TIP3     H2       HT       0.417000       1.00800           0
     49645 W2       16549    TIP3     OH2      OT      -0.834000       15.9994           0
     49646 W2       16549    TIP3     H1       HT       0.417000       1.00800           0
     49647 W2       16549    TIP3     H2       HT       0.417000       1.00800           0
     49648 W2       16550    TIP3     OH2      OT      -0.834000       15.9994           0
     49649 W2       16550    TIP3     H1       HT       0.417000       1.00800           0
     49650 W2       16550    TIP3     H2       HT       0.417000       1.00800           0
     49651 W2       16551    TIP3     OH2      OT      -0.834000       15.9994           0
     49652 W2       16551    TIP3     H1       HT       0.417000       1.00800           0
     49653 W2       16551    TIP3     H2       HT       0.417000       1.00800           0
     49654 W2       16552    TIP3     OH2      OT      -0.834000       15.9994           0
     49655 W2       16552    TIP3     H1       HT       0.417000       1.00800           0
     49656 W2       16552    TIP3     H2       HT       0.417000       1.00800           0
     49657 W2       16553    TIP3     OH2      OT      -0.834000       15.9994           0
     49658 W2       16553    TIP3     H1       HT       0.417000       1.00800           0
     49659 W2       16553    TIP3     H2       HT       0.417000       1.00800           0
     49660 W2       16554    TIP3     OH2      OT      -0.834000       15.9994           0
     49661 W2       16554    TIP3     H1       HT       0.417000       1.00800           0
     49662 W2       16554    TIP3     H2       HT       0.417000       1.00800           0
     49663 W2       16555    TIP3     OH2      OT      -0.834000       15.9994           0
     49664 W2       16555    TIP3     H1       HT       0.417000       1.00800           0
     49665 W2       16555    TIP3     H2       HT       0.417000       1.00800           0
     49666 W2       16556    TIP3     OH2      OT      -0.834000       15.9994           0
     49667 W2       16556    TIP3     H1       HT       0.417000       1.00800           0
     49668 W2       16556    TIP3     H2       HT       0.417000       1.00800           0
     49669 W2       16557    TIP3     OH2      OT      -0.834000       15.9994           0
     49670 W2       16557    TIP3     H1       HT       0.417000       1.00800           0
     49671 W2       16557    TIP3     H2       HT       0.417000       1.00800           0
     49672 W2       16558    TIP3     OH2      OT      -0.834000       15.9994           0
     49673 W2       16558    TIP3     H1       HT       0.417000       1.00800           0
     49674 W2       16558    TIP3     H2       HT       0.417000       1.00800           0
     49675 W2       16559    TIP3     OH2      OT      -0.834000       15.9994           0
     49676 W2       16559    TIP3     H1       HT       0.417000       1.00800           0
     49677 W2       16559    TIP3     H2       HT       0.417000       1.00800           0
     49678 W2       16560    TIP3     OH2      OT      -0.834000       15.9994           0
     49679 W2       16560    TIP3     H1       HT       0.417000       1.00800           0
     49680 W2       16560    TIP3     H2       HT       0.417000       1.00800           0
     49681 W2       16561    TIP3     OH2      OT      -0.834000       15.9994           0
     49682 W2       16561    TIP3     H1       HT       0.417000       1.00800           0
     49683 W2       16561    TIP3     H2       HT       0.417000       1.00800           0
     49684 W2       16562    TIP3     OH2      OT      -0.834000       15.9994           0
     49685 W2       16562    TIP3     H1       HT       0.417000       1.00800           0
     49686 W2       16562    TIP3     H2       HT       0.417000       1.00800           0
     49687 W2       16563    TIP3     OH2      OT      -0.834000       15.9994           0
     49688 W2       16563    TIP3     H1       HT       0.417000       1.00800           0
     49689 W2       16563    TIP3     H2       HT       0.417000       1.00800           0
     49690 W2       16564    TIP3     OH2      OT      -0.834000       15.9994           0
     49691 W2       16564    TIP3     H1       HT       0.417000       1.00800           0
     49692 W2       16564    TIP3     H2       HT       0.417000       1.00800           0
     49693 W2       16565    TIP3     OH2      OT      -0.834000       15.9994           0
     49694 W2       16565    TIP3     H1       HT       0.417000       1.00800           0
     49695 W2       16565    TIP3     H2       HT       0.417000       1.00800           0
     49696 W2       16566    TIP3     OH2      OT      -0.834000       15.9994           0
     49697 W2       16566    TIP3     H1       HT       0.417000       1.00800           0
     49698 W2       16566    TIP3     H2       HT       0.417000       1.00800           0
     49699 W2       16567    TIP3     OH2      OT      -0.834000       15.9994           0
     49700 W2       16567    TIP3     H1       HT       0.417000       1.00800           0
     49701 W2       16567    TIP3     H2       HT       0.417000       1.00800           0
     49702 W2       16568    TIP3     OH2      OT      -0.834000       15.9994           0
     49703 W2       16568    TIP3     H1       HT       0.417000       1.00800           0
     49704 W2       16568    TIP3     H2       HT       0.417000       1.00800           0
     49705 W2       16569    TIP3     OH2      OT      -0.834000       15.9994           0
     49706 W2       16569    TIP3     H1       HT       0.417000       1.00800           0
     49707 W2       16569    TIP3     H2       HT       0.417000       1.00800           0
     49708 W2       16570    TIP3     OH2      OT      -0.834000       15.9994           0
     49709 W2       16570    TIP3     H1       HT       0.417000       1.00800           0
     49710 W2       16570    TIP3     H2       HT       0.417000       1.00800           0
     49711 W2       16571    TIP3     OH2      OT      -0.834000       15.9994           0
     49712 W2       16571    TIP3     H1       HT       0.417000       1.00800           0
     49713 W2       16571    TIP3     H2       HT       0.417000       1.00800           0
     49714 W2       16572    TIP3     OH2      OT      -0.834000       15.9994           0
     49715 W2       16572    TIP3     H1       HT       0.417000       1.00800           0
     49716 W2       16572    TIP3     H2       HT       0.417000       1.00800           0
     49717 W2       16573    TIP3     OH2      OT      -0.834000       15.9994           0
     49718 W2       16573    TIP3     H1       HT       0.417000       1.00800           0
     49719 W2       16573    TIP3     H2       HT       0.417000       1.00800           0
     49720 W2       16574    TIP3     OH2      OT      -0.834000       15.9994           0
     49721 W2       16574    TIP3     H1       HT       0.417000       1.00800           0
     49722 W2       16574    TIP3     H2       HT       0.417000       1.00800           0
     49723 W2       16575    TIP3     OH2      OT      -0.834000       15.9994           0
     49724 W2       16575    TIP3     H1       HT       0.417000       1.00800           0
     49725 W2       16575    TIP3     H2       HT       0.417000       1.00800           0
     49726 W2       16576    TIP3     OH2      OT      -0.834000       15.9994           0
     49727 W2       16576    TIP3     H1       HT       0.417000       1.00800           0
     49728 W2       16576    TIP3     H2       HT       0.417000       1.00800           0
     49729 W2       16577    TIP3     OH2      OT      -0.834000       15.9994           0
     49730 W2       16577    TIP3     H1       HT       0.417000       1.00800           0
     49731 W2       16577    TIP3     H2       HT       0.417000       1.00800           0
     49732 W2       16578    TIP3     OH2      OT      -0.834000       15.9994           0
     49733 W2       16578    TIP3     H1       HT       0.417000       1.00800           0
     49734 W2       16578    TIP3     H2       HT       0.417000       1.00800           0
     49735 W2       16579    TIP3     OH2      OT      -0.834000       15.9994           0
     49736 W2       16579    TIP3     H1       HT       0.417000       1.00800           0
     49737 W2       16579    TIP3     H2       HT       0.417000       1.00800           0
     49738 W2       16580    TIP3     OH2      OT      -0.834000       15.9994           0
     49739 W2       16580    TIP3     H1       HT       0.417000       1.00800           0
     49740 W2       16580    TIP3     H2       HT       0.417000       1.00800           0
     49741 W2       16581    TIP3     OH2      OT      -0.834000       15.9994           0
     49742 W2       16581    TIP3     H1       HT       0.417000       1.00800           0
     49743 W2       16581    TIP3     H2       HT       0.417000       1.00800           0
     49744 W2       16582    TIP3     OH2      OT      -0.834000       15.9994           0
     49745 W2       16582    TIP3     H1       HT       0.417000       1.00800           0
     49746 W2       16582    TIP3     H2       HT       0.417000       1.00800           0
     49747 W2       16583    TIP3     OH2      OT      -0.834000       15.9994           0
     49748 W2       16583    TIP3     H1       HT       0.417000       1.00800           0
     49749 W2       16583    TIP3     H2       HT       0.417000       1.00800           0
     49750 W2       16584    TIP3     OH2      OT      -0.834000       15.9994           0
     49751 W2       16584    TIP3     H1       HT       0.417000       1.00800           0
     49752 W2       16584    TIP3     H2       HT       0.417000       1.00800           0
     49753 W2       16585    TIP3     OH2      OT      -0.834000       15.9994           0
     49754 W2       16585    TIP3     H1       HT       0.417000       1.00800           0
     49755 W2       16585    TIP3     H2       HT       0.417000       1.00800           0
     49756 W2       16586    TIP3     OH2      OT      -0.834000       15.9994           0
     49757 W2       16586    TIP3     H1       HT       0.417000       1.00800           0
     49758 W2       16586    TIP3     H2       HT       0.417000       1.00800           0
     49759 W2       16587    TIP3     OH2      OT      -0.834000       15.9994           0
     49760 W2       16587    TIP3     H1       HT       0.417000       1.00800           0
     49761 W2       16587    TIP3     H2       HT       0.417000       1.00800           0
     49762 W2       16588    TIP3     OH2      OT      -0.834000       15.9994           0
     49763 W2       16588    TIP3     H1       HT       0.417000       1.00800           0
     49764 W2       16588    TIP3     H2       HT       0.417000       1.00800           0
     49765 W2       16589    TIP3     OH2      OT      -0.834000       15.9994           0
     49766 W2       16589    TIP3     H1       HT       0.417000       1.00800           0
     49767 W2       16589    TIP3     H2       HT       0.417000       1.00800           0
     49768 W2       16590    TIP3     OH2      OT      -0.834000       15.9994           0
     49769 W2       16590    TIP3     H1       HT       0.417000       1.00800           0
     49770 W2       16590    TIP3     H2       HT       0.417000       1.00800           0
     49771 W2       16591    TIP3     OH2      OT      -0.834000       15.9994           0
     49772 W2       16591    TIP3     H1       HT       0.417000       1.00800           0
     49773 W2       16591    TIP3     H2       HT       0.417000       1.00800           0
     49774 W2       16592    TIP3     OH2      OT      -0.834000       15.9994           0
     49775 W2       16592    TIP3     H1       HT       0.417000       1.00800           0
     49776 W2       16592    TIP3     H2       HT       0.417000       1.00800           0
     49777 W2       16593    TIP3     OH2      OT      -0.834000       15.9994           0
     49778 W2       16593    TIP3     H1       HT       0.417000       1.00800           0
     49779 W2       16593    TIP3     H2       HT       0.417000       1.00800           0
     49780 W2       16594    TIP3     OH2      OT      -0.834000       15.9994           0
     49781 W2       16594    TIP3     H1       HT       0.417000       1.00800           0
     49782 W2       16594    TIP3     H2       HT       0.417000       1.00800           0
     49783 W2       16595    TIP3     OH2      OT      -0.834000       15.9994           0
     49784 W2       16595    TIP3     H1       HT       0.417000       1.00800           0
     49785 W2       16595    TIP3     H2       HT       0.417000       1.00800           0
     49786 W2       16596    TIP3     OH2      OT      -0.834000       15.9994           0
     49787 W2       16596    TIP3     H1       HT       0.417000       1.00800           0
     49788 W2       16596    TIP3     H2       HT       0.417000       1.00800           0
     49789 W2       16597    TIP3     OH2      OT      -0.834000       15.9994           0
     49790 W2       16597    TIP3     H1       HT       0.417000       1.00800           0
     49791 W2       16597    TIP3     H2       HT       0.417000       1.00800           0
     49792 W2       16598    TIP3     OH2      OT      -0.834000       15.9994           0
     49793 W2       16598    TIP3     H1       HT       0.417000       1.00800           0
     49794 W2       16598    TIP3     H2       HT       0.417000       1.00800           0
     49795 W2       16599    TIP3     OH2      OT      -0.834000       15.9994           0
     49796 W2       16599    TIP3     H1       HT       0.417000       1.00800           0
     49797 W2       16599    TIP3     H2       HT       0.417000       1.00800           0
     49798 W2       16600    TIP3     OH2      OT      -0.834000       15.9994           0
     49799 W2       16600    TIP3     H1       HT       0.417000       1.00800           0
     49800 W2       16600    TIP3     H2       HT       0.417000       1.00800           0
     49801 W2       16601    TIP3     OH2      OT      -0.834000       15.9994           0
     49802 W2       16601    TIP3     H1       HT       0.417000       1.00800           0
     49803 W2       16601    TIP3     H2       HT       0.417000       1.00800           0
     49804 W2       16602    TIP3     OH2      OT      -0.834000       15.9994           0
     49805 W2       16602    TIP3     H1       HT       0.417000       1.00800           0
     49806 W2       16602    TIP3     H2       HT       0.417000       1.00800           0
     49807 W2       16603    TIP3     OH2      OT      -0.834000       15.9994           0
     49808 W2       16603    TIP3     H1       HT       0.417000       1.00800           0
     49809 W2       16603    TIP3     H2       HT       0.417000       1.00800           0
     49810 W2       16604    TIP3     OH2      OT      -0.834000       15.9994           0
     49811 W2       16604    TIP3     H1       HT       0.417000       1.00800           0
     49812 W2       16604    TIP3     H2       HT       0.417000       1.00800           0
     49813 W2       16605    TIP3     OH2      OT      -0.834000       15.9994           0
     49814 W2       16605    TIP3     H1       HT       0.417000       1.00800           0
     49815 W2       16605    TIP3     H2       HT       0.417000       1.00800           0
     49816 W2       16606    TIP3     OH2      OT      -0.834000       15.9994           0
     49817 W2       16606    TIP3     H1       HT       0.417000       1.00800           0
     49818 W2       16606    TIP3     H2       HT       0.417000       1.00800           0
     49819 W2       16607    TIP3     OH2      OT      -0.834000       15.9994           0
     49820 W2       16607    TIP3     H1       HT       0.417000       1.00800           0
     49821 W2       16607    TIP3     H2       HT       0.417000       1.00800           0
     49822 W2       16608    TIP3     OH2      OT      -0.834000       15.9994           0
     49823 W2       16608    TIP3     H1       HT       0.417000       1.00800           0
     49824 W2       16608    TIP3     H2       HT       0.417000       1.00800           0
     49825 W2       16609    TIP3     OH2      OT      -0.834000       15.9994           0
     49826 W2       16609    TIP3     H1       HT       0.417000       1.00800           0
     49827 W2       16609    TIP3     H2       HT       0.417000       1.00800           0
     49828 W2       16610    TIP3     OH2      OT      -0.834000       15.9994           0
     49829 W2       16610    TIP3     H1       HT       0.417000       1.00800           0
     49830 W2       16610    TIP3     H2       HT       0.417000       1.00800           0
     49831 W2       16611    TIP3     OH2      OT      -0.834000       15.9994           0
     49832 W2       16611    TIP3     H1       HT       0.417000       1.00800           0
     49833 W2       16611    TIP3     H2       HT       0.417000       1.00800           0
     49834 W2       16612    TIP3     OH2      OT      -0.834000       15.9994           0
     49835 W2       16612    TIP3     H1       HT       0.417000       1.00800           0
     49836 W2       16612    TIP3     H2       HT       0.417000       1.00800           0
     49837 W2       16613    TIP3     OH2      OT      -0.834000       15.9994           0
     49838 W2       16613    TIP3     H1       HT       0.417000       1.00800           0
     49839 W2       16613    TIP3     H2       HT       0.417000       1.00800           0
     49840 W2       16614    TIP3     OH2      OT      -0.834000       15.9994           0
     49841 W2       16614    TIP3     H1       HT       0.417000       1.00800           0
     49842 W2       16614    TIP3     H2       HT       0.417000       1.00800           0
     49843 W2       16615    TIP3     OH2      OT      -0.834000       15.9994           0
     49844 W2       16615    TIP3     H1       HT       0.417000       1.00800           0
     49845 W2       16615    TIP3     H2       HT       0.417000       1.00800           0
     49846 W2       16616    TIP3     OH2      OT      -0.834000       15.9994           0
     49847 W2       16616    TIP3     H1       HT       0.417000       1.00800           0
     49848 W2       16616    TIP3     H2       HT       0.417000       1.00800           0
     49849 W2       16617    TIP3     OH2      OT      -0.834000       15.9994           0
     49850 W2       16617    TIP3     H1       HT       0.417000       1.00800           0
     49851 W2       16617    TIP3     H2       HT       0.417000       1.00800           0
     49852 W2       16618    TIP3     OH2      OT      -0.834000       15.9994           0
     49853 W2       16618    TIP3     H1       HT       0.417000       1.00800           0
     49854 W2       16618    TIP3     H2       HT       0.417000       1.00800           0
     49855 W2       16619    TIP3     OH2      OT      -0.834000       15.9994           0
     49856 W2       16619    TIP3     H1       HT       0.417000       1.00800           0
     49857 W2       16619    TIP3     H2       HT       0.417000       1.00800           0
     49858 W2       16620    TIP3     OH2      OT      -0.834000       15.9994           0
     49859 W2       16620    TIP3     H1       HT       0.417000       1.00800           0
     49860 W2       16620    TIP3     H2       HT       0.417000       1.00800           0
     49861 W2       16621    TIP3     OH2      OT      -0.834000       15.9994           0
     49862 W2       16621    TIP3     H1       HT       0.417000       1.00800           0
     49863 W2       16621    TIP3     H2       HT       0.417000       1.00800           0
     49864 W2       16622    TIP3     OH2      OT      -0.834000       15.9994           0
     49865 W2       16622    TIP3     H1       HT       0.417000       1.00800           0
     49866 W2       16622    TIP3     H2       HT       0.417000       1.00800           0
     49867 W2       16623    TIP3     OH2      OT      -0.834000       15.9994           0
     49868 W2       16623    TIP3     H1       HT       0.417000       1.00800           0
     49869 W2       16623    TIP3     H2       HT       0.417000       1.00800           0
     49870 W2       16624    TIP3     OH2      OT      -0.834000       15.9994           0
     49871 W2       16624    TIP3     H1       HT       0.417000       1.00800           0
     49872 W2       16624    TIP3     H2       HT       0.417000       1.00800           0
     49873 W2       16625    TIP3     OH2      OT      -0.834000       15.9994           0
     49874 W2       16625    TIP3     H1       HT       0.417000       1.00800           0
     49875 W2       16625    TIP3     H2       HT       0.417000       1.00800           0
     49876 W2       16626    TIP3     OH2      OT      -0.834000       15.9994           0
     49877 W2       16626    TIP3     H1       HT       0.417000       1.00800           0
     49878 W2       16626    TIP3     H2       HT       0.417000       1.00800           0
     49879 W2       16627    TIP3     OH2      OT      -0.834000       15.9994           0
     49880 W2       16627    TIP3     H1       HT       0.417000       1.00800           0
     49881 W2       16627    TIP3     H2       HT       0.417000       1.00800           0
     49882 W2       16628    TIP3     OH2      OT      -0.834000       15.9994           0
     49883 W2       16628    TIP3     H1       HT       0.417000       1.00800           0
     49884 W2       16628    TIP3     H2       HT       0.417000       1.00800           0
     49885 W2       16629    TIP3     OH2      OT      -0.834000       15.9994           0
     49886 W2       16629    TIP3     H1       HT       0.417000       1.00800           0
     49887 W2       16629    TIP3     H2       HT       0.417000       1.00800           0
     49888 W2       16630    TIP3     OH2      OT      -0.834000       15.9994           0
     49889 W2       16630    TIP3     H1       HT       0.417000       1.00800           0
     49890 W2       16630    TIP3     H2       HT       0.417000       1.00800           0
     49891 W2       16631    TIP3     OH2      OT      -0.834000       15.9994           0
     49892 W2       16631    TIP3     H1       HT       0.417000       1.00800           0
     49893 W2       16631    TIP3     H2       HT       0.417000       1.00800           0
     49894 W2       16632    TIP3     OH2      OT      -0.834000       15.9994           0
     49895 W2       16632    TIP3     H1       HT       0.417000       1.00800           0
     49896 W2       16632    TIP3     H2       HT       0.417000       1.00800           0
     49897 W2       16633    TIP3     OH2      OT      -0.834000       15.9994           0
     49898 W2       16633    TIP3     H1       HT       0.417000       1.00800           0
     49899 W2       16633    TIP3     H2       HT       0.417000       1.00800           0
     49900 W2       16634    TIP3     OH2      OT      -0.834000       15.9994           0
     49901 W2       16634    TIP3     H1       HT       0.417000       1.00800           0
     49902 W2       16634    TIP3     H2       HT       0.417000       1.00800           0
     49903 W2       16635    TIP3     OH2      OT      -0.834000       15.9994           0
     49904 W2       16635    TIP3     H1       HT       0.417000       1.00800           0
     49905 W2       16635    TIP3     H2       HT       0.417000       1.00800           0
     49906 W2       16636    TIP3     OH2      OT      -0.834000       15.9994           0
     49907 W2       16636    TIP3     H1       HT       0.417000       1.00800           0
     49908 W2       16636    TIP3     H2       HT       0.417000       1.00800           0
     49909 W2       16637    TIP3     OH2      OT      -0.834000       15.9994           0
     49910 W2       16637    TIP3     H1       HT       0.417000       1.00800           0
     49911 W2       16637    TIP3     H2       HT       0.417000       1.00800           0
     49912 W2       16638    TIP3     OH2      OT      -0.834000       15.9994           0
     49913 W2       16638    TIP3     H1       HT       0.417000       1.00800           0
     49914 W2       16638    TIP3     H2       HT       0.417000       1.00800           0
     49915 W2       16639    TIP3     OH2      OT      -0.834000       15.9994           0
     49916 W2       16639    TIP3     H1       HT       0.417000       1.00800           0
     49917 W2       16639    TIP3     H2       HT       0.417000       1.00800           0
     49918 W2       16640    TIP3     OH2      OT      -0.834000       15.9994           0
     49919 W2       16640    TIP3     H1       HT       0.417000       1.00800           0
     49920 W2       16640    TIP3     H2       HT       0.417000       1.00800           0
     49921 W2       16641    TIP3     OH2      OT      -0.834000       15.9994           0
     49922 W2       16641    TIP3     H1       HT       0.417000       1.00800           0
     49923 W2       16641    TIP3     H2       HT       0.417000       1.00800           0
     49924 W2       16642    TIP3     OH2      OT      -0.834000       15.9994           0
     49925 W2       16642    TIP3     H1       HT       0.417000       1.00800           0
     49926 W2       16642    TIP3     H2       HT       0.417000       1.00800           0
     49927 W2       16643    TIP3     OH2      OT      -0.834000       15.9994           0
     49928 W2       16643    TIP3     H1       HT       0.417000       1.00800           0
     49929 W2       16643    TIP3     H2       HT       0.417000       1.00800           0
     49930 W2       16644    TIP3     OH2      OT      -0.834000       15.9994           0
     49931 W2       16644    TIP3     H1       HT       0.417000       1.00800           0
     49932 W2       16644    TIP3     H2       HT       0.417000       1.00800           0
     49933 W2       16645    TIP3     OH2      OT      -0.834000       15.9994           0
     49934 W2       16645    TIP3     H1       HT       0.417000       1.00800           0
     49935 W2       16645    TIP3     H2       HT       0.417000       1.00800           0
     49936 W2       16646    TIP3     OH2      OT      -0.834000       15.9994           0
     49937 W2       16646    TIP3     H1       HT       0.417000       1.00800           0
     49938 W2       16646    TIP3     H2       HT       0.417000       1.00800           0
     49939 W2       16647    TIP3     OH2      OT      -0.834000       15.9994           0
     49940 W2       16647    TIP3     H1       HT       0.417000       1.00800           0
     49941 W2       16647    TIP3     H2       HT       0.417000       1.00800           0
     49942 W2       16648    TIP3     OH2      OT      -0.834000       15.9994           0
     49943 W2       16648    TIP3     H1       HT       0.417000       1.00800           0
     49944 W2       16648    TIP3     H2       HT       0.417000       1.00800           0
     49945 W2       16649    TIP3     OH2      OT      -0.834000       15.9994           0
     49946 W2       16649    TIP3     H1       HT       0.417000       1.00800           0
     49947 W2       16649    TIP3     H2       HT       0.417000       1.00800           0
     49948 W2       16650    TIP3     OH2      OT      -0.834000       15.9994           0
     49949 W2       16650    TIP3     H1       HT       0.417000       1.00800           0
     49950 W2       16650    TIP3     H2       HT       0.417000       1.00800           0
     49951 W2       16651    TIP3     OH2      OT      -0.834000       15.9994           0
     49952 W2       16651    TIP3     H1       HT       0.417000       1.00800           0
     49953 W2       16651    TIP3     H2       HT       0.417000       1.00800           0
     49954 W2       16652    TIP3     OH2      OT      -0.834000       15.9994           0
     49955 W2       16652    TIP3     H1       HT       0.417000       1.00800           0
     49956 W2       16652    TIP3     H2       HT       0.417000       1.00800           0
     49957 W2       16653    TIP3     OH2      OT      -0.834000       15.9994           0
     49958 W2       16653    TIP3     H1       HT       0.417000       1.00800           0
     49959 W2       16653    TIP3     H2       HT       0.417000       1.00800           0
     49960 W2       16654    TIP3     OH2      OT      -0.834000       15.9994           0
     49961 W2       16654    TIP3     H1       HT       0.417000       1.00800           0
     49962 W2       16654    TIP3     H2       HT       0.417000       1.00800           0
     49963 W2       16655    TIP3     OH2      OT      -0.834000       15.9994           0
     49964 W2       16655    TIP3     H1       HT       0.417000       1.00800           0
     49965 W2       16655    TIP3     H2       HT       0.417000       1.00800           0
     49966 W2       16656    TIP3     OH2      OT      -0.834000       15.9994           0
     49967 W2       16656    TIP3     H1       HT       0.417000       1.00800           0
     49968 W2       16656    TIP3     H2       HT       0.417000       1.00800           0
     49969 W2       16657    TIP3     OH2      OT      -0.834000       15.9994           0
     49970 W2       16657    TIP3     H1       HT       0.417000       1.00800           0
     49971 W2       16657    TIP3     H2       HT       0.417000       1.00800           0
     49972 W2       16658    TIP3     OH2      OT      -0.834000       15.9994           0
     49973 W2       16658    TIP3     H1       HT       0.417000       1.00800           0
     49974 W2       16658    TIP3     H2       HT       0.417000       1.00800           0
     49975 W2       16659    TIP3     OH2      OT      -0.834000       15.9994           0
     49976 W2       16659    TIP3     H1       HT       0.417000       1.00800           0
     49977 W2       16659    TIP3     H2       HT       0.417000       1.00800           0
     49978 W2       16660    TIP3     OH2      OT      -0.834000       15.9994           0
     49979 W2       16660    TIP3     H1       HT       0.417000       1.00800           0
     49980 W2       16660    TIP3     H2       HT       0.417000       1.00800           0
     49981 W2       16661    TIP3     OH2      OT      -0.834000       15.9994           0
     49982 W2       16661    TIP3     H1       HT       0.417000       1.00800           0
     49983 W2       16661    TIP3     H2       HT       0.417000       1.00800           0
     49984 W2       16662    TIP3     OH2      OT      -0.834000       15.9994           0
     49985 W2       16662    TIP3     H1       HT       0.417000       1.00800           0
     49986 W2       16662    TIP3     H2       HT       0.417000       1.00800           0
     49987 W2       16663    TIP3     OH2      OT      -0.834000       15.9994           0
     49988 W2       16663    TIP3     H1       HT       0.417000       1.00800           0
     49989 W2       16663    TIP3     H2       HT       0.417000       1.00800           0
     49990 W2       16664    TIP3     OH2      OT      -0.834000       15.9994           0
     49991 W2       16664    TIP3     H1       HT       0.417000       1.00800           0
     49992 W2       16664    TIP3     H2       HT       0.417000       1.00800           0
     49993 W2       16665    TIP3     OH2      OT      -0.834000       15.9994           0
     49994 W2       16665    TIP3     H1       HT       0.417000       1.00800           0
     49995 W2       16665    TIP3     H2       HT       0.417000       1.00800           0
     49996 W2       16666    TIP3     OH2      OT      -0.834000       15.9994           0
     49997 W2       16666    TIP3     H1       HT       0.417000       1.00800           0
     49998 W2       16666    TIP3     H2       HT       0.417000       1.00800           0
     49999 W2       16667    TIP3     OH2      OT      -0.834000       15.9994           0
     50000 W2       16667    TIP3     H1       HT       0.417000       1.00800           0
     50001 W2       16667    TIP3     H2       HT       0.417000       1.00800           0
     50002 W2       16668    TIP3     OH2      OT      -0.834000       15.9994           0
     50003 W2       16668    TIP3     H1       HT       0.417000       1.00800           0
     50004 W2       16668    TIP3     H2       HT       0.417000       1.00800           0
     50005 W2       16669    TIP3     OH2      OT      -0.834000       15.9994           0
     50006 W2       16669    TIP3     H1       HT       0.417000       1.00800           0
     50007 W2       16669    TIP3     H2       HT       0.417000       1.00800           0
     50008 W2       16670    TIP3     OH2      OT      -0.834000       15.9994           0
     50009 W2       16670    TIP3     H1       HT       0.417000       1.00800           0
     50010 W2       16670    TIP3     H2       HT       0.417000       1.00800           0
     50011 W2       16671    TIP3     OH2      OT      -0.834000       15.9994           0
     50012 W2       16671    TIP3     H1       HT       0.417000       1.00800           0
     50013 W2       16671    TIP3     H2       HT       0.417000       1.00800           0
     50014 W2       16672    TIP3     OH2      OT      -0.834000       15.9994           0
     50015 W2       16672    TIP3     H1       HT       0.417000       1.00800           0
     50016 W2       16672    TIP3     H2       HT       0.417000       1.00800           0
     50017 W2       16673    TIP3     OH2      OT      -0.834000       15.9994           0
     50018 W2       16673    TIP3     H1       HT       0.417000       1.00800           0
     50019 W2       16673    TIP3     H2       HT       0.417000       1.00800           0
     50020 W2       16674    TIP3     OH2      OT      -0.834000       15.9994           0
     50021 W2       16674    TIP3     H1       HT       0.417000       1.00800           0
     50022 W2       16674    TIP3     H2       HT       0.417000       1.00800           0
     50023 W2       16675    TIP3     OH2      OT      -0.834000       15.9994           0
     50024 W2       16675    TIP3     H1       HT       0.417000       1.00800           0
     50025 W2       16675    TIP3     H2       HT       0.417000       1.00800           0
     50026 W2       16676    TIP3     OH2      OT      -0.834000       15.9994           0
     50027 W2       16676    TIP3     H1       HT       0.417000       1.00800           0
     50028 W2       16676    TIP3     H2       HT       0.417000       1.00800           0
     50029 W2       16677    TIP3     OH2      OT      -0.834000       15.9994           0
     50030 W2       16677    TIP3     H1       HT       0.417000       1.00800           0
     50031 W2       16677    TIP3     H2       HT       0.417000       1.00800           0
     50032 W2       16678    TIP3     OH2      OT      -0.834000       15.9994           0
     50033 W2       16678    TIP3     H1       HT       0.417000       1.00800           0
     50034 W2       16678    TIP3     H2       HT       0.417000       1.00800           0
     50035 W2       16679    TIP3     OH2      OT      -0.834000       15.9994           0
     50036 W2       16679    TIP3     H1       HT       0.417000       1.00800           0
     50037 W2       16679    TIP3     H2       HT       0.417000       1.00800           0
     50038 W2       16680    TIP3     OH2      OT      -0.834000       15.9994           0
     50039 W2       16680    TIP3     H1       HT       0.417000       1.00800           0
     50040 W2       16680    TIP3     H2       HT       0.417000       1.00800           0
     50041 W2       16681    TIP3     OH2      OT      -0.834000       15.9994           0
     50042 W2       16681    TIP3     H1       HT       0.417000       1.00800           0
     50043 W2       16681    TIP3     H2       HT       0.417000       1.00800           0
     50044 W2       16682    TIP3     OH2      OT      -0.834000       15.9994           0
     50045 W2       16682    TIP3     H1       HT       0.417000       1.00800           0
     50046 W2       16682    TIP3     H2       HT       0.417000       1.00800           0
     50047 W2       16683    TIP3     OH2      OT      -0.834000       15.9994           0
     50048 W2       16683    TIP3     H1       HT       0.417000       1.00800           0
     50049 W2       16683    TIP3     H2       HT       0.417000       1.00800           0
     50050 W2       16684    TIP3     OH2      OT      -0.834000       15.9994           0
     50051 W2       16684    TIP3     H1       HT       0.417000       1.00800           0
     50052 W2       16684    TIP3     H2       HT       0.417000       1.00800           0
     50053 W2       16685    TIP3     OH2      OT      -0.834000       15.9994           0
     50054 W2       16685    TIP3     H1       HT       0.417000       1.00800           0
     50055 W2       16685    TIP3     H2       HT       0.417000       1.00800           0
     50056 W2       16686    TIP3     OH2      OT      -0.834000       15.9994           0
     50057 W2       16686    TIP3     H1       HT       0.417000       1.00800           0
     50058 W2       16686    TIP3     H2       HT       0.417000       1.00800           0
     50059 W2       16687    TIP3     OH2      OT      -0.834000       15.9994           0
     50060 W2       16687    TIP3     H1       HT       0.417000       1.00800           0
     50061 W2       16687    TIP3     H2       HT       0.417000       1.00800           0
     50062 W2       16688    TIP3     OH2      OT      -0.834000       15.9994           0
     50063 W2       16688    TIP3     H1       HT       0.417000       1.00800           0
     50064 W2       16688    TIP3     H2       HT       0.417000       1.00800           0
     50065 W2       16689    TIP3     OH2      OT      -0.834000       15.9994           0
     50066 W2       16689    TIP3     H1       HT       0.417000       1.00800           0
     50067 W2       16689    TIP3     H2       HT       0.417000       1.00800           0
     50068 W2       16690    TIP3     OH2      OT      -0.834000       15.9994           0
     50069 W2       16690    TIP3     H1       HT       0.417000       1.00800           0
     50070 W2       16690    TIP3     H2       HT       0.417000       1.00800           0
     50071 W2       16691    TIP3     OH2      OT      -0.834000       15.9994           0
     50072 W2       16691    TIP3     H1       HT       0.417000       1.00800           0
     50073 W2       16691    TIP3     H2       HT       0.417000       1.00800           0
     50074 W2       16692    TIP3     OH2      OT      -0.834000       15.9994           0
     50075 W2       16692    TIP3     H1       HT       0.417000       1.00800           0
     50076 W2       16692    TIP3     H2       HT       0.417000       1.00800           0
     50077 W2       16693    TIP3     OH2      OT      -0.834000       15.9994           0
     50078 W2       16693    TIP3     H1       HT       0.417000       1.00800           0
     50079 W2       16693    TIP3     H2       HT       0.417000       1.00800           0
     50080 W2       16694    TIP3     OH2      OT      -0.834000       15.9994           0
     50081 W2       16694    TIP3     H1       HT       0.417000       1.00800           0
     50082 W2       16694    TIP3     H2       HT       0.417000       1.00800           0
     50083 W2       16695    TIP3     OH2      OT      -0.834000       15.9994           0
     50084 W2       16695    TIP3     H1       HT       0.417000       1.00800           0
     50085 W2       16695    TIP3     H2       HT       0.417000       1.00800           0
     50086 W2       16696    TIP3     OH2      OT      -0.834000       15.9994           0
     50087 W2       16696    TIP3     H1       HT       0.417000       1.00800           0
     50088 W2       16696    TIP3     H2       HT       0.417000       1.00800           0
     50089 W2       16697    TIP3     OH2      OT      -0.834000       15.9994           0
     50090 W2       16697    TIP3     H1       HT       0.417000       1.00800           0
     50091 W2       16697    TIP3     H2       HT       0.417000       1.00800           0
     50092 W2       16698    TIP3     OH2      OT      -0.834000       15.9994           0
     50093 W2       16698    TIP3     H1       HT       0.417000       1.00800           0
     50094 W2       16698    TIP3     H2       HT       0.417000       1.00800           0
     50095 W2       16699    TIP3     OH2      OT      -0.834000       15.9994           0
     50096 W2       16699    TIP3     H1       HT       0.417000       1.00800           0
     50097 W2       16699    TIP3     H2       HT       0.417000       1.00800           0
     50098 W2       16700    TIP3     OH2      OT      -0.834000       15.9994           0
     50099 W2       16700    TIP3     H1       HT       0.417000       1.00800           0
     50100 W2       16700    TIP3     H2       HT       0.417000       1.00800           0
     50101 W2       16701    TIP3     OH2      OT      -0.834000       15.9994           0
     50102 W2       16701    TIP3     H1       HT       0.417000       1.00800           0
     50103 W2       16701    TIP3     H2       HT       0.417000       1.00800           0
     50104 W2       16702    TIP3     OH2      OT      -0.834000       15.9994           0
     50105 W2       16702    TIP3     H1       HT       0.417000       1.00800           0
     50106 W2       16702    TIP3     H2       HT       0.417000       1.00800           0
     50107 W2       16703    TIP3     OH2      OT      -0.834000       15.9994           0
     50108 W2       16703    TIP3     H1       HT       0.417000       1.00800           0
     50109 W2       16703    TIP3     H2       HT       0.417000       1.00800           0
     50110 W2       16704    TIP3     OH2      OT      -0.834000       15.9994           0
     50111 W2       16704    TIP3     H1       HT       0.417000       1.00800           0
     50112 W2       16704    TIP3     H2       HT       0.417000       1.00800           0
     50113 W2       16705    TIP3     OH2      OT      -0.834000       15.9994           0
     50114 W2       16705    TIP3     H1       HT       0.417000       1.00800           0
     50115 W2       16705    TIP3     H2       HT       0.417000       1.00800           0
     50116 W2       16706    TIP3     OH2      OT      -0.834000       15.9994           0
     50117 W2       16706    TIP3     H1       HT       0.417000       1.00800           0
     50118 W2       16706    TIP3     H2       HT       0.417000       1.00800           0
     50119 W2       16707    TIP3     OH2      OT      -0.834000       15.9994           0
     50120 W2       16707    TIP3     H1       HT       0.417000       1.00800           0
     50121 W2       16707    TIP3     H2       HT       0.417000       1.00800           0
     50122 W2       16708    TIP3     OH2      OT      -0.834000       15.9994           0
     50123 W2       16708    TIP3     H1       HT       0.417000       1.00800           0
     50124 W2       16708    TIP3     H2       HT       0.417000       1.00800           0
     50125 W2       16709    TIP3     OH2      OT      -0.834000       15.9994           0
     50126 W2       16709    TIP3     H1       HT       0.417000       1.00800           0
     50127 W2       16709    TIP3     H2       HT       0.417000       1.00800           0
     50128 W2       16710    TIP3     OH2      OT      -0.834000       15.9994           0
     50129 W2       16710    TIP3     H1       HT       0.417000       1.00800           0
     50130 W2       16710    TIP3     H2       HT       0.417000       1.00800           0
     50131 W2       16711    TIP3     OH2      OT      -0.834000       15.9994           0
     50132 W2       16711    TIP3     H1       HT       0.417000       1.00800           0
     50133 W2       16711    TIP3     H2       HT       0.417000       1.00800           0
     50134 W2       16712    TIP3     OH2      OT      -0.834000       15.9994           0
     50135 W2       16712    TIP3     H1       HT       0.417000       1.00800           0
     50136 W2       16712    TIP3     H2       HT       0.417000       1.00800           0
     50137 W2       16713    TIP3     OH2      OT      -0.834000       15.9994           0
     50138 W2       16713    TIP3     H1       HT       0.417000       1.00800           0
     50139 W2       16713    TIP3     H2       HT       0.417000       1.00800           0
     50140 W2       16714    TIP3     OH2      OT      -0.834000       15.9994           0
     50141 W2       16714    TIP3     H1       HT       0.417000       1.00800           0
     50142 W2       16714    TIP3     H2       HT       0.417000       1.00800           0
     50143 W2       16715    TIP3     OH2      OT      -0.834000       15.9994           0
     50144 W2       16715    TIP3     H1       HT       0.417000       1.00800           0
     50145 W2       16715    TIP3     H2       HT       0.417000       1.00800           0
     50146 W2       16716    TIP3     OH2      OT      -0.834000       15.9994           0
     50147 W2       16716    TIP3     H1       HT       0.417000       1.00800           0
     50148 W2       16716    TIP3     H2       HT       0.417000       1.00800           0
     50149 W2       16717    TIP3     OH2      OT      -0.834000       15.9994           0
     50150 W2       16717    TIP3     H1       HT       0.417000       1.00800           0
     50151 W2       16717    TIP3     H2       HT       0.417000       1.00800           0
     50152 W2       16718    TIP3     OH2      OT      -0.834000       15.9994           0
     50153 W2       16718    TIP3     H1       HT       0.417000       1.00800           0
     50154 W2       16718    TIP3     H2       HT       0.417000       1.00800           0
     50155 W2       16719    TIP3     OH2      OT      -0.834000       15.9994           0
     50156 W2       16719    TIP3     H1       HT       0.417000       1.00800           0
     50157 W2       16719    TIP3     H2       HT       0.417000       1.00800           0
     50158 W2       16720    TIP3     OH2      OT      -0.834000       15.9994           0
     50159 W2       16720    TIP3     H1       HT       0.417000       1.00800           0
     50160 W2       16720    TIP3     H2       HT       0.417000       1.00800           0
     50161 W2       16721    TIP3     OH2      OT      -0.834000       15.9994           0
     50162 W2       16721    TIP3     H1       HT       0.417000       1.00800           0
     50163 W2       16721    TIP3     H2       HT       0.417000       1.00800           0
     50164 W2       16722    TIP3     OH2      OT      -0.834000       15.9994           0
     50165 W2       16722    TIP3     H1       HT       0.417000       1.00800           0
     50166 W2       16722    TIP3     H2       HT       0.417000       1.00800           0
     50167 W2       16723    TIP3     OH2      OT      -0.834000       15.9994           0
     50168 W2       16723    TIP3     H1       HT       0.417000       1.00800           0
     50169 W2       16723    TIP3     H2       HT       0.417000       1.00800           0
     50170 W2       16724    TIP3     OH2      OT      -0.834000       15.9994           0
     50171 W2       16724    TIP3     H1       HT       0.417000       1.00800           0
     50172 W2       16724    TIP3     H2       HT       0.417000       1.00800           0
     50173 W2       16725    TIP3     OH2      OT      -0.834000       15.9994           0
     50174 W2       16725    TIP3     H1       HT       0.417000       1.00800           0
     50175 W2       16725    TIP3     H2       HT       0.417000       1.00800           0
     50176 W2       16726    TIP3     OH2      OT      -0.834000       15.9994           0
     50177 W2       16726    TIP3     H1       HT       0.417000       1.00800           0
     50178 W2       16726    TIP3     H2       HT       0.417000       1.00800           0
     50179 W2       16727    TIP3     OH2      OT      -0.834000       15.9994           0
     50180 W2       16727    TIP3     H1       HT       0.417000       1.00800           0
     50181 W2       16727    TIP3     H2       HT       0.417000       1.00800           0
     50182 W2       16728    TIP3     OH2      OT      -0.834000       15.9994           0
     50183 W2       16728    TIP3     H1       HT       0.417000       1.00800           0
     50184 W2       16728    TIP3     H2       HT       0.417000       1.00800           0
     50185 W2       16729    TIP3     OH2      OT      -0.834000       15.9994           0
     50186 W2       16729    TIP3     H1       HT       0.417000       1.00800           0
     50187 W2       16729    TIP3     H2       HT       0.417000       1.00800           0
     50188 W2       16730    TIP3     OH2      OT      -0.834000       15.9994           0
     50189 W2       16730    TIP3     H1       HT       0.417000       1.00800           0
     50190 W2       16730    TIP3     H2       HT       0.417000       1.00800           0
     50191 W2       16731    TIP3     OH2      OT      -0.834000       15.9994           0
     50192 W2       16731    TIP3     H1       HT       0.417000       1.00800           0
     50193 W2       16731    TIP3     H2       HT       0.417000       1.00800           0
     50194 W2       16732    TIP3     OH2      OT      -0.834000       15.9994           0
     50195 W2       16732    TIP3     H1       HT       0.417000       1.00800           0
     50196 W2       16732    TIP3     H2       HT       0.417000       1.00800           0
     50197 W2       16733    TIP3     OH2      OT      -0.834000       15.9994           0
     50198 W2       16733    TIP3     H1       HT       0.417000       1.00800           0
     50199 W2       16733    TIP3     H2       HT       0.417000       1.00800           0
     50200 W2       16734    TIP3     OH2      OT      -0.834000       15.9994           0
     50201 W2       16734    TIP3     H1       HT       0.417000       1.00800           0
     50202 W2       16734    TIP3     H2       HT       0.417000       1.00800           0
     50203 W2       16735    TIP3     OH2      OT      -0.834000       15.9994           0
     50204 W2       16735    TIP3     H1       HT       0.417000       1.00800           0
     50205 W2       16735    TIP3     H2       HT       0.417000       1.00800           0
     50206 W2       16736    TIP3     OH2      OT      -0.834000       15.9994           0
     50207 W2       16736    TIP3     H1       HT       0.417000       1.00800           0
     50208 W2       16736    TIP3     H2       HT       0.417000       1.00800           0
     50209 W2       16737    TIP3     OH2      OT      -0.834000       15.9994           0
     50210 W2       16737    TIP3     H1       HT       0.417000       1.00800           0
     50211 W2       16737    TIP3     H2       HT       0.417000       1.00800           0
     50212 W2       16738    TIP3     OH2      OT      -0.834000       15.9994           0
     50213 W2       16738    TIP3     H1       HT       0.417000       1.00800           0
     50214 W2       16738    TIP3     H2       HT       0.417000       1.00800           0
     50215 W2       16739    TIP3     OH2      OT      -0.834000       15.9994           0
     50216 W2       16739    TIP3     H1       HT       0.417000       1.00800           0
     50217 W2       16739    TIP3     H2       HT       0.417000       1.00800           0
     50218 W2       16740    TIP3     OH2      OT      -0.834000       15.9994           0
     50219 W2       16740    TIP3     H1       HT       0.417000       1.00800           0
     50220 W2       16740    TIP3     H2       HT       0.417000       1.00800           0
     50221 W2       16741    TIP3     OH2      OT      -0.834000       15.9994           0
     50222 W2       16741    TIP3     H1       HT       0.417000       1.00800           0
     50223 W2       16741    TIP3     H2       HT       0.417000       1.00800           0
     50224 W2       16742    TIP3     OH2      OT      -0.834000       15.9994           0
     50225 W2       16742    TIP3     H1       HT       0.417000       1.00800           0
     50226 W2       16742    TIP3     H2       HT       0.417000       1.00800           0
     50227 W2       16743    TIP3     OH2      OT      -0.834000       15.9994           0
     50228 W2       16743    TIP3     H1       HT       0.417000       1.00800           0
     50229 W2       16743    TIP3     H2       HT       0.417000       1.00800           0
     50230 W2       16744    TIP3     OH2      OT      -0.834000       15.9994           0
     50231 W2       16744    TIP3     H1       HT       0.417000       1.00800           0
     50232 W2       16744    TIP3     H2       HT       0.417000       1.00800           0
     50233 W2       16745    TIP3     OH2      OT      -0.834000       15.9994           0
     50234 W2       16745    TIP3     H1       HT       0.417000       1.00800           0
     50235 W2       16745    TIP3     H2       HT       0.417000       1.00800           0
     50236 W2       16746    TIP3     OH2      OT      -0.834000       15.9994           0
     50237 W2       16746    TIP3     H1       HT       0.417000       1.00800           0
     50238 W2       16746    TIP3     H2       HT       0.417000       1.00800           0
     50239 W2       16747    TIP3     OH2      OT      -0.834000       15.9994           0
     50240 W2       16747    TIP3     H1       HT       0.417000       1.00800           0
     50241 W2       16747    TIP3     H2       HT       0.417000       1.00800           0
     50242 W2       16748    TIP3     OH2      OT      -0.834000       15.9994           0
     50243 W2       16748    TIP3     H1       HT       0.417000       1.00800           0
     50244 W2       16748    TIP3     H2       HT       0.417000       1.00800           0
     50245 W2       16749    TIP3     OH2      OT      -0.834000       15.9994           0
     50246 W2       16749    TIP3     H1       HT       0.417000       1.00800           0
     50247 W2       16749    TIP3     H2       HT       0.417000       1.00800           0
     50248 W2       16750    TIP3     OH2      OT      -0.834000       15.9994           0
     50249 W2       16750    TIP3     H1       HT       0.417000       1.00800           0
     50250 W2       16750    TIP3     H2       HT       0.417000       1.00800           0
     50251 W2       16751    TIP3     OH2      OT      -0.834000       15.9994           0
     50252 W2       16751    TIP3     H1       HT       0.417000       1.00800           0
     50253 W2       16751    TIP3     H2       HT       0.417000       1.00800           0
     50254 W2       16752    TIP3     OH2      OT      -0.834000       15.9994           0
     50255 W2       16752    TIP3     H1       HT       0.417000       1.00800           0
     50256 W2       16752    TIP3     H2       HT       0.417000       1.00800           0
     50257 W2       16753    TIP3     OH2      OT      -0.834000       15.9994           0
     50258 W2       16753    TIP3     H1       HT       0.417000       1.00800           0
     50259 W2       16753    TIP3     H2       HT       0.417000       1.00800           0
     50260 W2       16754    TIP3     OH2      OT      -0.834000       15.9994           0
     50261 W2       16754    TIP3     H1       HT       0.417000       1.00800           0
     50262 W2       16754    TIP3     H2       HT       0.417000       1.00800           0
     50263 W2       16755    TIP3     OH2      OT      -0.834000       15.9994           0
     50264 W2       16755    TIP3     H1       HT       0.417000       1.00800           0
     50265 W2       16755    TIP3     H2       HT       0.417000       1.00800           0
     50266 W2       16756    TIP3     OH2      OT      -0.834000       15.9994           0
     50267 W2       16756    TIP3     H1       HT       0.417000       1.00800           0
     50268 W2       16756    TIP3     H2       HT       0.417000       1.00800           0
     50269 W2       16757    TIP3     OH2      OT      -0.834000       15.9994           0
     50270 W2       16757    TIP3     H1       HT       0.417000       1.00800           0
     50271 W2       16757    TIP3     H2       HT       0.417000       1.00800           0
     50272 W2       16758    TIP3     OH2      OT      -0.834000       15.9994           0
     50273 W2       16758    TIP3     H1       HT       0.417000       1.00800           0
     50274 W2       16758    TIP3     H2       HT       0.417000       1.00800           0
     50275 W2       16759    TIP3     OH2      OT      -0.834000       15.9994           0
     50276 W2       16759    TIP3     H1       HT       0.417000       1.00800           0
     50277 W2       16759    TIP3     H2       HT       0.417000       1.00800           0
     50278 W2       16760    TIP3     OH2      OT      -0.834000       15.9994           0
     50279 W2       16760    TIP3     H1       HT       0.417000       1.00800           0
     50280 W2       16760    TIP3     H2       HT       0.417000       1.00800           0
     50281 W2       16761    TIP3     OH2      OT      -0.834000       15.9994           0
     50282 W2       16761    TIP3     H1       HT       0.417000       1.00800           0
     50283 W2       16761    TIP3     H2       HT       0.417000       1.00800           0
     50284 W2       16762    TIP3     OH2      OT      -0.834000       15.9994           0
     50285 W2       16762    TIP3     H1       HT       0.417000       1.00800           0
     50286 W2       16762    TIP3     H2       HT       0.417000       1.00800           0
     50287 W2       16763    TIP3     OH2      OT      -0.834000       15.9994           0
     50288 W2       16763    TIP3     H1       HT       0.417000       1.00800           0
     50289 W2       16763    TIP3     H2       HT       0.417000       1.00800           0
     50290 W2       16764    TIP3     OH2      OT      -0.834000       15.9994           0
     50291 W2       16764    TIP3     H1       HT       0.417000       1.00800           0
     50292 W2       16764    TIP3     H2       HT       0.417000       1.00800           0
     50293 W2       16765    TIP3     OH2      OT      -0.834000       15.9994           0
     50294 W2       16765    TIP3     H1       HT       0.417000       1.00800           0
     50295 W2       16765    TIP3     H2       HT       0.417000       1.00800           0
     50296 W2       16766    TIP3     OH2      OT      -0.834000       15.9994           0
     50297 W2       16766    TIP3     H1       HT       0.417000       1.00800           0
     50298 W2       16766    TIP3     H2       HT       0.417000       1.00800           0
     50299 W2       16767    TIP3     OH2      OT      -0.834000       15.9994           0
     50300 W2       16767    TIP3     H1       HT       0.417000       1.00800           0
     50301 W2       16767    TIP3     H2       HT       0.417000       1.00800           0
     50302 W2       16768    TIP3     OH2      OT      -0.834000       15.9994           0
     50303 W2       16768    TIP3     H1       HT       0.417000       1.00800           0
     50304 W2       16768    TIP3     H2       HT       0.417000       1.00800           0
     50305 W2       16769    TIP3     OH2      OT      -0.834000       15.9994           0
     50306 W2       16769    TIP3     H1       HT       0.417000       1.00800           0
     50307 W2       16769    TIP3     H2       HT       0.417000       1.00800           0
     50308 W2       16770    TIP3     OH2      OT      -0.834000       15.9994           0
     50309 W2       16770    TIP3     H1       HT       0.417000       1.00800           0
     50310 W2       16770    TIP3     H2       HT       0.417000       1.00800           0
     50311 W2       16771    TIP3     OH2      OT      -0.834000       15.9994           0
     50312 W2       16771    TIP3     H1       HT       0.417000       1.00800           0
     50313 W2       16771    TIP3     H2       HT       0.417000       1.00800           0
     50314 W2       16772    TIP3     OH2      OT      -0.834000       15.9994           0
     50315 W2       16772    TIP3     H1       HT       0.417000       1.00800           0
     50316 W2       16772    TIP3     H2       HT       0.417000       1.00800           0
     50317 W2       16773    TIP3     OH2      OT      -0.834000       15.9994           0
     50318 W2       16773    TIP3     H1       HT       0.417000       1.00800           0
     50319 W2       16773    TIP3     H2       HT       0.417000       1.00800           0
     50320 W2       16774    TIP3     OH2      OT      -0.834000       15.9994           0
     50321 W2       16774    TIP3     H1       HT       0.417000       1.00800           0
     50322 W2       16774    TIP3     H2       HT       0.417000       1.00800           0
     50323 W2       16775    TIP3     OH2      OT      -0.834000       15.9994           0
     50324 W2       16775    TIP3     H1       HT       0.417000       1.00800           0
     50325 W2       16775    TIP3     H2       HT       0.417000       1.00800           0
     50326 W2       16776    TIP3     OH2      OT      -0.834000       15.9994           0
     50327 W2       16776    TIP3     H1       HT       0.417000       1.00800           0
     50328 W2       16776    TIP3     H2       HT       0.417000       1.00800           0
     50329 W2       16777    TIP3     OH2      OT      -0.834000       15.9994           0
     50330 W2       16777    TIP3     H1       HT       0.417000       1.00800           0
     50331 W2       16777    TIP3     H2       HT       0.417000       1.00800           0
     50332 W2       16778    TIP3     OH2      OT      -0.834000       15.9994           0
     50333 W2       16778    TIP3     H1       HT       0.417000       1.00800           0
     50334 W2       16778    TIP3     H2       HT       0.417000       1.00800           0
     50335 W2       16779    TIP3     OH2      OT      -0.834000       15.9994           0
     50336 W2       16779    TIP3     H1       HT       0.417000       1.00800           0
     50337 W2       16779    TIP3     H2       HT       0.417000       1.00800           0
     50338 W2       16780    TIP3     OH2      OT      -0.834000       15.9994           0
     50339 W2       16780    TIP3     H1       HT       0.417000       1.00800           0
     50340 W2       16780    TIP3     H2       HT       0.417000       1.00800           0
     50341 W2       16781    TIP3     OH2      OT      -0.834000       15.9994           0
     50342 W2       16781    TIP3     H1       HT       0.417000       1.00800           0
     50343 W2       16781    TIP3     H2       HT       0.417000       1.00800           0
     50344 W2       16782    TIP3     OH2      OT      -0.834000       15.9994           0
     50345 W2       16782    TIP3     H1       HT       0.417000       1.00800           0
     50346 W2       16782    TIP3     H2       HT       0.417000       1.00800           0
     50347 W2       16783    TIP3     OH2      OT      -0.834000       15.9994           0
     50348 W2       16783    TIP3     H1       HT       0.417000       1.00800           0
     50349 W2       16783    TIP3     H2       HT       0.417000       1.00800           0
     50350 W2       16784    TIP3     OH2      OT      -0.834000       15.9994           0
     50351 W2       16784    TIP3     H1       HT       0.417000       1.00800           0
     50352 W2       16784    TIP3     H2       HT       0.417000       1.00800           0
     50353 W2       16785    TIP3     OH2      OT      -0.834000       15.9994           0
     50354 W2       16785    TIP3     H1       HT       0.417000       1.00800           0
     50355 W2       16785    TIP3     H2       HT       0.417000       1.00800           0
     50356 W2       16786    TIP3     OH2      OT      -0.834000       15.9994           0
     50357 W2       16786    TIP3     H1       HT       0.417000       1.00800           0
     50358 W2       16786    TIP3     H2       HT       0.417000       1.00800           0
     50359 W2       16787    TIP3     OH2      OT      -0.834000       15.9994           0
     50360 W2       16787    TIP3     H1       HT       0.417000       1.00800           0
     50361 W2       16787    TIP3     H2       HT       0.417000       1.00800           0
     50362 W2       16788    TIP3     OH2      OT      -0.834000       15.9994           0
     50363 W2       16788    TIP3     H1       HT       0.417000       1.00800           0
     50364 W2       16788    TIP3     H2       HT       0.417000       1.00800           0
     50365 W2       16789    TIP3     OH2      OT      -0.834000       15.9994           0
     50366 W2       16789    TIP3     H1       HT       0.417000       1.00800           0
     50367 W2       16789    TIP3     H2       HT       0.417000       1.00800           0
     50368 W2       16790    TIP3     OH2      OT      -0.834000       15.9994           0
     50369 W2       16790    TIP3     H1       HT       0.417000       1.00800           0
     50370 W2       16790    TIP3     H2       HT       0.417000       1.00800           0
     50371 W2       16791    TIP3     OH2      OT      -0.834000       15.9994           0
     50372 W2       16791    TIP3     H1       HT       0.417000       1.00800           0
     50373 W2       16791    TIP3     H2       HT       0.417000       1.00800           0
     50374 W2       16792    TIP3     OH2      OT      -0.834000       15.9994           0
     50375 W2       16792    TIP3     H1       HT       0.417000       1.00800           0
     50376 W2       16792    TIP3     H2       HT       0.417000       1.00800           0
     50377 W2       16793    TIP3     OH2      OT      -0.834000       15.9994           0
     50378 W2       16793    TIP3     H1       HT       0.417000       1.00800           0
     50379 W2       16793    TIP3     H2       HT       0.417000       1.00800           0
     50380 W2       16794    TIP3     OH2      OT      -0.834000       15.9994           0
     50381 W2       16794    TIP3     H1       HT       0.417000       1.00800           0
     50382 W2       16794    TIP3     H2       HT       0.417000       1.00800           0
     50383 W2       16795    TIP3     OH2      OT      -0.834000       15.9994           0
     50384 W2       16795    TIP3     H1       HT       0.417000       1.00800           0
     50385 W2       16795    TIP3     H2       HT       0.417000       1.00800           0
     50386 W2       16796    TIP3     OH2      OT      -0.834000       15.9994           0
     50387 W2       16796    TIP3     H1       HT       0.417000       1.00800           0
     50388 W2       16796    TIP3     H2       HT       0.417000       1.00800           0
     50389 W2       16797    TIP3     OH2      OT      -0.834000       15.9994           0
     50390 W2       16797    TIP3     H1       HT       0.417000       1.00800           0
     50391 W2       16797    TIP3     H2       HT       0.417000       1.00800           0
     50392 W2       16798    TIP3     OH2      OT      -0.834000       15.9994           0
     50393 W2       16798    TIP3     H1       HT       0.417000       1.00800           0
     50394 W2       16798    TIP3     H2       HT       0.417000       1.00800           0
     50395 W2       16799    TIP3     OH2      OT      -0.834000       15.9994           0
     50396 W2       16799    TIP3     H1       HT       0.417000       1.00800           0
     50397 W2       16799    TIP3     H2       HT       0.417000       1.00800           0
     50398 W2       16800    TIP3     OH2      OT      -0.834000       15.9994           0
     50399 W2       16800    TIP3     H1       HT       0.417000       1.00800           0
     50400 W2       16800    TIP3     H2       HT       0.417000       1.00800           0
     50401 W2       16801    TIP3     OH2      OT      -0.834000       15.9994           0
     50402 W2       16801    TIP3     H1       HT       0.417000       1.00800           0
     50403 W2       16801    TIP3     H2       HT       0.417000       1.00800           0
     50404 W2       16802    TIP3     OH2      OT      -0.834000       15.9994           0
     50405 W2       16802    TIP3     H1       HT       0.417000       1.00800           0
     50406 W2       16802    TIP3     H2       HT       0.417000       1.00800           0
     50407 W2       16803    TIP3     OH2      OT      -0.834000       15.9994           0
     50408 W2       16803    TIP3     H1       HT       0.417000       1.00800           0
     50409 W2       16803    TIP3     H2       HT       0.417000       1.00800           0
     50410 W2       16804    TIP3     OH2      OT      -0.834000       15.9994           0
     50411 W2       16804    TIP3     H1       HT       0.417000       1.00800           0
     50412 W2       16804    TIP3     H2       HT       0.417000       1.00800           0
     50413 W2       16805    TIP3     OH2      OT      -0.834000       15.9994           0
     50414 W2       16805    TIP3     H1       HT       0.417000       1.00800           0
     50415 W2       16805    TIP3     H2       HT       0.417000       1.00800           0
     50416 W2       16806    TIP3     OH2      OT      -0.834000       15.9994           0
     50417 W2       16806    TIP3     H1       HT       0.417000       1.00800           0
     50418 W2       16806    TIP3     H2       HT       0.417000       1.00800           0
     50419 W2       16807    TIP3     OH2      OT      -0.834000       15.9994           0
     50420 W2       16807    TIP3     H1       HT       0.417000       1.00800           0
     50421 W2       16807    TIP3     H2       HT       0.417000       1.00800           0
     50422 W2       16808    TIP3     OH2      OT      -0.834000       15.9994           0
     50423 W2       16808    TIP3     H1       HT       0.417000       1.00800           0
     50424 W2       16808    TIP3     H2       HT       0.417000       1.00800           0
     50425 W2       16809    TIP3     OH2      OT      -0.834000       15.9994           0
     50426 W2       16809    TIP3     H1       HT       0.417000       1.00800           0
     50427 W2       16809    TIP3     H2       HT       0.417000       1.00800           0
     50428 W2       16810    TIP3     OH2      OT      -0.834000       15.9994           0
     50429 W2       16810    TIP3     H1       HT       0.417000       1.00800           0
     50430 W2       16810    TIP3     H2       HT       0.417000       1.00800           0
     50431 W2       16811    TIP3     OH2      OT      -0.834000       15.9994           0
     50432 W2       16811    TIP3     H1       HT       0.417000       1.00800           0
     50433 W2       16811    TIP3     H2       HT       0.417000       1.00800           0
     50434 W2       16812    TIP3     OH2      OT      -0.834000       15.9994           0
     50435 W2       16812    TIP3     H1       HT       0.417000       1.00800           0
     50436 W2       16812    TIP3     H2       HT       0.417000       1.00800           0
     50437 W2       16813    TIP3     OH2      OT      -0.834000       15.9994           0
     50438 W2       16813    TIP3     H1       HT       0.417000       1.00800           0
     50439 W2       16813    TIP3     H2       HT       0.417000       1.00800           0
     50440 W2       16814    TIP3     OH2      OT      -0.834000       15.9994           0
     50441 W2       16814    TIP3     H1       HT       0.417000       1.00800           0
     50442 W2       16814    TIP3     H2       HT       0.417000       1.00800           0
     50443 W2       16815    TIP3     OH2      OT      -0.834000       15.9994           0
     50444 W2       16815    TIP3     H1       HT       0.417000       1.00800           0
     50445 W2       16815    TIP3     H2       HT       0.417000       1.00800           0
     50446 W2       16816    TIP3     OH2      OT      -0.834000       15.9994           0
     50447 W2       16816    TIP3     H1       HT       0.417000       1.00800           0
     50448 W2       16816    TIP3     H2       HT       0.417000       1.00800           0
     50449 W2       16817    TIP3     OH2      OT      -0.834000       15.9994           0
     50450 W2       16817    TIP3     H1       HT       0.417000       1.00800           0
     50451 W2       16817    TIP3     H2       HT       0.417000       1.00800           0
     50452 W2       16818    TIP3     OH2      OT      -0.834000       15.9994           0
     50453 W2       16818    TIP3     H1       HT       0.417000       1.00800           0
     50454 W2       16818    TIP3     H2       HT       0.417000       1.00800           0
     50455 W2       16819    TIP3     OH2      OT      -0.834000       15.9994           0
     50456 W2       16819    TIP3     H1       HT       0.417000       1.00800           0
     50457 W2       16819    TIP3     H2       HT       0.417000       1.00800           0
     50458 W2       16820    TIP3     OH2      OT      -0.834000       15.9994           0
     50459 W2       16820    TIP3     H1       HT       0.417000       1.00800           0
     50460 W2       16820    TIP3     H2       HT       0.417000       1.00800           0
     50461 W2       16821    TIP3     OH2      OT      -0.834000       15.9994           0
     50462 W2       16821    TIP3     H1       HT       0.417000       1.00800           0
     50463 W2       16821    TIP3     H2       HT       0.417000       1.00800           0
     50464 W2       16822    TIP3     OH2      OT      -0.834000       15.9994           0
     50465 W2       16822    TIP3     H1       HT       0.417000       1.00800           0
     50466 W2       16822    TIP3     H2       HT       0.417000       1.00800           0
     50467 W2       16823    TIP3     OH2      OT      -0.834000       15.9994           0
     50468 W2       16823    TIP3     H1       HT       0.417000       1.00800           0
     50469 W2       16823    TIP3     H2       HT       0.417000       1.00800           0
     50470 W2       16824    TIP3     OH2      OT      -0.834000       15.9994           0
     50471 W2       16824    TIP3     H1       HT       0.417000       1.00800           0
     50472 W2       16824    TIP3     H2       HT       0.417000       1.00800           0
     50473 W2       16825    TIP3     OH2      OT      -0.834000       15.9994           0
     50474 W2       16825    TIP3     H1       HT       0.417000       1.00800           0
     50475 W2       16825    TIP3     H2       HT       0.417000       1.00800           0
     50476 W2       16826    TIP3     OH2      OT      -0.834000       15.9994           0
     50477 W2       16826    TIP3     H1       HT       0.417000       1.00800           0
     50478 W2       16826    TIP3     H2       HT       0.417000       1.00800           0
     50479 W2       16827    TIP3     OH2      OT      -0.834000       15.9994           0
     50480 W2       16827    TIP3     H1       HT       0.417000       1.00800           0
     50481 W2       16827    TIP3     H2       HT       0.417000       1.00800           0
     50482 W2       16828    TIP3     OH2      OT      -0.834000       15.9994           0
     50483 W2       16828    TIP3     H1       HT       0.417000       1.00800           0
     50484 W2       16828    TIP3     H2       HT       0.417000       1.00800           0
     50485 W2       16829    TIP3     OH2      OT      -0.834000       15.9994           0
     50486 W2       16829    TIP3     H1       HT       0.417000       1.00800           0
     50487 W2       16829    TIP3     H2       HT       0.417000       1.00800           0
     50488 W2       16830    TIP3     OH2      OT      -0.834000       15.9994           0
     50489 W2       16830    TIP3     H1       HT       0.417000       1.00800           0
     50490 W2       16830    TIP3     H2       HT       0.417000       1.00800           0
     50491 W2       16831    TIP3     OH2      OT      -0.834000       15.9994           0
     50492 W2       16831    TIP3     H1       HT       0.417000       1.00800           0
     50493 W2       16831    TIP3     H2       HT       0.417000       1.00800           0
     50494 W2       16832    TIP3     OH2      OT      -0.834000       15.9994           0
     50495 W2       16832    TIP3     H1       HT       0.417000       1.00800           0
     50496 W2       16832    TIP3     H2       HT       0.417000       1.00800           0
     50497 W2       16833    TIP3     OH2      OT      -0.834000       15.9994           0
     50498 W2       16833    TIP3     H1       HT       0.417000       1.00800           0
     50499 W2       16833    TIP3     H2       HT       0.417000       1.00800           0
     50500 W2       16834    TIP3     OH2      OT      -0.834000       15.9994           0
     50501 W2       16834    TIP3     H1       HT       0.417000       1.00800           0
     50502 W2       16834    TIP3     H2       HT       0.417000       1.00800           0
     50503 W2       16835    TIP3     OH2      OT      -0.834000       15.9994           0
     50504 W2       16835    TIP3     H1       HT       0.417000       1.00800           0
     50505 W2       16835    TIP3     H2       HT       0.417000       1.00800           0
     50506 W2       16836    TIP3     OH2      OT      -0.834000       15.9994           0
     50507 W2       16836    TIP3     H1       HT       0.417000       1.00800           0
     50508 W2       16836    TIP3     H2       HT       0.417000       1.00800           0
     50509 W2       16837    TIP3     OH2      OT      -0.834000       15.9994           0
     50510 W2       16837    TIP3     H1       HT       0.417000       1.00800           0
     50511 W2       16837    TIP3     H2       HT       0.417000       1.00800           0
     50512 W2       16838    TIP3     OH2      OT      -0.834000       15.9994           0
     50513 W2       16838    TIP3     H1       HT       0.417000       1.00800           0
     50514 W2       16838    TIP3     H2       HT       0.417000       1.00800           0
     50515 W2       16839    TIP3     OH2      OT      -0.834000       15.9994           0
     50516 W2       16839    TIP3     H1       HT       0.417000       1.00800           0
     50517 W2       16839    TIP3     H2       HT       0.417000       1.00800           0
     50518 W2       16840    TIP3     OH2      OT      -0.834000       15.9994           0
     50519 W2       16840    TIP3     H1       HT       0.417000       1.00800           0
     50520 W2       16840    TIP3     H2       HT       0.417000       1.00800           0
     50521 W2       16841    TIP3     OH2      OT      -0.834000       15.9994           0
     50522 W2       16841    TIP3     H1       HT       0.417000       1.00800           0
     50523 W2       16841    TIP3     H2       HT       0.417000       1.00800           0
     50524 W2       16842    TIP3     OH2      OT      -0.834000       15.9994           0
     50525 W2       16842    TIP3     H1       HT       0.417000       1.00800           0
     50526 W2       16842    TIP3     H2       HT       0.417000       1.00800           0
     50527 W2       16843    TIP3     OH2      OT      -0.834000       15.9994           0
     50528 W2       16843    TIP3     H1       HT       0.417000       1.00800           0
     50529 W2       16843    TIP3     H2       HT       0.417000       1.00800           0
     50530 W2       16844    TIP3     OH2      OT      -0.834000       15.9994           0
     50531 W2       16844    TIP3     H1       HT       0.417000       1.00800           0
     50532 W2       16844    TIP3     H2       HT       0.417000       1.00800           0
     50533 W2       16845    TIP3     OH2      OT      -0.834000       15.9994           0
     50534 W2       16845    TIP3     H1       HT       0.417000       1.00800           0
     50535 W2       16845    TIP3     H2       HT       0.417000       1.00800           0
     50536 W2       16846    TIP3     OH2      OT      -0.834000       15.9994           0
     50537 W2       16846    TIP3     H1       HT       0.417000       1.00800           0
     50538 W2       16846    TIP3     H2       HT       0.417000       1.00800           0
     50539 W2       16847    TIP3     OH2      OT      -0.834000       15.9994           0
     50540 W2       16847    TIP3     H1       HT       0.417000       1.00800           0
     50541 W2       16847    TIP3     H2       HT       0.417000       1.00800           0
     50542 W2       16848    TIP3     OH2      OT      -0.834000       15.9994           0
     50543 W2       16848    TIP3     H1       HT       0.417000       1.00800           0
     50544 W2       16848    TIP3     H2       HT       0.417000       1.00800           0
     50545 W2       16849    TIP3     OH2      OT      -0.834000       15.9994           0
     50546 W2       16849    TIP3     H1       HT       0.417000       1.00800           0
     50547 W2       16849    TIP3     H2       HT       0.417000       1.00800           0
     50548 W2       16850    TIP3     OH2      OT      -0.834000       15.9994           0
     50549 W2       16850    TIP3     H1       HT       0.417000       1.00800           0
     50550 W2       16850    TIP3     H2       HT       0.417000       1.00800           0
     50551 W2       16851    TIP3     OH2      OT      -0.834000       15.9994           0
     50552 W2       16851    TIP3     H1       HT       0.417000       1.00800           0
     50553 W2       16851    TIP3     H2       HT       0.417000       1.00800           0
     50554 W2       16852    TIP3     OH2      OT      -0.834000       15.9994           0
     50555 W2       16852    TIP3     H1       HT       0.417000       1.00800           0
     50556 W2       16852    TIP3     H2       HT       0.417000       1.00800           0
     50557 W2       16853    TIP3     OH2      OT      -0.834000       15.9994           0
     50558 W2       16853    TIP3     H1       HT       0.417000       1.00800           0
     50559 W2       16853    TIP3     H2       HT       0.417000       1.00800           0
     50560 W2       16854    TIP3     OH2      OT      -0.834000       15.9994           0
     50561 W2       16854    TIP3     H1       HT       0.417000       1.00800           0
     50562 W2       16854    TIP3     H2       HT       0.417000       1.00800           0
     50563 W2       16855    TIP3     OH2      OT      -0.834000       15.9994           0
     50564 W2       16855    TIP3     H1       HT       0.417000       1.00800           0
     50565 W2       16855    TIP3     H2       HT       0.417000       1.00800           0
     50566 W2       16856    TIP3     OH2      OT      -0.834000       15.9994           0
     50567 W2       16856    TIP3     H1       HT       0.417000       1.00800           0
     50568 W2       16856    TIP3     H2       HT       0.417000       1.00800           0
     50569 W2       16857    TIP3     OH2      OT      -0.834000       15.9994           0
     50570 W2       16857    TIP3     H1       HT       0.417000       1.00800           0
     50571 W2       16857    TIP3     H2       HT       0.417000       1.00800           0
     50572 W2       16858    TIP3     OH2      OT      -0.834000       15.9994           0
     50573 W2       16858    TIP3     H1       HT       0.417000       1.00800           0
     50574 W2       16858    TIP3     H2       HT       0.417000       1.00800           0
     50575 W2       16859    TIP3     OH2      OT      -0.834000       15.9994           0
     50576 W2       16859    TIP3     H1       HT       0.417000       1.00800           0
     50577 W2       16859    TIP3     H2       HT       0.417000       1.00800           0
     50578 W2       16860    TIP3     OH2      OT      -0.834000       15.9994           0
     50579 W2       16860    TIP3     H1       HT       0.417000       1.00800           0
     50580 W2       16860    TIP3     H2       HT       0.417000       1.00800           0
     50581 W2       16861    TIP3     OH2      OT      -0.834000       15.9994           0
     50582 W2       16861    TIP3     H1       HT       0.417000       1.00800           0
     50583 W2       16861    TIP3     H2       HT       0.417000       1.00800           0
     50584 W2       16862    TIP3     OH2      OT      -0.834000       15.9994           0
     50585 W2       16862    TIP3     H1       HT       0.417000       1.00800           0
     50586 W2       16862    TIP3     H2       HT       0.417000       1.00800           0
     50587 W2       16863    TIP3     OH2      OT      -0.834000       15.9994           0
     50588 W2       16863    TIP3     H1       HT       0.417000       1.00800           0
     50589 W2       16863    TIP3     H2       HT       0.417000       1.00800           0
     50590 W2       16864    TIP3     OH2      OT      -0.834000       15.9994           0
     50591 W2       16864    TIP3     H1       HT       0.417000       1.00800           0
     50592 W2       16864    TIP3     H2       HT       0.417000       1.00800           0
     50593 W2       16865    TIP3     OH2      OT      -0.834000       15.9994           0
     50594 W2       16865    TIP3     H1       HT       0.417000       1.00800           0
     50595 W2       16865    TIP3     H2       HT       0.417000       1.00800           0
     50596 W2       16866    TIP3     OH2      OT      -0.834000       15.9994           0
     50597 W2       16866    TIP3     H1       HT       0.417000       1.00800           0
     50598 W2       16866    TIP3     H2       HT       0.417000       1.00800           0
     50599 W2       16867    TIP3     OH2      OT      -0.834000       15.9994           0
     50600 W2       16867    TIP3     H1       HT       0.417000       1.00800           0
     50601 W2       16867    TIP3     H2       HT       0.417000       1.00800           0
     50602 W2       16868    TIP3     OH2      OT      -0.834000       15.9994           0
     50603 W2       16868    TIP3     H1       HT       0.417000       1.00800           0
     50604 W2       16868    TIP3     H2       HT       0.417000       1.00800           0
     50605 W2       16869    TIP3     OH2      OT      -0.834000       15.9994           0
     50606 W2       16869    TIP3     H1       HT       0.417000       1.00800           0
     50607 W2       16869    TIP3     H2       HT       0.417000       1.00800           0
     50608 W2       16870    TIP3     OH2      OT      -0.834000       15.9994           0
     50609 W2       16870    TIP3     H1       HT       0.417000       1.00800           0
     50610 W2       16870    TIP3     H2       HT       0.417000       1.00800           0
     50611 W2       16871    TIP3     OH2      OT      -0.834000       15.9994           0
     50612 W2       16871    TIP3     H1       HT       0.417000       1.00800           0
     50613 W2       16871    TIP3     H2       HT       0.417000       1.00800           0
     50614 W2       16872    TIP3     OH2      OT      -0.834000       15.9994           0
     50615 W2       16872    TIP3     H1       HT       0.417000       1.00800           0
     50616 W2       16872    TIP3     H2       HT       0.417000       1.00800           0
     50617 W2       16873    TIP3     OH2      OT      -0.834000       15.9994           0
     50618 W2       16873    TIP3     H1       HT       0.417000       1.00800           0
     50619 W2       16873    TIP3     H2       HT       0.417000       1.00800           0
     50620 W2       16874    TIP3     OH2      OT      -0.834000       15.9994           0
     50621 W2       16874    TIP3     H1       HT       0.417000       1.00800           0
     50622 W2       16874    TIP3     H2       HT       0.417000       1.00800           0
     50623 W2       16875    TIP3     OH2      OT      -0.834000       15.9994           0
     50624 W2       16875    TIP3     H1       HT       0.417000       1.00800           0
     50625 W2       16875    TIP3     H2       HT       0.417000       1.00800           0
     50626 W2       16876    TIP3     OH2      OT      -0.834000       15.9994           0
     50627 W2       16876    TIP3     H1       HT       0.417000       1.00800           0
     50628 W2       16876    TIP3     H2       HT       0.417000       1.00800           0
     50629 W2       16877    TIP3     OH2      OT      -0.834000       15.9994           0
     50630 W2       16877    TIP3     H1       HT       0.417000       1.00800           0
     50631 W2       16877    TIP3     H2       HT       0.417000       1.00800           0
     50632 W2       16878    TIP3     OH2      OT      -0.834000       15.9994           0
     50633 W2       16878    TIP3     H1       HT       0.417000       1.00800           0
     50634 W2       16878    TIP3     H2       HT       0.417000       1.00800           0
     50635 W2       16879    TIP3     OH2      OT      -0.834000       15.9994           0
     50636 W2       16879    TIP3     H1       HT       0.417000       1.00800           0
     50637 W2       16879    TIP3     H2       HT       0.417000       1.00800           0
     50638 W2       16880    TIP3     OH2      OT      -0.834000       15.9994           0
     50639 W2       16880    TIP3     H1       HT       0.417000       1.00800           0
     50640 W2       16880    TIP3     H2       HT       0.417000       1.00800           0
     50641 W2       16881    TIP3     OH2      OT      -0.834000       15.9994           0
     50642 W2       16881    TIP3     H1       HT       0.417000       1.00800           0
     50643 W2       16881    TIP3     H2       HT       0.417000       1.00800           0
     50644 W2       16882    TIP3     OH2      OT      -0.834000       15.9994           0
     50645 W2       16882    TIP3     H1       HT       0.417000       1.00800           0
     50646 W2       16882    TIP3     H2       HT       0.417000       1.00800           0
     50647 W2       16883    TIP3     OH2      OT      -0.834000       15.9994           0
     50648 W2       16883    TIP3     H1       HT       0.417000       1.00800           0
     50649 W2       16883    TIP3     H2       HT       0.417000       1.00800           0
     50650 W2       16884    TIP3     OH2      OT      -0.834000       15.9994           0
     50651 W2       16884    TIP3     H1       HT       0.417000       1.00800           0
     50652 W2       16884    TIP3     H2       HT       0.417000       1.00800           0
     50653 W2       16885    TIP3     OH2      OT      -0.834000       15.9994           0
     50654 W2       16885    TIP3     H1       HT       0.417000       1.00800           0
     50655 W2       16885    TIP3     H2       HT       0.417000       1.00800           0
     50656 W2       16886    TIP3     OH2      OT      -0.834000       15.9994           0
     50657 W2       16886    TIP3     H1       HT       0.417000       1.00800           0
     50658 W2       16886    TIP3     H2       HT       0.417000       1.00800           0
     50659 W2       16887    TIP3     OH2      OT      -0.834000       15.9994           0
     50660 W2       16887    TIP3     H1       HT       0.417000       1.00800           0
     50661 W2       16887    TIP3     H2       HT       0.417000       1.00800           0
     50662 W2       16888    TIP3     OH2      OT      -0.834000       15.9994           0
     50663 W2       16888    TIP3     H1       HT       0.417000       1.00800           0
     50664 W2       16888    TIP3     H2       HT       0.417000       1.00800           0
     50665 W2       16889    TIP3     OH2      OT      -0.834000       15.9994           0
     50666 W2       16889    TIP3     H1       HT       0.417000       1.00800           0
     50667 W2       16889    TIP3     H2       HT       0.417000       1.00800           0
     50668 W2       16890    TIP3     OH2      OT      -0.834000       15.9994           0
     50669 W2       16890    TIP3     H1       HT       0.417000       1.00800           0
     50670 W2       16890    TIP3     H2       HT       0.417000       1.00800           0
     50671 W2       16891    TIP3     OH2      OT      -0.834000       15.9994           0
     50672 W2       16891    TIP3     H1       HT       0.417000       1.00800           0
     50673 W2       16891    TIP3     H2       HT       0.417000       1.00800           0
     50674 W2       16892    TIP3     OH2      OT      -0.834000       15.9994           0
     50675 W2       16892    TIP3     H1       HT       0.417000       1.00800           0
     50676 W2       16892    TIP3     H2       HT       0.417000       1.00800           0
     50677 W2       16893    TIP3     OH2      OT      -0.834000       15.9994           0
     50678 W2       16893    TIP3     H1       HT       0.417000       1.00800           0
     50679 W2       16893    TIP3     H2       HT       0.417000       1.00800           0
     50680 W2       16894    TIP3     OH2      OT      -0.834000       15.9994           0
     50681 W2       16894    TIP3     H1       HT       0.417000       1.00800           0
     50682 W2       16894    TIP3     H2       HT       0.417000       1.00800           0
     50683 W2       16895    TIP3     OH2      OT      -0.834000       15.9994           0
     50684 W2       16895    TIP3     H1       HT       0.417000       1.00800           0
     50685 W2       16895    TIP3     H2       HT       0.417000       1.00800           0
     50686 W2       16896    TIP3     OH2      OT      -0.834000       15.9994           0
     50687 W2       16896    TIP3     H1       HT       0.417000       1.00800           0
     50688 W2       16896    TIP3     H2       HT       0.417000       1.00800           0
     50689 W2       16897    TIP3     OH2      OT      -0.834000       15.9994           0
     50690 W2       16897    TIP3     H1       HT       0.417000       1.00800           0
     50691 W2       16897    TIP3     H2       HT       0.417000       1.00800           0
     50692 W2       16898    TIP3     OH2      OT      -0.834000       15.9994           0
     50693 W2       16898    TIP3     H1       HT       0.417000       1.00800           0
     50694 W2       16898    TIP3     H2       HT       0.417000       1.00800           0
     50695 W2       16899    TIP3     OH2      OT      -0.834000       15.9994           0
     50696 W2       16899    TIP3     H1       HT       0.417000       1.00800           0
     50697 W2       16899    TIP3     H2       HT       0.417000       1.00800           0
     50698 W2       16900    TIP3     OH2      OT      -0.834000       15.9994           0
     50699 W2       16900    TIP3     H1       HT       0.417000       1.00800           0
     50700 W2       16900    TIP3     H2       HT       0.417000       1.00800           0
     50701 W2       16901    TIP3     OH2      OT      -0.834000       15.9994           0
     50702 W2       16901    TIP3     H1       HT       0.417000       1.00800           0
     50703 W2       16901    TIP3     H2       HT       0.417000       1.00800           0
     50704 W2       16902    TIP3     OH2      OT      -0.834000       15.9994           0
     50705 W2       16902    TIP3     H1       HT       0.417000       1.00800           0
     50706 W2       16902    TIP3     H2       HT       0.417000       1.00800           0
     50707 W2       16903    TIP3     OH2      OT      -0.834000       15.9994           0
     50708 W2       16903    TIP3     H1       HT       0.417000       1.00800           0
     50709 W2       16903    TIP3     H2       HT       0.417000       1.00800           0
     50710 W2       16904    TIP3     OH2      OT      -0.834000       15.9994           0
     50711 W2       16904    TIP3     H1       HT       0.417000       1.00800           0
     50712 W2       16904    TIP3     H2       HT       0.417000       1.00800           0
     50713 W2       16905    TIP3     OH2      OT      -0.834000       15.9994           0
     50714 W2       16905    TIP3     H1       HT       0.417000       1.00800           0
     50715 W2       16905    TIP3     H2       HT       0.417000       1.00800           0
     50716 W2       16906    TIP3     OH2      OT      -0.834000       15.9994           0
     50717 W2       16906    TIP3     H1       HT       0.417000       1.00800           0
     50718 W2       16906    TIP3     H2       HT       0.417000       1.00800           0
     50719 W2       16907    TIP3     OH2      OT      -0.834000       15.9994           0
     50720 W2       16907    TIP3     H1       HT       0.417000       1.00800           0
     50721 W2       16907    TIP3     H2       HT       0.417000       1.00800           0
     50722 W2       16908    TIP3     OH2      OT      -0.834000       15.9994           0
     50723 W2       16908    TIP3     H1       HT       0.417000       1.00800           0
     50724 W2       16908    TIP3     H2       HT       0.417000       1.00800           0
     50725 W2       16909    TIP3     OH2      OT      -0.834000       15.9994           0
     50726 W2       16909    TIP3     H1       HT       0.417000       1.00800           0
     50727 W2       16909    TIP3     H2       HT       0.417000       1.00800           0
     50728 W2       16910    TIP3     OH2      OT      -0.834000       15.9994           0
     50729 W2       16910    TIP3     H1       HT       0.417000       1.00800           0
     50730 W2       16910    TIP3     H2       HT       0.417000       1.00800           0
     50731 W2       16911    TIP3     OH2      OT      -0.834000       15.9994           0
     50732 W2       16911    TIP3     H1       HT       0.417000       1.00800           0
     50733 W2       16911    TIP3     H2       HT       0.417000       1.00800           0
     50734 W2       16912    TIP3     OH2      OT      -0.834000       15.9994           0
     50735 W2       16912    TIP3     H1       HT       0.417000       1.00800           0
     50736 W2       16912    TIP3     H2       HT       0.417000       1.00800           0
     50737 W2       16913    TIP3     OH2      OT      -0.834000       15.9994           0
     50738 W2       16913    TIP3     H1       HT       0.417000       1.00800           0
     50739 W2       16913    TIP3     H2       HT       0.417000       1.00800           0
     50740 W2       16914    TIP3     OH2      OT      -0.834000       15.9994           0
     50741 W2       16914    TIP3     H1       HT       0.417000       1.00800           0
     50742 W2       16914    TIP3     H2       HT       0.417000       1.00800           0
     50743 W2       16915    TIP3     OH2      OT      -0.834000       15.9994           0
     50744 W2       16915    TIP3     H1       HT       0.417000       1.00800           0
     50745 W2       16915    TIP3     H2       HT       0.417000       1.00800           0
     50746 W2       16916    TIP3     OH2      OT      -0.834000       15.9994           0
     50747 W2       16916    TIP3     H1       HT       0.417000       1.00800           0
     50748 W2       16916    TIP3     H2       HT       0.417000       1.00800           0
     50749 W2       16917    TIP3     OH2      OT      -0.834000       15.9994           0
     50750 W2       16917    TIP3     H1       HT       0.417000       1.00800           0
     50751 W2       16917    TIP3     H2       HT       0.417000       1.00800           0
     50752 W2       16918    TIP3     OH2      OT      -0.834000       15.9994           0
     50753 W2       16918    TIP3     H1       HT       0.417000       1.00800           0
     50754 W2       16918    TIP3     H2       HT       0.417000       1.00800           0
     50755 W2       16919    TIP3     OH2      OT      -0.834000       15.9994           0
     50756 W2       16919    TIP3     H1       HT       0.417000       1.00800           0
     50757 W2       16919    TIP3     H2       HT       0.417000       1.00800           0
     50758 W2       16920    TIP3     OH2      OT      -0.834000       15.9994           0
     50759 W2       16920    TIP3     H1       HT       0.417000       1.00800           0
     50760 W2       16920    TIP3     H2       HT       0.417000       1.00800           0
     50761 W2       16921    TIP3     OH2      OT      -0.834000       15.9994           0
     50762 W2       16921    TIP3     H1       HT       0.417000       1.00800           0
     50763 W2       16921    TIP3     H2       HT       0.417000       1.00800           0
     50764 W2       16922    TIP3     OH2      OT      -0.834000       15.9994           0
     50765 W2       16922    TIP3     H1       HT       0.417000       1.00800           0
     50766 W2       16922    TIP3     H2       HT       0.417000       1.00800           0
     50767 W2       16923    TIP3     OH2      OT      -0.834000       15.9994           0
     50768 W2       16923    TIP3     H1       HT       0.417000       1.00800           0
     50769 W2       16923    TIP3     H2       HT       0.417000       1.00800           0
     50770 W2       16924    TIP3     OH2      OT      -0.834000       15.9994           0
     50771 W2       16924    TIP3     H1       HT       0.417000       1.00800           0
     50772 W2       16924    TIP3     H2       HT       0.417000       1.00800           0
     50773 W2       16925    TIP3     OH2      OT      -0.834000       15.9994           0
     50774 W2       16925    TIP3     H1       HT       0.417000       1.00800           0
     50775 W2       16925    TIP3     H2       HT       0.417000       1.00800           0
     50776 W2       16926    TIP3     OH2      OT      -0.834000       15.9994           0
     50777 W2       16926    TIP3     H1       HT       0.417000       1.00800           0
     50778 W2       16926    TIP3     H2       HT       0.417000       1.00800           0
     50779 W2       16927    TIP3     OH2      OT      -0.834000       15.9994           0
     50780 W2       16927    TIP3     H1       HT       0.417000       1.00800           0
     50781 W2       16927    TIP3     H2       HT       0.417000       1.00800           0
     50782 W2       16928    TIP3     OH2      OT      -0.834000       15.9994           0
     50783 W2       16928    TIP3     H1       HT       0.417000       1.00800           0
     50784 W2       16928    TIP3     H2       HT       0.417000       1.00800           0
     50785 W2       16929    TIP3     OH2      OT      -0.834000       15.9994           0
     50786 W2       16929    TIP3     H1       HT       0.417000       1.00800           0
     50787 W2       16929    TIP3     H2       HT       0.417000       1.00800           0
     50788 W2       16930    TIP3     OH2      OT      -0.834000       15.9994           0
     50789 W2       16930    TIP3     H1       HT       0.417000       1.00800           0
     50790 W2       16930    TIP3     H2       HT       0.417000       1.00800           0
     50791 W2       16931    TIP3     OH2      OT      -0.834000       15.9994           0
     50792 W2       16931    TIP3     H1       HT       0.417000       1.00800           0
     50793 W2       16931    TIP3     H2       HT       0.417000       1.00800           0
     50794 W2       16932    TIP3     OH2      OT      -0.834000       15.9994           0
     50795 W2       16932    TIP3     H1       HT       0.417000       1.00800           0
     50796 W2       16932    TIP3     H2       HT       0.417000       1.00800           0
     50797 W2       16933    TIP3     OH2      OT      -0.834000       15.9994           0
     50798 W2       16933    TIP3     H1       HT       0.417000       1.00800           0
     50799 W2       16933    TIP3     H2       HT       0.417000       1.00800           0
     50800 W2       16934    TIP3     OH2      OT      -0.834000       15.9994           0
     50801 W2       16934    TIP3     H1       HT       0.417000       1.00800           0
     50802 W2       16934    TIP3     H2       HT       0.417000       1.00800           0
     50803 W2       16935    TIP3     OH2      OT      -0.834000       15.9994           0
     50804 W2       16935    TIP3     H1       HT       0.417000       1.00800           0
     50805 W2       16935    TIP3     H2       HT       0.417000       1.00800           0
     50806 W2       16936    TIP3     OH2      OT      -0.834000       15.9994           0
     50807 W2       16936    TIP3     H1       HT       0.417000       1.00800           0
     50808 W2       16936    TIP3     H2       HT       0.417000       1.00800           0
     50809 W2       16937    TIP3     OH2      OT      -0.834000       15.9994           0
     50810 W2       16937    TIP3     H1       HT       0.417000       1.00800           0
     50811 W2       16937    TIP3     H2       HT       0.417000       1.00800           0
     50812 W2       16938    TIP3     OH2      OT      -0.834000       15.9994           0
     50813 W2       16938    TIP3     H1       HT       0.417000       1.00800           0
     50814 W2       16938    TIP3     H2       HT       0.417000       1.00800           0
     50815 W2       16939    TIP3     OH2      OT      -0.834000       15.9994           0
     50816 W2       16939    TIP3     H1       HT       0.417000       1.00800           0
     50817 W2       16939    TIP3     H2       HT       0.417000       1.00800           0
     50818 W2       16940    TIP3     OH2      OT      -0.834000       15.9994           0
     50819 W2       16940    TIP3     H1       HT       0.417000       1.00800           0
     50820 W2       16940    TIP3     H2       HT       0.417000       1.00800           0
     50821 W2       16941    TIP3     OH2      OT      -0.834000       15.9994           0
     50822 W2       16941    TIP3     H1       HT       0.417000       1.00800           0
     50823 W2       16941    TIP3     H2       HT       0.417000       1.00800           0
     50824 W2       16942    TIP3     OH2      OT      -0.834000       15.9994           0
     50825 W2       16942    TIP3     H1       HT       0.417000       1.00800           0
     50826 W2       16942    TIP3     H2       HT       0.417000       1.00800           0
     50827 W2       16943    TIP3     OH2      OT      -0.834000       15.9994           0
     50828 W2       16943    TIP3     H1       HT       0.417000       1.00800           0
     50829 W2       16943    TIP3     H2       HT       0.417000       1.00800           0
     50830 W2       16944    TIP3     OH2      OT      -0.834000       15.9994           0
     50831 W2       16944    TIP3     H1       HT       0.417000       1.00800           0
     50832 W2       16944    TIP3     H2       HT       0.417000       1.00800           0
     50833 W2       16945    TIP3     OH2      OT      -0.834000       15.9994           0
     50834 W2       16945    TIP3     H1       HT       0.417000       1.00800           0
     50835 W2       16945    TIP3     H2       HT       0.417000       1.00800           0
     50836 W2       16946    TIP3     OH2      OT      -0.834000       15.9994           0
     50837 W2       16946    TIP3     H1       HT       0.417000       1.00800           0
     50838 W2       16946    TIP3     H2       HT       0.417000       1.00800           0
     50839 W2       16947    TIP3     OH2      OT      -0.834000       15.9994           0
     50840 W2       16947    TIP3     H1       HT       0.417000       1.00800           0
     50841 W2       16947    TIP3     H2       HT       0.417000       1.00800           0
     50842 W2       16948    TIP3     OH2      OT      -0.834000       15.9994           0
     50843 W2       16948    TIP3     H1       HT       0.417000       1.00800           0
     50844 W2       16948    TIP3     H2       HT       0.417000       1.00800           0
     50845 W2       16949    TIP3     OH2      OT      -0.834000       15.9994           0
     50846 W2       16949    TIP3     H1       HT       0.417000       1.00800           0
     50847 W2       16949    TIP3     H2       HT       0.417000       1.00800           0
     50848 W2       16950    TIP3     OH2      OT      -0.834000       15.9994           0
     50849 W2       16950    TIP3     H1       HT       0.417000       1.00800           0
     50850 W2       16950    TIP3     H2       HT       0.417000       1.00800           0
     50851 W2       16951    TIP3     OH2      OT      -0.834000       15.9994           0
     50852 W2       16951    TIP3     H1       HT       0.417000       1.00800           0
     50853 W2       16951    TIP3     H2       HT       0.417000       1.00800           0
     50854 W2       16952    TIP3     OH2      OT      -0.834000       15.9994           0
     50855 W2       16952    TIP3     H1       HT       0.417000       1.00800           0
     50856 W2       16952    TIP3     H2       HT       0.417000       1.00800           0
     50857 W2       16953    TIP3     OH2      OT      -0.834000       15.9994           0
     50858 W2       16953    TIP3     H1       HT       0.417000       1.00800           0
     50859 W2       16953    TIP3     H2       HT       0.417000       1.00800           0
     50860 W2       16954    TIP3     OH2      OT      -0.834000       15.9994           0
     50861 W2       16954    TIP3     H1       HT       0.417000       1.00800           0
     50862 W2       16954    TIP3     H2       HT       0.417000       1.00800           0
     50863 W2       16955    TIP3     OH2      OT      -0.834000       15.9994           0
     50864 W2       16955    TIP3     H1       HT       0.417000       1.00800           0
     50865 W2       16955    TIP3     H2       HT       0.417000       1.00800           0
     50866 W2       16956    TIP3     OH2      OT      -0.834000       15.9994           0
     50867 W2       16956    TIP3     H1       HT       0.417000       1.00800           0
     50868 W2       16956    TIP3     H2       HT       0.417000       1.00800           0
     50869 W2       16957    TIP3     OH2      OT      -0.834000       15.9994           0
     50870 W2       16957    TIP3     H1       HT       0.417000       1.00800           0
     50871 W2       16957    TIP3     H2       HT       0.417000       1.00800           0
     50872 W2       16958    TIP3     OH2      OT      -0.834000       15.9994           0
     50873 W2       16958    TIP3     H1       HT       0.417000       1.00800           0
     50874 W2       16958    TIP3     H2       HT       0.417000       1.00800           0
     50875 W2       16959    TIP3     OH2      OT      -0.834000       15.9994           0
     50876 W2       16959    TIP3     H1       HT       0.417000       1.00800           0
     50877 W2       16959    TIP3     H2       HT       0.417000       1.00800           0
     50878 W2       16960    TIP3     OH2      OT      -0.834000       15.9994           0
     50879 W2       16960    TIP3     H1       HT       0.417000       1.00800           0
     50880 W2       16960    TIP3     H2       HT       0.417000       1.00800           0
     50881 W2       16961    TIP3     OH2      OT      -0.834000       15.9994           0
     50882 W2       16961    TIP3     H1       HT       0.417000       1.00800           0
     50883 W2       16961    TIP3     H2       HT       0.417000       1.00800           0
     50884 W2       16962    TIP3     OH2      OT      -0.834000       15.9994           0
     50885 W2       16962    TIP3     H1       HT       0.417000       1.00800           0
     50886 W2       16962    TIP3     H2       HT       0.417000       1.00800           0
     50887 W2       16963    TIP3     OH2      OT      -0.834000       15.9994           0
     50888 W2       16963    TIP3     H1       HT       0.417000       1.00800           0
     50889 W2       16963    TIP3     H2       HT       0.417000       1.00800           0
     50890 W2       16964    TIP3     OH2      OT      -0.834000       15.9994           0
     50891 W2       16964    TIP3     H1       HT       0.417000       1.00800           0
     50892 W2       16964    TIP3     H2       HT       0.417000       1.00800           0
     50893 W2       16965    TIP3     OH2      OT      -0.834000       15.9994           0
     50894 W2       16965    TIP3     H1       HT       0.417000       1.00800           0
     50895 W2       16965    TIP3     H2       HT       0.417000       1.00800           0
     50896 W2       16966    TIP3     OH2      OT      -0.834000       15.9994           0
     50897 W2       16966    TIP3     H1       HT       0.417000       1.00800           0
     50898 W2       16966    TIP3     H2       HT       0.417000       1.00800           0
     50899 W2       16967    TIP3     OH2      OT      -0.834000       15.9994           0
     50900 W2       16967    TIP3     H1       HT       0.417000       1.00800           0
     50901 W2       16967    TIP3     H2       HT       0.417000       1.00800           0
     50902 W2       16968    TIP3     OH2      OT      -0.834000       15.9994           0
     50903 W2       16968    TIP3     H1       HT       0.417000       1.00800           0
     50904 W2       16968    TIP3     H2       HT       0.417000       1.00800           0
     50905 W2       16969    TIP3     OH2      OT      -0.834000       15.9994           0
     50906 W2       16969    TIP3     H1       HT       0.417000       1.00800           0
     50907 W2       16969    TIP3     H2       HT       0.417000       1.00800           0
     50908 W2       16970    TIP3     OH2      OT      -0.834000       15.9994           0
     50909 W2       16970    TIP3     H1       HT       0.417000       1.00800           0
     50910 W2       16970    TIP3     H2       HT       0.417000       1.00800           0
     50911 W2       16971    TIP3     OH2      OT      -0.834000       15.9994           0
     50912 W2       16971    TIP3     H1       HT       0.417000       1.00800           0
     50913 W2       16971    TIP3     H2       HT       0.417000       1.00800           0
     50914 W2       16972    TIP3     OH2      OT      -0.834000       15.9994           0
     50915 W2       16972    TIP3     H1       HT       0.417000       1.00800           0
     50916 W2       16972    TIP3     H2       HT       0.417000       1.00800           0
     50917 W2       16973    TIP3     OH2      OT      -0.834000       15.9994           0
     50918 W2       16973    TIP3     H1       HT       0.417000       1.00800           0
     50919 W2       16973    TIP3     H2       HT       0.417000       1.00800           0
     50920 W2       16974    TIP3     OH2      OT      -0.834000       15.9994           0
     50921 W2       16974    TIP3     H1       HT       0.417000       1.00800           0
     50922 W2       16974    TIP3     H2       HT       0.417000       1.00800           0
     50923 W2       16975    TIP3     OH2      OT      -0.834000       15.9994           0
     50924 W2       16975    TIP3     H1       HT       0.417000       1.00800           0
     50925 W2       16975    TIP3     H2       HT       0.417000       1.00800           0
     50926 W2       16976    TIP3     OH2      OT      -0.834000       15.9994           0
     50927 W2       16976    TIP3     H1       HT       0.417000       1.00800           0
     50928 W2       16976    TIP3     H2       HT       0.417000       1.00800           0
     50929 W2       16977    TIP3     OH2      OT      -0.834000       15.9994           0
     50930 W2       16977    TIP3     H1       HT       0.417000       1.00800           0
     50931 W2       16977    TIP3     H2       HT       0.417000       1.00800           0
     50932 W2       16978    TIP3     OH2      OT      -0.834000       15.9994           0
     50933 W2       16978    TIP3     H1       HT       0.417000       1.00800           0
     50934 W2       16978    TIP3     H2       HT       0.417000       1.00800           0
     50935 W2       16979    TIP3     OH2      OT      -0.834000       15.9994           0
     50936 W2       16979    TIP3     H1       HT       0.417000       1.00800           0
     50937 W2       16979    TIP3     H2       HT       0.417000       1.00800           0
     50938 W2       16980    TIP3     OH2      OT      -0.834000       15.9994           0
     50939 W2       16980    TIP3     H1       HT       0.417000       1.00800           0
     50940 W2       16980    TIP3     H2       HT       0.417000       1.00800           0
     50941 W2       16981    TIP3     OH2      OT      -0.834000       15.9994           0
     50942 W2       16981    TIP3     H1       HT       0.417000       1.00800           0
     50943 W2       16981    TIP3     H2       HT       0.417000       1.00800           0
     50944 W2       16982    TIP3     OH2      OT      -0.834000       15.9994           0
     50945 W2       16982    TIP3     H1       HT       0.417000       1.00800           0
     50946 W2       16982    TIP3     H2       HT       0.417000       1.00800           0
     50947 W2       16983    TIP3     OH2      OT      -0.834000       15.9994           0
     50948 W2       16983    TIP3     H1       HT       0.417000       1.00800           0
     50949 W2       16983    TIP3     H2       HT       0.417000       1.00800           0
     50950 W2       16984    TIP3     OH2      OT      -0.834000       15.9994           0
     50951 W2       16984    TIP3     H1       HT       0.417000       1.00800           0
     50952 W2       16984    TIP3     H2       HT       0.417000       1.00800           0
     50953 W2       16985    TIP3     OH2      OT      -0.834000       15.9994           0
     50954 W2       16985    TIP3     H1       HT       0.417000       1.00800           0
     50955 W2       16985    TIP3     H2       HT       0.417000       1.00800           0
     50956 W2       16986    TIP3     OH2      OT      -0.834000       15.9994           0
     50957 W2       16986    TIP3     H1       HT       0.417000       1.00800           0
     50958 W2       16986    TIP3     H2       HT       0.417000       1.00800           0
     50959 W2       16987    TIP3     OH2      OT      -0.834000       15.9994           0
     50960 W2       16987    TIP3     H1       HT       0.417000       1.00800           0
     50961 W2       16987    TIP3     H2       HT       0.417000       1.00800           0
     50962 W2       16988    TIP3     OH2      OT      -0.834000       15.9994           0
     50963 W2       16988    TIP3     H1       HT       0.417000       1.00800           0
     50964 W2       16988    TIP3     H2       HT       0.417000       1.00800           0
     50965 W2       16989    TIP3     OH2      OT      -0.834000       15.9994           0
     50966 W2       16989    TIP3     H1       HT       0.417000       1.00800           0
     50967 W2       16989    TIP3     H2       HT       0.417000       1.00800           0
     50968 W2       16990    TIP3     OH2      OT      -0.834000       15.9994           0
     50969 W2       16990    TIP3     H1       HT       0.417000       1.00800           0
     50970 W2       16990    TIP3     H2       HT       0.417000       1.00800           0
     50971 W2       16991    TIP3     OH2      OT      -0.834000       15.9994           0
     50972 W2       16991    TIP3     H1       HT       0.417000       1.00800           0
     50973 W2       16991    TIP3     H2       HT       0.417000       1.00800           0
     50974 W2       16992    TIP3     OH2      OT      -0.834000       15.9994           0
     50975 W2       16992    TIP3     H1       HT       0.417000       1.00800           0
     50976 W2       16992    TIP3     H2       HT       0.417000       1.00800           0
     50977 W2       16993    TIP3     OH2      OT      -0.834000       15.9994           0
     50978 W2       16993    TIP3     H1       HT       0.417000       1.00800           0
     50979 W2       16993    TIP3     H2       HT       0.417000       1.00800           0
     50980 W2       16994    TIP3     OH2      OT      -0.834000       15.9994           0
     50981 W2       16994    TIP3     H1       HT       0.417000       1.00800           0
     50982 W2       16994    TIP3     H2       HT       0.417000       1.00800           0
     50983 W2       16995    TIP3     OH2      OT      -0.834000       15.9994           0
     50984 W2       16995    TIP3     H1       HT       0.417000       1.00800           0
     50985 W2       16995    TIP3     H2       HT       0.417000       1.00800           0
     50986 W2       16996    TIP3     OH2      OT      -0.834000       15.9994           0
     50987 W2       16996    TIP3     H1       HT       0.417000       1.00800           0
     50988 W2       16996    TIP3     H2       HT       0.417000       1.00800           0
     50989 W2       16997    TIP3     OH2      OT      -0.834000       15.9994           0
     50990 W2       16997    TIP3     H1       HT       0.417000       1.00800           0
     50991 W2       16997    TIP3     H2       HT       0.417000       1.00800           0
     50992 W2       16998    TIP3     OH2      OT      -0.834000       15.9994           0
     50993 W2       16998    TIP3     H1       HT       0.417000       1.00800           0
     50994 W2       16998    TIP3     H2       HT       0.417000       1.00800           0
     50995 W2       16999    TIP3     OH2      OT      -0.834000       15.9994           0
     50996 W2       16999    TIP3     H1       HT       0.417000       1.00800           0
     50997 W2       16999    TIP3     H2       HT       0.417000       1.00800           0
     50998 W2       17000    TIP3     OH2      OT      -0.834000       15.9994           0
     50999 W2       17000    TIP3     H1       HT       0.417000       1.00800           0
     51000 W2       17000    TIP3     H2       HT       0.417000       1.00800           0
     51001 W2       17001    TIP3     OH2      OT      -0.834000       15.9994           0
     51002 W2       17001    TIP3     H1       HT       0.417000       1.00800           0
     51003 W2       17001    TIP3     H2       HT       0.417000       1.00800           0
     51004 W2       17002    TIP3     OH2      OT      -0.834000       15.9994           0
     51005 W2       17002    TIP3     H1       HT       0.417000       1.00800           0
     51006 W2       17002    TIP3     H2       HT       0.417000       1.00800           0
     51007 W2       17003    TIP3     OH2      OT      -0.834000       15.9994           0
     51008 W2       17003    TIP3     H1       HT       0.417000       1.00800           0
     51009 W2       17003    TIP3     H2       HT       0.417000       1.00800           0
     51010 W2       17004    TIP3     OH2      OT      -0.834000       15.9994           0
     51011 W2       17004    TIP3     H1       HT       0.417000       1.00800           0
     51012 W2       17004    TIP3     H2       HT       0.417000       1.00800           0
     51013 W2       17005    TIP3     OH2      OT      -0.834000       15.9994           0
     51014 W2       17005    TIP3     H1       HT       0.417000       1.00800           0
     51015 W2       17005    TIP3     H2       HT       0.417000       1.00800           0
     51016 W2       17006    TIP3     OH2      OT      -0.834000       15.9994           0
     51017 W2       17006    TIP3     H1       HT       0.417000       1.00800           0
     51018 W2       17006    TIP3     H2       HT       0.417000       1.00800           0
     51019 W2       17007    TIP3     OH2      OT      -0.834000       15.9994           0
     51020 W2       17007    TIP3     H1       HT       0.417000       1.00800           0
     51021 W2       17007    TIP3     H2       HT       0.417000       1.00800           0
     51022 W2       17008    TIP3     OH2      OT      -0.834000       15.9994           0
     51023 W2       17008    TIP3     H1       HT       0.417000       1.00800           0
     51024 W2       17008    TIP3     H2       HT       0.417000       1.00800           0
     51025 W2       17009    TIP3     OH2      OT      -0.834000       15.9994           0
     51026 W2       17009    TIP3     H1       HT       0.417000       1.00800           0
     51027 W2       17009    TIP3     H2       HT       0.417000       1.00800           0
     51028 W2       17010    TIP3     OH2      OT      -0.834000       15.9994           0
     51029 W2       17010    TIP3     H1       HT       0.417000       1.00800           0
     51030 W2       17010    TIP3     H2       HT       0.417000       1.00800           0
     51031 W2       17011    TIP3     OH2      OT      -0.834000       15.9994           0
     51032 W2       17011    TIP3     H1       HT       0.417000       1.00800           0
     51033 W2       17011    TIP3     H2       HT       0.417000       1.00800           0
     51034 W2       17012    TIP3     OH2      OT      -0.834000       15.9994           0
     51035 W2       17012    TIP3     H1       HT       0.417000       1.00800           0
     51036 W2       17012    TIP3     H2       HT       0.417000       1.00800           0
     51037 W2       17013    TIP3     OH2      OT      -0.834000       15.9994           0
     51038 W2       17013    TIP3     H1       HT       0.417000       1.00800           0
     51039 W2       17013    TIP3     H2       HT       0.417000       1.00800           0
     51040 W2       17014    TIP3     OH2      OT      -0.834000       15.9994           0
     51041 W2       17014    TIP3     H1       HT       0.417000       1.00800           0
     51042 W2       17014    TIP3     H2       HT       0.417000       1.00800           0
     51043 W2       17015    TIP3     OH2      OT      -0.834000       15.9994           0
     51044 W2       17015    TIP3     H1       HT       0.417000       1.00800           0
     51045 W2       17015    TIP3     H2       HT       0.417000       1.00800           0
     51046 W2       17016    TIP3     OH2      OT      -0.834000       15.9994           0
     51047 W2       17016    TIP3     H1       HT       0.417000       1.00800           0
     51048 W2       17016    TIP3     H2       HT       0.417000       1.00800           0
     51049 W2       17017    TIP3     OH2      OT      -0.834000       15.9994           0
     51050 W2       17017    TIP3     H1       HT       0.417000       1.00800           0
     51051 W2       17017    TIP3     H2       HT       0.417000       1.00800           0
     51052 W2       17018    TIP3     OH2      OT      -0.834000       15.9994           0
     51053 W2       17018    TIP3     H1       HT       0.417000       1.00800           0
     51054 W2       17018    TIP3     H2       HT       0.417000       1.00800           0
     51055 W2       17019    TIP3     OH2      OT      -0.834000       15.9994           0
     51056 W2       17019    TIP3     H1       HT       0.417000       1.00800           0
     51057 W2       17019    TIP3     H2       HT       0.417000       1.00800           0
     51058 W2       17020    TIP3     OH2      OT      -0.834000       15.9994           0
     51059 W2       17020    TIP3     H1       HT       0.417000       1.00800           0
     51060 W2       17020    TIP3     H2       HT       0.417000       1.00800           0
     51061 W2       17021    TIP3     OH2      OT      -0.834000       15.9994           0
     51062 W2       17021    TIP3     H1       HT       0.417000       1.00800           0
     51063 W2       17021    TIP3     H2       HT       0.417000       1.00800           0
     51064 W2       17022    TIP3     OH2      OT      -0.834000       15.9994           0
     51065 W2       17022    TIP3     H1       HT       0.417000       1.00800           0
     51066 W2       17022    TIP3     H2       HT       0.417000       1.00800           0
     51067 W2       17023    TIP3     OH2      OT      -0.834000       15.9994           0
     51068 W2       17023    TIP3     H1       HT       0.417000       1.00800           0
     51069 W2       17023    TIP3     H2       HT       0.417000       1.00800           0
     51070 W2       17024    TIP3     OH2      OT      -0.834000       15.9994           0
     51071 W2       17024    TIP3     H1       HT       0.417000       1.00800           0
     51072 W2       17024    TIP3     H2       HT       0.417000       1.00800           0
     51073 W2       17025    TIP3     OH2      OT      -0.834000       15.9994           0
     51074 W2       17025    TIP3     H1       HT       0.417000       1.00800           0
     51075 W2       17025    TIP3     H2       HT       0.417000       1.00800           0
     51076 W2       17026    TIP3     OH2      OT      -0.834000       15.9994           0
     51077 W2       17026    TIP3     H1       HT       0.417000       1.00800           0
     51078 W2       17026    TIP3     H2       HT       0.417000       1.00800           0
     51079 W2       17027    TIP3     OH2      OT      -0.834000       15.9994           0
     51080 W2       17027    TIP3     H1       HT       0.417000       1.00800           0
     51081 W2       17027    TIP3     H2       HT       0.417000       1.00800           0
     51082 W2       17028    TIP3     OH2      OT      -0.834000       15.9994           0
     51083 W2       17028    TIP3     H1       HT       0.417000       1.00800           0
     51084 W2       17028    TIP3     H2       HT       0.417000       1.00800           0
     51085 W2       17029    TIP3     OH2      OT      -0.834000       15.9994           0
     51086 W2       17029    TIP3     H1       HT       0.417000       1.00800           0
     51087 W2       17029    TIP3     H2       HT       0.417000       1.00800           0
     51088 W2       17030    TIP3     OH2      OT      -0.834000       15.9994           0
     51089 W2       17030    TIP3     H1       HT       0.417000       1.00800           0
     51090 W2       17030    TIP3     H2       HT       0.417000       1.00800           0
     51091 W2       17031    TIP3     OH2      OT      -0.834000       15.9994           0
     51092 W2       17031    TIP3     H1       HT       0.417000       1.00800           0
     51093 W2       17031    TIP3     H2       HT       0.417000       1.00800           0
     51094 W2       17032    TIP3     OH2      OT      -0.834000       15.9994           0
     51095 W2       17032    TIP3     H1       HT       0.417000       1.00800           0
     51096 W2       17032    TIP3     H2       HT       0.417000       1.00800           0
     51097 W2       17033    TIP3     OH2      OT      -0.834000       15.9994           0
     51098 W2       17033    TIP3     H1       HT       0.417000       1.00800           0
     51099 W2       17033    TIP3     H2       HT       0.417000       1.00800           0
     51100 W2       17034    TIP3     OH2      OT      -0.834000       15.9994           0
     51101 W2       17034    TIP3     H1       HT       0.417000       1.00800           0
     51102 W2       17034    TIP3     H2       HT       0.417000       1.00800           0
     51103 W2       17035    TIP3     OH2      OT      -0.834000       15.9994           0
     51104 W2       17035    TIP3     H1       HT       0.417000       1.00800           0
     51105 W2       17035    TIP3     H2       HT       0.417000       1.00800           0
     51106 W2       17036    TIP3     OH2      OT      -0.834000       15.9994           0
     51107 W2       17036    TIP3     H1       HT       0.417000       1.00800           0
     51108 W2       17036    TIP3     H2       HT       0.417000       1.00800           0
     51109 W2       17037    TIP3     OH2      OT      -0.834000       15.9994           0
     51110 W2       17037    TIP3     H1       HT       0.417000       1.00800           0
     51111 W2       17037    TIP3     H2       HT       0.417000       1.00800           0
     51112 W2       17038    TIP3     OH2      OT      -0.834000       15.9994           0
     51113 W2       17038    TIP3     H1       HT       0.417000       1.00800           0
     51114 W2       17038    TIP3     H2       HT       0.417000       1.00800           0
     51115 W2       17039    TIP3     OH2      OT      -0.834000       15.9994           0
     51116 W2       17039    TIP3     H1       HT       0.417000       1.00800           0
     51117 W2       17039    TIP3     H2       HT       0.417000       1.00800           0
     51118 W2       17040    TIP3     OH2      OT      -0.834000       15.9994           0
     51119 W2       17040    TIP3     H1       HT       0.417000       1.00800           0
     51120 W2       17040    TIP3     H2       HT       0.417000       1.00800           0
     51121 W2       17041    TIP3     OH2      OT      -0.834000       15.9994           0
     51122 W2       17041    TIP3     H1       HT       0.417000       1.00800           0
     51123 W2       17041    TIP3     H2       HT       0.417000       1.00800           0
     51124 W2       17042    TIP3     OH2      OT      -0.834000       15.9994           0
     51125 W2       17042    TIP3     H1       HT       0.417000       1.00800           0
     51126 W2       17042    TIP3     H2       HT       0.417000       1.00800           0
     51127 W2       17043    TIP3     OH2      OT      -0.834000       15.9994           0
     51128 W2       17043    TIP3     H1       HT       0.417000       1.00800           0
     51129 W2       17043    TIP3     H2       HT       0.417000       1.00800           0
     51130 W2       17044    TIP3     OH2      OT      -0.834000       15.9994           0
     51131 W2       17044    TIP3     H1       HT       0.417000       1.00800           0
     51132 W2       17044    TIP3     H2       HT       0.417000       1.00800           0
     51133 W2       17045    TIP3     OH2      OT      -0.834000       15.9994           0
     51134 W2       17045    TIP3     H1       HT       0.417000       1.00800           0
     51135 W2       17045    TIP3     H2       HT       0.417000       1.00800           0
     51136 W2       17046    TIP3     OH2      OT      -0.834000       15.9994           0
     51137 W2       17046    TIP3     H1       HT       0.417000       1.00800           0
     51138 W2       17046    TIP3     H2       HT       0.417000       1.00800           0
     51139 W2       17047    TIP3     OH2      OT      -0.834000       15.9994           0
     51140 W2       17047    TIP3     H1       HT       0.417000       1.00800           0
     51141 W2       17047    TIP3     H2       HT       0.417000       1.00800           0
     51142 W2       17048    TIP3     OH2      OT      -0.834000       15.9994           0
     51143 W2       17048    TIP3     H1       HT       0.417000       1.00800           0
     51144 W2       17048    TIP3     H2       HT       0.417000       1.00800           0
     51145 W2       17049    TIP3     OH2      OT      -0.834000       15.9994           0
     51146 W2       17049    TIP3     H1       HT       0.417000       1.00800           0
     51147 W2       17049    TIP3     H2       HT       0.417000       1.00800           0
     51148 W2       17050    TIP3     OH2      OT      -0.834000       15.9994           0
     51149 W2       17050    TIP3     H1       HT       0.417000       1.00800           0
     51150 W2       17050    TIP3     H2       HT       0.417000       1.00800           0
     51151 W2       17051    TIP3     OH2      OT      -0.834000       15.9994           0
     51152 W2       17051    TIP3     H1       HT       0.417000       1.00800           0
     51153 W2       17051    TIP3     H2       HT       0.417000       1.00800           0
     51154 W2       17052    TIP3     OH2      OT      -0.834000       15.9994           0
     51155 W2       17052    TIP3     H1       HT       0.417000       1.00800           0
     51156 W2       17052    TIP3     H2       HT       0.417000       1.00800           0
     51157 W2       17053    TIP3     OH2      OT      -0.834000       15.9994           0
     51158 W2       17053    TIP3     H1       HT       0.417000       1.00800           0
     51159 W2       17053    TIP3     H2       HT       0.417000       1.00800           0
     51160 W2       17054    TIP3     OH2      OT      -0.834000       15.9994           0
     51161 W2       17054    TIP3     H1       HT       0.417000       1.00800           0
     51162 W2       17054    TIP3     H2       HT       0.417000       1.00800           0
     51163 W2       17055    TIP3     OH2      OT      -0.834000       15.9994           0
     51164 W2       17055    TIP3     H1       HT       0.417000       1.00800           0
     51165 W2       17055    TIP3     H2       HT       0.417000       1.00800           0
     51166 W2       17056    TIP3     OH2      OT      -0.834000       15.9994           0
     51167 W2       17056    TIP3     H1       HT       0.417000       1.00800           0
     51168 W2       17056    TIP3     H2       HT       0.417000       1.00800           0
     51169 W2       17057    TIP3     OH2      OT      -0.834000       15.9994           0
     51170 W2       17057    TIP3     H1       HT       0.417000       1.00800           0
     51171 W2       17057    TIP3     H2       HT       0.417000       1.00800           0
     51172 W2       17058    TIP3     OH2      OT      -0.834000       15.9994           0
     51173 W2       17058    TIP3     H1       HT       0.417000       1.00800           0
     51174 W2       17058    TIP3     H2       HT       0.417000       1.00800           0
     51175 W2       17059    TIP3     OH2      OT      -0.834000       15.9994           0
     51176 W2       17059    TIP3     H1       HT       0.417000       1.00800           0
     51177 W2       17059    TIP3     H2       HT       0.417000       1.00800           0
     51178 W2       17060    TIP3     OH2      OT      -0.834000       15.9994           0
     51179 W2       17060    TIP3     H1       HT       0.417000       1.00800           0
     51180 W2       17060    TIP3     H2       HT       0.417000       1.00800           0
     51181 W2       17061    TIP3     OH2      OT      -0.834000       15.9994           0
     51182 W2       17061    TIP3     H1       HT       0.417000       1.00800           0
     51183 W2       17061    TIP3     H2       HT       0.417000       1.00800           0
     51184 W2       17062    TIP3     OH2      OT      -0.834000       15.9994           0
     51185 W2       17062    TIP3     H1       HT       0.417000       1.00800           0
     51186 W2       17062    TIP3     H2       HT       0.417000       1.00800           0
     51187 W2       17063    TIP3     OH2      OT      -0.834000       15.9994           0
     51188 W2       17063    TIP3     H1       HT       0.417000       1.00800           0
     51189 W2       17063    TIP3     H2       HT       0.417000       1.00800           0
     51190 W2       17064    TIP3     OH2      OT      -0.834000       15.9994           0
     51191 W2       17064    TIP3     H1       HT       0.417000       1.00800           0
     51192 W2       17064    TIP3     H2       HT       0.417000       1.00800           0
     51193 W2       17065    TIP3     OH2      OT      -0.834000       15.9994           0
     51194 W2       17065    TIP3     H1       HT       0.417000       1.00800           0
     51195 W2       17065    TIP3     H2       HT       0.417000       1.00800           0
     51196 W2       17066    TIP3     OH2      OT      -0.834000       15.9994           0
     51197 W2       17066    TIP3     H1       HT       0.417000       1.00800           0
     51198 W2       17066    TIP3     H2       HT       0.417000       1.00800           0
     51199 W2       17067    TIP3     OH2      OT      -0.834000       15.9994           0
     51200 W2       17067    TIP3     H1       HT       0.417000       1.00800           0
     51201 W2       17067    TIP3     H2       HT       0.417000       1.00800           0
     51202 W2       17068    TIP3     OH2      OT      -0.834000       15.9994           0
     51203 W2       17068    TIP3     H1       HT       0.417000       1.00800           0
     51204 W2       17068    TIP3     H2       HT       0.417000       1.00800           0
     51205 W2       17069    TIP3     OH2      OT      -0.834000       15.9994           0
     51206 W2       17069    TIP3     H1       HT       0.417000       1.00800           0
     51207 W2       17069    TIP3     H2       HT       0.417000       1.00800           0
     51208 W2       17070    TIP3     OH2      OT      -0.834000       15.9994           0
     51209 W2       17070    TIP3     H1       HT       0.417000       1.00800           0
     51210 W2       17070    TIP3     H2       HT       0.417000       1.00800           0
     51211 W2       17071    TIP3     OH2      OT      -0.834000       15.9994           0
     51212 W2       17071    TIP3     H1       HT       0.417000       1.00800           0
     51213 W2       17071    TIP3     H2       HT       0.417000       1.00800           0
     51214 W2       17072    TIP3     OH2      OT      -0.834000       15.9994           0
     51215 W2       17072    TIP3     H1       HT       0.417000       1.00800           0
     51216 W2       17072    TIP3     H2       HT       0.417000       1.00800           0
     51217 W2       17073    TIP3     OH2      OT      -0.834000       15.9994           0
     51218 W2       17073    TIP3     H1       HT       0.417000       1.00800           0
     51219 W2       17073    TIP3     H2       HT       0.417000       1.00800           0
     51220 W2       17074    TIP3     OH2      OT      -0.834000       15.9994           0
     51221 W2       17074    TIP3     H1       HT       0.417000       1.00800           0
     51222 W2       17074    TIP3     H2       HT       0.417000       1.00800           0
     51223 W2       17075    TIP3     OH2      OT      -0.834000       15.9994           0
     51224 W2       17075    TIP3     H1       HT       0.417000       1.00800           0
     51225 W2       17075    TIP3     H2       HT       0.417000       1.00800           0
     51226 W2       17076    TIP3     OH2      OT      -0.834000       15.9994           0
     51227 W2       17076    TIP3     H1       HT       0.417000       1.00800           0
     51228 W2       17076    TIP3     H2       HT       0.417000       1.00800           0
     51229 W2       17077    TIP3     OH2      OT      -0.834000       15.9994           0
     51230 W2       17077    TIP3     H1       HT       0.417000       1.00800           0
     51231 W2       17077    TIP3     H2       HT       0.417000       1.00800           0
     51232 W2       17078    TIP3     OH2      OT      -0.834000       15.9994           0
     51233 W2       17078    TIP3     H1       HT       0.417000       1.00800           0
     51234 W2       17078    TIP3     H2       HT       0.417000       1.00800           0
     51235 W2       17079    TIP3     OH2      OT      -0.834000       15.9994           0
     51236 W2       17079    TIP3     H1       HT       0.417000       1.00800           0
     51237 W2       17079    TIP3     H2       HT       0.417000       1.00800           0
     51238 W2       17080    TIP3     OH2      OT      -0.834000       15.9994           0
     51239 W2       17080    TIP3     H1       HT       0.417000       1.00800           0
     51240 W2       17080    TIP3     H2       HT       0.417000       1.00800           0
     51241 W2       17081    TIP3     OH2      OT      -0.834000       15.9994           0
     51242 W2       17081    TIP3     H1       HT       0.417000       1.00800           0
     51243 W2       17081    TIP3     H2       HT       0.417000       1.00800           0
     51244 W2       17082    TIP3     OH2      OT      -0.834000       15.9994           0
     51245 W2       17082    TIP3     H1       HT       0.417000       1.00800           0
     51246 W2       17082    TIP3     H2       HT       0.417000       1.00800           0
     51247 W2       17083    TIP3     OH2      OT      -0.834000       15.9994           0
     51248 W2       17083    TIP3     H1       HT       0.417000       1.00800           0
     51249 W2       17083    TIP3     H2       HT       0.417000       1.00800           0
     51250 W2       17084    TIP3     OH2      OT      -0.834000       15.9994           0
     51251 W2       17084    TIP3     H1       HT       0.417000       1.00800           0
     51252 W2       17084    TIP3     H2       HT       0.417000       1.00800           0
     51253 W2       17085    TIP3     OH2      OT      -0.834000       15.9994           0
     51254 W2       17085    TIP3     H1       HT       0.417000       1.00800           0
     51255 W2       17085    TIP3     H2       HT       0.417000       1.00800           0
     51256 W2       17086    TIP3     OH2      OT      -0.834000       15.9994           0
     51257 W2       17086    TIP3     H1       HT       0.417000       1.00800           0
     51258 W2       17086    TIP3     H2       HT       0.417000       1.00800           0
     51259 W2       17087    TIP3     OH2      OT      -0.834000       15.9994           0
     51260 W2       17087    TIP3     H1       HT       0.417000       1.00800           0
     51261 W2       17087    TIP3     H2       HT       0.417000       1.00800           0
     51262 W2       17088    TIP3     OH2      OT      -0.834000       15.9994           0
     51263 W2       17088    TIP3     H1       HT       0.417000       1.00800           0
     51264 W2       17088    TIP3     H2       HT       0.417000       1.00800           0
     51265 W2       17089    TIP3     OH2      OT      -0.834000       15.9994           0
     51266 W2       17089    TIP3     H1       HT       0.417000       1.00800           0
     51267 W2       17089    TIP3     H2       HT       0.417000       1.00800           0
     51268 W2       17090    TIP3     OH2      OT      -0.834000       15.9994           0
     51269 W2       17090    TIP3     H1       HT       0.417000       1.00800           0
     51270 W2       17090    TIP3     H2       HT       0.417000       1.00800           0
     51271 W2       17091    TIP3     OH2      OT      -0.834000       15.9994           0
     51272 W2       17091    TIP3     H1       HT       0.417000       1.00800           0
     51273 W2       17091    TIP3     H2       HT       0.417000       1.00800           0
     51274 W2       17092    TIP3     OH2      OT      -0.834000       15.9994           0
     51275 W2       17092    TIP3     H1       HT       0.417000       1.00800           0
     51276 W2       17092    TIP3     H2       HT       0.417000       1.00800           0
     51277 W2       17093    TIP3     OH2      OT      -0.834000       15.9994           0
     51278 W2       17093    TIP3     H1       HT       0.417000       1.00800           0
     51279 W2       17093    TIP3     H2       HT       0.417000       1.00800           0
     51280 W2       17094    TIP3     OH2      OT      -0.834000       15.9994           0
     51281 W2       17094    TIP3     H1       HT       0.417000       1.00800           0
     51282 W2       17094    TIP3     H2       HT       0.417000       1.00800           0
     51283 W2       17095    TIP3     OH2      OT      -0.834000       15.9994           0
     51284 W2       17095    TIP3     H1       HT       0.417000       1.00800           0
     51285 W2       17095    TIP3     H2       HT       0.417000       1.00800           0
     51286 W2       17096    TIP3     OH2      OT      -0.834000       15.9994           0
     51287 W2       17096    TIP3     H1       HT       0.417000       1.00800           0
     51288 W2       17096    TIP3     H2       HT       0.417000       1.00800           0
     51289 W2       17097    TIP3     OH2      OT      -0.834000       15.9994           0
     51290 W2       17097    TIP3     H1       HT       0.417000       1.00800           0
     51291 W2       17097    TIP3     H2       HT       0.417000       1.00800           0
     51292 W2       17098    TIP3     OH2      OT      -0.834000       15.9994           0
     51293 W2       17098    TIP3     H1       HT       0.417000       1.00800           0
     51294 W2       17098    TIP3     H2       HT       0.417000       1.00800           0
     51295 W2       17099    TIP3     OH2      OT      -0.834000       15.9994           0
     51296 W2       17099    TIP3     H1       HT       0.417000       1.00800           0
     51297 W2       17099    TIP3     H2       HT       0.417000       1.00800           0
     51298 W2       17100    TIP3     OH2      OT      -0.834000       15.9994           0
     51299 W2       17100    TIP3     H1       HT       0.417000       1.00800           0
     51300 W2       17100    TIP3     H2       HT       0.417000       1.00800           0
     51301 W2       17101    TIP3     OH2      OT      -0.834000       15.9994           0
     51302 W2       17101    TIP3     H1       HT       0.417000       1.00800           0
     51303 W2       17101    TIP3     H2       HT       0.417000       1.00800           0
     51304 W2       17102    TIP3     OH2      OT      -0.834000       15.9994           0
     51305 W2       17102    TIP3     H1       HT       0.417000       1.00800           0
     51306 W2       17102    TIP3     H2       HT       0.417000       1.00800           0
     51307 W2       17103    TIP3     OH2      OT      -0.834000       15.9994           0
     51308 W2       17103    TIP3     H1       HT       0.417000       1.00800           0
     51309 W2       17103    TIP3     H2       HT       0.417000       1.00800           0
     51310 W2       17104    TIP3     OH2      OT      -0.834000       15.9994           0
     51311 W2       17104    TIP3     H1       HT       0.417000       1.00800           0
     51312 W2       17104    TIP3     H2       HT       0.417000       1.00800           0
     51313 W2       17105    TIP3     OH2      OT      -0.834000       15.9994           0
     51314 W2       17105    TIP3     H1       HT       0.417000       1.00800           0
     51315 W2       17105    TIP3     H2       HT       0.417000       1.00800           0
     51316 W2       17106    TIP3     OH2      OT      -0.834000       15.9994           0
     51317 W2       17106    TIP3     H1       HT       0.417000       1.00800           0
     51318 W2       17106    TIP3     H2       HT       0.417000       1.00800           0
     51319 W2       17107    TIP3     OH2      OT      -0.834000       15.9994           0
     51320 W2       17107    TIP3     H1       HT       0.417000       1.00800           0
     51321 W2       17107    TIP3     H2       HT       0.417000       1.00800           0
     51322 W2       17108    TIP3     OH2      OT      -0.834000       15.9994           0
     51323 W2       17108    TIP3     H1       HT       0.417000       1.00800           0
     51324 W2       17108    TIP3     H2       HT       0.417000       1.00800           0
     51325 W2       17109    TIP3     OH2      OT      -0.834000       15.9994           0
     51326 W2       17109    TIP3     H1       HT       0.417000       1.00800           0
     51327 W2       17109    TIP3     H2       HT       0.417000       1.00800           0
     51328 W2       17110    TIP3     OH2      OT      -0.834000       15.9994           0
     51329 W2       17110    TIP3     H1       HT       0.417000       1.00800           0
     51330 W2       17110    TIP3     H2       HT       0.417000       1.00800           0
     51331 W2       17111    TIP3     OH2      OT      -0.834000       15.9994           0
     51332 W2       17111    TIP3     H1       HT       0.417000       1.00800           0
     51333 W2       17111    TIP3     H2       HT       0.417000       1.00800           0
     51334 W2       17112    TIP3     OH2      OT      -0.834000       15.9994           0
     51335 W2       17112    TIP3     H1       HT       0.417000       1.00800           0
     51336 W2       17112    TIP3     H2       HT       0.417000       1.00800           0
     51337 W2       17113    TIP3     OH2      OT      -0.834000       15.9994           0
     51338 W2       17113    TIP3     H1       HT       0.417000       1.00800           0
     51339 W2       17113    TIP3     H2       HT       0.417000       1.00800           0
     51340 W2       17114    TIP3     OH2      OT      -0.834000       15.9994           0
     51341 W2       17114    TIP3     H1       HT       0.417000       1.00800           0
     51342 W2       17114    TIP3     H2       HT       0.417000       1.00800           0
     51343 W2       17115    TIP3     OH2      OT      -0.834000       15.9994           0
     51344 W2       17115    TIP3     H1       HT       0.417000       1.00800           0
     51345 W2       17115    TIP3     H2       HT       0.417000       1.00800           0
     51346 W2       17116    TIP3     OH2      OT      -0.834000       15.9994           0
     51347 W2       17116    TIP3     H1       HT       0.417000       1.00800           0
     51348 W2       17116    TIP3     H2       HT       0.417000       1.00800           0
     51349 W2       17117    TIP3     OH2      OT      -0.834000       15.9994           0
     51350 W2       17117    TIP3     H1       HT       0.417000       1.00800           0
     51351 W2       17117    TIP3     H2       HT       0.417000       1.00800           0
     51352 W2       17118    TIP3     OH2      OT      -0.834000       15.9994           0
     51353 W2       17118    TIP3     H1       HT       0.417000       1.00800           0
     51354 W2       17118    TIP3     H2       HT       0.417000       1.00800           0
     51355 W2       17119    TIP3     OH2      OT      -0.834000       15.9994           0
     51356 W2       17119    TIP3     H1       HT       0.417000       1.00800           0
     51357 W2       17119    TIP3     H2       HT       0.417000       1.00800           0
     51358 W2       17120    TIP3     OH2      OT      -0.834000       15.9994           0
     51359 W2       17120    TIP3     H1       HT       0.417000       1.00800           0
     51360 W2       17120    TIP3     H2       HT       0.417000       1.00800           0
     51361 W2       17121    TIP3     OH2      OT      -0.834000       15.9994           0
     51362 W2       17121    TIP3     H1       HT       0.417000       1.00800           0
     51363 W2       17121    TIP3     H2       HT       0.417000       1.00800           0
     51364 W2       17122    TIP3     OH2      OT      -0.834000       15.9994           0
     51365 W2       17122    TIP3     H1       HT       0.417000       1.00800           0
     51366 W2       17122    TIP3     H2       HT       0.417000       1.00800           0
     51367 W2       17123    TIP3     OH2      OT      -0.834000       15.9994           0
     51368 W2       17123    TIP3     H1       HT       0.417000       1.00800           0
     51369 W2       17123    TIP3     H2       HT       0.417000       1.00800           0
     51370 W2       17124    TIP3     OH2      OT      -0.834000       15.9994           0
     51371 W2       17124    TIP3     H1       HT       0.417000       1.00800           0
     51372 W2       17124    TIP3     H2       HT       0.417000       1.00800           0
     51373 W2       17125    TIP3     OH2      OT      -0.834000       15.9994           0
     51374 W2       17125    TIP3     H1       HT       0.417000       1.00800           0
     51375 W2       17125    TIP3     H2       HT       0.417000       1.00800           0
     51376 W2       17126    TIP3     OH2      OT      -0.834000       15.9994           0
     51377 W2       17126    TIP3     H1       HT       0.417000       1.00800           0
     51378 W2       17126    TIP3     H2       HT       0.417000       1.00800           0
     51379 W2       17127    TIP3     OH2      OT      -0.834000       15.9994           0
     51380 W2       17127    TIP3     H1       HT       0.417000       1.00800           0
     51381 W2       17127    TIP3     H2       HT       0.417000       1.00800           0
     51382 W2       17128    TIP3     OH2      OT      -0.834000       15.9994           0
     51383 W2       17128    TIP3     H1       HT       0.417000       1.00800           0
     51384 W2       17128    TIP3     H2       HT       0.417000       1.00800           0
     51385 W2       17129    TIP3     OH2      OT      -0.834000       15.9994           0
     51386 W2       17129    TIP3     H1       HT       0.417000       1.00800           0
     51387 W2       17129    TIP3     H2       HT       0.417000       1.00800           0
     51388 W2       17130    TIP3     OH2      OT      -0.834000       15.9994           0
     51389 W2       17130    TIP3     H1       HT       0.417000       1.00800           0
     51390 W2       17130    TIP3     H2       HT       0.417000       1.00800           0
     51391 W2       17131    TIP3     OH2      OT      -0.834000       15.9994           0
     51392 W2       17131    TIP3     H1       HT       0.417000       1.00800           0
     51393 W2       17131    TIP3     H2       HT       0.417000       1.00800           0
     51394 W2       17132    TIP3     OH2      OT      -0.834000       15.9994           0
     51395 W2       17132    TIP3     H1       HT       0.417000       1.00800           0
     51396 W2       17132    TIP3     H2       HT       0.417000       1.00800           0
     51397 W2       17133    TIP3     OH2      OT      -0.834000       15.9994           0
     51398 W2       17133    TIP3     H1       HT       0.417000       1.00800           0
     51399 W2       17133    TIP3     H2       HT       0.417000       1.00800           0
     51400 W2       17134    TIP3     OH2      OT      -0.834000       15.9994           0
     51401 W2       17134    TIP3     H1       HT       0.417000       1.00800           0
     51402 W2       17134    TIP3     H2       HT       0.417000       1.00800           0
     51403 W2       17135    TIP3     OH2      OT      -0.834000       15.9994           0
     51404 W2       17135    TIP3     H1       HT       0.417000       1.00800           0
     51405 W2       17135    TIP3     H2       HT       0.417000       1.00800           0
     51406 W2       17136    TIP3     OH2      OT      -0.834000       15.9994           0
     51407 W2       17136    TIP3     H1       HT       0.417000       1.00800           0
     51408 W2       17136    TIP3     H2       HT       0.417000       1.00800           0
     51409 W2       17137    TIP3     OH2      OT      -0.834000       15.9994           0
     51410 W2       17137    TIP3     H1       HT       0.417000       1.00800           0
     51411 W2       17137    TIP3     H2       HT       0.417000       1.00800           0
     51412 W2       17138    TIP3     OH2      OT      -0.834000       15.9994           0
     51413 W2       17138    TIP3     H1       HT       0.417000       1.00800           0
     51414 W2       17138    TIP3     H2       HT       0.417000       1.00800           0
     51415 W2       17139    TIP3     OH2      OT      -0.834000       15.9994           0
     51416 W2       17139    TIP3     H1       HT       0.417000       1.00800           0
     51417 W2       17139    TIP3     H2       HT       0.417000       1.00800           0
     51418 W2       17140    TIP3     OH2      OT      -0.834000       15.9994           0
     51419 W2       17140    TIP3     H1       HT       0.417000       1.00800           0
     51420 W2       17140    TIP3     H2       HT       0.417000       1.00800           0
     51421 W2       17141    TIP3     OH2      OT      -0.834000       15.9994           0
     51422 W2       17141    TIP3     H1       HT       0.417000       1.00800           0
     51423 W2       17141    TIP3     H2       HT       0.417000       1.00800           0
     51424 W2       17142    TIP3     OH2      OT      -0.834000       15.9994           0
     51425 W2       17142    TIP3     H1       HT       0.417000       1.00800           0
     51426 W2       17142    TIP3     H2       HT       0.417000       1.00800           0
     51427 W2       17143    TIP3     OH2      OT      -0.834000       15.9994           0
     51428 W2       17143    TIP3     H1       HT       0.417000       1.00800           0
     51429 W2       17143    TIP3     H2       HT       0.417000       1.00800           0
     51430 W2       17144    TIP3     OH2      OT      -0.834000       15.9994           0
     51431 W2       17144    TIP3     H1       HT       0.417000       1.00800           0
     51432 W2       17144    TIP3     H2       HT       0.417000       1.00800           0
     51433 W2       17145    TIP3     OH2      OT      -0.834000       15.9994           0
     51434 W2       17145    TIP3     H1       HT       0.417000       1.00800           0
     51435 W2       17145    TIP3     H2       HT       0.417000       1.00800           0
     51436 W2       17146    TIP3     OH2      OT      -0.834000       15.9994           0
     51437 W2       17146    TIP3     H1       HT       0.417000       1.00800           0
     51438 W2       17146    TIP3     H2       HT       0.417000       1.00800           0
     51439 W2       17147    TIP3     OH2      OT      -0.834000       15.9994           0
     51440 W2       17147    TIP3     H1       HT       0.417000       1.00800           0
     51441 W2       17147    TIP3     H2       HT       0.417000       1.00800           0
     51442 W2       17148    TIP3     OH2      OT      -0.834000       15.9994           0
     51443 W2       17148    TIP3     H1       HT       0.417000       1.00800           0
     51444 W2       17148    TIP3     H2       HT       0.417000       1.00800           0
     51445 W2       17149    TIP3     OH2      OT      -0.834000       15.9994           0
     51446 W2       17149    TIP3     H1       HT       0.417000       1.00800           0
     51447 W2       17149    TIP3     H2       HT       0.417000       1.00800           0
     51448 W2       17150    TIP3     OH2      OT      -0.834000       15.9994           0
     51449 W2       17150    TIP3     H1       HT       0.417000       1.00800           0
     51450 W2       17150    TIP3     H2       HT       0.417000       1.00800           0
     51451 W2       17151    TIP3     OH2      OT      -0.834000       15.9994           0
     51452 W2       17151    TIP3     H1       HT       0.417000       1.00800           0
     51453 W2       17151    TIP3     H2       HT       0.417000       1.00800           0
     51454 W2       17152    TIP3     OH2      OT      -0.834000       15.9994           0
     51455 W2       17152    TIP3     H1       HT       0.417000       1.00800           0
     51456 W2       17152    TIP3     H2       HT       0.417000       1.00800           0
     51457 W2       17153    TIP3     OH2      OT      -0.834000       15.9994           0
     51458 W2       17153    TIP3     H1       HT       0.417000       1.00800           0
     51459 W2       17153    TIP3     H2       HT       0.417000       1.00800           0
     51460 W2       17154    TIP3     OH2      OT      -0.834000       15.9994           0
     51461 W2       17154    TIP3     H1       HT       0.417000       1.00800           0
     51462 W2       17154    TIP3     H2       HT       0.417000       1.00800           0
     51463 W2       17155    TIP3     OH2      OT      -0.834000       15.9994           0
     51464 W2       17155    TIP3     H1       HT       0.417000       1.00800           0
     51465 W2       17155    TIP3     H2       HT       0.417000       1.00800           0
     51466 W2       17156    TIP3     OH2      OT      -0.834000       15.9994           0
     51467 W2       17156    TIP3     H1       HT       0.417000       1.00800           0
     51468 W2       17156    TIP3     H2       HT       0.417000       1.00800           0
     51469 W2       17157    TIP3     OH2      OT      -0.834000       15.9994           0
     51470 W2       17157    TIP3     H1       HT       0.417000       1.00800           0
     51471 W2       17157    TIP3     H2       HT       0.417000       1.00800           0
     51472 W2       17158    TIP3     OH2      OT      -0.834000       15.9994           0
     51473 W2       17158    TIP3     H1       HT       0.417000       1.00800           0
     51474 W2       17158    TIP3     H2       HT       0.417000       1.00800           0
     51475 W2       17159    TIP3     OH2      OT      -0.834000       15.9994           0
     51476 W2       17159    TIP3     H1       HT       0.417000       1.00800           0
     51477 W2       17159    TIP3     H2       HT       0.417000       1.00800           0
     51478 W2       17160    TIP3     OH2      OT      -0.834000       15.9994           0
     51479 W2       17160    TIP3     H1       HT       0.417000       1.00800           0
     51480 W2       17160    TIP3     H2       HT       0.417000       1.00800           0
     51481 W2       17161    TIP3     OH2      OT      -0.834000       15.9994           0
     51482 W2       17161    TIP3     H1       HT       0.417000       1.00800           0
     51483 W2       17161    TIP3     H2       HT       0.417000       1.00800           0
     51484 W2       17162    TIP3     OH2      OT      -0.834000       15.9994           0
     51485 W2       17162    TIP3     H1       HT       0.417000       1.00800           0
     51486 W2       17162    TIP3     H2       HT       0.417000       1.00800           0
     51487 W2       17163    TIP3     OH2      OT      -0.834000       15.9994           0
     51488 W2       17163    TIP3     H1       HT       0.417000       1.00800           0
     51489 W2       17163    TIP3     H2       HT       0.417000       1.00800           0
     51490 W2       17164    TIP3     OH2      OT      -0.834000       15.9994           0
     51491 W2       17164    TIP3     H1       HT       0.417000       1.00800           0
     51492 W2       17164    TIP3     H2       HT       0.417000       1.00800           0
     51493 W2       17165    TIP3     OH2      OT      -0.834000       15.9994           0
     51494 W2       17165    TIP3     H1       HT       0.417000       1.00800           0
     51495 W2       17165    TIP3     H2       HT       0.417000       1.00800           0
     51496 W2       17166    TIP3     OH2      OT      -0.834000       15.9994           0
     51497 W2       17166    TIP3     H1       HT       0.417000       1.00800           0
     51498 W2       17166    TIP3     H2       HT       0.417000       1.00800           0
     51499 W2       17167    TIP3     OH2      OT      -0.834000       15.9994           0
     51500 W2       17167    TIP3     H1       HT       0.417000       1.00800           0
     51501 W2       17167    TIP3     H2       HT       0.417000       1.00800           0
     51502 W2       17168    TIP3     OH2      OT      -0.834000       15.9994           0
     51503 W2       17168    TIP3     H1       HT       0.417000       1.00800           0
     51504 W2       17168    TIP3     H2       HT       0.417000       1.00800           0
     51505 W2       17169    TIP3     OH2      OT      -0.834000       15.9994           0
     51506 W2       17169    TIP3     H1       HT       0.417000       1.00800           0
     51507 W2       17169    TIP3     H2       HT       0.417000       1.00800           0
     51508 W2       17170    TIP3     OH2      OT      -0.834000       15.9994           0
     51509 W2       17170    TIP3     H1       HT       0.417000       1.00800           0
     51510 W2       17170    TIP3     H2       HT       0.417000       1.00800           0
     51511 W2       17171    TIP3     OH2      OT      -0.834000       15.9994           0
     51512 W2       17171    TIP3     H1       HT       0.417000       1.00800           0
     51513 W2       17171    TIP3     H2       HT       0.417000       1.00800           0
     51514 W2       17172    TIP3     OH2      OT      -0.834000       15.9994           0
     51515 W2       17172    TIP3     H1       HT       0.417000       1.00800           0
     51516 W2       17172    TIP3     H2       HT       0.417000       1.00800           0
     51517 W2       17173    TIP3     OH2      OT      -0.834000       15.9994           0
     51518 W2       17173    TIP3     H1       HT       0.417000       1.00800           0
     51519 W2       17173    TIP3     H2       HT       0.417000       1.00800           0
     51520 W2       17174    TIP3     OH2      OT      -0.834000       15.9994           0
     51521 W2       17174    TIP3     H1       HT       0.417000       1.00800           0
     51522 W2       17174    TIP3     H2       HT       0.417000       1.00800           0
     51523 W2       17175    TIP3     OH2      OT      -0.834000       15.9994           0
     51524 W2       17175    TIP3     H1       HT       0.417000       1.00800           0
     51525 W2       17175    TIP3     H2       HT       0.417000       1.00800           0
     51526 W2       17176    TIP3     OH2      OT      -0.834000       15.9994           0
     51527 W2       17176    TIP3     H1       HT       0.417000       1.00800           0
     51528 W2       17176    TIP3     H2       HT       0.417000       1.00800           0
     51529 W2       17177    TIP3     OH2      OT      -0.834000       15.9994           0
     51530 W2       17177    TIP3     H1       HT       0.417000       1.00800           0
     51531 W2       17177    TIP3     H2       HT       0.417000       1.00800           0
     51532 W2       17178    TIP3     OH2      OT      -0.834000       15.9994           0
     51533 W2       17178    TIP3     H1       HT       0.417000       1.00800           0
     51534 W2       17178    TIP3     H2       HT       0.417000       1.00800           0
     51535 W2       17179    TIP3     OH2      OT      -0.834000       15.9994           0
     51536 W2       17179    TIP3     H1       HT       0.417000       1.00800           0
     51537 W2       17179    TIP3     H2       HT       0.417000       1.00800           0
     51538 W2       17180    TIP3     OH2      OT      -0.834000       15.9994           0
     51539 W2       17180    TIP3     H1       HT       0.417000       1.00800           0
     51540 W2       17180    TIP3     H2       HT       0.417000       1.00800           0
     51541 W2       17181    TIP3     OH2      OT      -0.834000       15.9994           0
     51542 W2       17181    TIP3     H1       HT       0.417000       1.00800           0
     51543 W2       17181    TIP3     H2       HT       0.417000       1.00800           0
     51544 W2       17182    TIP3     OH2      OT      -0.834000       15.9994           0
     51545 W2       17182    TIP3     H1       HT       0.417000       1.00800           0
     51546 W2       17182    TIP3     H2       HT       0.417000       1.00800           0
     51547 W2       17183    TIP3     OH2      OT      -0.834000       15.9994           0
     51548 W2       17183    TIP3     H1       HT       0.417000       1.00800           0
     51549 W2       17183    TIP3     H2       HT       0.417000       1.00800           0
     51550 W2       17184    TIP3     OH2      OT      -0.834000       15.9994           0
     51551 W2       17184    TIP3     H1       HT       0.417000       1.00800           0
     51552 W2       17184    TIP3     H2       HT       0.417000       1.00800           0
     51553 W2       17185    TIP3     OH2      OT      -0.834000       15.9994           0
     51554 W2       17185    TIP3     H1       HT       0.417000       1.00800           0
     51555 W2       17185    TIP3     H2       HT       0.417000       1.00800           0
     51556 W2       17186    TIP3     OH2      OT      -0.834000       15.9994           0
     51557 W2       17186    TIP3     H1       HT       0.417000       1.00800           0
     51558 W2       17186    TIP3     H2       HT       0.417000       1.00800           0
     51559 W2       17187    TIP3     OH2      OT      -0.834000       15.9994           0
     51560 W2       17187    TIP3     H1       HT       0.417000       1.00800           0
     51561 W2       17187    TIP3     H2       HT       0.417000       1.00800           0
     51562 W2       17188    TIP3     OH2      OT      -0.834000       15.9994           0
     51563 W2       17188    TIP3     H1       HT       0.417000       1.00800           0
     51564 W2       17188    TIP3     H2       HT       0.417000       1.00800           0
     51565 W2       17189    TIP3     OH2      OT      -0.834000       15.9994           0
     51566 W2       17189    TIP3     H1       HT       0.417000       1.00800           0
     51567 W2       17189    TIP3     H2       HT       0.417000       1.00800           0
     51568 W2       17190    TIP3     OH2      OT      -0.834000       15.9994           0
     51569 W2       17190    TIP3     H1       HT       0.417000       1.00800           0
     51570 W2       17190    TIP3     H2       HT       0.417000       1.00800           0
     51571 W2       17191    TIP3     OH2      OT      -0.834000       15.9994           0
     51572 W2       17191    TIP3     H1       HT       0.417000       1.00800           0
     51573 W2       17191    TIP3     H2       HT       0.417000       1.00800           0
     51574 W2       17192    TIP3     OH2      OT      -0.834000       15.9994           0
     51575 W2       17192    TIP3     H1       HT       0.417000       1.00800           0
     51576 W2       17192    TIP3     H2       HT       0.417000       1.00800           0
     51577 W2       17193    TIP3     OH2      OT      -0.834000       15.9994           0
     51578 W2       17193    TIP3     H1       HT       0.417000       1.00800           0
     51579 W2       17193    TIP3     H2       HT       0.417000       1.00800           0
     51580 W2       17194    TIP3     OH2      OT      -0.834000       15.9994           0
     51581 W2       17194    TIP3     H1       HT       0.417000       1.00800           0
     51582 W2       17194    TIP3     H2       HT       0.417000       1.00800           0
     51583 W2       17195    TIP3     OH2      OT      -0.834000       15.9994           0
     51584 W2       17195    TIP3     H1       HT       0.417000       1.00800           0
     51585 W2       17195    TIP3     H2       HT       0.417000       1.00800           0
     51586 W2       17196    TIP3     OH2      OT      -0.834000       15.9994           0
     51587 W2       17196    TIP3     H1       HT       0.417000       1.00800           0
     51588 W2       17196    TIP3     H2       HT       0.417000       1.00800           0
     51589 W2       17197    TIP3     OH2      OT      -0.834000       15.9994           0
     51590 W2       17197    TIP3     H1       HT       0.417000       1.00800           0
     51591 W2       17197    TIP3     H2       HT       0.417000       1.00800           0
     51592 W2       17198    TIP3     OH2      OT      -0.834000       15.9994           0
     51593 W2       17198    TIP3     H1       HT       0.417000       1.00800           0
     51594 W2       17198    TIP3     H2       HT       0.417000       1.00800           0
     51595 W2       17199    TIP3     OH2      OT      -0.834000       15.9994           0
     51596 W2       17199    TIP3     H1       HT       0.417000       1.00800           0
     51597 W2       17199    TIP3     H2       HT       0.417000       1.00800           0
     51598 W2       17200    TIP3     OH2      OT      -0.834000       15.9994           0
     51599 W2       17200    TIP3     H1       HT       0.417000       1.00800           0
     51600 W2       17200    TIP3     H2       HT       0.417000       1.00800           0
     51601 W2       17201    TIP3     OH2      OT      -0.834000       15.9994           0
     51602 W2       17201    TIP3     H1       HT       0.417000       1.00800           0
     51603 W2       17201    TIP3     H2       HT       0.417000       1.00800           0
     51604 W2       17202    TIP3     OH2      OT      -0.834000       15.9994           0
     51605 W2       17202    TIP3     H1       HT       0.417000       1.00800           0
     51606 W2       17202    TIP3     H2       HT       0.417000       1.00800           0
     51607 W2       17203    TIP3     OH2      OT      -0.834000       15.9994           0
     51608 W2       17203    TIP3     H1       HT       0.417000       1.00800           0
     51609 W2       17203    TIP3     H2       HT       0.417000       1.00800           0
     51610 W2       17204    TIP3     OH2      OT      -0.834000       15.9994           0
     51611 W2       17204    TIP3     H1       HT       0.417000       1.00800           0
     51612 W2       17204    TIP3     H2       HT       0.417000       1.00800           0
     51613 W2       17205    TIP3     OH2      OT      -0.834000       15.9994           0
     51614 W2       17205    TIP3     H1       HT       0.417000       1.00800           0
     51615 W2       17205    TIP3     H2       HT       0.417000       1.00800           0
     51616 W2       17206    TIP3     OH2      OT      -0.834000       15.9994           0
     51617 W2       17206    TIP3     H1       HT       0.417000       1.00800           0
     51618 W2       17206    TIP3     H2       HT       0.417000       1.00800           0
     51619 W2       17207    TIP3     OH2      OT      -0.834000       15.9994           0
     51620 W2       17207    TIP3     H1       HT       0.417000       1.00800           0
     51621 W2       17207    TIP3     H2       HT       0.417000       1.00800           0
     51622 W2       17208    TIP3     OH2      OT      -0.834000       15.9994           0
     51623 W2       17208    TIP3     H1       HT       0.417000       1.00800           0
     51624 W2       17208    TIP3     H2       HT       0.417000       1.00800           0
     51625 W2       17209    TIP3     OH2      OT      -0.834000       15.9994           0
     51626 W2       17209    TIP3     H1       HT       0.417000       1.00800           0
     51627 W2       17209    TIP3     H2       HT       0.417000       1.00800           0
     51628 W2       17210    TIP3     OH2      OT      -0.834000       15.9994           0
     51629 W2       17210    TIP3     H1       HT       0.417000       1.00800           0
     51630 W2       17210    TIP3     H2       HT       0.417000       1.00800           0
     51631 W2       17211    TIP3     OH2      OT      -0.834000       15.9994           0
     51632 W2       17211    TIP3     H1       HT       0.417000       1.00800           0
     51633 W2       17211    TIP3     H2       HT       0.417000       1.00800           0
     51634 W2       17212    TIP3     OH2      OT      -0.834000       15.9994           0
     51635 W2       17212    TIP3     H1       HT       0.417000       1.00800           0
     51636 W2       17212    TIP3     H2       HT       0.417000       1.00800           0
     51637 W2       17213    TIP3     OH2      OT      -0.834000       15.9994           0
     51638 W2       17213    TIP3     H1       HT       0.417000       1.00800           0
     51639 W2       17213    TIP3     H2       HT       0.417000       1.00800           0
     51640 W2       17214    TIP3     OH2      OT      -0.834000       15.9994           0
     51641 W2       17214    TIP3     H1       HT       0.417000       1.00800           0
     51642 W2       17214    TIP3     H2       HT       0.417000       1.00800           0
     51643 W2       17215    TIP3     OH2      OT      -0.834000       15.9994           0
     51644 W2       17215    TIP3     H1       HT       0.417000       1.00800           0
     51645 W2       17215    TIP3     H2       HT       0.417000       1.00800           0
     51646 W2       17216    TIP3     OH2      OT      -0.834000       15.9994           0
     51647 W2       17216    TIP3     H1       HT       0.417000       1.00800           0
     51648 W2       17216    TIP3     H2       HT       0.417000       1.00800           0
     51649 W2       17217    TIP3     OH2      OT      -0.834000       15.9994           0
     51650 W2       17217    TIP3     H1       HT       0.417000       1.00800           0
     51651 W2       17217    TIP3     H2       HT       0.417000       1.00800           0
     51652 W2       17218    TIP3     OH2      OT      -0.834000       15.9994           0
     51653 W2       17218    TIP3     H1       HT       0.417000       1.00800           0
     51654 W2       17218    TIP3     H2       HT       0.417000       1.00800           0
     51655 W2       17219    TIP3     OH2      OT      -0.834000       15.9994           0
     51656 W2       17219    TIP3     H1       HT       0.417000       1.00800           0
     51657 W2       17219    TIP3     H2       HT       0.417000       1.00800           0
     51658 W2       17220    TIP3     OH2      OT      -0.834000       15.9994           0
     51659 W2       17220    TIP3     H1       HT       0.417000       1.00800           0
     51660 W2       17220    TIP3     H2       HT       0.417000       1.00800           0
     51661 W2       17221    TIP3     OH2      OT      -0.834000       15.9994           0
     51662 W2       17221    TIP3     H1       HT       0.417000       1.00800           0
     51663 W2       17221    TIP3     H2       HT       0.417000       1.00800           0
     51664 W2       17222    TIP3     OH2      OT      -0.834000       15.9994           0
     51665 W2       17222    TIP3     H1       HT       0.417000       1.00800           0
     51666 W2       17222    TIP3     H2       HT       0.417000       1.00800           0
     51667 W2       17223    TIP3     OH2      OT      -0.834000       15.9994           0
     51668 W2       17223    TIP3     H1       HT       0.417000       1.00800           0
     51669 W2       17223    TIP3     H2       HT       0.417000       1.00800           0
     51670 W2       17224    TIP3     OH2      OT      -0.834000       15.9994           0
     51671 W2       17224    TIP3     H1       HT       0.417000       1.00800           0
     51672 W2       17224    TIP3     H2       HT       0.417000       1.00800           0
     51673 W2       17225    TIP3     OH2      OT      -0.834000       15.9994           0
     51674 W2       17225    TIP3     H1       HT       0.417000       1.00800           0
     51675 W2       17225    TIP3     H2       HT       0.417000       1.00800           0
     51676 W2       17226    TIP3     OH2      OT      -0.834000       15.9994           0
     51677 W2       17226    TIP3     H1       HT       0.417000       1.00800           0
     51678 W2       17226    TIP3     H2       HT       0.417000       1.00800           0
     51679 W2       17227    TIP3     OH2      OT      -0.834000       15.9994           0
     51680 W2       17227    TIP3     H1       HT       0.417000       1.00800           0
     51681 W2       17227    TIP3     H2       HT       0.417000       1.00800           0
     51682 W2       17228    TIP3     OH2      OT      -0.834000       15.9994           0
     51683 W2       17228    TIP3     H1       HT       0.417000       1.00800           0
     51684 W2       17228    TIP3     H2       HT       0.417000       1.00800           0
     51685 W2       17229    TIP3     OH2      OT      -0.834000       15.9994           0
     51686 W2       17229    TIP3     H1       HT       0.417000       1.00800           0
     51687 W2       17229    TIP3     H2       HT       0.417000       1.00800           0
     51688 W2       17230    TIP3     OH2      OT      -0.834000       15.9994           0
     51689 W2       17230    TIP3     H1       HT       0.417000       1.00800           0
     51690 W2       17230    TIP3     H2       HT       0.417000       1.00800           0
     51691 W2       17231    TIP3     OH2      OT      -0.834000       15.9994           0
     51692 W2       17231    TIP3     H1       HT       0.417000       1.00800           0
     51693 W2       17231    TIP3     H2       HT       0.417000       1.00800           0
     51694 W2       17232    TIP3     OH2      OT      -0.834000       15.9994           0
     51695 W2       17232    TIP3     H1       HT       0.417000       1.00800           0
     51696 W2       17232    TIP3     H2       HT       0.417000       1.00800           0
     51697 W2       17233    TIP3     OH2      OT      -0.834000       15.9994           0
     51698 W2       17233    TIP3     H1       HT       0.417000       1.00800           0
     51699 W2       17233    TIP3     H2       HT       0.417000       1.00800           0
     51700 W2       17234    TIP3     OH2      OT      -0.834000       15.9994           0
     51701 W2       17234    TIP3     H1       HT       0.417000       1.00800           0
     51702 W2       17234    TIP3     H2       HT       0.417000       1.00800           0
     51703 W2       17235    TIP3     OH2      OT      -0.834000       15.9994           0
     51704 W2       17235    TIP3     H1       HT       0.417000       1.00800           0
     51705 W2       17235    TIP3     H2       HT       0.417000       1.00800           0
     51706 W2       17236    TIP3     OH2      OT      -0.834000       15.9994           0
     51707 W2       17236    TIP3     H1       HT       0.417000       1.00800           0
     51708 W2       17236    TIP3     H2       HT       0.417000       1.00800           0
     51709 W2       17237    TIP3     OH2      OT      -0.834000       15.9994           0
     51710 W2       17237    TIP3     H1       HT       0.417000       1.00800           0
     51711 W2       17237    TIP3     H2       HT       0.417000       1.00800           0
     51712 W2       17238    TIP3     OH2      OT      -0.834000       15.9994           0
     51713 W2       17238    TIP3     H1       HT       0.417000       1.00800           0
     51714 W2       17238    TIP3     H2       HT       0.417000       1.00800           0
     51715 W2       17239    TIP3     OH2      OT      -0.834000       15.9994           0
     51716 W2       17239    TIP3     H1       HT       0.417000       1.00800           0
     51717 W2       17239    TIP3     H2       HT       0.417000       1.00800           0
     51718 W2       17240    TIP3     OH2      OT      -0.834000       15.9994           0
     51719 W2       17240    TIP3     H1       HT       0.417000       1.00800           0
     51720 W2       17240    TIP3     H2       HT       0.417000       1.00800           0
     51721 W2       17241    TIP3     OH2      OT      -0.834000       15.9994           0
     51722 W2       17241    TIP3     H1       HT       0.417000       1.00800           0
     51723 W2       17241    TIP3     H2       HT       0.417000       1.00800           0
     51724 W2       17242    TIP3     OH2      OT      -0.834000       15.9994           0
     51725 W2       17242    TIP3     H1       HT       0.417000       1.00800           0
     51726 W2       17242    TIP3     H2       HT       0.417000       1.00800           0
     51727 W2       17243    TIP3     OH2      OT      -0.834000       15.9994           0
     51728 W2       17243    TIP3     H1       HT       0.417000       1.00800           0
     51729 W2       17243    TIP3     H2       HT       0.417000       1.00800           0
     51730 W2       17244    TIP3     OH2      OT      -0.834000       15.9994           0
     51731 W2       17244    TIP3     H1       HT       0.417000       1.00800           0
     51732 W2       17244    TIP3     H2       HT       0.417000       1.00800           0
     51733 W2       17245    TIP3     OH2      OT      -0.834000       15.9994           0
     51734 W2       17245    TIP3     H1       HT       0.417000       1.00800           0
     51735 W2       17245    TIP3     H2       HT       0.417000       1.00800           0
     51736 W2       17246    TIP3     OH2      OT      -0.834000       15.9994           0
     51737 W2       17246    TIP3     H1       HT       0.417000       1.00800           0
     51738 W2       17246    TIP3     H2       HT       0.417000       1.00800           0
     51739 W2       17247    TIP3     OH2      OT      -0.834000       15.9994           0
     51740 W2       17247    TIP3     H1       HT       0.417000       1.00800           0
     51741 W2       17247    TIP3     H2       HT       0.417000       1.00800           0
     51742 W2       17248    TIP3     OH2      OT      -0.834000       15.9994           0
     51743 W2       17248    TIP3     H1       HT       0.417000       1.00800           0
     51744 W2       17248    TIP3     H2       HT       0.417000       1.00800           0
     51745 W2       17249    TIP3     OH2      OT      -0.834000       15.9994           0
     51746 W2       17249    TIP3     H1       HT       0.417000       1.00800           0
     51747 W2       17249    TIP3     H2       HT       0.417000       1.00800           0
     51748 W2       17250    TIP3     OH2      OT      -0.834000       15.9994           0
     51749 W2       17250    TIP3     H1       HT       0.417000       1.00800           0
     51750 W2       17250    TIP3     H2       HT       0.417000       1.00800           0
     51751 W2       17251    TIP3     OH2      OT      -0.834000       15.9994           0
     51752 W2       17251    TIP3     H1       HT       0.417000       1.00800           0
     51753 W2       17251    TIP3     H2       HT       0.417000       1.00800           0
     51754 W2       17252    TIP3     OH2      OT      -0.834000       15.9994           0
     51755 W2       17252    TIP3     H1       HT       0.417000       1.00800           0
     51756 W2       17252    TIP3     H2       HT       0.417000       1.00800           0
     51757 W2       17253    TIP3     OH2      OT      -0.834000       15.9994           0
     51758 W2       17253    TIP3     H1       HT       0.417000       1.00800           0
     51759 W2       17253    TIP3     H2       HT       0.417000       1.00800           0
     51760 W2       17254    TIP3     OH2      OT      -0.834000       15.9994           0
     51761 W2       17254    TIP3     H1       HT       0.417000       1.00800           0
     51762 W2       17254    TIP3     H2       HT       0.417000       1.00800           0
     51763 W2       17255    TIP3     OH2      OT      -0.834000       15.9994           0
     51764 W2       17255    TIP3     H1       HT       0.417000       1.00800           0
     51765 W2       17255    TIP3     H2       HT       0.417000       1.00800           0
     51766 W2       17256    TIP3     OH2      OT      -0.834000       15.9994           0
     51767 W2       17256    TIP3     H1       HT       0.417000       1.00800           0
     51768 W2       17256    TIP3     H2       HT       0.417000       1.00800           0
     51769 W2       17257    TIP3     OH2      OT      -0.834000       15.9994           0
     51770 W2       17257    TIP3     H1       HT       0.417000       1.00800           0
     51771 W2       17257    TIP3     H2       HT       0.417000       1.00800           0
     51772 W2       17258    TIP3     OH2      OT      -0.834000       15.9994           0
     51773 W2       17258    TIP3     H1       HT       0.417000       1.00800           0
     51774 W2       17258    TIP3     H2       HT       0.417000       1.00800           0
     51775 W2       17259    TIP3     OH2      OT      -0.834000       15.9994           0
     51776 W2       17259    TIP3     H1       HT       0.417000       1.00800           0
     51777 W2       17259    TIP3     H2       HT       0.417000       1.00800           0
     51778 W2       17260    TIP3     OH2      OT      -0.834000       15.9994           0
     51779 W2       17260    TIP3     H1       HT       0.417000       1.00800           0
     51780 W2       17260    TIP3     H2       HT       0.417000       1.00800           0
     51781 W2       17261    TIP3     OH2      OT      -0.834000       15.9994           0
     51782 W2       17261    TIP3     H1       HT       0.417000       1.00800           0
     51783 W2       17261    TIP3     H2       HT       0.417000       1.00800           0
     51784 W2       17262    TIP3     OH2      OT      -0.834000       15.9994           0
     51785 W2       17262    TIP3     H1       HT       0.417000       1.00800           0
     51786 W2       17262    TIP3     H2       HT       0.417000       1.00800           0
     51787 W2       17263    TIP3     OH2      OT      -0.834000       15.9994           0
     51788 W2       17263    TIP3     H1       HT       0.417000       1.00800           0
     51789 W2       17263    TIP3     H2       HT       0.417000       1.00800           0
     51790 W2       17264    TIP3     OH2      OT      -0.834000       15.9994           0
     51791 W2       17264    TIP3     H1       HT       0.417000       1.00800           0
     51792 W2       17264    TIP3     H2       HT       0.417000       1.00800           0
     51793 W2       17265    TIP3     OH2      OT      -0.834000       15.9994           0
     51794 W2       17265    TIP3     H1       HT       0.417000       1.00800           0
     51795 W2       17265    TIP3     H2       HT       0.417000       1.00800           0
     51796 W2       17266    TIP3     OH2      OT      -0.834000       15.9994           0
     51797 W2       17266    TIP3     H1       HT       0.417000       1.00800           0
     51798 W2       17266    TIP3     H2       HT       0.417000       1.00800           0
     51799 W2       17267    TIP3     OH2      OT      -0.834000       15.9994           0
     51800 W2       17267    TIP3     H1       HT       0.417000       1.00800           0
     51801 W2       17267    TIP3     H2       HT       0.417000       1.00800           0
     51802 W2       17268    TIP3     OH2      OT      -0.834000       15.9994           0
     51803 W2       17268    TIP3     H1       HT       0.417000       1.00800           0
     51804 W2       17268    TIP3     H2       HT       0.417000       1.00800           0
     51805 W2       17269    TIP3     OH2      OT      -0.834000       15.9994           0
     51806 W2       17269    TIP3     H1       HT       0.417000       1.00800           0
     51807 W2       17269    TIP3     H2       HT       0.417000       1.00800           0
     51808 W2       17270    TIP3     OH2      OT      -0.834000       15.9994           0
     51809 W2       17270    TIP3     H1       HT       0.417000       1.00800           0
     51810 W2       17270    TIP3     H2       HT       0.417000       1.00800           0
     51811 W2       17271    TIP3     OH2      OT      -0.834000       15.9994           0
     51812 W2       17271    TIP3     H1       HT       0.417000       1.00800           0
     51813 W2       17271    TIP3     H2       HT       0.417000       1.00800           0
     51814 W2       17272    TIP3     OH2      OT      -0.834000       15.9994           0
     51815 W2       17272    TIP3     H1       HT       0.417000       1.00800           0
     51816 W2       17272    TIP3     H2       HT       0.417000       1.00800           0
     51817 W2       17273    TIP3     OH2      OT      -0.834000       15.9994           0
     51818 W2       17273    TIP3     H1       HT       0.417000       1.00800           0
     51819 W2       17273    TIP3     H2       HT       0.417000       1.00800           0
     51820 W2       17274    TIP3     OH2      OT      -0.834000       15.9994           0
     51821 W2       17274    TIP3     H1       HT       0.417000       1.00800           0
     51822 W2       17274    TIP3     H2       HT       0.417000       1.00800           0
     51823 W2       17275    TIP3     OH2      OT      -0.834000       15.9994           0
     51824 W2       17275    TIP3     H1       HT       0.417000       1.00800           0
     51825 W2       17275    TIP3     H2       HT       0.417000       1.00800           0
     51826 W2       17276    TIP3     OH2      OT      -0.834000       15.9994           0
     51827 W2       17276    TIP3     H1       HT       0.417000       1.00800           0
     51828 W2       17276    TIP3     H2       HT       0.417000       1.00800           0
     51829 W2       17277    TIP3     OH2      OT      -0.834000       15.9994           0
     51830 W2       17277    TIP3     H1       HT       0.417000       1.00800           0
     51831 W2       17277    TIP3     H2       HT       0.417000       1.00800           0
     51832 W2       17278    TIP3     OH2      OT      -0.834000       15.9994           0
     51833 W2       17278    TIP3     H1       HT       0.417000       1.00800           0
     51834 W2       17278    TIP3     H2       HT       0.417000       1.00800           0
     51835 W2       17279    TIP3     OH2      OT      -0.834000       15.9994           0
     51836 W2       17279    TIP3     H1       HT       0.417000       1.00800           0
     51837 W2       17279    TIP3     H2       HT       0.417000       1.00800           0
     51838 W2       17280    TIP3     OH2      OT      -0.834000       15.9994           0
     51839 W2       17280    TIP3     H1       HT       0.417000       1.00800           0
     51840 W2       17280    TIP3     H2       HT       0.417000       1.00800           0
     51841 W2       17281    TIP3     OH2      OT      -0.834000       15.9994           0
     51842 W2       17281    TIP3     H1       HT       0.417000       1.00800           0
     51843 W2       17281    TIP3     H2       HT       0.417000       1.00800           0
     51844 W2       17282    TIP3     OH2      OT      -0.834000       15.9994           0
     51845 W2       17282    TIP3     H1       HT       0.417000       1.00800           0
     51846 W2       17282    TIP3     H2       HT       0.417000       1.00800           0
     51847 W2       17283    TIP3     OH2      OT      -0.834000       15.9994           0
     51848 W2       17283    TIP3     H1       HT       0.417000       1.00800           0
     51849 W2       17283    TIP3     H2       HT       0.417000       1.00800           0
     51850 W2       17284    TIP3     OH2      OT      -0.834000       15.9994           0
     51851 W2       17284    TIP3     H1       HT       0.417000       1.00800           0
     51852 W2       17284    TIP3     H2       HT       0.417000       1.00800           0
     51853 W2       17285    TIP3     OH2      OT      -0.834000       15.9994           0
     51854 W2       17285    TIP3     H1       HT       0.417000       1.00800           0
     51855 W2       17285    TIP3     H2       HT       0.417000       1.00800           0
     51856 W2       17286    TIP3     OH2      OT      -0.834000       15.9994           0
     51857 W2       17286    TIP3     H1       HT       0.417000       1.00800           0
     51858 W2       17286    TIP3     H2       HT       0.417000       1.00800           0
     51859 W2       17287    TIP3     OH2      OT      -0.834000       15.9994           0
     51860 W2       17287    TIP3     H1       HT       0.417000       1.00800           0
     51861 W2       17287    TIP3     H2       HT       0.417000       1.00800           0
     51862 W2       17288    TIP3     OH2      OT      -0.834000       15.9994           0
     51863 W2       17288    TIP3     H1       HT       0.417000       1.00800           0
     51864 W2       17288    TIP3     H2       HT       0.417000       1.00800           0
     51865 W2       17289    TIP3     OH2      OT      -0.834000       15.9994           0
     51866 W2       17289    TIP3     H1       HT       0.417000       1.00800           0
     51867 W2       17289    TIP3     H2       HT       0.417000       1.00800           0
     51868 W2       17290    TIP3     OH2      OT      -0.834000       15.9994           0
     51869 W2       17290    TIP3     H1       HT       0.417000       1.00800           0
     51870 W2       17290    TIP3     H2       HT       0.417000       1.00800           0
     51871 W2       17291    TIP3     OH2      OT      -0.834000       15.9994           0
     51872 W2       17291    TIP3     H1       HT       0.417000       1.00800           0
     51873 W2       17291    TIP3     H2       HT       0.417000       1.00800           0
     51874 W2       17292    TIP3     OH2      OT      -0.834000       15.9994           0
     51875 W2       17292    TIP3     H1       HT       0.417000       1.00800           0
     51876 W2       17292    TIP3     H2       HT       0.417000       1.00800           0
     51877 W2       17293    TIP3     OH2      OT      -0.834000       15.9994           0
     51878 W2       17293    TIP3     H1       HT       0.417000       1.00800           0
     51879 W2       17293    TIP3     H2       HT       0.417000       1.00800           0
     51880 W2       17294    TIP3     OH2      OT      -0.834000       15.9994           0
     51881 W2       17294    TIP3     H1       HT       0.417000       1.00800           0
     51882 W2       17294    TIP3     H2       HT       0.417000       1.00800           0
     51883 W2       17295    TIP3     OH2      OT      -0.834000       15.9994           0
     51884 W2       17295    TIP3     H1       HT       0.417000       1.00800           0
     51885 W2       17295    TIP3     H2       HT       0.417000       1.00800           0
     51886 W2       17296    TIP3     OH2      OT      -0.834000       15.9994           0
     51887 W2       17296    TIP3     H1       HT       0.417000       1.00800           0
     51888 W2       17296    TIP3     H2       HT       0.417000       1.00800           0
     51889 W2       17297    TIP3     OH2      OT      -0.834000       15.9994           0
     51890 W2       17297    TIP3     H1       HT       0.417000       1.00800           0
     51891 W2       17297    TIP3     H2       HT       0.417000       1.00800           0
     51892 W2       17298    TIP3     OH2      OT      -0.834000       15.9994           0
     51893 W2       17298    TIP3     H1       HT       0.417000       1.00800           0
     51894 W2       17298    TIP3     H2       HT       0.417000       1.00800           0
     51895 W2       17299    TIP3     OH2      OT      -0.834000       15.9994           0
     51896 W2       17299    TIP3     H1       HT       0.417000       1.00800           0
     51897 W2       17299    TIP3     H2       HT       0.417000       1.00800           0
     51898 W2       17300    TIP3     OH2      OT      -0.834000       15.9994           0
     51899 W2       17300    TIP3     H1       HT       0.417000       1.00800           0
     51900 W2       17300    TIP3     H2       HT       0.417000       1.00800           0
     51901 W2       17301    TIP3     OH2      OT      -0.834000       15.9994           0
     51902 W2       17301    TIP3     H1       HT       0.417000       1.00800           0
     51903 W2       17301    TIP3     H2       HT       0.417000       1.00800           0
     51904 W2       17302    TIP3     OH2      OT      -0.834000       15.9994           0
     51905 W2       17302    TIP3     H1       HT       0.417000       1.00800           0
     51906 W2       17302    TIP3     H2       HT       0.417000       1.00800           0
     51907 W2       17303    TIP3     OH2      OT      -0.834000       15.9994           0
     51908 W2       17303    TIP3     H1       HT       0.417000       1.00800           0
     51909 W2       17303    TIP3     H2       HT       0.417000       1.00800           0
     51910 W2       17304    TIP3     OH2      OT      -0.834000       15.9994           0
     51911 W2       17304    TIP3     H1       HT       0.417000       1.00800           0
     51912 W2       17304    TIP3     H2       HT       0.417000       1.00800           0
     51913 W2       17305    TIP3     OH2      OT      -0.834000       15.9994           0
     51914 W2       17305    TIP3     H1       HT       0.417000       1.00800           0
     51915 W2       17305    TIP3     H2       HT       0.417000       1.00800           0
     51916 W2       17306    TIP3     OH2      OT      -0.834000       15.9994           0
     51917 W2       17306    TIP3     H1       HT       0.417000       1.00800           0
     51918 W2       17306    TIP3     H2       HT       0.417000       1.00800           0
     51919 W2       17307    TIP3     OH2      OT      -0.834000       15.9994           0
     51920 W2       17307    TIP3     H1       HT       0.417000       1.00800           0
     51921 W2       17307    TIP3     H2       HT       0.417000       1.00800           0
     51922 W2       17308    TIP3     OH2      OT      -0.834000       15.9994           0
     51923 W2       17308    TIP3     H1       HT       0.417000       1.00800           0
     51924 W2       17308    TIP3     H2       HT       0.417000       1.00800           0
     51925 W2       17309    TIP3     OH2      OT      -0.834000       15.9994           0
     51926 W2       17309    TIP3     H1       HT       0.417000       1.00800           0
     51927 W2       17309    TIP3     H2       HT       0.417000       1.00800           0
     51928 W2       17310    TIP3     OH2      OT      -0.834000       15.9994           0
     51929 W2       17310    TIP3     H1       HT       0.417000       1.00800           0
     51930 W2       17310    TIP3     H2       HT       0.417000       1.00800           0
     51931 W2       17311    TIP3     OH2      OT      -0.834000       15.9994           0
     51932 W2       17311    TIP3     H1       HT       0.417000       1.00800           0
     51933 W2       17311    TIP3     H2       HT       0.417000       1.00800           0
     51934 W2       17312    TIP3     OH2      OT      -0.834000       15.9994           0
     51935 W2       17312    TIP3     H1       HT       0.417000       1.00800           0
     51936 W2       17312    TIP3     H2       HT       0.417000       1.00800           0
     51937 W2       17313    TIP3     OH2      OT      -0.834000       15.9994           0
     51938 W2       17313    TIP3     H1       HT       0.417000       1.00800           0
     51939 W2       17313    TIP3     H2       HT       0.417000       1.00800           0
     51940 W2       17314    TIP3     OH2      OT      -0.834000       15.9994           0
     51941 W2       17314    TIP3     H1       HT       0.417000       1.00800           0
     51942 W2       17314    TIP3     H2       HT       0.417000       1.00800           0
     51943 W2       17315    TIP3     OH2      OT      -0.834000       15.9994           0
     51944 W2       17315    TIP3     H1       HT       0.417000       1.00800           0
     51945 W2       17315    TIP3     H2       HT       0.417000       1.00800           0
     51946 W2       17316    TIP3     OH2      OT      -0.834000       15.9994           0
     51947 W2       17316    TIP3     H1       HT       0.417000       1.00800           0
     51948 W2       17316    TIP3     H2       HT       0.417000       1.00800           0
     51949 W2       17317    TIP3     OH2      OT      -0.834000       15.9994           0
     51950 W2       17317    TIP3     H1       HT       0.417000       1.00800           0
     51951 W2       17317    TIP3     H2       HT       0.417000       1.00800           0
     51952 W2       17318    TIP3     OH2      OT      -0.834000       15.9994           0
     51953 W2       17318    TIP3     H1       HT       0.417000       1.00800           0
     51954 W2       17318    TIP3     H2       HT       0.417000       1.00800           0
     51955 W2       17319    TIP3     OH2      OT      -0.834000       15.9994           0
     51956 W2       17319    TIP3     H1       HT       0.417000       1.00800           0
     51957 W2       17319    TIP3     H2       HT       0.417000       1.00800           0
     51958 W2       17320    TIP3     OH2      OT      -0.834000       15.9994           0
     51959 W2       17320    TIP3     H1       HT       0.417000       1.00800           0
     51960 W2       17320    TIP3     H2       HT       0.417000       1.00800           0
     51961 W2       17321    TIP3     OH2      OT      -0.834000       15.9994           0
     51962 W2       17321    TIP3     H1       HT       0.417000       1.00800           0
     51963 W2       17321    TIP3     H2       HT       0.417000       1.00800           0
     51964 W2       17322    TIP3     OH2      OT      -0.834000       15.9994           0
     51965 W2       17322    TIP3     H1       HT       0.417000       1.00800           0
     51966 W2       17322    TIP3     H2       HT       0.417000       1.00800           0
     51967 W2       17323    TIP3     OH2      OT      -0.834000       15.9994           0
     51968 W2       17323    TIP3     H1       HT       0.417000       1.00800           0
     51969 W2       17323    TIP3     H2       HT       0.417000       1.00800           0
     51970 W2       17324    TIP3     OH2      OT      -0.834000       15.9994           0
     51971 W2       17324    TIP3     H1       HT       0.417000       1.00800           0
     51972 W2       17324    TIP3     H2       HT       0.417000       1.00800           0
     51973 W2       17325    TIP3     OH2      OT      -0.834000       15.9994           0
     51974 W2       17325    TIP3     H1       HT       0.417000       1.00800           0
     51975 W2       17325    TIP3     H2       HT       0.417000       1.00800           0
     51976 W2       17326    TIP3     OH2      OT      -0.834000       15.9994           0
     51977 W2       17326    TIP3     H1       HT       0.417000       1.00800           0
     51978 W2       17326    TIP3     H2       HT       0.417000       1.00800           0
     51979 W2       17327    TIP3     OH2      OT      -0.834000       15.9994           0
     51980 W2       17327    TIP3     H1       HT       0.417000       1.00800           0
     51981 W2       17327    TIP3     H2       HT       0.417000       1.00800           0
     51982 W2       17328    TIP3     OH2      OT      -0.834000       15.9994           0
     51983 W2       17328    TIP3     H1       HT       0.417000       1.00800           0
     51984 W2       17328    TIP3     H2       HT       0.417000       1.00800           0
     51985 W2       17329    TIP3     OH2      OT      -0.834000       15.9994           0
     51986 W2       17329    TIP3     H1       HT       0.417000       1.00800           0
     51987 W2       17329    TIP3     H2       HT       0.417000       1.00800           0
     51988 W2       17330    TIP3     OH2      OT      -0.834000       15.9994           0
     51989 W2       17330    TIP3     H1       HT       0.417000       1.00800           0
     51990 W2       17330    TIP3     H2       HT       0.417000       1.00800           0
     51991 W2       17331    TIP3     OH2      OT      -0.834000       15.9994           0
     51992 W2       17331    TIP3     H1       HT       0.417000       1.00800           0
     51993 W2       17331    TIP3     H2       HT       0.417000       1.00800           0
     51994 W2       17332    TIP3     OH2      OT      -0.834000       15.9994           0
     51995 W2       17332    TIP3     H1       HT       0.417000       1.00800           0
     51996 W2       17332    TIP3     H2       HT       0.417000       1.00800           0
     51997 W2       17333    TIP3     OH2      OT      -0.834000       15.9994           0
     51998 W2       17333    TIP3     H1       HT       0.417000       1.00800           0
     51999 W2       17333    TIP3     H2       HT       0.417000       1.00800           0
     52000 W2       17334    TIP3     OH2      OT      -0.834000       15.9994           0
     52001 W2       17334    TIP3     H1       HT       0.417000       1.00800           0
     52002 W2       17334    TIP3     H2       HT       0.417000       1.00800           0
     52003 W2       17335    TIP3     OH2      OT      -0.834000       15.9994           0
     52004 W2       17335    TIP3     H1       HT       0.417000       1.00800           0
     52005 W2       17335    TIP3     H2       HT       0.417000       1.00800           0
     52006 W2       17336    TIP3     OH2      OT      -0.834000       15.9994           0
     52007 W2       17336    TIP3     H1       HT       0.417000       1.00800           0
     52008 W2       17336    TIP3     H2       HT       0.417000       1.00800           0
     52009 W2       17337    TIP3     OH2      OT      -0.834000       15.9994           0
     52010 W2       17337    TIP3     H1       HT       0.417000       1.00800           0
     52011 W2       17337    TIP3     H2       HT       0.417000       1.00800           0
     52012 W2       17338    TIP3     OH2      OT      -0.834000       15.9994           0
     52013 W2       17338    TIP3     H1       HT       0.417000       1.00800           0
     52014 W2       17338    TIP3     H2       HT       0.417000       1.00800           0
     52015 W2       17339    TIP3     OH2      OT      -0.834000       15.9994           0
     52016 W2       17339    TIP3     H1       HT       0.417000       1.00800           0
     52017 W2       17339    TIP3     H2       HT       0.417000       1.00800           0
     52018 W2       17340    TIP3     OH2      OT      -0.834000       15.9994           0
     52019 W2       17340    TIP3     H1       HT       0.417000       1.00800           0
     52020 W2       17340    TIP3     H2       HT       0.417000       1.00800           0
     52021 W2       17341    TIP3     OH2      OT      -0.834000       15.9994           0
     52022 W2       17341    TIP3     H1       HT       0.417000       1.00800           0
     52023 W2       17341    TIP3     H2       HT       0.417000       1.00800           0
     52024 W2       17342    TIP3     OH2      OT      -0.834000       15.9994           0
     52025 W2       17342    TIP3     H1       HT       0.417000       1.00800           0
     52026 W2       17342    TIP3     H2       HT       0.417000       1.00800           0
     52027 W2       17343    TIP3     OH2      OT      -0.834000       15.9994           0
     52028 W2       17343    TIP3     H1       HT       0.417000       1.00800           0
     52029 W2       17343    TIP3     H2       HT       0.417000       1.00800           0
     52030 W2       17344    TIP3     OH2      OT      -0.834000       15.9994           0
     52031 W2       17344    TIP3     H1       HT       0.417000       1.00800           0
     52032 W2       17344    TIP3     H2       HT       0.417000       1.00800           0
     52033 W2       17345    TIP3     OH2      OT      -0.834000       15.9994           0
     52034 W2       17345    TIP3     H1       HT       0.417000       1.00800           0
     52035 W2       17345    TIP3     H2       HT       0.417000       1.00800           0
     52036 W2       17346    TIP3     OH2      OT      -0.834000       15.9994           0
     52037 W2       17346    TIP3     H1       HT       0.417000       1.00800           0
     52038 W2       17346    TIP3     H2       HT       0.417000       1.00800           0
     52039 W2       17347    TIP3     OH2      OT      -0.834000       15.9994           0
     52040 W2       17347    TIP3     H1       HT       0.417000       1.00800           0
     52041 W2       17347    TIP3     H2       HT       0.417000       1.00800           0
     52042 W2       17348    TIP3     OH2      OT      -0.834000       15.9994           0
     52043 W2       17348    TIP3     H1       HT       0.417000       1.00800           0
     52044 W2       17348    TIP3     H2       HT       0.417000       1.00800           0
     52045 W2       17349    TIP3     OH2      OT      -0.834000       15.9994           0
     52046 W2       17349    TIP3     H1       HT       0.417000       1.00800           0
     52047 W2       17349    TIP3     H2       HT       0.417000       1.00800           0
     52048 W2       17350    TIP3     OH2      OT      -0.834000       15.9994           0
     52049 W2       17350    TIP3     H1       HT       0.417000       1.00800           0
     52050 W2       17350    TIP3     H2       HT       0.417000       1.00800           0
     52051 W2       17351    TIP3     OH2      OT      -0.834000       15.9994           0
     52052 W2       17351    TIP3     H1       HT       0.417000       1.00800           0
     52053 W2       17351    TIP3     H2       HT       0.417000       1.00800           0
     52054 W2       17352    TIP3     OH2      OT      -0.834000       15.9994           0
     52055 W2       17352    TIP3     H1       HT       0.417000       1.00800           0
     52056 W2       17352    TIP3     H2       HT       0.417000       1.00800           0
     52057 W2       17353    TIP3     OH2      OT      -0.834000       15.9994           0
     52058 W2       17353    TIP3     H1       HT       0.417000       1.00800           0
     52059 W2       17353    TIP3     H2       HT       0.417000       1.00800           0
     52060 W2       17354    TIP3     OH2      OT      -0.834000       15.9994           0
     52061 W2       17354    TIP3     H1       HT       0.417000       1.00800           0
     52062 W2       17354    TIP3     H2       HT       0.417000       1.00800           0
     52063 W2       17355    TIP3     OH2      OT      -0.834000       15.9994           0
     52064 W2       17355    TIP3     H1       HT       0.417000       1.00800           0
     52065 W2       17355    TIP3     H2       HT       0.417000       1.00800           0
     52066 W2       17356    TIP3     OH2      OT      -0.834000       15.9994           0
     52067 W2       17356    TIP3     H1       HT       0.417000       1.00800           0
     52068 W2       17356    TIP3     H2       HT       0.417000       1.00800           0
     52069 W2       17357    TIP3     OH2      OT      -0.834000       15.9994           0
     52070 W2       17357    TIP3     H1       HT       0.417000       1.00800           0
     52071 W2       17357    TIP3     H2       HT       0.417000       1.00800           0
     52072 W2       17358    TIP3     OH2      OT      -0.834000       15.9994           0
     52073 W2       17358    TIP3     H1       HT       0.417000       1.00800           0
     52074 W2       17358    TIP3     H2       HT       0.417000       1.00800           0
     52075 W2       17359    TIP3     OH2      OT      -0.834000       15.9994           0
     52076 W2       17359    TIP3     H1       HT       0.417000       1.00800           0
     52077 W2       17359    TIP3     H2       HT       0.417000       1.00800           0
     52078 W2       17360    TIP3     OH2      OT      -0.834000       15.9994           0
     52079 W2       17360    TIP3     H1       HT       0.417000       1.00800           0
     52080 W2       17360    TIP3     H2       HT       0.417000       1.00800           0
     52081 W2       17361    TIP3     OH2      OT      -0.834000       15.9994           0
     52082 W2       17361    TIP3     H1       HT       0.417000       1.00800           0
     52083 W2       17361    TIP3     H2       HT       0.417000       1.00800           0
     52084 W2       17362    TIP3     OH2      OT      -0.834000       15.9994           0
     52085 W2       17362    TIP3     H1       HT       0.417000       1.00800           0
     52086 W2       17362    TIP3     H2       HT       0.417000       1.00800           0
     52087 W2       17363    TIP3     OH2      OT      -0.834000       15.9994           0
     52088 W2       17363    TIP3     H1       HT       0.417000       1.00800           0
     52089 W2       17363    TIP3     H2       HT       0.417000       1.00800           0
     52090 W2       17364    TIP3     OH2      OT      -0.834000       15.9994           0
     52091 W2       17364    TIP3     H1       HT       0.417000       1.00800           0
     52092 W2       17364    TIP3     H2       HT       0.417000       1.00800           0
     52093 W2       17365    TIP3     OH2      OT      -0.834000       15.9994           0
     52094 W2       17365    TIP3     H1       HT       0.417000       1.00800           0
     52095 W2       17365    TIP3     H2       HT       0.417000       1.00800           0
     52096 W2       17366    TIP3     OH2      OT      -0.834000       15.9994           0
     52097 W2       17366    TIP3     H1       HT       0.417000       1.00800           0
     52098 W2       17366    TIP3     H2       HT       0.417000       1.00800           0
     52099 W2       17367    TIP3     OH2      OT      -0.834000       15.9994           0
     52100 W2       17367    TIP3     H1       HT       0.417000       1.00800           0
     52101 W2       17367    TIP3     H2       HT       0.417000       1.00800           0
     52102 W2       17368    TIP3     OH2      OT      -0.834000       15.9994           0
     52103 W2       17368    TIP3     H1       HT       0.417000       1.00800           0
     52104 W2       17368    TIP3     H2       HT       0.417000       1.00800           0
     52105 W2       17369    TIP3     OH2      OT      -0.834000       15.9994           0
     52106 W2       17369    TIP3     H1       HT       0.417000       1.00800           0
     52107 W2       17369    TIP3     H2       HT       0.417000       1.00800           0
     52108 W2       17370    TIP3     OH2      OT      -0.834000       15.9994           0
     52109 W2       17370    TIP3     H1       HT       0.417000       1.00800           0
     52110 W2       17370    TIP3     H2       HT       0.417000       1.00800           0
     52111 W2       17371    TIP3     OH2      OT      -0.834000       15.9994           0
     52112 W2       17371    TIP3     H1       HT       0.417000       1.00800           0
     52113 W2       17371    TIP3     H2       HT       0.417000       1.00800           0
     52114 W2       17372    TIP3     OH2      OT      -0.834000       15.9994           0
     52115 W2       17372    TIP3     H1       HT       0.417000       1.00800           0
     52116 W2       17372    TIP3     H2       HT       0.417000       1.00800           0
     52117 W2       17373    TIP3     OH2      OT      -0.834000       15.9994           0
     52118 W2       17373    TIP3     H1       HT       0.417000       1.00800           0
     52119 W2       17373    TIP3     H2       HT       0.417000       1.00800           0
     52120 W2       17374    TIP3     OH2      OT      -0.834000       15.9994           0
     52121 W2       17374    TIP3     H1       HT       0.417000       1.00800           0
     52122 W2       17374    TIP3     H2       HT       0.417000       1.00800           0
     52123 W2       17375    TIP3     OH2      OT      -0.834000       15.9994           0
     52124 W2       17375    TIP3     H1       HT       0.417000       1.00800           0
     52125 W2       17375    TIP3     H2       HT       0.417000       1.00800           0
     52126 W2       17376    TIP3     OH2      OT      -0.834000       15.9994           0
     52127 W2       17376    TIP3     H1       HT       0.417000       1.00800           0
     52128 W2       17376    TIP3     H2       HT       0.417000       1.00800           0
     52129 W2       17377    TIP3     OH2      OT      -0.834000       15.9994           0
     52130 W2       17377    TIP3     H1       HT       0.417000       1.00800           0
     52131 W2       17377    TIP3     H2       HT       0.417000       1.00800           0
     52132 W2       17378    TIP3     OH2      OT      -0.834000       15.9994           0
     52133 W2       17378    TIP3     H1       HT       0.417000       1.00800           0
     52134 W2       17378    TIP3     H2       HT       0.417000       1.00800           0
     52135 W2       17379    TIP3     OH2      OT      -0.834000       15.9994           0
     52136 W2       17379    TIP3     H1       HT       0.417000       1.00800           0
     52137 W2       17379    TIP3     H2       HT       0.417000       1.00800           0
     52138 W2       17380    TIP3     OH2      OT      -0.834000       15.9994           0
     52139 W2       17380    TIP3     H1       HT       0.417000       1.00800           0
     52140 W2       17380    TIP3     H2       HT       0.417000       1.00800           0
     52141 W2       17381    TIP3     OH2      OT      -0.834000       15.9994           0
     52142 W2       17381    TIP3     H1       HT       0.417000       1.00800           0
     52143 W2       17381    TIP3     H2       HT       0.417000       1.00800           0
     52144 W2       17382    TIP3     OH2      OT      -0.834000       15.9994           0
     52145 W2       17382    TIP3     H1       HT       0.417000       1.00800           0
     52146 W2       17382    TIP3     H2       HT       0.417000       1.00800           0
     52147 W2       17383    TIP3     OH2      OT      -0.834000       15.9994           0
     52148 W2       17383    TIP3     H1       HT       0.417000       1.00800           0
     52149 W2       17383    TIP3     H2       HT       0.417000       1.00800           0
     52150 W2       17384    TIP3     OH2      OT      -0.834000       15.9994           0
     52151 W2       17384    TIP3     H1       HT       0.417000       1.00800           0
     52152 W2       17384    TIP3     H2       HT       0.417000       1.00800           0
     52153 W2       17385    TIP3     OH2      OT      -0.834000       15.9994           0
     52154 W2       17385    TIP3     H1       HT       0.417000       1.00800           0
     52155 W2       17385    TIP3     H2       HT       0.417000       1.00800           0
     52156 W2       17386    TIP3     OH2      OT      -0.834000       15.9994           0
     52157 W2       17386    TIP3     H1       HT       0.417000       1.00800           0
     52158 W2       17386    TIP3     H2       HT       0.417000       1.00800           0
     52159 W2       17387    TIP3     OH2      OT      -0.834000       15.9994           0
     52160 W2       17387    TIP3     H1       HT       0.417000       1.00800           0
     52161 W2       17387    TIP3     H2       HT       0.417000       1.00800           0
     52162 W2       17388    TIP3     OH2      OT      -0.834000       15.9994           0
     52163 W2       17388    TIP3     H1       HT       0.417000       1.00800           0
     52164 W2       17388    TIP3     H2       HT       0.417000       1.00800           0
     52165 W2       17389    TIP3     OH2      OT      -0.834000       15.9994           0
     52166 W2       17389    TIP3     H1       HT       0.417000       1.00800           0
     52167 W2       17389    TIP3     H2       HT       0.417000       1.00800           0
     52168 W2       17390    TIP3     OH2      OT      -0.834000       15.9994           0
     52169 W2       17390    TIP3     H1       HT       0.417000       1.00800           0
     52170 W2       17390    TIP3     H2       HT       0.417000       1.00800           0
     52171 W2       17391    TIP3     OH2      OT      -0.834000       15.9994           0
     52172 W2       17391    TIP3     H1       HT       0.417000       1.00800           0
     52173 W2       17391    TIP3     H2       HT       0.417000       1.00800           0
     52174 W2       17392    TIP3     OH2      OT      -0.834000       15.9994           0
     52175 W2       17392    TIP3     H1       HT       0.417000       1.00800           0
     52176 W2       17392    TIP3     H2       HT       0.417000       1.00800           0
     52177 W2       17393    TIP3     OH2      OT      -0.834000       15.9994           0
     52178 W2       17393    TIP3     H1       HT       0.417000       1.00800           0
     52179 W2       17393    TIP3     H2       HT       0.417000       1.00800           0
     52180 W2       17394    TIP3     OH2      OT      -0.834000       15.9994           0
     52181 W2       17394    TIP3     H1       HT       0.417000       1.00800           0
     52182 W2       17394    TIP3     H2       HT       0.417000       1.00800           0
     52183 W2       17395    TIP3     OH2      OT      -0.834000       15.9994           0
     52184 W2       17395    TIP3     H1       HT       0.417000       1.00800           0
     52185 W2       17395    TIP3     H2       HT       0.417000       1.00800           0
     52186 W2       17396    TIP3     OH2      OT      -0.834000       15.9994           0
     52187 W2       17396    TIP3     H1       HT       0.417000       1.00800           0
     52188 W2       17396    TIP3     H2       HT       0.417000       1.00800           0
     52189 W2       17397    TIP3     OH2      OT      -0.834000       15.9994           0
     52190 W2       17397    TIP3     H1       HT       0.417000       1.00800           0
     52191 W2       17397    TIP3     H2       HT       0.417000       1.00800           0
     52192 W2       17398    TIP3     OH2      OT      -0.834000       15.9994           0
     52193 W2       17398    TIP3     H1       HT       0.417000       1.00800           0
     52194 W2       17398    TIP3     H2       HT       0.417000       1.00800           0
     52195 W2       17399    TIP3     OH2      OT      -0.834000       15.9994           0
     52196 W2       17399    TIP3     H1       HT       0.417000       1.00800           0
     52197 W2       17399    TIP3     H2       HT       0.417000       1.00800           0
     52198 W2       17400    TIP3     OH2      OT      -0.834000       15.9994           0
     52199 W2       17400    TIP3     H1       HT       0.417000       1.00800           0
     52200 W2       17400    TIP3     H2       HT       0.417000       1.00800           0
     52201 W2       17401    TIP3     OH2      OT      -0.834000       15.9994           0
     52202 W2       17401    TIP3     H1       HT       0.417000       1.00800           0
     52203 W2       17401    TIP3     H2       HT       0.417000       1.00800           0
     52204 W2       17402    TIP3     OH2      OT      -0.834000       15.9994           0
     52205 W2       17402    TIP3     H1       HT       0.417000       1.00800           0
     52206 W2       17402    TIP3     H2       HT       0.417000       1.00800           0
     52207 W2       17403    TIP3     OH2      OT      -0.834000       15.9994           0
     52208 W2       17403    TIP3     H1       HT       0.417000       1.00800           0
     52209 W2       17403    TIP3     H2       HT       0.417000       1.00800           0
     52210 W2       17404    TIP3     OH2      OT      -0.834000       15.9994           0
     52211 W2       17404    TIP3     H1       HT       0.417000       1.00800           0
     52212 W2       17404    TIP3     H2       HT       0.417000       1.00800           0
     52213 W2       17405    TIP3     OH2      OT      -0.834000       15.9994           0
     52214 W2       17405    TIP3     H1       HT       0.417000       1.00800           0
     52215 W2       17405    TIP3     H2       HT       0.417000       1.00800           0
     52216 W2       17406    TIP3     OH2      OT      -0.834000       15.9994           0
     52217 W2       17406    TIP3     H1       HT       0.417000       1.00800           0
     52218 W2       17406    TIP3     H2       HT       0.417000       1.00800           0
     52219 W2       17407    TIP3     OH2      OT      -0.834000       15.9994           0
     52220 W2       17407    TIP3     H1       HT       0.417000       1.00800           0
     52221 W2       17407    TIP3     H2       HT       0.417000       1.00800           0
     52222 W2       17408    TIP3     OH2      OT      -0.834000       15.9994           0
     52223 W2       17408    TIP3     H1       HT       0.417000       1.00800           0
     52224 W2       17408    TIP3     H2       HT       0.417000       1.00800           0
     52225 W2       17409    TIP3     OH2      OT      -0.834000       15.9994           0
     52226 W2       17409    TIP3     H1       HT       0.417000       1.00800           0
     52227 W2       17409    TIP3     H2       HT       0.417000       1.00800           0
     52228 W2       17410    TIP3     OH2      OT      -0.834000       15.9994           0
     52229 W2       17410    TIP3     H1       HT       0.417000       1.00800           0
     52230 W2       17410    TIP3     H2       HT       0.417000       1.00800           0
     52231 W2       17411    TIP3     OH2      OT      -0.834000       15.9994           0
     52232 W2       17411    TIP3     H1       HT       0.417000       1.00800           0
     52233 W2       17411    TIP3     H2       HT       0.417000       1.00800           0
     52234 W2       17412    TIP3     OH2      OT      -0.834000       15.9994           0
     52235 W2       17412    TIP3     H1       HT       0.417000       1.00800           0
     52236 W2       17412    TIP3     H2       HT       0.417000       1.00800           0
     52237 W2       17413    TIP3     OH2      OT      -0.834000       15.9994           0
     52238 W2       17413    TIP3     H1       HT       0.417000       1.00800           0
     52239 W2       17413    TIP3     H2       HT       0.417000       1.00800           0
     52240 W2       17414    TIP3     OH2      OT      -0.834000       15.9994           0
     52241 W2       17414    TIP3     H1       HT       0.417000       1.00800           0
     52242 W2       17414    TIP3     H2       HT       0.417000       1.00800           0
     52243 W2       17415    TIP3     OH2      OT      -0.834000       15.9994           0
     52244 W2       17415    TIP3     H1       HT       0.417000       1.00800           0
     52245 W2       17415    TIP3     H2       HT       0.417000       1.00800           0
     52246 W2       17416    TIP3     OH2      OT      -0.834000       15.9994           0
     52247 W2       17416    TIP3     H1       HT       0.417000       1.00800           0
     52248 W2       17416    TIP3     H2       HT       0.417000       1.00800           0
     52249 W2       17417    TIP3     OH2      OT      -0.834000       15.9994           0
     52250 W2       17417    TIP3     H1       HT       0.417000       1.00800           0
     52251 W2       17417    TIP3     H2       HT       0.417000       1.00800           0
     52252 W2       17418    TIP3     OH2      OT      -0.834000       15.9994           0
     52253 W2       17418    TIP3     H1       HT       0.417000       1.00800           0
     52254 W2       17418    TIP3     H2       HT       0.417000       1.00800           0
     52255 W2       17419    TIP3     OH2      OT      -0.834000       15.9994           0
     52256 W2       17419    TIP3     H1       HT       0.417000       1.00800           0
     52257 W2       17419    TIP3     H2       HT       0.417000       1.00800           0
     52258 W2       17420    TIP3     OH2      OT      -0.834000       15.9994           0
     52259 W2       17420    TIP3     H1       HT       0.417000       1.00800           0
     52260 W2       17420    TIP3     H2       HT       0.417000       1.00800           0
     52261 W2       17421    TIP3     OH2      OT      -0.834000       15.9994           0
     52262 W2       17421    TIP3     H1       HT       0.417000       1.00800           0
     52263 W2       17421    TIP3     H2       HT       0.417000       1.00800           0
     52264 W2       17422    TIP3     OH2      OT      -0.834000       15.9994           0
     52265 W2       17422    TIP3     H1       HT       0.417000       1.00800           0
     52266 W2       17422    TIP3     H2       HT       0.417000       1.00800           0
     52267 W2       17423    TIP3     OH2      OT      -0.834000       15.9994           0
     52268 W2       17423    TIP3     H1       HT       0.417000       1.00800           0
     52269 W2       17423    TIP3     H2       HT       0.417000       1.00800           0
     52270 W2       17424    TIP3     OH2      OT      -0.834000       15.9994           0
     52271 W2       17424    TIP3     H1       HT       0.417000       1.00800           0
     52272 W2       17424    TIP3     H2       HT       0.417000       1.00800           0
     52273 W2       17425    TIP3     OH2      OT      -0.834000       15.9994           0
     52274 W2       17425    TIP3     H1       HT       0.417000       1.00800           0
     52275 W2       17425    TIP3     H2       HT       0.417000       1.00800           0
     52276 W2       17426    TIP3     OH2      OT      -0.834000       15.9994           0
     52277 W2       17426    TIP3     H1       HT       0.417000       1.00800           0
     52278 W2       17426    TIP3     H2       HT       0.417000       1.00800           0
     52279 W2       17427    TIP3     OH2      OT      -0.834000       15.9994           0
     52280 W2       17427    TIP3     H1       HT       0.417000       1.00800           0
     52281 W2       17427    TIP3     H2       HT       0.417000       1.00800           0
     52282 W2       17428    TIP3     OH2      OT      -0.834000       15.9994           0
     52283 W2       17428    TIP3     H1       HT       0.417000       1.00800           0
     52284 W2       17428    TIP3     H2       HT       0.417000       1.00800           0
     52285 W2       17429    TIP3     OH2      OT      -0.834000       15.9994           0
     52286 W2       17429    TIP3     H1       HT       0.417000       1.00800           0
     52287 W2       17429    TIP3     H2       HT       0.417000       1.00800           0
     52288 W2       17430    TIP3     OH2      OT      -0.834000       15.9994           0
     52289 W2       17430    TIP3     H1       HT       0.417000       1.00800           0
     52290 W2       17430    TIP3     H2       HT       0.417000       1.00800           0
     52291 W2       17431    TIP3     OH2      OT      -0.834000       15.9994           0
     52292 W2       17431    TIP3     H1       HT       0.417000       1.00800           0
     52293 W2       17431    TIP3     H2       HT       0.417000       1.00800           0
     52294 W2       17432    TIP3     OH2      OT      -0.834000       15.9994           0
     52295 W2       17432    TIP3     H1       HT       0.417000       1.00800           0
     52296 W2       17432    TIP3     H2       HT       0.417000       1.00800           0
     52297 W2       17433    TIP3     OH2      OT      -0.834000       15.9994           0
     52298 W2       17433    TIP3     H1       HT       0.417000       1.00800           0
     52299 W2       17433    TIP3     H2       HT       0.417000       1.00800           0
     52300 W2       17434    TIP3     OH2      OT      -0.834000       15.9994           0
     52301 W2       17434    TIP3     H1       HT       0.417000       1.00800           0
     52302 W2       17434    TIP3     H2       HT       0.417000       1.00800           0
     52303 W2       17435    TIP3     OH2      OT      -0.834000       15.9994           0
     52304 W2       17435    TIP3     H1       HT       0.417000       1.00800           0
     52305 W2       17435    TIP3     H2       HT       0.417000       1.00800           0
     52306 W2       17436    TIP3     OH2      OT      -0.834000       15.9994           0
     52307 W2       17436    TIP3     H1       HT       0.417000       1.00800           0
     52308 W2       17436    TIP3     H2       HT       0.417000       1.00800           0
     52309 W2       17437    TIP3     OH2      OT      -0.834000       15.9994           0
     52310 W2       17437    TIP3     H1       HT       0.417000       1.00800           0
     52311 W2       17437    TIP3     H2       HT       0.417000       1.00800           0
     52312 W2       17438    TIP3     OH2      OT      -0.834000       15.9994           0
     52313 W2       17438    TIP3     H1       HT       0.417000       1.00800           0
     52314 W2       17438    TIP3     H2       HT       0.417000       1.00800           0
     52315 W2       17439    TIP3     OH2      OT      -0.834000       15.9994           0
     52316 W2       17439    TIP3     H1       HT       0.417000       1.00800           0
     52317 W2       17439    TIP3     H2       HT       0.417000       1.00800           0
     52318 W2       17440    TIP3     OH2      OT      -0.834000       15.9994           0
     52319 W2       17440    TIP3     H1       HT       0.417000       1.00800           0
     52320 W2       17440    TIP3     H2       HT       0.417000       1.00800           0
     52321 W2       17441    TIP3     OH2      OT      -0.834000       15.9994           0
     52322 W2       17441    TIP3     H1       HT       0.417000       1.00800           0
     52323 W2       17441    TIP3     H2       HT       0.417000       1.00800           0
     52324 W2       17442    TIP3     OH2      OT      -0.834000       15.9994           0
     52325 W2       17442    TIP3     H1       HT       0.417000       1.00800           0
     52326 W2       17442    TIP3     H2       HT       0.417000       1.00800           0
     52327 W2       17443    TIP3     OH2      OT      -0.834000       15.9994           0
     52328 W2       17443    TIP3     H1       HT       0.417000       1.00800           0
     52329 W2       17443    TIP3     H2       HT       0.417000       1.00800           0
     52330 W2       17444    TIP3     OH2      OT      -0.834000       15.9994           0
     52331 W2       17444    TIP3     H1       HT       0.417000       1.00800           0
     52332 W2       17444    TIP3     H2       HT       0.417000       1.00800           0
     52333 W2       17445    TIP3     OH2      OT      -0.834000       15.9994           0
     52334 W2       17445    TIP3     H1       HT       0.417000       1.00800           0
     52335 W2       17445    TIP3     H2       HT       0.417000       1.00800           0
     52336 W2       17446    TIP3     OH2      OT      -0.834000       15.9994           0
     52337 W2       17446    TIP3     H1       HT       0.417000       1.00800           0
     52338 W2       17446    TIP3     H2       HT       0.417000       1.00800           0
     52339 W2       17447    TIP3     OH2      OT      -0.834000       15.9994           0
     52340 W2       17447    TIP3     H1       HT       0.417000       1.00800           0
     52341 W2       17447    TIP3     H2       HT       0.417000       1.00800           0
     52342 W2       17448    TIP3     OH2      OT      -0.834000       15.9994           0
     52343 W2       17448    TIP3     H1       HT       0.417000       1.00800           0
     52344 W2       17448    TIP3     H2       HT       0.417000       1.00800           0
     52345 W2       17449    TIP3     OH2      OT      -0.834000       15.9994           0
     52346 W2       17449    TIP3     H1       HT       0.417000       1.00800           0
     52347 W2       17449    TIP3     H2       HT       0.417000       1.00800           0
     52348 W2       17450    TIP3     OH2      OT      -0.834000       15.9994           0
     52349 W2       17450    TIP3     H1       HT       0.417000       1.00800           0
     52350 W2       17450    TIP3     H2       HT       0.417000       1.00800           0
     52351 W2       17451    TIP3     OH2      OT      -0.834000       15.9994           0
     52352 W2       17451    TIP3     H1       HT       0.417000       1.00800           0
     52353 W2       17451    TIP3     H2       HT       0.417000       1.00800           0
     52354 W2       17452    TIP3     OH2      OT      -0.834000       15.9994           0
     52355 W2       17452    TIP3     H1       HT       0.417000       1.00800           0
     52356 W2       17452    TIP3     H2       HT       0.417000       1.00800           0
     52357 W2       17453    TIP3     OH2      OT      -0.834000       15.9994           0
     52358 W2       17453    TIP3     H1       HT       0.417000       1.00800           0
     52359 W2       17453    TIP3     H2       HT       0.417000       1.00800           0
     52360 W2       17454    TIP3     OH2      OT      -0.834000       15.9994           0
     52361 W2       17454    TIP3     H1       HT       0.417000       1.00800           0
     52362 W2       17454    TIP3     H2       HT       0.417000       1.00800           0
     52363 W2       17455    TIP3     OH2      OT      -0.834000       15.9994           0
     52364 W2       17455    TIP3     H1       HT       0.417000       1.00800           0
     52365 W2       17455    TIP3     H2       HT       0.417000       1.00800           0
     52366 W2       17456    TIP3     OH2      OT      -0.834000       15.9994           0
     52367 W2       17456    TIP3     H1       HT       0.417000       1.00800           0
     52368 W2       17456    TIP3     H2       HT       0.417000       1.00800           0
     52369 W2       17457    TIP3     OH2      OT      -0.834000       15.9994           0
     52370 W2       17457    TIP3     H1       HT       0.417000       1.00800           0
     52371 W2       17457    TIP3     H2       HT       0.417000       1.00800           0
     52372 W2       17458    TIP3     OH2      OT      -0.834000       15.9994           0
     52373 W2       17458    TIP3     H1       HT       0.417000       1.00800           0
     52374 W2       17458    TIP3     H2       HT       0.417000       1.00800           0
     52375 W2       17459    TIP3     OH2      OT      -0.834000       15.9994           0
     52376 W2       17459    TIP3     H1       HT       0.417000       1.00800           0
     52377 W2       17459    TIP3     H2       HT       0.417000       1.00800           0
     52378 W2       17460    TIP3     OH2      OT      -0.834000       15.9994           0
     52379 W2       17460    TIP3     H1       HT       0.417000       1.00800           0
     52380 W2       17460    TIP3     H2       HT       0.417000       1.00800           0
     52381 W2       17461    TIP3     OH2      OT      -0.834000       15.9994           0
     52382 W2       17461    TIP3     H1       HT       0.417000       1.00800           0
     52383 W2       17461    TIP3     H2       HT       0.417000       1.00800           0
     52384 W2       17462    TIP3     OH2      OT      -0.834000       15.9994           0
     52385 W2       17462    TIP3     H1       HT       0.417000       1.00800           0
     52386 W2       17462    TIP3     H2       HT       0.417000       1.00800           0
     52387 W2       17463    TIP3     OH2      OT      -0.834000       15.9994           0
     52388 W2       17463    TIP3     H1       HT       0.417000       1.00800           0
     52389 W2       17463    TIP3     H2       HT       0.417000       1.00800           0
     52390 W2       17464    TIP3     OH2      OT      -0.834000       15.9994           0
     52391 W2       17464    TIP3     H1       HT       0.417000       1.00800           0
     52392 W2       17464    TIP3     H2       HT       0.417000       1.00800           0
     52393 W2       17465    TIP3     OH2      OT      -0.834000       15.9994           0
     52394 W2       17465    TIP3     H1       HT       0.417000       1.00800           0
     52395 W2       17465    TIP3     H2       HT       0.417000       1.00800           0
     52396 W2       17466    TIP3     OH2      OT      -0.834000       15.9994           0
     52397 W2       17466    TIP3     H1       HT       0.417000       1.00800           0
     52398 W2       17466    TIP3     H2       HT       0.417000       1.00800           0
     52399 W2       17467    TIP3     OH2      OT      -0.834000       15.9994           0
     52400 W2       17467    TIP3     H1       HT       0.417000       1.00800           0
     52401 W2       17467    TIP3     H2       HT       0.417000       1.00800           0
     52402 W2       17468    TIP3     OH2      OT      -0.834000       15.9994           0
     52403 W2       17468    TIP3     H1       HT       0.417000       1.00800           0
     52404 W2       17468    TIP3     H2       HT       0.417000       1.00800           0
     52405 W2       17469    TIP3     OH2      OT      -0.834000       15.9994           0
     52406 W2       17469    TIP3     H1       HT       0.417000       1.00800           0
     52407 W2       17469    TIP3     H2       HT       0.417000       1.00800           0
     52408 W2       17470    TIP3     OH2      OT      -0.834000       15.9994           0
     52409 W2       17470    TIP3     H1       HT       0.417000       1.00800           0
     52410 W2       17470    TIP3     H2       HT       0.417000       1.00800           0
     52411 W2       17471    TIP3     OH2      OT      -0.834000       15.9994           0
     52412 W2       17471    TIP3     H1       HT       0.417000       1.00800           0
     52413 W2       17471    TIP3     H2       HT       0.417000       1.00800           0
     52414 W2       17472    TIP3     OH2      OT      -0.834000       15.9994           0
     52415 W2       17472    TIP3     H1       HT       0.417000       1.00800           0
     52416 W2       17472    TIP3     H2       HT       0.417000       1.00800           0
     52417 W2       17473    TIP3     OH2      OT      -0.834000       15.9994           0
     52418 W2       17473    TIP3     H1       HT       0.417000       1.00800           0
     52419 W2       17473    TIP3     H2       HT       0.417000       1.00800           0
     52420 W2       17474    TIP3     OH2      OT      -0.834000       15.9994           0
     52421 W2       17474    TIP3     H1       HT       0.417000       1.00800           0
     52422 W2       17474    TIP3     H2       HT       0.417000       1.00800           0
     52423 W2       17475    TIP3     OH2      OT      -0.834000       15.9994           0
     52424 W2       17475    TIP3     H1       HT       0.417000       1.00800           0
     52425 W2       17475    TIP3     H2       HT       0.417000       1.00800           0
     52426 W2       17476    TIP3     OH2      OT      -0.834000       15.9994           0
     52427 W2       17476    TIP3     H1       HT       0.417000       1.00800           0
     52428 W2       17476    TIP3     H2       HT       0.417000       1.00800           0
     52429 W2       17477    TIP3     OH2      OT      -0.834000       15.9994           0
     52430 W2       17477    TIP3     H1       HT       0.417000       1.00800           0
     52431 W2       17477    TIP3     H2       HT       0.417000       1.00800           0
     52432 W2       17478    TIP3     OH2      OT      -0.834000       15.9994           0
     52433 W2       17478    TIP3     H1       HT       0.417000       1.00800           0
     52434 W2       17478    TIP3     H2       HT       0.417000       1.00800           0
     52435 W2       17479    TIP3     OH2      OT      -0.834000       15.9994           0
     52436 W2       17479    TIP3     H1       HT       0.417000       1.00800           0
     52437 W2       17479    TIP3     H2       HT       0.417000       1.00800           0
     52438 W2       17480    TIP3     OH2      OT      -0.834000       15.9994           0
     52439 W2       17480    TIP3     H1       HT       0.417000       1.00800           0
     52440 W2       17480    TIP3     H2       HT       0.417000       1.00800           0
     52441 W2       17481    TIP3     OH2      OT      -0.834000       15.9994           0
     52442 W2       17481    TIP3     H1       HT       0.417000       1.00800           0
     52443 W2       17481    TIP3     H2       HT       0.417000       1.00800           0
     52444 W2       17482    TIP3     OH2      OT      -0.834000       15.9994           0
     52445 W2       17482    TIP3     H1       HT       0.417000       1.00800           0
     52446 W2       17482    TIP3     H2       HT       0.417000       1.00800           0
     52447 W2       17483    TIP3     OH2      OT      -0.834000       15.9994           0
     52448 W2       17483    TIP3     H1       HT       0.417000       1.00800           0
     52449 W2       17483    TIP3     H2       HT       0.417000       1.00800           0
     52450 W2       17484    TIP3     OH2      OT      -0.834000       15.9994           0
     52451 W2       17484    TIP3     H1       HT       0.417000       1.00800           0
     52452 W2       17484    TIP3     H2       HT       0.417000       1.00800           0
     52453 W2       17485    TIP3     OH2      OT      -0.834000       15.9994           0
     52454 W2       17485    TIP3     H1       HT       0.417000       1.00800           0
     52455 W2       17485    TIP3     H2       HT       0.417000       1.00800           0
     52456 W2       17486    TIP3     OH2      OT      -0.834000       15.9994           0
     52457 W2       17486    TIP3     H1       HT       0.417000       1.00800           0
     52458 W2       17486    TIP3     H2       HT       0.417000       1.00800           0
     52459 W2       17487    TIP3     OH2      OT      -0.834000       15.9994           0
     52460 W2       17487    TIP3     H1       HT       0.417000       1.00800           0
     52461 W2       17487    TIP3     H2       HT       0.417000       1.00800           0
     52462 W2       17488    TIP3     OH2      OT      -0.834000       15.9994           0
     52463 W2       17488    TIP3     H1       HT       0.417000       1.00800           0
     52464 W2       17488    TIP3     H2       HT       0.417000       1.00800           0
     52465 W2       17489    TIP3     OH2      OT      -0.834000       15.9994           0
     52466 W2       17489    TIP3     H1       HT       0.417000       1.00800           0
     52467 W2       17489    TIP3     H2       HT       0.417000       1.00800           0
     52468 W2       17490    TIP3     OH2      OT      -0.834000       15.9994           0
     52469 W2       17490    TIP3     H1       HT       0.417000       1.00800           0
     52470 W2       17490    TIP3     H2       HT       0.417000       1.00800           0
     52471 W2       17491    TIP3     OH2      OT      -0.834000       15.9994           0
     52472 W2       17491    TIP3     H1       HT       0.417000       1.00800           0
     52473 W2       17491    TIP3     H2       HT       0.417000       1.00800           0
     52474 W2       17492    TIP3     OH2      OT      -0.834000       15.9994           0
     52475 W2       17492    TIP3     H1       HT       0.417000       1.00800           0
     52476 W2       17492    TIP3     H2       HT       0.417000       1.00800           0
     52477 W2       17493    TIP3     OH2      OT      -0.834000       15.9994           0
     52478 W2       17493    TIP3     H1       HT       0.417000       1.00800           0
     52479 W2       17493    TIP3     H2       HT       0.417000       1.00800           0
     52480 W2       17494    TIP3     OH2      OT      -0.834000       15.9994           0
     52481 W2       17494    TIP3     H1       HT       0.417000       1.00800           0
     52482 W2       17494    TIP3     H2       HT       0.417000       1.00800           0
     52483 W2       17495    TIP3     OH2      OT      -0.834000       15.9994           0
     52484 W2       17495    TIP3     H1       HT       0.417000       1.00800           0
     52485 W2       17495    TIP3     H2       HT       0.417000       1.00800           0
     52486 W2       17496    TIP3     OH2      OT      -0.834000       15.9994           0
     52487 W2       17496    TIP3     H1       HT       0.417000       1.00800           0
     52488 W2       17496    TIP3     H2       HT       0.417000       1.00800           0
     52489 W2       17497    TIP3     OH2      OT      -0.834000       15.9994           0
     52490 W2       17497    TIP3     H1       HT       0.417000       1.00800           0
     52491 W2       17497    TIP3     H2       HT       0.417000       1.00800           0
     52492 W2       17498    TIP3     OH2      OT      -0.834000       15.9994           0
     52493 W2       17498    TIP3     H1       HT       0.417000       1.00800           0
     52494 W2       17498    TIP3     H2       HT       0.417000       1.00800           0
     52495 W2       17499    TIP3     OH2      OT      -0.834000       15.9994           0
     52496 W2       17499    TIP3     H1       HT       0.417000       1.00800           0
     52497 W2       17499    TIP3     H2       HT       0.417000       1.00800           0
     52498 W2       17500    TIP3     OH2      OT      -0.834000       15.9994           0
     52499 W2       17500    TIP3     H1       HT       0.417000       1.00800           0
     52500 W2       17500    TIP3     H2       HT       0.417000       1.00800           0
     52501 W2       17501    TIP3     OH2      OT      -0.834000       15.9994           0
     52502 W2       17501    TIP3     H1       HT       0.417000       1.00800           0
     52503 W2       17501    TIP3     H2       HT       0.417000       1.00800           0
     52504 W2       17502    TIP3     OH2      OT      -0.834000       15.9994           0
     52505 W2       17502    TIP3     H1       HT       0.417000       1.00800           0
     52506 W2       17502    TIP3     H2       HT       0.417000       1.00800           0
     52507 W2       17503    TIP3     OH2      OT      -0.834000       15.9994           0
     52508 W2       17503    TIP3     H1       HT       0.417000       1.00800           0
     52509 W2       17503    TIP3     H2       HT       0.417000       1.00800           0
     52510 W2       17504    TIP3     OH2      OT      -0.834000       15.9994           0
     52511 W2       17504    TIP3     H1       HT       0.417000       1.00800           0
     52512 W2       17504    TIP3     H2       HT       0.417000       1.00800           0
     52513 W2       17505    TIP3     OH2      OT      -0.834000       15.9994           0
     52514 W2       17505    TIP3     H1       HT       0.417000       1.00800           0
     52515 W2       17505    TIP3     H2       HT       0.417000       1.00800           0
     52516 W2       17506    TIP3     OH2      OT      -0.834000       15.9994           0
     52517 W2       17506    TIP3     H1       HT       0.417000       1.00800           0
     52518 W2       17506    TIP3     H2       HT       0.417000       1.00800           0
     52519 W2       17507    TIP3     OH2      OT      -0.834000       15.9994           0
     52520 W2       17507    TIP3     H1       HT       0.417000       1.00800           0
     52521 W2       17507    TIP3     H2       HT       0.417000       1.00800           0
     52522 W2       17508    TIP3     OH2      OT      -0.834000       15.9994           0
     52523 W2       17508    TIP3     H1       HT       0.417000       1.00800           0
     52524 W2       17508    TIP3     H2       HT       0.417000       1.00800           0
     52525 W2       17509    TIP3     OH2      OT      -0.834000       15.9994           0
     52526 W2       17509    TIP3     H1       HT       0.417000       1.00800           0
     52527 W2       17509    TIP3     H2       HT       0.417000       1.00800           0
     52528 W2       17510    TIP3     OH2      OT      -0.834000       15.9994           0
     52529 W2       17510    TIP3     H1       HT       0.417000       1.00800           0
     52530 W2       17510    TIP3     H2       HT       0.417000       1.00800           0
     52531 W2       17511    TIP3     OH2      OT      -0.834000       15.9994           0
     52532 W2       17511    TIP3     H1       HT       0.417000       1.00800           0
     52533 W2       17511    TIP3     H2       HT       0.417000       1.00800           0
     52534 W2       17512    TIP3     OH2      OT      -0.834000       15.9994           0
     52535 W2       17512    TIP3     H1       HT       0.417000       1.00800           0
     52536 W2       17512    TIP3     H2       HT       0.417000       1.00800           0
     52537 W2       17513    TIP3     OH2      OT      -0.834000       15.9994           0
     52538 W2       17513    TIP3     H1       HT       0.417000       1.00800           0
     52539 W2       17513    TIP3     H2       HT       0.417000       1.00800           0
     52540 W2       17514    TIP3     OH2      OT      -0.834000       15.9994           0
     52541 W2       17514    TIP3     H1       HT       0.417000       1.00800           0
     52542 W2       17514    TIP3     H2       HT       0.417000       1.00800           0
     52543 W2       17515    TIP3     OH2      OT      -0.834000       15.9994           0
     52544 W2       17515    TIP3     H1       HT       0.417000       1.00800           0
     52545 W2       17515    TIP3     H2       HT       0.417000       1.00800           0
     52546 W2       17516    TIP3     OH2      OT      -0.834000       15.9994           0
     52547 W2       17516    TIP3     H1       HT       0.417000       1.00800           0
     52548 W2       17516    TIP3     H2       HT       0.417000       1.00800           0
     52549 W2       17517    TIP3     OH2      OT      -0.834000       15.9994           0
     52550 W2       17517    TIP3     H1       HT       0.417000       1.00800           0
     52551 W2       17517    TIP3     H2       HT       0.417000       1.00800           0
     52552 W2       17518    TIP3     OH2      OT      -0.834000       15.9994           0
     52553 W2       17518    TIP3     H1       HT       0.417000       1.00800           0
     52554 W2       17518    TIP3     H2       HT       0.417000       1.00800           0
     52555 W2       17519    TIP3     OH2      OT      -0.834000       15.9994           0
     52556 W2       17519    TIP3     H1       HT       0.417000       1.00800           0
     52557 W2       17519    TIP3     H2       HT       0.417000       1.00800           0
     52558 W2       17520    TIP3     OH2      OT      -0.834000       15.9994           0
     52559 W2       17520    TIP3     H1       HT       0.417000       1.00800           0
     52560 W2       17520    TIP3     H2       HT       0.417000       1.00800           0
     52561 W2       17521    TIP3     OH2      OT      -0.834000       15.9994           0
     52562 W2       17521    TIP3     H1       HT       0.417000       1.00800           0
     52563 W2       17521    TIP3     H2       HT       0.417000       1.00800           0
     52564 W2       17522    TIP3     OH2      OT      -0.834000       15.9994           0
     52565 W2       17522    TIP3     H1       HT       0.417000       1.00800           0
     52566 W2       17522    TIP3     H2       HT       0.417000       1.00800           0
     52567 W2       17523    TIP3     OH2      OT      -0.834000       15.9994           0
     52568 W2       17523    TIP3     H1       HT       0.417000       1.00800           0
     52569 W2       17523    TIP3     H2       HT       0.417000       1.00800           0
     52570 W2       17524    TIP3     OH2      OT      -0.834000       15.9994           0
     52571 W2       17524    TIP3     H1       HT       0.417000       1.00800           0
     52572 W2       17524    TIP3     H2       HT       0.417000       1.00800           0
     52573 W2       17525    TIP3     OH2      OT      -0.834000       15.9994           0
     52574 W2       17525    TIP3     H1       HT       0.417000       1.00800           0
     52575 W2       17525    TIP3     H2       HT       0.417000       1.00800           0
     52576 W2       17526    TIP3     OH2      OT      -0.834000       15.9994           0
     52577 W2       17526    TIP3     H1       HT       0.417000       1.00800           0
     52578 W2       17526    TIP3     H2       HT       0.417000       1.00800           0
     52579 W2       17527    TIP3     OH2      OT      -0.834000       15.9994           0
     52580 W2       17527    TIP3     H1       HT       0.417000       1.00800           0
     52581 W2       17527    TIP3     H2       HT       0.417000       1.00800           0
     52582 W2       17528    TIP3     OH2      OT      -0.834000       15.9994           0
     52583 W2       17528    TIP3     H1       HT       0.417000       1.00800           0
     52584 W2       17528    TIP3     H2       HT       0.417000       1.00800           0
     52585 W2       17529    TIP3     OH2      OT      -0.834000       15.9994           0
     52586 W2       17529    TIP3     H1       HT       0.417000       1.00800           0
     52587 W2       17529    TIP3     H2       HT       0.417000       1.00800           0
     52588 W2       17530    TIP3     OH2      OT      -0.834000       15.9994           0
     52589 W2       17530    TIP3     H1       HT       0.417000       1.00800           0
     52590 W2       17530    TIP3     H2       HT       0.417000       1.00800           0
     52591 W2       17531    TIP3     OH2      OT      -0.834000       15.9994           0
     52592 W2       17531    TIP3     H1       HT       0.417000       1.00800           0
     52593 W2       17531    TIP3     H2       HT       0.417000       1.00800           0
     52594 W2       17532    TIP3     OH2      OT      -0.834000       15.9994           0
     52595 W2       17532    TIP3     H1       HT       0.417000       1.00800           0
     52596 W2       17532    TIP3     H2       HT       0.417000       1.00800           0
     52597 W2       17533    TIP3     OH2      OT      -0.834000       15.9994           0
     52598 W2       17533    TIP3     H1       HT       0.417000       1.00800           0
     52599 W2       17533    TIP3     H2       HT       0.417000       1.00800           0
     52600 W2       17534    TIP3     OH2      OT      -0.834000       15.9994           0
     52601 W2       17534    TIP3     H1       HT       0.417000       1.00800           0
     52602 W2       17534    TIP3     H2       HT       0.417000       1.00800           0
     52603 W2       17535    TIP3     OH2      OT      -0.834000       15.9994           0
     52604 W2       17535    TIP3     H1       HT       0.417000       1.00800           0
     52605 W2       17535    TIP3     H2       HT       0.417000       1.00800           0
     52606 W2       17536    TIP3     OH2      OT      -0.834000       15.9994           0
     52607 W2       17536    TIP3     H1       HT       0.417000       1.00800           0
     52608 W2       17536    TIP3     H2       HT       0.417000       1.00800           0
     52609 W2       17537    TIP3     OH2      OT      -0.834000       15.9994           0
     52610 W2       17537    TIP3     H1       HT       0.417000       1.00800           0
     52611 W2       17537    TIP3     H2       HT       0.417000       1.00800           0
     52612 W2       17538    TIP3     OH2      OT      -0.834000       15.9994           0
     52613 W2       17538    TIP3     H1       HT       0.417000       1.00800           0
     52614 W2       17538    TIP3     H2       HT       0.417000       1.00800           0
     52615 W2       17539    TIP3     OH2      OT      -0.834000       15.9994           0
     52616 W2       17539    TIP3     H1       HT       0.417000       1.00800           0
     52617 W2       17539    TIP3     H2       HT       0.417000       1.00800           0
     52618 W2       17540    TIP3     OH2      OT      -0.834000       15.9994           0
     52619 W2       17540    TIP3     H1       HT       0.417000       1.00800           0
     52620 W2       17540    TIP3     H2       HT       0.417000       1.00800           0
     52621 W2       17541    TIP3     OH2      OT      -0.834000       15.9994           0
     52622 W2       17541    TIP3     H1       HT       0.417000       1.00800           0
     52623 W2       17541    TIP3     H2       HT       0.417000       1.00800           0
     52624 W2       17542    TIP3     OH2      OT      -0.834000       15.9994           0
     52625 W2       17542    TIP3     H1       HT       0.417000       1.00800           0
     52626 W2       17542    TIP3     H2       HT       0.417000       1.00800           0
     52627 W2       17543    TIP3     OH2      OT      -0.834000       15.9994           0
     52628 W2       17543    TIP3     H1       HT       0.417000       1.00800           0
     52629 W2       17543    TIP3     H2       HT       0.417000       1.00800           0
     52630 W2       17544    TIP3     OH2      OT      -0.834000       15.9994           0
     52631 W2       17544    TIP3     H1       HT       0.417000       1.00800           0
     52632 W2       17544    TIP3     H2       HT       0.417000       1.00800           0
     52633 W2       17545    TIP3     OH2      OT      -0.834000       15.9994           0
     52634 W2       17545    TIP3     H1       HT       0.417000       1.00800           0
     52635 W2       17545    TIP3     H2       HT       0.417000       1.00800           0
     52636 W2       17546    TIP3     OH2      OT      -0.834000       15.9994           0
     52637 W2       17546    TIP3     H1       HT       0.417000       1.00800           0
     52638 W2       17546    TIP3     H2       HT       0.417000       1.00800           0
     52639 W2       17547    TIP3     OH2      OT      -0.834000       15.9994           0
     52640 W2       17547    TIP3     H1       HT       0.417000       1.00800           0
     52641 W2       17547    TIP3     H2       HT       0.417000       1.00800           0
     52642 W2       17548    TIP3     OH2      OT      -0.834000       15.9994           0
     52643 W2       17548    TIP3     H1       HT       0.417000       1.00800           0
     52644 W2       17548    TIP3     H2       HT       0.417000       1.00800           0
     52645 W2       17549    TIP3     OH2      OT      -0.834000       15.9994           0
     52646 W2       17549    TIP3     H1       HT       0.417000       1.00800           0
     52647 W2       17549    TIP3     H2       HT       0.417000       1.00800           0
     52648 W2       17550    TIP3     OH2      OT      -0.834000       15.9994           0
     52649 W2       17550    TIP3     H1       HT       0.417000       1.00800           0
     52650 W2       17550    TIP3     H2       HT       0.417000       1.00800           0
     52651 W2       17551    TIP3     OH2      OT      -0.834000       15.9994           0
     52652 W2       17551    TIP3     H1       HT       0.417000       1.00800           0
     52653 W2       17551    TIP3     H2       HT       0.417000       1.00800           0
     52654 W2       17552    TIP3     OH2      OT      -0.834000       15.9994           0
     52655 W2       17552    TIP3     H1       HT       0.417000       1.00800           0
     52656 W2       17552    TIP3     H2       HT       0.417000       1.00800           0
     52657 W2       17553    TIP3     OH2      OT      -0.834000       15.9994           0
     52658 W2       17553    TIP3     H1       HT       0.417000       1.00800           0
     52659 W2       17553    TIP3     H2       HT       0.417000       1.00800           0
     52660 W2       17554    TIP3     OH2      OT      -0.834000       15.9994           0
     52661 W2       17554    TIP3     H1       HT       0.417000       1.00800           0
     52662 W2       17554    TIP3     H2       HT       0.417000       1.00800           0
     52663 W2       17555    TIP3     OH2      OT      -0.834000       15.9994           0
     52664 W2       17555    TIP3     H1       HT       0.417000       1.00800           0
     52665 W2       17555    TIP3     H2       HT       0.417000       1.00800           0
     52666 W2       17556    TIP3     OH2      OT      -0.834000       15.9994           0
     52667 W2       17556    TIP3     H1       HT       0.417000       1.00800           0
     52668 W2       17556    TIP3     H2       HT       0.417000       1.00800           0
     52669 W2       17557    TIP3     OH2      OT      -0.834000       15.9994           0
     52670 W2       17557    TIP3     H1       HT       0.417000       1.00800           0
     52671 W2       17557    TIP3     H2       HT       0.417000       1.00800           0
     52672 W2       17558    TIP3     OH2      OT      -0.834000       15.9994           0
     52673 W2       17558    TIP3     H1       HT       0.417000       1.00800           0
     52674 W2       17558    TIP3     H2       HT       0.417000       1.00800           0
     52675 W2       17559    TIP3     OH2      OT      -0.834000       15.9994           0
     52676 W2       17559    TIP3     H1       HT       0.417000       1.00800           0
     52677 W2       17559    TIP3     H2       HT       0.417000       1.00800           0
     52678 W2       17560    TIP3     OH2      OT      -0.834000       15.9994           0
     52679 W2       17560    TIP3     H1       HT       0.417000       1.00800           0
     52680 W2       17560    TIP3     H2       HT       0.417000       1.00800           0
     52681 W2       17561    TIP3     OH2      OT      -0.834000       15.9994           0
     52682 W2       17561    TIP3     H1       HT       0.417000       1.00800           0
     52683 W2       17561    TIP3     H2       HT       0.417000       1.00800           0
     52684 W2       17562    TIP3     OH2      OT      -0.834000       15.9994           0
     52685 W2       17562    TIP3     H1       HT       0.417000       1.00800           0
     52686 W2       17562    TIP3     H2       HT       0.417000       1.00800           0
     52687 W2       17563    TIP3     OH2      OT      -0.834000       15.9994           0
     52688 W2       17563    TIP3     H1       HT       0.417000       1.00800           0
     52689 W2       17563    TIP3     H2       HT       0.417000       1.00800           0
     52690 W2       17564    TIP3     OH2      OT      -0.834000       15.9994           0
     52691 W2       17564    TIP3     H1       HT       0.417000       1.00800           0
     52692 W2       17564    TIP3     H2       HT       0.417000       1.00800           0
     52693 W2       17565    TIP3     OH2      OT      -0.834000       15.9994           0
     52694 W2       17565    TIP3     H1       HT       0.417000       1.00800           0
     52695 W2       17565    TIP3     H2       HT       0.417000       1.00800           0
     52696 W2       17566    TIP3     OH2      OT      -0.834000       15.9994           0
     52697 W2       17566    TIP3     H1       HT       0.417000       1.00800           0
     52698 W2       17566    TIP3     H2       HT       0.417000       1.00800           0
     52699 W2       17567    TIP3     OH2      OT      -0.834000       15.9994           0
     52700 W2       17567    TIP3     H1       HT       0.417000       1.00800           0
     52701 W2       17567    TIP3     H2       HT       0.417000       1.00800           0
     52702 W2       17568    TIP3     OH2      OT      -0.834000       15.9994           0
     52703 W2       17568    TIP3     H1       HT       0.417000       1.00800           0
     52704 W2       17568    TIP3     H2       HT       0.417000       1.00800           0
     52705 W2       17569    TIP3     OH2      OT      -0.834000       15.9994           0
     52706 W2       17569    TIP3     H1       HT       0.417000       1.00800           0
     52707 W2       17569    TIP3     H2       HT       0.417000       1.00800           0
     52708 W2       17570    TIP3     OH2      OT      -0.834000       15.9994           0
     52709 W2       17570    TIP3     H1       HT       0.417000       1.00800           0
     52710 W2       17570    TIP3     H2       HT       0.417000       1.00800           0
     52711 W2       17571    TIP3     OH2      OT      -0.834000       15.9994           0
     52712 W2       17571    TIP3     H1       HT       0.417000       1.00800           0
     52713 W2       17571    TIP3     H2       HT       0.417000       1.00800           0
     52714 W2       17572    TIP3     OH2      OT      -0.834000       15.9994           0
     52715 W2       17572    TIP3     H1       HT       0.417000       1.00800           0
     52716 W2       17572    TIP3     H2       HT       0.417000       1.00800           0
     52717 W2       17573    TIP3     OH2      OT      -0.834000       15.9994           0
     52718 W2       17573    TIP3     H1       HT       0.417000       1.00800           0
     52719 W2       17573    TIP3     H2       HT       0.417000       1.00800           0
     52720 W2       17574    TIP3     OH2      OT      -0.834000       15.9994           0
     52721 W2       17574    TIP3     H1       HT       0.417000       1.00800           0
     52722 W2       17574    TIP3     H2       HT       0.417000       1.00800           0
     52723 W2       17575    TIP3     OH2      OT      -0.834000       15.9994           0
     52724 W2       17575    TIP3     H1       HT       0.417000       1.00800           0
     52725 W2       17575    TIP3     H2       HT       0.417000       1.00800           0
     52726 W2       17576    TIP3     OH2      OT      -0.834000       15.9994           0
     52727 W2       17576    TIP3     H1       HT       0.417000       1.00800           0
     52728 W2       17576    TIP3     H2       HT       0.417000       1.00800           0
     52729 W2       17577    TIP3     OH2      OT      -0.834000       15.9994           0
     52730 W2       17577    TIP3     H1       HT       0.417000       1.00800           0
     52731 W2       17577    TIP3     H2       HT       0.417000       1.00800           0
     52732 W2       17578    TIP3     OH2      OT      -0.834000       15.9994           0
     52733 W2       17578    TIP3     H1       HT       0.417000       1.00800           0
     52734 W2       17578    TIP3     H2       HT       0.417000       1.00800           0
     52735 W2       17579    TIP3     OH2      OT      -0.834000       15.9994           0
     52736 W2       17579    TIP3     H1       HT       0.417000       1.00800           0
     52737 W2       17579    TIP3     H2       HT       0.417000       1.00800           0
     52738 W2       17580    TIP3     OH2      OT      -0.834000       15.9994           0
     52739 W2       17580    TIP3     H1       HT       0.417000       1.00800           0
     52740 W2       17580    TIP3     H2       HT       0.417000       1.00800           0
     52741 W2       17581    TIP3     OH2      OT      -0.834000       15.9994           0
     52742 W2       17581    TIP3     H1       HT       0.417000       1.00800           0
     52743 W2       17581    TIP3     H2       HT       0.417000       1.00800           0
     52744 W2       17582    TIP3     OH2      OT      -0.834000       15.9994           0
     52745 W2       17582    TIP3     H1       HT       0.417000       1.00800           0
     52746 W2       17582    TIP3     H2       HT       0.417000       1.00800           0
     52747 W2       17583    TIP3     OH2      OT      -0.834000       15.9994           0
     52748 W2       17583    TIP3     H1       HT       0.417000       1.00800           0
     52749 W2       17583    TIP3     H2       HT       0.417000       1.00800           0
     52750 W2       17584    TIP3     OH2      OT      -0.834000       15.9994           0
     52751 W2       17584    TIP3     H1       HT       0.417000       1.00800           0
     52752 W2       17584    TIP3     H2       HT       0.417000       1.00800           0
     52753 W2       17585    TIP3     OH2      OT      -0.834000       15.9994           0
     52754 W2       17585    TIP3     H1       HT       0.417000       1.00800           0
     52755 W2       17585    TIP3     H2       HT       0.417000       1.00800           0
     52756 W2       17586    TIP3     OH2      OT      -0.834000       15.9994           0
     52757 W2       17586    TIP3     H1       HT       0.417000       1.00800           0
     52758 W2       17586    TIP3     H2       HT       0.417000       1.00800           0
     52759 W2       17587    TIP3     OH2      OT      -0.834000       15.9994           0
     52760 W2       17587    TIP3     H1       HT       0.417000       1.00800           0
     52761 W2       17587    TIP3     H2       HT       0.417000       1.00800           0
     52762 W2       17588    TIP3     OH2      OT      -0.834000       15.9994           0
     52763 W2       17588    TIP3     H1       HT       0.417000       1.00800           0
     52764 W2       17588    TIP3     H2       HT       0.417000       1.00800           0
     52765 W2       17589    TIP3     OH2      OT      -0.834000       15.9994           0
     52766 W2       17589    TIP3     H1       HT       0.417000       1.00800           0
     52767 W2       17589    TIP3     H2       HT       0.417000       1.00800           0
     52768 W2       17590    TIP3     OH2      OT      -0.834000       15.9994           0
     52769 W2       17590    TIP3     H1       HT       0.417000       1.00800           0
     52770 W2       17590    TIP3     H2       HT       0.417000       1.00800           0
     52771 W2       17591    TIP3     OH2      OT      -0.834000       15.9994           0
     52772 W2       17591    TIP3     H1       HT       0.417000       1.00800           0
     52773 W2       17591    TIP3     H2       HT       0.417000       1.00800           0
     52774 W2       17592    TIP3     OH2      OT      -0.834000       15.9994           0
     52775 W2       17592    TIP3     H1       HT       0.417000       1.00800           0
     52776 W2       17592    TIP3     H2       HT       0.417000       1.00800           0
     52777 W2       17593    TIP3     OH2      OT      -0.834000       15.9994           0
     52778 W2       17593    TIP3     H1       HT       0.417000       1.00800           0
     52779 W2       17593    TIP3     H2       HT       0.417000       1.00800           0
     52780 W2       17594    TIP3     OH2      OT      -0.834000       15.9994           0
     52781 W2       17594    TIP3     H1       HT       0.417000       1.00800           0
     52782 W2       17594    TIP3     H2       HT       0.417000       1.00800           0
     52783 W2       17595    TIP3     OH2      OT      -0.834000       15.9994           0
     52784 W2       17595    TIP3     H1       HT       0.417000       1.00800           0
     52785 W2       17595    TIP3     H2       HT       0.417000       1.00800           0
     52786 W2       17596    TIP3     OH2      OT      -0.834000       15.9994           0
     52787 W2       17596    TIP3     H1       HT       0.417000       1.00800           0
     52788 W2       17596    TIP3     H2       HT       0.417000       1.00800           0
     52789 W2       17597    TIP3     OH2      OT      -0.834000       15.9994           0
     52790 W2       17597    TIP3     H1       HT       0.417000       1.00800           0
     52791 W2       17597    TIP3     H2       HT       0.417000       1.00800           0
     52792 W2       17598    TIP3     OH2      OT      -0.834000       15.9994           0
     52793 W2       17598    TIP3     H1       HT       0.417000       1.00800           0
     52794 W2       17598    TIP3     H2       HT       0.417000       1.00800           0
     52795 W2       17599    TIP3     OH2      OT      -0.834000       15.9994           0
     52796 W2       17599    TIP3     H1       HT       0.417000       1.00800           0
     52797 W2       17599    TIP3     H2       HT       0.417000       1.00800           0
     52798 W2       17600    TIP3     OH2      OT      -0.834000       15.9994           0
     52799 W2       17600    TIP3     H1       HT       0.417000       1.00800           0
     52800 W2       17600    TIP3     H2       HT       0.417000       1.00800           0
     52801 W2       17601    TIP3     OH2      OT      -0.834000       15.9994           0
     52802 W2       17601    TIP3     H1       HT       0.417000       1.00800           0
     52803 W2       17601    TIP3     H2       HT       0.417000       1.00800           0
     52804 W2       17602    TIP3     OH2      OT      -0.834000       15.9994           0
     52805 W2       17602    TIP3     H1       HT       0.417000       1.00800           0
     52806 W2       17602    TIP3     H2       HT       0.417000       1.00800           0
     52807 W2       17603    TIP3     OH2      OT      -0.834000       15.9994           0
     52808 W2       17603    TIP3     H1       HT       0.417000       1.00800           0
     52809 W2       17603    TIP3     H2       HT       0.417000       1.00800           0
     52810 W2       17604    TIP3     OH2      OT      -0.834000       15.9994           0
     52811 W2       17604    TIP3     H1       HT       0.417000       1.00800           0
     52812 W2       17604    TIP3     H2       HT       0.417000       1.00800           0
     52813 W2       17605    TIP3     OH2      OT      -0.834000       15.9994           0
     52814 W2       17605    TIP3     H1       HT       0.417000       1.00800           0
     52815 W2       17605    TIP3     H2       HT       0.417000       1.00800           0
     52816 W2       17606    TIP3     OH2      OT      -0.834000       15.9994           0
     52817 W2       17606    TIP3     H1       HT       0.417000       1.00800           0
     52818 W2       17606    TIP3     H2       HT       0.417000       1.00800           0
     52819 W2       17607    TIP3     OH2      OT      -0.834000       15.9994           0
     52820 W2       17607    TIP3     H1       HT       0.417000       1.00800           0
     52821 W2       17607    TIP3     H2       HT       0.417000       1.00800           0
     52822 W2       17608    TIP3     OH2      OT      -0.834000       15.9994           0
     52823 W2       17608    TIP3     H1       HT       0.417000       1.00800           0
     52824 W2       17608    TIP3     H2       HT       0.417000       1.00800           0
     52825 W2       17609    TIP3     OH2      OT      -0.834000       15.9994           0
     52826 W2       17609    TIP3     H1       HT       0.417000       1.00800           0
     52827 W2       17609    TIP3     H2       HT       0.417000       1.00800           0
     52828 W2       17610    TIP3     OH2      OT      -0.834000       15.9994           0
     52829 W2       17610    TIP3     H1       HT       0.417000       1.00800           0
     52830 W2       17610    TIP3     H2       HT       0.417000       1.00800           0
     52831 W2       17611    TIP3     OH2      OT      -0.834000       15.9994           0
     52832 W2       17611    TIP3     H1       HT       0.417000       1.00800           0
     52833 W2       17611    TIP3     H2       HT       0.417000       1.00800           0
     52834 W2       17612    TIP3     OH2      OT      -0.834000       15.9994           0
     52835 W2       17612    TIP3     H1       HT       0.417000       1.00800           0
     52836 W2       17612    TIP3     H2       HT       0.417000       1.00800           0
     52837 W2       17613    TIP3     OH2      OT      -0.834000       15.9994           0
     52838 W2       17613    TIP3     H1       HT       0.417000       1.00800           0
     52839 W2       17613    TIP3     H2       HT       0.417000       1.00800           0
     52840 W2       17614    TIP3     OH2      OT      -0.834000       15.9994           0
     52841 W2       17614    TIP3     H1       HT       0.417000       1.00800           0
     52842 W2       17614    TIP3     H2       HT       0.417000       1.00800           0
     52843 W2       17615    TIP3     OH2      OT      -0.834000       15.9994           0
     52844 W2       17615    TIP3     H1       HT       0.417000       1.00800           0
     52845 W2       17615    TIP3     H2       HT       0.417000       1.00800           0
     52846 W2       17616    TIP3     OH2      OT      -0.834000       15.9994           0
     52847 W2       17616    TIP3     H1       HT       0.417000       1.00800           0
     52848 W2       17616    TIP3     H2       HT       0.417000       1.00800           0
     52849 W2       17617    TIP3     OH2      OT      -0.834000       15.9994           0
     52850 W2       17617    TIP3     H1       HT       0.417000       1.00800           0
     52851 W2       17617    TIP3     H2       HT       0.417000       1.00800           0
     52852 W2       17618    TIP3     OH2      OT      -0.834000       15.9994           0
     52853 W2       17618    TIP3     H1       HT       0.417000       1.00800           0
     52854 W2       17618    TIP3     H2       HT       0.417000       1.00800           0
     52855 W2       17619    TIP3     OH2      OT      -0.834000       15.9994           0
     52856 W2       17619    TIP3     H1       HT       0.417000       1.00800           0
     52857 W2       17619    TIP3     H2       HT       0.417000       1.00800           0
     52858 W2       17620    TIP3     OH2      OT      -0.834000       15.9994           0
     52859 W2       17620    TIP3     H1       HT       0.417000       1.00800           0
     52860 W2       17620    TIP3     H2       HT       0.417000       1.00800           0
     52861 W2       17621    TIP3     OH2      OT      -0.834000       15.9994           0
     52862 W2       17621    TIP3     H1       HT       0.417000       1.00800           0
     52863 W2       17621    TIP3     H2       HT       0.417000       1.00800           0
     52864 W2       17622    TIP3     OH2      OT      -0.834000       15.9994           0
     52865 W2       17622    TIP3     H1       HT       0.417000       1.00800           0
     52866 W2       17622    TIP3     H2       HT       0.417000       1.00800           0
     52867 W2       17623    TIP3     OH2      OT      -0.834000       15.9994           0
     52868 W2       17623    TIP3     H1       HT       0.417000       1.00800           0
     52869 W2       17623    TIP3     H2       HT       0.417000       1.00800           0
     52870 W2       17624    TIP3     OH2      OT      -0.834000       15.9994           0
     52871 W2       17624    TIP3     H1       HT       0.417000       1.00800           0
     52872 W2       17624    TIP3     H2       HT       0.417000       1.00800           0
     52873 W2       17625    TIP3     OH2      OT      -0.834000       15.9994           0
     52874 W2       17625    TIP3     H1       HT       0.417000       1.00800           0
     52875 W2       17625    TIP3     H2       HT       0.417000       1.00800           0
     52876 W2       17626    TIP3     OH2      OT      -0.834000       15.9994           0
     52877 W2       17626    TIP3     H1       HT       0.417000       1.00800           0
     52878 W2       17626    TIP3     H2       HT       0.417000       1.00800           0
     52879 W2       17627    TIP3     OH2      OT      -0.834000       15.9994           0
     52880 W2       17627    TIP3     H1       HT       0.417000       1.00800           0
     52881 W2       17627    TIP3     H2       HT       0.417000       1.00800           0
     52882 W2       17628    TIP3     OH2      OT      -0.834000       15.9994           0
     52883 W2       17628    TIP3     H1       HT       0.417000       1.00800           0
     52884 W2       17628    TIP3     H2       HT       0.417000       1.00800           0
     52885 W2       17629    TIP3     OH2      OT      -0.834000       15.9994           0
     52886 W2       17629    TIP3     H1       HT       0.417000       1.00800           0
     52887 W2       17629    TIP3     H2       HT       0.417000       1.00800           0
     52888 W2       17630    TIP3     OH2      OT      -0.834000       15.9994           0
     52889 W2       17630    TIP3     H1       HT       0.417000       1.00800           0
     52890 W2       17630    TIP3     H2       HT       0.417000       1.00800           0
     52891 W2       17631    TIP3     OH2      OT      -0.834000       15.9994           0
     52892 W2       17631    TIP3     H1       HT       0.417000       1.00800           0
     52893 W2       17631    TIP3     H2       HT       0.417000       1.00800           0
     52894 W2       17632    TIP3     OH2      OT      -0.834000       15.9994           0
     52895 W2       17632    TIP3     H1       HT       0.417000       1.00800           0
     52896 W2       17632    TIP3     H2       HT       0.417000       1.00800           0
     52897 W2       17633    TIP3     OH2      OT      -0.834000       15.9994           0
     52898 W2       17633    TIP3     H1       HT       0.417000       1.00800           0
     52899 W2       17633    TIP3     H2       HT       0.417000       1.00800           0
     52900 W2       17634    TIP3     OH2      OT      -0.834000       15.9994           0
     52901 W2       17634    TIP3     H1       HT       0.417000       1.00800           0
     52902 W2       17634    TIP3     H2       HT       0.417000       1.00800           0
     52903 W2       17635    TIP3     OH2      OT      -0.834000       15.9994           0
     52904 W2       17635    TIP3     H1       HT       0.417000       1.00800           0
     52905 W2       17635    TIP3     H2       HT       0.417000       1.00800           0
     52906 W2       17636    TIP3     OH2      OT      -0.834000       15.9994           0
     52907 W2       17636    TIP3     H1       HT       0.417000       1.00800           0
     52908 W2       17636    TIP3     H2       HT       0.417000       1.00800           0
     52909 W2       17637    TIP3     OH2      OT      -0.834000       15.9994           0
     52910 W2       17637    TIP3     H1       HT       0.417000       1.00800           0
     52911 W2       17637    TIP3     H2       HT       0.417000       1.00800           0
     52912 W2       17638    TIP3     OH2      OT      -0.834000       15.9994           0
     52913 W2       17638    TIP3     H1       HT       0.417000       1.00800           0
     52914 W2       17638    TIP3     H2       HT       0.417000       1.00800           0
     52915 W2       17639    TIP3     OH2      OT      -0.834000       15.9994           0
     52916 W2       17639    TIP3     H1       HT       0.417000       1.00800           0
     52917 W2       17639    TIP3     H2       HT       0.417000       1.00800           0
     52918 W2       17640    TIP3     OH2      OT      -0.834000       15.9994           0
     52919 W2       17640    TIP3     H1       HT       0.417000       1.00800           0
     52920 W2       17640    TIP3     H2       HT       0.417000       1.00800           0
     52921 W2       17641    TIP3     OH2      OT      -0.834000       15.9994           0
     52922 W2       17641    TIP3     H1       HT       0.417000       1.00800           0
     52923 W2       17641    TIP3     H2       HT       0.417000       1.00800           0
     52924 W2       17642    TIP3     OH2      OT      -0.834000       15.9994           0
     52925 W2       17642    TIP3     H1       HT       0.417000       1.00800           0
     52926 W2       17642    TIP3     H2       HT       0.417000       1.00800           0
     52927 W2       17643    TIP3     OH2      OT      -0.834000       15.9994           0
     52928 W2       17643    TIP3     H1       HT       0.417000       1.00800           0
     52929 W2       17643    TIP3     H2       HT       0.417000       1.00800           0
     52930 W2       17644    TIP3     OH2      OT      -0.834000       15.9994           0
     52931 W2       17644    TIP3     H1       HT       0.417000       1.00800           0
     52932 W2       17644    TIP3     H2       HT       0.417000       1.00800           0
     52933 W2       17645    TIP3     OH2      OT      -0.834000       15.9994           0
     52934 W2       17645    TIP3     H1       HT       0.417000       1.00800           0
     52935 W2       17645    TIP3     H2       HT       0.417000       1.00800           0
     52936 W2       17646    TIP3     OH2      OT      -0.834000       15.9994           0
     52937 W2       17646    TIP3     H1       HT       0.417000       1.00800           0
     52938 W2       17646    TIP3     H2       HT       0.417000       1.00800           0
     52939 W2       17647    TIP3     OH2      OT      -0.834000       15.9994           0
     52940 W2       17647    TIP3     H1       HT       0.417000       1.00800           0
     52941 W2       17647    TIP3     H2       HT       0.417000       1.00800           0
     52942 W2       17648    TIP3     OH2      OT      -0.834000       15.9994           0
     52943 W2       17648    TIP3     H1       HT       0.417000       1.00800           0
     52944 W2       17648    TIP3     H2       HT       0.417000       1.00800           0
     52945 W2       17649    TIP3     OH2      OT      -0.834000       15.9994           0
     52946 W2       17649    TIP3     H1       HT       0.417000       1.00800           0
     52947 W2       17649    TIP3     H2       HT       0.417000       1.00800           0
     52948 W2       17650    TIP3     OH2      OT      -0.834000       15.9994           0
     52949 W2       17650    TIP3     H1       HT       0.417000       1.00800           0
     52950 W2       17650    TIP3     H2       HT       0.417000       1.00800           0
     52951 W2       17651    TIP3     OH2      OT      -0.834000       15.9994           0
     52952 W2       17651    TIP3     H1       HT       0.417000       1.00800           0
     52953 W2       17651    TIP3     H2       HT       0.417000       1.00800           0
     52954 W2       17652    TIP3     OH2      OT      -0.834000       15.9994           0
     52955 W2       17652    TIP3     H1       HT       0.417000       1.00800           0
     52956 W2       17652    TIP3     H2       HT       0.417000       1.00800           0
     52957 W2       17653    TIP3     OH2      OT      -0.834000       15.9994           0
     52958 W2       17653    TIP3     H1       HT       0.417000       1.00800           0
     52959 W2       17653    TIP3     H2       HT       0.417000       1.00800           0
     52960 W2       17654    TIP3     OH2      OT      -0.834000       15.9994           0
     52961 W2       17654    TIP3     H1       HT       0.417000       1.00800           0
     52962 W2       17654    TIP3     H2       HT       0.417000       1.00800           0
     52963 W2       17655    TIP3     OH2      OT      -0.834000       15.9994           0
     52964 W2       17655    TIP3     H1       HT       0.417000       1.00800           0
     52965 W2       17655    TIP3     H2       HT       0.417000       1.00800           0
     52966 W2       17656    TIP3     OH2      OT      -0.834000       15.9994           0
     52967 W2       17656    TIP3     H1       HT       0.417000       1.00800           0
     52968 W2       17656    TIP3     H2       HT       0.417000       1.00800           0
     52969 W2       17657    TIP3     OH2      OT      -0.834000       15.9994           0
     52970 W2       17657    TIP3     H1       HT       0.417000       1.00800           0
     52971 W2       17657    TIP3     H2       HT       0.417000       1.00800           0
     52972 W2       17658    TIP3     OH2      OT      -0.834000       15.9994           0
     52973 W2       17658    TIP3     H1       HT       0.417000       1.00800           0
     52974 W2       17658    TIP3     H2       HT       0.417000       1.00800           0
     52975 W2       17659    TIP3     OH2      OT      -0.834000       15.9994           0
     52976 W2       17659    TIP3     H1       HT       0.417000       1.00800           0
     52977 W2       17659    TIP3     H2       HT       0.417000       1.00800           0
     52978 W2       17660    TIP3     OH2      OT      -0.834000       15.9994           0
     52979 W2       17660    TIP3     H1       HT       0.417000       1.00800           0
     52980 W2       17660    TIP3     H2       HT       0.417000       1.00800           0
     52981 W2       17661    TIP3     OH2      OT      -0.834000       15.9994           0
     52982 W2       17661    TIP3     H1       HT       0.417000       1.00800           0
     52983 W2       17661    TIP3     H2       HT       0.417000       1.00800           0
     52984 W2       17662    TIP3     OH2      OT      -0.834000       15.9994           0
     52985 W2       17662    TIP3     H1       HT       0.417000       1.00800           0
     52986 W2       17662    TIP3     H2       HT       0.417000       1.00800           0
     52987 W2       17663    TIP3     OH2      OT      -0.834000       15.9994           0
     52988 W2       17663    TIP3     H1       HT       0.417000       1.00800           0
     52989 W2       17663    TIP3     H2       HT       0.417000       1.00800           0
     52990 W2       17664    TIP3     OH2      OT      -0.834000       15.9994           0
     52991 W2       17664    TIP3     H1       HT       0.417000       1.00800           0
     52992 W2       17664    TIP3     H2       HT       0.417000       1.00800           0
     52993 W2       17665    TIP3     OH2      OT      -0.834000       15.9994           0
     52994 W2       17665    TIP3     H1       HT       0.417000       1.00800           0
     52995 W2       17665    TIP3     H2       HT       0.417000       1.00800           0
     52996 W2       17666    TIP3     OH2      OT      -0.834000       15.9994           0
     52997 W2       17666    TIP3     H1       HT       0.417000       1.00800           0
     52998 W2       17666    TIP3     H2       HT       0.417000       1.00800           0
     52999 W2       17667    TIP3     OH2      OT      -0.834000       15.9994           0
     53000 W2       17667    TIP3     H1       HT       0.417000       1.00800           0
     53001 W2       17667    TIP3     H2       HT       0.417000       1.00800           0
     53002 W2       17668    TIP3     OH2      OT      -0.834000       15.9994           0
     53003 W2       17668    TIP3     H1       HT       0.417000       1.00800           0
     53004 W2       17668    TIP3     H2       HT       0.417000       1.00800           0
     53005 W2       17669    TIP3     OH2      OT      -0.834000       15.9994           0
     53006 W2       17669    TIP3     H1       HT       0.417000       1.00800           0
     53007 W2       17669    TIP3     H2       HT       0.417000       1.00800           0
     53008 W2       17670    TIP3     OH2      OT      -0.834000       15.9994           0
     53009 W2       17670    TIP3     H1       HT       0.417000       1.00800           0
     53010 W2       17670    TIP3     H2       HT       0.417000       1.00800           0
     53011 W2       17671    TIP3     OH2      OT      -0.834000       15.9994           0
     53012 W2       17671    TIP3     H1       HT       0.417000       1.00800           0
     53013 W2       17671    TIP3     H2       HT       0.417000       1.00800           0
     53014 W2       17672    TIP3     OH2      OT      -0.834000       15.9994           0
     53015 W2       17672    TIP3     H1       HT       0.417000       1.00800           0
     53016 W2       17672    TIP3     H2       HT       0.417000       1.00800           0
     53017 W2       17673    TIP3     OH2      OT      -0.834000       15.9994           0
     53018 W2       17673    TIP3     H1       HT       0.417000       1.00800           0
     53019 W2       17673    TIP3     H2       HT       0.417000       1.00800           0
     53020 W2       17674    TIP3     OH2      OT      -0.834000       15.9994           0
     53021 W2       17674    TIP3     H1       HT       0.417000       1.00800           0
     53022 W2       17674    TIP3     H2       HT       0.417000       1.00800           0
     53023 W2       17675    TIP3     OH2      OT      -0.834000       15.9994           0
     53024 W2       17675    TIP3     H1       HT       0.417000       1.00800           0
     53025 W2       17675    TIP3     H2       HT       0.417000       1.00800           0
     53026 W2       17676    TIP3     OH2      OT      -0.834000       15.9994           0
     53027 W2       17676    TIP3     H1       HT       0.417000       1.00800           0
     53028 W2       17676    TIP3     H2       HT       0.417000       1.00800           0
     53029 W2       17677    TIP3     OH2      OT      -0.834000       15.9994           0
     53030 W2       17677    TIP3     H1       HT       0.417000       1.00800           0
     53031 W2       17677    TIP3     H2       HT       0.417000       1.00800           0
     53032 W2       17678    TIP3     OH2      OT      -0.834000       15.9994           0
     53033 W2       17678    TIP3     H1       HT       0.417000       1.00800           0
     53034 W2       17678    TIP3     H2       HT       0.417000       1.00800           0
     53035 W2       17679    TIP3     OH2      OT      -0.834000       15.9994           0
     53036 W2       17679    TIP3     H1       HT       0.417000       1.00800           0
     53037 W2       17679    TIP3     H2       HT       0.417000       1.00800           0
     53038 W2       17680    TIP3     OH2      OT      -0.834000       15.9994           0
     53039 W2       17680    TIP3     H1       HT       0.417000       1.00800           0
     53040 W2       17680    TIP3     H2       HT       0.417000       1.00800           0
     53041 W2       17681    TIP3     OH2      OT      -0.834000       15.9994           0
     53042 W2       17681    TIP3     H1       HT       0.417000       1.00800           0
     53043 W2       17681    TIP3     H2       HT       0.417000       1.00800           0
     53044 W2       17682    TIP3     OH2      OT      -0.834000       15.9994           0
     53045 W2       17682    TIP3     H1       HT       0.417000       1.00800           0
     53046 W2       17682    TIP3     H2       HT       0.417000       1.00800           0
     53047 W2       17683    TIP3     OH2      OT      -0.834000       15.9994           0
     53048 W2       17683    TIP3     H1       HT       0.417000       1.00800           0
     53049 W2       17683    TIP3     H2       HT       0.417000       1.00800           0
     53050 W2       17684    TIP3     OH2      OT      -0.834000       15.9994           0
     53051 W2       17684    TIP3     H1       HT       0.417000       1.00800           0
     53052 W2       17684    TIP3     H2       HT       0.417000       1.00800           0
     53053 W2       17685    TIP3     OH2      OT      -0.834000       15.9994           0
     53054 W2       17685    TIP3     H1       HT       0.417000       1.00800           0
     53055 W2       17685    TIP3     H2       HT       0.417000       1.00800           0
     53056 W2       17686    TIP3     OH2      OT      -0.834000       15.9994           0
     53057 W2       17686    TIP3     H1       HT       0.417000       1.00800           0
     53058 W2       17686    TIP3     H2       HT       0.417000       1.00800           0
     53059 W2       17687    TIP3     OH2      OT      -0.834000       15.9994           0
     53060 W2       17687    TIP3     H1       HT       0.417000       1.00800           0
     53061 W2       17687    TIP3     H2       HT       0.417000       1.00800           0
     53062 W2       17688    TIP3     OH2      OT      -0.834000       15.9994           0
     53063 W2       17688    TIP3     H1       HT       0.417000       1.00800           0
     53064 W2       17688    TIP3     H2       HT       0.417000       1.00800           0
     53065 W2       17689    TIP3     OH2      OT      -0.834000       15.9994           0
     53066 W2       17689    TIP3     H1       HT       0.417000       1.00800           0
     53067 W2       17689    TIP3     H2       HT       0.417000       1.00800           0
     53068 W2       17690    TIP3     OH2      OT      -0.834000       15.9994           0
     53069 W2       17690    TIP3     H1       HT       0.417000       1.00800           0
     53070 W2       17690    TIP3     H2       HT       0.417000       1.00800           0
     53071 W2       17691    TIP3     OH2      OT      -0.834000       15.9994           0
     53072 W2       17691    TIP3     H1       HT       0.417000       1.00800           0
     53073 W2       17691    TIP3     H2       HT       0.417000       1.00800           0
     53074 W2       17692    TIP3     OH2      OT      -0.834000       15.9994           0
     53075 W2       17692    TIP3     H1       HT       0.417000       1.00800           0
     53076 W2       17692    TIP3     H2       HT       0.417000       1.00800           0
     53077 W2       17693    TIP3     OH2      OT      -0.834000       15.9994           0
     53078 W2       17693    TIP3     H1       HT       0.417000       1.00800           0
     53079 W2       17693    TIP3     H2       HT       0.417000       1.00800           0
     53080 W2       17694    TIP3     OH2      OT      -0.834000       15.9994           0
     53081 W2       17694    TIP3     H1       HT       0.417000       1.00800           0
     53082 W2       17694    TIP3     H2       HT       0.417000       1.00800           0
     53083 W2       17695    TIP3     OH2      OT      -0.834000       15.9994           0
     53084 W2       17695    TIP3     H1       HT       0.417000       1.00800           0
     53085 W2       17695    TIP3     H2       HT       0.417000       1.00800           0
     53086 W2       17696    TIP3     OH2      OT      -0.834000       15.9994           0
     53087 W2       17696    TIP3     H1       HT       0.417000       1.00800           0
     53088 W2       17696    TIP3     H2       HT       0.417000       1.00800           0
     53089 W2       17697    TIP3     OH2      OT      -0.834000       15.9994           0
     53090 W2       17697    TIP3     H1       HT       0.417000       1.00800           0
     53091 W2       17697    TIP3     H2       HT       0.417000       1.00800           0
     53092 W2       17698    TIP3     OH2      OT      -0.834000       15.9994           0
     53093 W2       17698    TIP3     H1       HT       0.417000       1.00800           0
     53094 W2       17698    TIP3     H2       HT       0.417000       1.00800           0
     53095 W2       17699    TIP3     OH2      OT      -0.834000       15.9994           0
     53096 W2       17699    TIP3     H1       HT       0.417000       1.00800           0
     53097 W2       17699    TIP3     H2       HT       0.417000       1.00800           0
     53098 W2       17700    TIP3     OH2      OT      -0.834000       15.9994           0
     53099 W2       17700    TIP3     H1       HT       0.417000       1.00800           0
     53100 W2       17700    TIP3     H2       HT       0.417000       1.00800           0
     53101 W2       17701    TIP3     OH2      OT      -0.834000       15.9994           0
     53102 W2       17701    TIP3     H1       HT       0.417000       1.00800           0
     53103 W2       17701    TIP3     H2       HT       0.417000       1.00800           0
     53104 W2       17702    TIP3     OH2      OT      -0.834000       15.9994           0
     53105 W2       17702    TIP3     H1       HT       0.417000       1.00800           0
     53106 W2       17702    TIP3     H2       HT       0.417000       1.00800           0
     53107 W2       17703    TIP3     OH2      OT      -0.834000       15.9994           0
     53108 W2       17703    TIP3     H1       HT       0.417000       1.00800           0
     53109 W2       17703    TIP3     H2       HT       0.417000       1.00800           0
     53110 W2       17704    TIP3     OH2      OT      -0.834000       15.9994           0
     53111 W2       17704    TIP3     H1       HT       0.417000       1.00800           0
     53112 W2       17704    TIP3     H2       HT       0.417000       1.00800           0
     53113 W2       17705    TIP3     OH2      OT      -0.834000       15.9994           0
     53114 W2       17705    TIP3     H1       HT       0.417000       1.00800           0
     53115 W2       17705    TIP3     H2       HT       0.417000       1.00800           0
     53116 W2       17706    TIP3     OH2      OT      -0.834000       15.9994           0
     53117 W2       17706    TIP3     H1       HT       0.417000       1.00800           0
     53118 W2       17706    TIP3     H2       HT       0.417000       1.00800           0
     53119 W2       17707    TIP3     OH2      OT      -0.834000       15.9994           0
     53120 W2       17707    TIP3     H1       HT       0.417000       1.00800           0
     53121 W2       17707    TIP3     H2       HT       0.417000       1.00800           0
     53122 W2       17708    TIP3     OH2      OT      -0.834000       15.9994           0
     53123 W2       17708    TIP3     H1       HT       0.417000       1.00800           0
     53124 W2       17708    TIP3     H2       HT       0.417000       1.00800           0
     53125 W2       17709    TIP3     OH2      OT      -0.834000       15.9994           0
     53126 W2       17709    TIP3     H1       HT       0.417000       1.00800           0
     53127 W2       17709    TIP3     H2       HT       0.417000       1.00800           0
     53128 W2       17710    TIP3     OH2      OT      -0.834000       15.9994           0
     53129 W2       17710    TIP3     H1       HT       0.417000       1.00800           0
     53130 W2       17710    TIP3     H2       HT       0.417000       1.00800           0
     53131 W2       17711    TIP3     OH2      OT      -0.834000       15.9994           0
     53132 W2       17711    TIP3     H1       HT       0.417000       1.00800           0
     53133 W2       17711    TIP3     H2       HT       0.417000       1.00800           0
     53134 W2       17712    TIP3     OH2      OT      -0.834000       15.9994           0
     53135 W2       17712    TIP3     H1       HT       0.417000       1.00800           0
     53136 W2       17712    TIP3     H2       HT       0.417000       1.00800           0
     53137 W2       17713    TIP3     OH2      OT      -0.834000       15.9994           0
     53138 W2       17713    TIP3     H1       HT       0.417000       1.00800           0
     53139 W2       17713    TIP3     H2       HT       0.417000       1.00800           0
     53140 W2       17714    TIP3     OH2      OT      -0.834000       15.9994           0
     53141 W2       17714    TIP3     H1       HT       0.417000       1.00800           0
     53142 W2       17714    TIP3     H2       HT       0.417000       1.00800           0
     53143 W2       17715    TIP3     OH2      OT      -0.834000       15.9994           0
     53144 W2       17715    TIP3     H1       HT       0.417000       1.00800           0
     53145 W2       17715    TIP3     H2       HT       0.417000       1.00800           0
     53146 W2       17716    TIP3     OH2      OT      -0.834000       15.9994           0
     53147 W2       17716    TIP3     H1       HT       0.417000       1.00800           0
     53148 W2       17716    TIP3     H2       HT       0.417000       1.00800           0
     53149 W2       17717    TIP3     OH2      OT      -0.834000       15.9994           0
     53150 W2       17717    TIP3     H1       HT       0.417000       1.00800           0
     53151 W2       17717    TIP3     H2       HT       0.417000       1.00800           0
     53152 W2       17718    TIP3     OH2      OT      -0.834000       15.9994           0
     53153 W2       17718    TIP3     H1       HT       0.417000       1.00800           0
     53154 W2       17718    TIP3     H2       HT       0.417000       1.00800           0
     53155 W2       17719    TIP3     OH2      OT      -0.834000       15.9994           0
     53156 W2       17719    TIP3     H1       HT       0.417000       1.00800           0
     53157 W2       17719    TIP3     H2       HT       0.417000       1.00800           0
     53158 W2       17720    TIP3     OH2      OT      -0.834000       15.9994           0
     53159 W2       17720    TIP3     H1       HT       0.417000       1.00800           0
     53160 W2       17720    TIP3     H2       HT       0.417000       1.00800           0
     53161 W2       17721    TIP3     OH2      OT      -0.834000       15.9994           0
     53162 W2       17721    TIP3     H1       HT       0.417000       1.00800           0
     53163 W2       17721    TIP3     H2       HT       0.417000       1.00800           0
     53164 W2       17722    TIP3     OH2      OT      -0.834000       15.9994           0
     53165 W2       17722    TIP3     H1       HT       0.417000       1.00800           0
     53166 W2       17722    TIP3     H2       HT       0.417000       1.00800           0
     53167 W2       17723    TIP3     OH2      OT      -0.834000       15.9994           0
     53168 W2       17723    TIP3     H1       HT       0.417000       1.00800           0
     53169 W2       17723    TIP3     H2       HT       0.417000       1.00800           0
     53170 W2       17724    TIP3     OH2      OT      -0.834000       15.9994           0
     53171 W2       17724    TIP3     H1       HT       0.417000       1.00800           0
     53172 W2       17724    TIP3     H2       HT       0.417000       1.00800           0
     53173 W2       17725    TIP3     OH2      OT      -0.834000       15.9994           0
     53174 W2       17725    TIP3     H1       HT       0.417000       1.00800           0
     53175 W2       17725    TIP3     H2       HT       0.417000       1.00800           0
     53176 W2       17726    TIP3     OH2      OT      -0.834000       15.9994           0
     53177 W2       17726    TIP3     H1       HT       0.417000       1.00800           0
     53178 W2       17726    TIP3     H2       HT       0.417000       1.00800           0
     53179 W2       17727    TIP3     OH2      OT      -0.834000       15.9994           0
     53180 W2       17727    TIP3     H1       HT       0.417000       1.00800           0
     53181 W2       17727    TIP3     H2       HT       0.417000       1.00800           0
     53182 W2       17728    TIP3     OH2      OT      -0.834000       15.9994           0
     53183 W2       17728    TIP3     H1       HT       0.417000       1.00800           0
     53184 W2       17728    TIP3     H2       HT       0.417000       1.00800           0
     53185 W2       17729    TIP3     OH2      OT      -0.834000       15.9994           0
     53186 W2       17729    TIP3     H1       HT       0.417000       1.00800           0
     53187 W2       17729    TIP3     H2       HT       0.417000       1.00800           0
     53188 W2       17730    TIP3     OH2      OT      -0.834000       15.9994           0
     53189 W2       17730    TIP3     H1       HT       0.417000       1.00800           0
     53190 W2       17730    TIP3     H2       HT       0.417000       1.00800           0
     53191 W2       17731    TIP3     OH2      OT      -0.834000       15.9994           0
     53192 W2       17731    TIP3     H1       HT       0.417000       1.00800           0
     53193 W2       17731    TIP3     H2       HT       0.417000       1.00800           0
     53194 W2       17732    TIP3     OH2      OT      -0.834000       15.9994           0
     53195 W2       17732    TIP3     H1       HT       0.417000       1.00800           0
     53196 W2       17732    TIP3     H2       HT       0.417000       1.00800           0
     53197 W2       17733    TIP3     OH2      OT      -0.834000       15.9994           0
     53198 W2       17733    TIP3     H1       HT       0.417000       1.00800           0
     53199 W2       17733    TIP3     H2       HT       0.417000       1.00800           0
     53200 W2       17734    TIP3     OH2      OT      -0.834000       15.9994           0
     53201 W2       17734    TIP3     H1       HT       0.417000       1.00800           0
     53202 W2       17734    TIP3     H2       HT       0.417000       1.00800           0
     53203 W2       17735    TIP3     OH2      OT      -0.834000       15.9994           0
     53204 W2       17735    TIP3     H1       HT       0.417000       1.00800           0
     53205 W2       17735    TIP3     H2       HT       0.417000       1.00800           0
     53206 W2       17736    TIP3     OH2      OT      -0.834000       15.9994           0
     53207 W2       17736    TIP3     H1       HT       0.417000       1.00800           0
     53208 W2       17736    TIP3     H2       HT       0.417000       1.00800           0
     53209 W2       17737    TIP3     OH2      OT      -0.834000       15.9994           0
     53210 W2       17737    TIP3     H1       HT       0.417000       1.00800           0
     53211 W2       17737    TIP3     H2       HT       0.417000       1.00800           0
     53212 W2       17738    TIP3     OH2      OT      -0.834000       15.9994           0
     53213 W2       17738    TIP3     H1       HT       0.417000       1.00800           0
     53214 W2       17738    TIP3     H2       HT       0.417000       1.00800           0
     53215 W2       17739    TIP3     OH2      OT      -0.834000       15.9994           0
     53216 W2       17739    TIP3     H1       HT       0.417000       1.00800           0
     53217 W2       17739    TIP3     H2       HT       0.417000       1.00800           0
     53218 W2       17740    TIP3     OH2      OT      -0.834000       15.9994           0
     53219 W2       17740    TIP3     H1       HT       0.417000       1.00800           0
     53220 W2       17740    TIP3     H2       HT       0.417000       1.00800           0
     53221 W2       17741    TIP3     OH2      OT      -0.834000       15.9994           0
     53222 W2       17741    TIP3     H1       HT       0.417000       1.00800           0
     53223 W2       17741    TIP3     H2       HT       0.417000       1.00800           0
     53224 W2       17742    TIP3     OH2      OT      -0.834000       15.9994           0
     53225 W2       17742    TIP3     H1       HT       0.417000       1.00800           0
     53226 W2       17742    TIP3     H2       HT       0.417000       1.00800           0
     53227 W2       17743    TIP3     OH2      OT      -0.834000       15.9994           0
     53228 W2       17743    TIP3     H1       HT       0.417000       1.00800           0
     53229 W2       17743    TIP3     H2       HT       0.417000       1.00800           0
     53230 W2       17744    TIP3     OH2      OT      -0.834000       15.9994           0
     53231 W2       17744    TIP3     H1       HT       0.417000       1.00800           0
     53232 W2       17744    TIP3     H2       HT       0.417000       1.00800           0
     53233 W2       17745    TIP3     OH2      OT      -0.834000       15.9994           0
     53234 W2       17745    TIP3     H1       HT       0.417000       1.00800           0
     53235 W2       17745    TIP3     H2       HT       0.417000       1.00800           0
     53236 W2       17746    TIP3     OH2      OT      -0.834000       15.9994           0
     53237 W2       17746    TIP3     H1       HT       0.417000       1.00800           0
     53238 W2       17746    TIP3     H2       HT       0.417000       1.00800           0
     53239 W2       17747    TIP3     OH2      OT      -0.834000       15.9994           0
     53240 W2       17747    TIP3     H1       HT       0.417000       1.00800           0
     53241 W2       17747    TIP3     H2       HT       0.417000       1.00800           0
     53242 W2       17748    TIP3     OH2      OT      -0.834000       15.9994           0
     53243 W2       17748    TIP3     H1       HT       0.417000       1.00800           0
     53244 W2       17748    TIP3     H2       HT       0.417000       1.00800           0
     53245 W2       17749    TIP3     OH2      OT      -0.834000       15.9994           0
     53246 W2       17749    TIP3     H1       HT       0.417000       1.00800           0
     53247 W2       17749    TIP3     H2       HT       0.417000       1.00800           0
     53248 W2       17750    TIP3     OH2      OT      -0.834000       15.9994           0
     53249 W2       17750    TIP3     H1       HT       0.417000       1.00800           0
     53250 W2       17750    TIP3     H2       HT       0.417000       1.00800           0
     53251 W2       17751    TIP3     OH2      OT      -0.834000       15.9994           0
     53252 W2       17751    TIP3     H1       HT       0.417000       1.00800           0
     53253 W2       17751    TIP3     H2       HT       0.417000       1.00800           0
     53254 W2       17752    TIP3     OH2      OT      -0.834000       15.9994           0
     53255 W2       17752    TIP3     H1       HT       0.417000       1.00800           0
     53256 W2       17752    TIP3     H2       HT       0.417000       1.00800           0
     53257 W2       17753    TIP3     OH2      OT      -0.834000       15.9994           0
     53258 W2       17753    TIP3     H1       HT       0.417000       1.00800           0
     53259 W2       17753    TIP3     H2       HT       0.417000       1.00800           0
     53260 W2       17754    TIP3     OH2      OT      -0.834000       15.9994           0
     53261 W2       17754    TIP3     H1       HT       0.417000       1.00800           0
     53262 W2       17754    TIP3     H2       HT       0.417000       1.00800           0
     53263 W2       17755    TIP3     OH2      OT      -0.834000       15.9994           0
     53264 W2       17755    TIP3     H1       HT       0.417000       1.00800           0
     53265 W2       17755    TIP3     H2       HT       0.417000       1.00800           0
     53266 W2       17756    TIP3     OH2      OT      -0.834000       15.9994           0
     53267 W2       17756    TIP3     H1       HT       0.417000       1.00800           0
     53268 W2       17756    TIP3     H2       HT       0.417000       1.00800           0
     53269 W2       17757    TIP3     OH2      OT      -0.834000       15.9994           0
     53270 W2       17757    TIP3     H1       HT       0.417000       1.00800           0
     53271 W2       17757    TIP3     H2       HT       0.417000       1.00800           0
     53272 W2       17758    TIP3     OH2      OT      -0.834000       15.9994           0
     53273 W2       17758    TIP3     H1       HT       0.417000       1.00800           0
     53274 W2       17758    TIP3     H2       HT       0.417000       1.00800           0
     53275 W2       17759    TIP3     OH2      OT      -0.834000       15.9994           0
     53276 W2       17759    TIP3     H1       HT       0.417000       1.00800           0
     53277 W2       17759    TIP3     H2       HT       0.417000       1.00800           0
     53278 W2       17760    TIP3     OH2      OT      -0.834000       15.9994           0
     53279 W2       17760    TIP3     H1       HT       0.417000       1.00800           0
     53280 W2       17760    TIP3     H2       HT       0.417000       1.00800           0
     53281 W2       17761    TIP3     OH2      OT      -0.834000       15.9994           0
     53282 W2       17761    TIP3     H1       HT       0.417000       1.00800           0
     53283 W2       17761    TIP3     H2       HT       0.417000       1.00800           0
     53284 W2       17762    TIP3     OH2      OT      -0.834000       15.9994           0
     53285 W2       17762    TIP3     H1       HT       0.417000       1.00800           0
     53286 W2       17762    TIP3     H2       HT       0.417000       1.00800           0
     53287 W2       17763    TIP3     OH2      OT      -0.834000       15.9994           0
     53288 W2       17763    TIP3     H1       HT       0.417000       1.00800           0
     53289 W2       17763    TIP3     H2       HT       0.417000       1.00800           0
     53290 W2       17764    TIP3     OH2      OT      -0.834000       15.9994           0
     53291 W2       17764    TIP3     H1       HT       0.417000       1.00800           0
     53292 W2       17764    TIP3     H2       HT       0.417000       1.00800           0
     53293 W2       17765    TIP3     OH2      OT      -0.834000       15.9994           0
     53294 W2       17765    TIP3     H1       HT       0.417000       1.00800           0
     53295 W2       17765    TIP3     H2       HT       0.417000       1.00800           0
     53296 W2       17766    TIP3     OH2      OT      -0.834000       15.9994           0
     53297 W2       17766    TIP3     H1       HT       0.417000       1.00800           0
     53298 W2       17766    TIP3     H2       HT       0.417000       1.00800           0
     53299 W2       17767    TIP3     OH2      OT      -0.834000       15.9994           0
     53300 W2       17767    TIP3     H1       HT       0.417000       1.00800           0
     53301 W2       17767    TIP3     H2       HT       0.417000       1.00800           0
     53302 W2       17768    TIP3     OH2      OT      -0.834000       15.9994           0
     53303 W2       17768    TIP3     H1       HT       0.417000       1.00800           0
     53304 W2       17768    TIP3     H2       HT       0.417000       1.00800           0
     53305 W2       17769    TIP3     OH2      OT      -0.834000       15.9994           0
     53306 W2       17769    TIP3     H1       HT       0.417000       1.00800           0
     53307 W2       17769    TIP3     H2       HT       0.417000       1.00800           0
     53308 W2       17770    TIP3     OH2      OT      -0.834000       15.9994           0
     53309 W2       17770    TIP3     H1       HT       0.417000       1.00800           0
     53310 W2       17770    TIP3     H2       HT       0.417000       1.00800           0
     53311 W2       17771    TIP3     OH2      OT      -0.834000       15.9994           0
     53312 W2       17771    TIP3     H1       HT       0.417000       1.00800           0
     53313 W2       17771    TIP3     H2       HT       0.417000       1.00800           0
     53314 W2       17772    TIP3     OH2      OT      -0.834000       15.9994           0
     53315 W2       17772    TIP3     H1       HT       0.417000       1.00800           0
     53316 W2       17772    TIP3     H2       HT       0.417000       1.00800           0
     53317 W2       17773    TIP3     OH2      OT      -0.834000       15.9994           0
     53318 W2       17773    TIP3     H1       HT       0.417000       1.00800           0
     53319 W2       17773    TIP3     H2       HT       0.417000       1.00800           0
     53320 W2       17774    TIP3     OH2      OT      -0.834000       15.9994           0
     53321 W2       17774    TIP3     H1       HT       0.417000       1.00800           0
     53322 W2       17774    TIP3     H2       HT       0.417000       1.00800           0
     53323 W2       17775    TIP3     OH2      OT      -0.834000       15.9994           0
     53324 W2       17775    TIP3     H1       HT       0.417000       1.00800           0
     53325 W2       17775    TIP3     H2       HT       0.417000       1.00800           0
     53326 W2       17776    TIP3     OH2      OT      -0.834000       15.9994           0
     53327 W2       17776    TIP3     H1       HT       0.417000       1.00800           0
     53328 W2       17776    TIP3     H2       HT       0.417000       1.00800           0
     53329 W2       17777    TIP3     OH2      OT      -0.834000       15.9994           0
     53330 W2       17777    TIP3     H1       HT       0.417000       1.00800           0
     53331 W2       17777    TIP3     H2       HT       0.417000       1.00800           0
     53332 W2       17778    TIP3     OH2      OT      -0.834000       15.9994           0
     53333 W2       17778    TIP3     H1       HT       0.417000       1.00800           0
     53334 W2       17778    TIP3     H2       HT       0.417000       1.00800           0
     53335 W2       17779    TIP3     OH2      OT      -0.834000       15.9994           0
     53336 W2       17779    TIP3     H1       HT       0.417000       1.00800           0
     53337 W2       17779    TIP3     H2       HT       0.417000       1.00800           0
     53338 W2       17780    TIP3     OH2      OT      -0.834000       15.9994           0
     53339 W2       17780    TIP3     H1       HT       0.417000       1.00800           0
     53340 W2       17780    TIP3     H2       HT       0.417000       1.00800           0
     53341 W2       17781    TIP3     OH2      OT      -0.834000       15.9994           0
     53342 W2       17781    TIP3     H1       HT       0.417000       1.00800           0
     53343 W2       17781    TIP3     H2       HT       0.417000       1.00800           0
     53344 W2       17782    TIP3     OH2      OT      -0.834000       15.9994           0
     53345 W2       17782    TIP3     H1       HT       0.417000       1.00800           0
     53346 W2       17782    TIP3     H2       HT       0.417000       1.00800           0
     53347 W2       17783    TIP3     OH2      OT      -0.834000       15.9994           0
     53348 W2       17783    TIP3     H1       HT       0.417000       1.00800           0
     53349 W2       17783    TIP3     H2       HT       0.417000       1.00800           0
     53350 W2       17784    TIP3     OH2      OT      -0.834000       15.9994           0
     53351 W2       17784    TIP3     H1       HT       0.417000       1.00800           0
     53352 W2       17784    TIP3     H2       HT       0.417000       1.00800           0
     53353 W2       17785    TIP3     OH2      OT      -0.834000       15.9994           0
     53354 W2       17785    TIP3     H1       HT       0.417000       1.00800           0
     53355 W2       17785    TIP3     H2       HT       0.417000       1.00800           0
     53356 W2       17786    TIP3     OH2      OT      -0.834000       15.9994           0
     53357 W2       17786    TIP3     H1       HT       0.417000       1.00800           0
     53358 W2       17786    TIP3     H2       HT       0.417000       1.00800           0
     53359 W2       17787    TIP3     OH2      OT      -0.834000       15.9994           0
     53360 W2       17787    TIP3     H1       HT       0.417000       1.00800           0
     53361 W2       17787    TIP3     H2       HT       0.417000       1.00800           0
     53362 W2       17788    TIP3     OH2      OT      -0.834000       15.9994           0
     53363 W2       17788    TIP3     H1       HT       0.417000       1.00800           0
     53364 W2       17788    TIP3     H2       HT       0.417000       1.00800           0
     53365 W2       17789    TIP3     OH2      OT      -0.834000       15.9994           0
     53366 W2       17789    TIP3     H1       HT       0.417000       1.00800           0
     53367 W2       17789    TIP3     H2       HT       0.417000       1.00800           0
     53368 W2       17790    TIP3     OH2      OT      -0.834000       15.9994           0
     53369 W2       17790    TIP3     H1       HT       0.417000       1.00800           0
     53370 W2       17790    TIP3     H2       HT       0.417000       1.00800           0
     53371 W2       17791    TIP3     OH2      OT      -0.834000       15.9994           0
     53372 W2       17791    TIP3     H1       HT       0.417000       1.00800           0
     53373 W2       17791    TIP3     H2       HT       0.417000       1.00800           0
     53374 W2       17792    TIP3     OH2      OT      -0.834000       15.9994           0
     53375 W2       17792    TIP3     H1       HT       0.417000       1.00800           0
     53376 W2       17792    TIP3     H2       HT       0.417000       1.00800           0
     53377 W2       17793    TIP3     OH2      OT      -0.834000       15.9994           0
     53378 W2       17793    TIP3     H1       HT       0.417000       1.00800           0
     53379 W2       17793    TIP3     H2       HT       0.417000       1.00800           0
     53380 W2       17794    TIP3     OH2      OT      -0.834000       15.9994           0
     53381 W2       17794    TIP3     H1       HT       0.417000       1.00800           0
     53382 W2       17794    TIP3     H2       HT       0.417000       1.00800           0
     53383 W2       17795    TIP3     OH2      OT      -0.834000       15.9994           0
     53384 W2       17795    TIP3     H1       HT       0.417000       1.00800           0
     53385 W2       17795    TIP3     H2       HT       0.417000       1.00800           0
     53386 W2       17796    TIP3     OH2      OT      -0.834000       15.9994           0
     53387 W2       17796    TIP3     H1       HT       0.417000       1.00800           0
     53388 W2       17796    TIP3     H2       HT       0.417000       1.00800           0
     53389 W2       17797    TIP3     OH2      OT      -0.834000       15.9994           0
     53390 W2       17797    TIP3     H1       HT       0.417000       1.00800           0
     53391 W2       17797    TIP3     H2       HT       0.417000       1.00800           0
     53392 W2       17798    TIP3     OH2      OT      -0.834000       15.9994           0
     53393 W2       17798    TIP3     H1       HT       0.417000       1.00800           0
     53394 W2       17798    TIP3     H2       HT       0.417000       1.00800           0
     53395 W2       17799    TIP3     OH2      OT      -0.834000       15.9994           0
     53396 W2       17799    TIP3     H1       HT       0.417000       1.00800           0
     53397 W2       17799    TIP3     H2       HT       0.417000       1.00800           0
     53398 W2       17800    TIP3     OH2      OT      -0.834000       15.9994           0
     53399 W2       17800    TIP3     H1       HT       0.417000       1.00800           0
     53400 W2       17800    TIP3     H2       HT       0.417000       1.00800           0
     53401 W2       17801    TIP3     OH2      OT      -0.834000       15.9994           0
     53402 W2       17801    TIP3     H1       HT       0.417000       1.00800           0
     53403 W2       17801    TIP3     H2       HT       0.417000       1.00800           0
     53404 W2       17802    TIP3     OH2      OT      -0.834000       15.9994           0
     53405 W2       17802    TIP3     H1       HT       0.417000       1.00800           0
     53406 W2       17802    TIP3     H2       HT       0.417000       1.00800           0
     53407 W2       17803    TIP3     OH2      OT      -0.834000       15.9994           0
     53408 W2       17803    TIP3     H1       HT       0.417000       1.00800           0
     53409 W2       17803    TIP3     H2       HT       0.417000       1.00800           0
     53410 W2       17804    TIP3     OH2      OT      -0.834000       15.9994           0
     53411 W2       17804    TIP3     H1       HT       0.417000       1.00800           0
     53412 W2       17804    TIP3     H2       HT       0.417000       1.00800           0
     53413 W2       17805    TIP3     OH2      OT      -0.834000       15.9994           0
     53414 W2       17805    TIP3     H1       HT       0.417000       1.00800           0
     53415 W2       17805    TIP3     H2       HT       0.417000       1.00800           0
     53416 W2       17806    TIP3     OH2      OT      -0.834000       15.9994           0
     53417 W2       17806    TIP3     H1       HT       0.417000       1.00800           0
     53418 W2       17806    TIP3     H2       HT       0.417000       1.00800           0
     53419 W2       17807    TIP3     OH2      OT      -0.834000       15.9994           0
     53420 W2       17807    TIP3     H1       HT       0.417000       1.00800           0
     53421 W2       17807    TIP3     H2       HT       0.417000       1.00800           0
     53422 W2       17808    TIP3     OH2      OT      -0.834000       15.9994           0
     53423 W2       17808    TIP3     H1       HT       0.417000       1.00800           0
     53424 W2       17808    TIP3     H2       HT       0.417000       1.00800           0
     53425 W2       17809    TIP3     OH2      OT      -0.834000       15.9994           0
     53426 W2       17809    TIP3     H1       HT       0.417000       1.00800           0
     53427 W2       17809    TIP3     H2       HT       0.417000       1.00800           0
     53428 W2       17810    TIP3     OH2      OT      -0.834000       15.9994           0
     53429 W2       17810    TIP3     H1       HT       0.417000       1.00800           0
     53430 W2       17810    TIP3     H2       HT       0.417000       1.00800           0
     53431 W2       17811    TIP3     OH2      OT      -0.834000       15.9994           0
     53432 W2       17811    TIP3     H1       HT       0.417000       1.00800           0
     53433 W2       17811    TIP3     H2       HT       0.417000       1.00800           0
     53434 W2       17812    TIP3     OH2      OT      -0.834000       15.9994           0
     53435 W2       17812    TIP3     H1       HT       0.417000       1.00800           0
     53436 W2       17812    TIP3     H2       HT       0.417000       1.00800           0
     53437 W2       17813    TIP3     OH2      OT      -0.834000       15.9994           0
     53438 W2       17813    TIP3     H1       HT       0.417000       1.00800           0
     53439 W2       17813    TIP3     H2       HT       0.417000       1.00800           0
     53440 W2       17814    TIP3     OH2      OT      -0.834000       15.9994           0
     53441 W2       17814    TIP3     H1       HT       0.417000       1.00800           0
     53442 W2       17814    TIP3     H2       HT       0.417000       1.00800           0
     53443 W2       17815    TIP3     OH2      OT      -0.834000       15.9994           0
     53444 W2       17815    TIP3     H1       HT       0.417000       1.00800           0
     53445 W2       17815    TIP3     H2       HT       0.417000       1.00800           0
     53446 W2       17816    TIP3     OH2      OT      -0.834000       15.9994           0
     53447 W2       17816    TIP3     H1       HT       0.417000       1.00800           0
     53448 W2       17816    TIP3     H2       HT       0.417000       1.00800           0
     53449 W2       17817    TIP3     OH2      OT      -0.834000       15.9994           0
     53450 W2       17817    TIP3     H1       HT       0.417000       1.00800           0
     53451 W2       17817    TIP3     H2       HT       0.417000       1.00800           0
     53452 W2       17818    TIP3     OH2      OT      -0.834000       15.9994           0
     53453 W2       17818    TIP3     H1       HT       0.417000       1.00800           0
     53454 W2       17818    TIP3     H2       HT       0.417000       1.00800           0
     53455 W2       17819    TIP3     OH2      OT      -0.834000       15.9994           0
     53456 W2       17819    TIP3     H1       HT       0.417000       1.00800           0
     53457 W2       17819    TIP3     H2       HT       0.417000       1.00800           0
     53458 W2       17820    TIP3     OH2      OT      -0.834000       15.9994           0
     53459 W2       17820    TIP3     H1       HT       0.417000       1.00800           0
     53460 W2       17820    TIP3     H2       HT       0.417000       1.00800           0
     53461 W2       17821    TIP3     OH2      OT      -0.834000       15.9994           0
     53462 W2       17821    TIP3     H1       HT       0.417000       1.00800           0
     53463 W2       17821    TIP3     H2       HT       0.417000       1.00800           0
     53464 W2       17822    TIP3     OH2      OT      -0.834000       15.9994           0
     53465 W2       17822    TIP3     H1       HT       0.417000       1.00800           0
     53466 W2       17822    TIP3     H2       HT       0.417000       1.00800           0
     53467 W2       17823    TIP3     OH2      OT      -0.834000       15.9994           0
     53468 W2       17823    TIP3     H1       HT       0.417000       1.00800           0
     53469 W2       17823    TIP3     H2       HT       0.417000       1.00800           0
     53470 W2       17824    TIP3     OH2      OT      -0.834000       15.9994           0
     53471 W2       17824    TIP3     H1       HT       0.417000       1.00800           0
     53472 W2       17824    TIP3     H2       HT       0.417000       1.00800           0
     53473 W2       17825    TIP3     OH2      OT      -0.834000       15.9994           0
     53474 W2       17825    TIP3     H1       HT       0.417000       1.00800           0
     53475 W2       17825    TIP3     H2       HT       0.417000       1.00800           0
     53476 W2       17826    TIP3     OH2      OT      -0.834000       15.9994           0
     53477 W2       17826    TIP3     H1       HT       0.417000       1.00800           0
     53478 W2       17826    TIP3     H2       HT       0.417000       1.00800           0
     53479 W2       17827    TIP3     OH2      OT      -0.834000       15.9994           0
     53480 W2       17827    TIP3     H1       HT       0.417000       1.00800           0
     53481 W2       17827    TIP3     H2       HT       0.417000       1.00800           0
     53482 W2       17828    TIP3     OH2      OT      -0.834000       15.9994           0
     53483 W2       17828    TIP3     H1       HT       0.417000       1.00800           0
     53484 W2       17828    TIP3     H2       HT       0.417000       1.00800           0
     53485 W2       17829    TIP3     OH2      OT      -0.834000       15.9994           0
     53486 W2       17829    TIP3     H1       HT       0.417000       1.00800           0
     53487 W2       17829    TIP3     H2       HT       0.417000       1.00800           0
     53488 W2       17830    TIP3     OH2      OT      -0.834000       15.9994           0
     53489 W2       17830    TIP3     H1       HT       0.417000       1.00800           0
     53490 W2       17830    TIP3     H2       HT       0.417000       1.00800           0
     53491 W2       17831    TIP3     OH2      OT      -0.834000       15.9994           0
     53492 W2       17831    TIP3     H1       HT       0.417000       1.00800           0
     53493 W2       17831    TIP3     H2       HT       0.417000       1.00800           0
     53494 W2       17832    TIP3     OH2      OT      -0.834000       15.9994           0
     53495 W2       17832    TIP3     H1       HT       0.417000       1.00800           0
     53496 W2       17832    TIP3     H2       HT       0.417000       1.00800           0
     53497 W2       17833    TIP3     OH2      OT      -0.834000       15.9994           0
     53498 W2       17833    TIP3     H1       HT       0.417000       1.00800           0
     53499 W2       17833    TIP3     H2       HT       0.417000       1.00800           0
     53500 W2       17834    TIP3     OH2      OT      -0.834000       15.9994           0
     53501 W2       17834    TIP3     H1       HT       0.417000       1.00800           0
     53502 W2       17834    TIP3     H2       HT       0.417000       1.00800           0
     53503 W2       17835    TIP3     OH2      OT      -0.834000       15.9994           0
     53504 W2       17835    TIP3     H1       HT       0.417000       1.00800           0
     53505 W2       17835    TIP3     H2       HT       0.417000       1.00800           0
     53506 W2       17836    TIP3     OH2      OT      -0.834000       15.9994           0
     53507 W2       17836    TIP3     H1       HT       0.417000       1.00800           0
     53508 W2       17836    TIP3     H2       HT       0.417000       1.00800           0
     53509 W2       17837    TIP3     OH2      OT      -0.834000       15.9994           0
     53510 W2       17837    TIP3     H1       HT       0.417000       1.00800           0
     53511 W2       17837    TIP3     H2       HT       0.417000       1.00800           0
     53512 W2       17838    TIP3     OH2      OT      -0.834000       15.9994           0
     53513 W2       17838    TIP3     H1       HT       0.417000       1.00800           0
     53514 W2       17838    TIP3     H2       HT       0.417000       1.00800           0
     53515 W2       17839    TIP3     OH2      OT      -0.834000       15.9994           0
     53516 W2       17839    TIP3     H1       HT       0.417000       1.00800           0
     53517 W2       17839    TIP3     H2       HT       0.417000       1.00800           0
     53518 W2       17840    TIP3     OH2      OT      -0.834000       15.9994           0
     53519 W2       17840    TIP3     H1       HT       0.417000       1.00800           0
     53520 W2       17840    TIP3     H2       HT       0.417000       1.00800           0
     53521 W2       17841    TIP3     OH2      OT      -0.834000       15.9994           0
     53522 W2       17841    TIP3     H1       HT       0.417000       1.00800           0
     53523 W2       17841    TIP3     H2       HT       0.417000       1.00800           0
     53524 W2       17842    TIP3     OH2      OT      -0.834000       15.9994           0
     53525 W2       17842    TIP3     H1       HT       0.417000       1.00800           0
     53526 W2       17842    TIP3     H2       HT       0.417000       1.00800           0
     53527 W2       17843    TIP3     OH2      OT      -0.834000       15.9994           0
     53528 W2       17843    TIP3     H1       HT       0.417000       1.00800           0
     53529 W2       17843    TIP3     H2       HT       0.417000       1.00800           0
     53530 W2       17844    TIP3     OH2      OT      -0.834000       15.9994           0
     53531 W2       17844    TIP3     H1       HT       0.417000       1.00800           0
     53532 W2       17844    TIP3     H2       HT       0.417000       1.00800           0
     53533 W2       17845    TIP3     OH2      OT      -0.834000       15.9994           0
     53534 W2       17845    TIP3     H1       HT       0.417000       1.00800           0
     53535 W2       17845    TIP3     H2       HT       0.417000       1.00800           0
     53536 W2       17846    TIP3     OH2      OT      -0.834000       15.9994           0
     53537 W2       17846    TIP3     H1       HT       0.417000       1.00800           0
     53538 W2       17846    TIP3     H2       HT       0.417000       1.00800           0
     53539 W2       17847    TIP3     OH2      OT      -0.834000       15.9994           0
     53540 W2       17847    TIP3     H1       HT       0.417000       1.00800           0
     53541 W2       17847    TIP3     H2       HT       0.417000       1.00800           0
     53542 W2       17848    TIP3     OH2      OT      -0.834000       15.9994           0
     53543 W2       17848    TIP3     H1       HT       0.417000       1.00800           0
     53544 W2       17848    TIP3     H2       HT       0.417000       1.00800           0
     53545 W2       17849    TIP3     OH2      OT      -0.834000       15.9994           0
     53546 W2       17849    TIP3     H1       HT       0.417000       1.00800           0
     53547 W2       17849    TIP3     H2       HT       0.417000       1.00800           0
     53548 W2       17850    TIP3     OH2      OT      -0.834000       15.9994           0
     53549 W2       17850    TIP3     H1       HT       0.417000       1.00800           0
     53550 W2       17850    TIP3     H2       HT       0.417000       1.00800           0
     53551 W2       17851    TIP3     OH2      OT      -0.834000       15.9994           0
     53552 W2       17851    TIP3     H1       HT       0.417000       1.00800           0
     53553 W2       17851    TIP3     H2       HT       0.417000       1.00800           0
     53554 W2       17852    TIP3     OH2      OT      -0.834000       15.9994           0
     53555 W2       17852    TIP3     H1       HT       0.417000       1.00800           0
     53556 W2       17852    TIP3     H2       HT       0.417000       1.00800           0
     53557 W2       17853    TIP3     OH2      OT      -0.834000       15.9994           0
     53558 W2       17853    TIP3     H1       HT       0.417000       1.00800           0
     53559 W2       17853    TIP3     H2       HT       0.417000       1.00800           0
     53560 W2       17854    TIP3     OH2      OT      -0.834000       15.9994           0
     53561 W2       17854    TIP3     H1       HT       0.417000       1.00800           0
     53562 W2       17854    TIP3     H2       HT       0.417000       1.00800           0
     53563 W2       17855    TIP3     OH2      OT      -0.834000       15.9994           0
     53564 W2       17855    TIP3     H1       HT       0.417000       1.00800           0
     53565 W2       17855    TIP3     H2       HT       0.417000       1.00800           0
     53566 W2       17856    TIP3     OH2      OT      -0.834000       15.9994           0
     53567 W2       17856    TIP3     H1       HT       0.417000       1.00800           0
     53568 W2       17856    TIP3     H2       HT       0.417000       1.00800           0
     53569 W2       17857    TIP3     OH2      OT      -0.834000       15.9994           0
     53570 W2       17857    TIP3     H1       HT       0.417000       1.00800           0
     53571 W2       17857    TIP3     H2       HT       0.417000       1.00800           0
     53572 W2       17858    TIP3     OH2      OT      -0.834000       15.9994           0
     53573 W2       17858    TIP3     H1       HT       0.417000       1.00800           0
     53574 W2       17858    TIP3     H2       HT       0.417000       1.00800           0
     53575 W2       17859    TIP3     OH2      OT      -0.834000       15.9994           0
     53576 W2       17859    TIP3     H1       HT       0.417000       1.00800           0
     53577 W2       17859    TIP3     H2       HT       0.417000       1.00800           0
     53578 W2       17860    TIP3     OH2      OT      -0.834000       15.9994           0
     53579 W2       17860    TIP3     H1       HT       0.417000       1.00800           0
     53580 W2       17860    TIP3     H2       HT       0.417000       1.00800           0
     53581 W2       17861    TIP3     OH2      OT      -0.834000       15.9994           0
     53582 W2       17861    TIP3     H1       HT       0.417000       1.00800           0
     53583 W2       17861    TIP3     H2       HT       0.417000       1.00800           0
     53584 W2       17862    TIP3     OH2      OT      -0.834000       15.9994           0
     53585 W2       17862    TIP3     H1       HT       0.417000       1.00800           0
     53586 W2       17862    TIP3     H2       HT       0.417000       1.00800           0
     53587 W2       17863    TIP3     OH2      OT      -0.834000       15.9994           0
     53588 W2       17863    TIP3     H1       HT       0.417000       1.00800           0
     53589 W2       17863    TIP3     H2       HT       0.417000       1.00800           0
     53590 W2       17864    TIP3     OH2      OT      -0.834000       15.9994           0
     53591 W2       17864    TIP3     H1       HT       0.417000       1.00800           0
     53592 W2       17864    TIP3     H2       HT       0.417000       1.00800           0
     53593 W2       17865    TIP3     OH2      OT      -0.834000       15.9994           0
     53594 W2       17865    TIP3     H1       HT       0.417000       1.00800           0
     53595 W2       17865    TIP3     H2       HT       0.417000       1.00800           0
     53596 W2       17866    TIP3     OH2      OT      -0.834000       15.9994           0
     53597 W2       17866    TIP3     H1       HT       0.417000       1.00800           0
     53598 W2       17866    TIP3     H2       HT       0.417000       1.00800           0
     53599 W2       17867    TIP3     OH2      OT      -0.834000       15.9994           0
     53600 W2       17867    TIP3     H1       HT       0.417000       1.00800           0
     53601 W2       17867    TIP3     H2       HT       0.417000       1.00800           0
     53602 W2       17868    TIP3     OH2      OT      -0.834000       15.9994           0
     53603 W2       17868    TIP3     H1       HT       0.417000       1.00800           0
     53604 W2       17868    TIP3     H2       HT       0.417000       1.00800           0
     53605 W2       17869    TIP3     OH2      OT      -0.834000       15.9994           0
     53606 W2       17869    TIP3     H1       HT       0.417000       1.00800           0
     53607 W2       17869    TIP3     H2       HT       0.417000       1.00800           0
     53608 W2       17870    TIP3     OH2      OT      -0.834000       15.9994           0
     53609 W2       17870    TIP3     H1       HT       0.417000       1.00800           0
     53610 W2       17870    TIP3     H2       HT       0.417000       1.00800           0
     53611 W2       17871    TIP3     OH2      OT      -0.834000       15.9994           0
     53612 W2       17871    TIP3     H1       HT       0.417000       1.00800           0
     53613 W2       17871    TIP3     H2       HT       0.417000       1.00800           0
     53614 W2       17872    TIP3     OH2      OT      -0.834000       15.9994           0
     53615 W2       17872    TIP3     H1       HT       0.417000       1.00800           0
     53616 W2       17872    TIP3     H2       HT       0.417000       1.00800           0
     53617 W2       17873    TIP3     OH2      OT      -0.834000       15.9994           0
     53618 W2       17873    TIP3     H1       HT       0.417000       1.00800           0
     53619 W2       17873    TIP3     H2       HT       0.417000       1.00800           0
     53620 W2       17874    TIP3     OH2      OT      -0.834000       15.9994           0
     53621 W2       17874    TIP3     H1       HT       0.417000       1.00800           0
     53622 W2       17874    TIP3     H2       HT       0.417000       1.00800           0
     53623 W2       17875    TIP3     OH2      OT      -0.834000       15.9994           0
     53624 W2       17875    TIP3     H1       HT       0.417000       1.00800           0
     53625 W2       17875    TIP3     H2       HT       0.417000       1.00800           0
     53626 W2       17876    TIP3     OH2      OT      -0.834000       15.9994           0
     53627 W2       17876    TIP3     H1       HT       0.417000       1.00800           0
     53628 W2       17876    TIP3     H2       HT       0.417000       1.00800           0
     53629 W2       17877    TIP3     OH2      OT      -0.834000       15.9994           0
     53630 W2       17877    TIP3     H1       HT       0.417000       1.00800           0
     53631 W2       17877    TIP3     H2       HT       0.417000       1.00800           0
     53632 W2       17878    TIP3     OH2      OT      -0.834000       15.9994           0
     53633 W2       17878    TIP3     H1       HT       0.417000       1.00800           0
     53634 W2       17878    TIP3     H2       HT       0.417000       1.00800           0
     53635 W2       17879    TIP3     OH2      OT      -0.834000       15.9994           0
     53636 W2       17879    TIP3     H1       HT       0.417000       1.00800           0
     53637 W2       17879    TIP3     H2       HT       0.417000       1.00800           0
     53638 W2       17880    TIP3     OH2      OT      -0.834000       15.9994           0
     53639 W2       17880    TIP3     H1       HT       0.417000       1.00800           0
     53640 W2       17880    TIP3     H2       HT       0.417000       1.00800           0
     53641 W2       17881    TIP3     OH2      OT      -0.834000       15.9994           0
     53642 W2       17881    TIP3     H1       HT       0.417000       1.00800           0
     53643 W2       17881    TIP3     H2       HT       0.417000       1.00800           0
     53644 W2       17882    TIP3     OH2      OT      -0.834000       15.9994           0
     53645 W2       17882    TIP3     H1       HT       0.417000       1.00800           0
     53646 W2       17882    TIP3     H2       HT       0.417000       1.00800           0
     53647 W2       17883    TIP3     OH2      OT      -0.834000       15.9994           0
     53648 W2       17883    TIP3     H1       HT       0.417000       1.00800           0
     53649 W2       17883    TIP3     H2       HT       0.417000       1.00800           0
     53650 W2       17884    TIP3     OH2      OT      -0.834000       15.9994           0
     53651 W2       17884    TIP3     H1       HT       0.417000       1.00800           0
     53652 W2       17884    TIP3     H2       HT       0.417000       1.00800           0
     53653 W2       17885    TIP3     OH2      OT      -0.834000       15.9994           0
     53654 W2       17885    TIP3     H1       HT       0.417000       1.00800           0
     53655 W2       17885    TIP3     H2       HT       0.417000       1.00800           0
     53656 W2       17886    TIP3     OH2      OT      -0.834000       15.9994           0
     53657 W2       17886    TIP3     H1       HT       0.417000       1.00800           0
     53658 W2       17886    TIP3     H2       HT       0.417000       1.00800           0
     53659 W2       17887    TIP3     OH2      OT      -0.834000       15.9994           0
     53660 W2       17887    TIP3     H1       HT       0.417000       1.00800           0
     53661 W2       17887    TIP3     H2       HT       0.417000       1.00800           0
     53662 W2       17888    TIP3     OH2      OT      -0.834000       15.9994           0
     53663 W2       17888    TIP3     H1       HT       0.417000       1.00800           0
     53664 W2       17888    TIP3     H2       HT       0.417000       1.00800           0
     53665 W2       17889    TIP3     OH2      OT      -0.834000       15.9994           0
     53666 W2       17889    TIP3     H1       HT       0.417000       1.00800           0
     53667 W2       17889    TIP3     H2       HT       0.417000       1.00800           0
     53668 W2       17890    TIP3     OH2      OT      -0.834000       15.9994           0
     53669 W2       17890    TIP3     H1       HT       0.417000       1.00800           0
     53670 W2       17890    TIP3     H2       HT       0.417000       1.00800           0
     53671 W2       17891    TIP3     OH2      OT      -0.834000       15.9994           0
     53672 W2       17891    TIP3     H1       HT       0.417000       1.00800           0
     53673 W2       17891    TIP3     H2       HT       0.417000       1.00800           0
     53674 W2       17892    TIP3     OH2      OT      -0.834000       15.9994           0
     53675 W2       17892    TIP3     H1       HT       0.417000       1.00800           0
     53676 W2       17892    TIP3     H2       HT       0.417000       1.00800           0
     53677 W2       17893    TIP3     OH2      OT      -0.834000       15.9994           0
     53678 W2       17893    TIP3     H1       HT       0.417000       1.00800           0
     53679 W2       17893    TIP3     H2       HT       0.417000       1.00800           0
     53680 W2       17894    TIP3     OH2      OT      -0.834000       15.9994           0
     53681 W2       17894    TIP3     H1       HT       0.417000       1.00800           0
     53682 W2       17894    TIP3     H2       HT       0.417000       1.00800           0
     53683 W2       17895    TIP3     OH2      OT      -0.834000       15.9994           0
     53684 W2       17895    TIP3     H1       HT       0.417000       1.00800           0
     53685 W2       17895    TIP3     H2       HT       0.417000       1.00800           0
     53686 W2       17896    TIP3     OH2      OT      -0.834000       15.9994           0
     53687 W2       17896    TIP3     H1       HT       0.417000       1.00800           0
     53688 W2       17896    TIP3     H2       HT       0.417000       1.00800           0
     53689 W2       17897    TIP3     OH2      OT      -0.834000       15.9994           0
     53690 W2       17897    TIP3     H1       HT       0.417000       1.00800           0
     53691 W2       17897    TIP3     H2       HT       0.417000       1.00800           0
     53692 W2       17898    TIP3     OH2      OT      -0.834000       15.9994           0
     53693 W2       17898    TIP3     H1       HT       0.417000       1.00800           0
     53694 W2       17898    TIP3     H2       HT       0.417000       1.00800           0
     53695 W2       17899    TIP3     OH2      OT      -0.834000       15.9994           0
     53696 W2       17899    TIP3     H1       HT       0.417000       1.00800           0
     53697 W2       17899    TIP3     H2       HT       0.417000       1.00800           0
     53698 W2       17900    TIP3     OH2      OT      -0.834000       15.9994           0
     53699 W2       17900    TIP3     H1       HT       0.417000       1.00800           0
     53700 W2       17900    TIP3     H2       HT       0.417000       1.00800           0
     53701 W2       17901    TIP3     OH2      OT      -0.834000       15.9994           0
     53702 W2       17901    TIP3     H1       HT       0.417000       1.00800           0
     53703 W2       17901    TIP3     H2       HT       0.417000       1.00800           0
     53704 W2       17902    TIP3     OH2      OT      -0.834000       15.9994           0
     53705 W2       17902    TIP3     H1       HT       0.417000       1.00800           0
     53706 W2       17902    TIP3     H2       HT       0.417000       1.00800           0
     53707 W2       17903    TIP3     OH2      OT      -0.834000       15.9994           0
     53708 W2       17903    TIP3     H1       HT       0.417000       1.00800           0
     53709 W2       17903    TIP3     H2       HT       0.417000       1.00800           0
     53710 W2       17904    TIP3     OH2      OT      -0.834000       15.9994           0
     53711 W2       17904    TIP3     H1       HT       0.417000       1.00800           0
     53712 W2       17904    TIP3     H2       HT       0.417000       1.00800           0
     53713 W2       17905    TIP3     OH2      OT      -0.834000       15.9994           0
     53714 W2       17905    TIP3     H1       HT       0.417000       1.00800           0
     53715 W2       17905    TIP3     H2       HT       0.417000       1.00800           0
     53716 W2       17906    TIP3     OH2      OT      -0.834000       15.9994           0
     53717 W2       17906    TIP3     H1       HT       0.417000       1.00800           0
     53718 W2       17906    TIP3     H2       HT       0.417000       1.00800           0
     53719 W2       17907    TIP3     OH2      OT      -0.834000       15.9994           0
     53720 W2       17907    TIP3     H1       HT       0.417000       1.00800           0
     53721 W2       17907    TIP3     H2       HT       0.417000       1.00800           0
     53722 W2       17908    TIP3     OH2      OT      -0.834000       15.9994           0
     53723 W2       17908    TIP3     H1       HT       0.417000       1.00800           0
     53724 W2       17908    TIP3     H2       HT       0.417000       1.00800           0
     53725 W2       17909    TIP3     OH2      OT      -0.834000       15.9994           0
     53726 W2       17909    TIP3     H1       HT       0.417000       1.00800           0
     53727 W2       17909    TIP3     H2       HT       0.417000       1.00800           0
     53728 W2       17910    TIP3     OH2      OT      -0.834000       15.9994           0
     53729 W2       17910    TIP3     H1       HT       0.417000       1.00800           0
     53730 W2       17910    TIP3     H2       HT       0.417000       1.00800           0
     53731 W2       17911    TIP3     OH2      OT      -0.834000       15.9994           0
     53732 W2       17911    TIP3     H1       HT       0.417000       1.00800           0
     53733 W2       17911    TIP3     H2       HT       0.417000       1.00800           0
     53734 W2       17912    TIP3     OH2      OT      -0.834000       15.9994           0
     53735 W2       17912    TIP3     H1       HT       0.417000       1.00800           0
     53736 W2       17912    TIP3     H2       HT       0.417000       1.00800           0
     53737 W2       17913    TIP3     OH2      OT      -0.834000       15.9994           0
     53738 W2       17913    TIP3     H1       HT       0.417000       1.00800           0
     53739 W2       17913    TIP3     H2       HT       0.417000       1.00800           0
     53740 W2       17914    TIP3     OH2      OT      -0.834000       15.9994           0
     53741 W2       17914    TIP3     H1       HT       0.417000       1.00800           0
     53742 W2       17914    TIP3     H2       HT       0.417000       1.00800           0
     53743 W2       17915    TIP3     OH2      OT      -0.834000       15.9994           0
     53744 W2       17915    TIP3     H1       HT       0.417000       1.00800           0
     53745 W2       17915    TIP3     H2       HT       0.417000       1.00800           0
     53746 W2       17916    TIP3     OH2      OT      -0.834000       15.9994           0
     53747 W2       17916    TIP3     H1       HT       0.417000       1.00800           0
     53748 W2       17916    TIP3     H2       HT       0.417000       1.00800           0
     53749 W2       17917    TIP3     OH2      OT      -0.834000       15.9994           0
     53750 W2       17917    TIP3     H1       HT       0.417000       1.00800           0
     53751 W2       17917    TIP3     H2       HT       0.417000       1.00800           0
     53752 W2       17918    TIP3     OH2      OT      -0.834000       15.9994           0
     53753 W2       17918    TIP3     H1       HT       0.417000       1.00800           0
     53754 W2       17918    TIP3     H2       HT       0.417000       1.00800           0
     53755 W2       17919    TIP3     OH2      OT      -0.834000       15.9994           0
     53756 W2       17919    TIP3     H1       HT       0.417000       1.00800           0
     53757 W2       17919    TIP3     H2       HT       0.417000       1.00800           0
     53758 W2       17920    TIP3     OH2      OT      -0.834000       15.9994           0
     53759 W2       17920    TIP3     H1       HT       0.417000       1.00800           0
     53760 W2       17920    TIP3     H2       HT       0.417000       1.00800           0
     53761 W2       17921    TIP3     OH2      OT      -0.834000       15.9994           0
     53762 W2       17921    TIP3     H1       HT       0.417000       1.00800           0
     53763 W2       17921    TIP3     H2       HT       0.417000       1.00800           0
     53764 W2       17922    TIP3     OH2      OT      -0.834000       15.9994           0
     53765 W2       17922    TIP3     H1       HT       0.417000       1.00800           0
     53766 W2       17922    TIP3     H2       HT       0.417000       1.00800           0
     53767 W2       17923    TIP3     OH2      OT      -0.834000       15.9994           0
     53768 W2       17923    TIP3     H1       HT       0.417000       1.00800           0
     53769 W2       17923    TIP3     H2       HT       0.417000       1.00800           0
     53770 W2       17924    TIP3     OH2      OT      -0.834000       15.9994           0
     53771 W2       17924    TIP3     H1       HT       0.417000       1.00800           0
     53772 W2       17924    TIP3     H2       HT       0.417000       1.00800           0
     53773 W2       17925    TIP3     OH2      OT      -0.834000       15.9994           0
     53774 W2       17925    TIP3     H1       HT       0.417000       1.00800           0
     53775 W2       17925    TIP3     H2       HT       0.417000       1.00800           0
     53776 W2       17926    TIP3     OH2      OT      -0.834000       15.9994           0
     53777 W2       17926    TIP3     H1       HT       0.417000       1.00800           0
     53778 W2       17926    TIP3     H2       HT       0.417000       1.00800           0
     53779 W2       17927    TIP3     OH2      OT      -0.834000       15.9994           0
     53780 W2       17927    TIP3     H1       HT       0.417000       1.00800           0
     53781 W2       17927    TIP3     H2       HT       0.417000       1.00800           0
     53782 W2       17928    TIP3     OH2      OT      -0.834000       15.9994           0
     53783 W2       17928    TIP3     H1       HT       0.417000       1.00800           0
     53784 W2       17928    TIP3     H2       HT       0.417000       1.00800           0
     53785 W2       17929    TIP3     OH2      OT      -0.834000       15.9994           0
     53786 W2       17929    TIP3     H1       HT       0.417000       1.00800           0
     53787 W2       17929    TIP3     H2       HT       0.417000       1.00800           0
     53788 W2       17930    TIP3     OH2      OT      -0.834000       15.9994           0
     53789 W2       17930    TIP3     H1       HT       0.417000       1.00800           0
     53790 W2       17930    TIP3     H2       HT       0.417000       1.00800           0
     53791 W2       17931    TIP3     OH2      OT      -0.834000       15.9994           0
     53792 W2       17931    TIP3     H1       HT       0.417000       1.00800           0
     53793 W2       17931    TIP3     H2       HT       0.417000       1.00800           0
     53794 W2       17932    TIP3     OH2      OT      -0.834000       15.9994           0
     53795 W2       17932    TIP3     H1       HT       0.417000       1.00800           0
     53796 W2       17932    TIP3     H2       HT       0.417000       1.00800           0
     53797 W2       17933    TIP3     OH2      OT      -0.834000       15.9994           0
     53798 W2       17933    TIP3     H1       HT       0.417000       1.00800           0
     53799 W2       17933    TIP3     H2       HT       0.417000       1.00800           0
     53800 W2       17934    TIP3     OH2      OT      -0.834000       15.9994           0
     53801 W2       17934    TIP3     H1       HT       0.417000       1.00800           0
     53802 W2       17934    TIP3     H2       HT       0.417000       1.00800           0
     53803 W2       17935    TIP3     OH2      OT      -0.834000       15.9994           0
     53804 W2       17935    TIP3     H1       HT       0.417000       1.00800           0
     53805 W2       17935    TIP3     H2       HT       0.417000       1.00800           0
     53806 W2       17936    TIP3     OH2      OT      -0.834000       15.9994           0
     53807 W2       17936    TIP3     H1       HT       0.417000       1.00800           0
     53808 W2       17936    TIP3     H2       HT       0.417000       1.00800           0
     53809 W2       17937    TIP3     OH2      OT      -0.834000       15.9994           0
     53810 W2       17937    TIP3     H1       HT       0.417000       1.00800           0
     53811 W2       17937    TIP3     H2       HT       0.417000       1.00800           0
     53812 W2       17938    TIP3     OH2      OT      -0.834000       15.9994           0
     53813 W2       17938    TIP3     H1       HT       0.417000       1.00800           0
     53814 W2       17938    TIP3     H2       HT       0.417000       1.00800           0
     53815 W2       17939    TIP3     OH2      OT      -0.834000       15.9994           0
     53816 W2       17939    TIP3     H1       HT       0.417000       1.00800           0
     53817 W2       17939    TIP3     H2       HT       0.417000       1.00800           0
     53818 W2       17940    TIP3     OH2      OT      -0.834000       15.9994           0
     53819 W2       17940    TIP3     H1       HT       0.417000       1.00800           0
     53820 W2       17940    TIP3     H2       HT       0.417000       1.00800           0
     53821 W2       17941    TIP3     OH2      OT      -0.834000       15.9994           0
     53822 W2       17941    TIP3     H1       HT       0.417000       1.00800           0
     53823 W2       17941    TIP3     H2       HT       0.417000       1.00800           0
     53824 W2       17942    TIP3     OH2      OT      -0.834000       15.9994           0
     53825 W2       17942    TIP3     H1       HT       0.417000       1.00800           0
     53826 W2       17942    TIP3     H2       HT       0.417000       1.00800           0
     53827 W2       17943    TIP3     OH2      OT      -0.834000       15.9994           0
     53828 W2       17943    TIP3     H1       HT       0.417000       1.00800           0
     53829 W2       17943    TIP3     H2       HT       0.417000       1.00800           0
     53830 W2       17944    TIP3     OH2      OT      -0.834000       15.9994           0
     53831 W2       17944    TIP3     H1       HT       0.417000       1.00800           0
     53832 W2       17944    TIP3     H2       HT       0.417000       1.00800           0
     53833 W2       17945    TIP3     OH2      OT      -0.834000       15.9994           0
     53834 W2       17945    TIP3     H1       HT       0.417000       1.00800           0
     53835 W2       17945    TIP3     H2       HT       0.417000       1.00800           0
     53836 W2       17946    TIP3     OH2      OT      -0.834000       15.9994           0
     53837 W2       17946    TIP3     H1       HT       0.417000       1.00800           0
     53838 W2       17946    TIP3     H2       HT       0.417000       1.00800           0
     53839 W2       17947    TIP3     OH2      OT      -0.834000       15.9994           0
     53840 W2       17947    TIP3     H1       HT       0.417000       1.00800           0
     53841 W2       17947    TIP3     H2       HT       0.417000       1.00800           0
     53842 W2       17948    TIP3     OH2      OT      -0.834000       15.9994           0
     53843 W2       17948    TIP3     H1       HT       0.417000       1.00800           0
     53844 W2       17948    TIP3     H2       HT       0.417000       1.00800           0
     53845 W2       17949    TIP3     OH2      OT      -0.834000       15.9994           0
     53846 W2       17949    TIP3     H1       HT       0.417000       1.00800           0
     53847 W2       17949    TIP3     H2       HT       0.417000       1.00800           0
     53848 W2       17950    TIP3     OH2      OT      -0.834000       15.9994           0
     53849 W2       17950    TIP3     H1       HT       0.417000       1.00800           0
     53850 W2       17950    TIP3     H2       HT       0.417000       1.00800           0
     53851 W2       17951    TIP3     OH2      OT      -0.834000       15.9994           0
     53852 W2       17951    TIP3     H1       HT       0.417000       1.00800           0
     53853 W2       17951    TIP3     H2       HT       0.417000       1.00800           0
     53854 W2       17952    TIP3     OH2      OT      -0.834000       15.9994           0
     53855 W2       17952    TIP3     H1       HT       0.417000       1.00800           0
     53856 W2       17952    TIP3     H2       HT       0.417000       1.00800           0
     53857 W2       17953    TIP3     OH2      OT      -0.834000       15.9994           0
     53858 W2       17953    TIP3     H1       HT       0.417000       1.00800           0
     53859 W2       17953    TIP3     H2       HT       0.417000       1.00800           0
     53860 W2       17954    TIP3     OH2      OT      -0.834000       15.9994           0
     53861 W2       17954    TIP3     H1       HT       0.417000       1.00800           0
     53862 W2       17954    TIP3     H2       HT       0.417000       1.00800           0
     53863 W2       17955    TIP3     OH2      OT      -0.834000       15.9994           0
     53864 W2       17955    TIP3     H1       HT       0.417000       1.00800           0
     53865 W2       17955    TIP3     H2       HT       0.417000       1.00800           0
     53866 W2       17956    TIP3     OH2      OT      -0.834000       15.9994           0
     53867 W2       17956    TIP3     H1       HT       0.417000       1.00800           0
     53868 W2       17956    TIP3     H2       HT       0.417000       1.00800           0
     53869 W2       17957    TIP3     OH2      OT      -0.834000       15.9994           0
     53870 W2       17957    TIP3     H1       HT       0.417000       1.00800           0
     53871 W2       17957    TIP3     H2       HT       0.417000       1.00800           0
     53872 W2       17958    TIP3     OH2      OT      -0.834000       15.9994           0
     53873 W2       17958    TIP3     H1       HT       0.417000       1.00800           0
     53874 W2       17958    TIP3     H2       HT       0.417000       1.00800           0
     53875 W2       17959    TIP3     OH2      OT      -0.834000       15.9994           0
     53876 W2       17959    TIP3     H1       HT       0.417000       1.00800           0
     53877 W2       17959    TIP3     H2       HT       0.417000       1.00800           0
     53878 W2       17960    TIP3     OH2      OT      -0.834000       15.9994           0
     53879 W2       17960    TIP3     H1       HT       0.417000       1.00800           0
     53880 W2       17960    TIP3     H2       HT       0.417000       1.00800           0
     53881 W2       17961    TIP3     OH2      OT      -0.834000       15.9994           0
     53882 W2       17961    TIP3     H1       HT       0.417000       1.00800           0
     53883 W2       17961    TIP3     H2       HT       0.417000       1.00800           0
     53884 W2       17962    TIP3     OH2      OT      -0.834000       15.9994           0
     53885 W2       17962    TIP3     H1       HT       0.417000       1.00800           0
     53886 W2       17962    TIP3     H2       HT       0.417000       1.00800           0
     53887 W2       17963    TIP3     OH2      OT      -0.834000       15.9994           0
     53888 W2       17963    TIP3     H1       HT       0.417000       1.00800           0
     53889 W2       17963    TIP3     H2       HT       0.417000       1.00800           0
     53890 W2       17964    TIP3     OH2      OT      -0.834000       15.9994           0
     53891 W2       17964    TIP3     H1       HT       0.417000       1.00800           0
     53892 W2       17964    TIP3     H2       HT       0.417000       1.00800           0
     53893 W2       17965    TIP3     OH2      OT      -0.834000       15.9994           0
     53894 W2       17965    TIP3     H1       HT       0.417000       1.00800           0
     53895 W2       17965    TIP3     H2       HT       0.417000       1.00800           0
     53896 W2       17966    TIP3     OH2      OT      -0.834000       15.9994           0
     53897 W2       17966    TIP3     H1       HT       0.417000       1.00800           0
     53898 W2       17966    TIP3     H2       HT       0.417000       1.00800           0
     53899 W2       17967    TIP3     OH2      OT      -0.834000       15.9994           0
     53900 W2       17967    TIP3     H1       HT       0.417000       1.00800           0
     53901 W2       17967    TIP3     H2       HT       0.417000       1.00800           0
     53902 W2       17968    TIP3     OH2      OT      -0.834000       15.9994           0
     53903 W2       17968    TIP3     H1       HT       0.417000       1.00800           0
     53904 W2       17968    TIP3     H2       HT       0.417000       1.00800           0
     53905 W2       17969    TIP3     OH2      OT      -0.834000       15.9994           0
     53906 W2       17969    TIP3     H1       HT       0.417000       1.00800           0
     53907 W2       17969    TIP3     H2       HT       0.417000       1.00800           0
     53908 W2       17970    TIP3     OH2      OT      -0.834000       15.9994           0
     53909 W2       17970    TIP3     H1       HT       0.417000       1.00800           0
     53910 W2       17970    TIP3     H2       HT       0.417000       1.00800           0
     53911 W2       17971    TIP3     OH2      OT      -0.834000       15.9994           0
     53912 W2       17971    TIP3     H1       HT       0.417000       1.00800           0
     53913 W2       17971    TIP3     H2       HT       0.417000       1.00800           0
     53914 W2       17972    TIP3     OH2      OT      -0.834000       15.9994           0
     53915 W2       17972    TIP3     H1       HT       0.417000       1.00800           0
     53916 W2       17972    TIP3     H2       HT       0.417000       1.00800           0
     53917 W2       17973    TIP3     OH2      OT      -0.834000       15.9994           0
     53918 W2       17973    TIP3     H1       HT       0.417000       1.00800           0
     53919 W2       17973    TIP3     H2       HT       0.417000       1.00800           0
     53920 W2       17974    TIP3     OH2      OT      -0.834000       15.9994           0
     53921 W2       17974    TIP3     H1       HT       0.417000       1.00800           0
     53922 W2       17974    TIP3     H2       HT       0.417000       1.00800           0
     53923 W2       17975    TIP3     OH2      OT      -0.834000       15.9994           0
     53924 W2       17975    TIP3     H1       HT       0.417000       1.00800           0
     53925 W2       17975    TIP3     H2       HT       0.417000       1.00800           0
     53926 W2       17976    TIP3     OH2      OT      -0.834000       15.9994           0
     53927 W2       17976    TIP3     H1       HT       0.417000       1.00800           0
     53928 W2       17976    TIP3     H2       HT       0.417000       1.00800           0
     53929 W2       17977    TIP3     OH2      OT      -0.834000       15.9994           0
     53930 W2       17977    TIP3     H1       HT       0.417000       1.00800           0
     53931 W2       17977    TIP3     H2       HT       0.417000       1.00800           0
     53932 W2       17978    TIP3     OH2      OT      -0.834000       15.9994           0
     53933 W2       17978    TIP3     H1       HT       0.417000       1.00800           0
     53934 W2       17978    TIP3     H2       HT       0.417000       1.00800           0
     53935 W2       17979    TIP3     OH2      OT      -0.834000       15.9994           0
     53936 W2       17979    TIP3     H1       HT       0.417000       1.00800           0
     53937 W2       17979    TIP3     H2       HT       0.417000       1.00800           0
     53938 W2       17980    TIP3     OH2      OT      -0.834000       15.9994           0
     53939 W2       17980    TIP3     H1       HT       0.417000       1.00800           0
     53940 W2       17980    TIP3     H2       HT       0.417000       1.00800           0
     53941 W2       17981    TIP3     OH2      OT      -0.834000       15.9994           0
     53942 W2       17981    TIP3     H1       HT       0.417000       1.00800           0
     53943 W2       17981    TIP3     H2       HT       0.417000       1.00800           0
     53944 W2       17982    TIP3     OH2      OT      -0.834000       15.9994           0
     53945 W2       17982    TIP3     H1       HT       0.417000       1.00800           0
     53946 W2       17982    TIP3     H2       HT       0.417000       1.00800           0
     53947 W2       17983    TIP3     OH2      OT      -0.834000       15.9994           0
     53948 W2       17983    TIP3     H1       HT       0.417000       1.00800           0
     53949 W2       17983    TIP3     H2       HT       0.417000       1.00800           0
     53950 W2       17984    TIP3     OH2      OT      -0.834000       15.9994           0
     53951 W2       17984    TIP3     H1       HT       0.417000       1.00800           0
     53952 W2       17984    TIP3     H2       HT       0.417000       1.00800           0
     53953 W2       17985    TIP3     OH2      OT      -0.834000       15.9994           0
     53954 W2       17985    TIP3     H1       HT       0.417000       1.00800           0
     53955 W2       17985    TIP3     H2       HT       0.417000       1.00800           0
     53956 W2       17986    TIP3     OH2      OT      -0.834000       15.9994           0
     53957 W2       17986    TIP3     H1       HT       0.417000       1.00800           0
     53958 W2       17986    TIP3     H2       HT       0.417000       1.00800           0
     53959 W2       17987    TIP3     OH2      OT      -0.834000       15.9994           0
     53960 W2       17987    TIP3     H1       HT       0.417000       1.00800           0
     53961 W2       17987    TIP3     H2       HT       0.417000       1.00800           0
     53962 W2       17988    TIP3     OH2      OT      -0.834000       15.9994           0
     53963 W2       17988    TIP3     H1       HT       0.417000       1.00800           0
     53964 W2       17988    TIP3     H2       HT       0.417000       1.00800           0
     53965 W2       17989    TIP3     OH2      OT      -0.834000       15.9994           0
     53966 W2       17989    TIP3     H1       HT       0.417000       1.00800           0
     53967 W2       17989    TIP3     H2       HT       0.417000       1.00800           0
     53968 W2       17990    TIP3     OH2      OT      -0.834000       15.9994           0
     53969 W2       17990    TIP3     H1       HT       0.417000       1.00800           0
     53970 W2       17990    TIP3     H2       HT       0.417000       1.00800           0
     53971 W2       17991    TIP3     OH2      OT      -0.834000       15.9994           0
     53972 W2       17991    TIP3     H1       HT       0.417000       1.00800           0
     53973 W2       17991    TIP3     H2       HT       0.417000       1.00800           0
     53974 W2       17992    TIP3     OH2      OT      -0.834000       15.9994           0
     53975 W2       17992    TIP3     H1       HT       0.417000       1.00800           0
     53976 W2       17992    TIP3     H2       HT       0.417000       1.00800           0
     53977 W2       17993    TIP3     OH2      OT      -0.834000       15.9994           0
     53978 W2       17993    TIP3     H1       HT       0.417000       1.00800           0
     53979 W2       17993    TIP3     H2       HT       0.417000       1.00800           0
     53980 W2       17994    TIP3     OH2      OT      -0.834000       15.9994           0
     53981 W2       17994    TIP3     H1       HT       0.417000       1.00800           0
     53982 W2       17994    TIP3     H2       HT       0.417000       1.00800           0
     53983 W2       17995    TIP3     OH2      OT      -0.834000       15.9994           0
     53984 W2       17995    TIP3     H1       HT       0.417000       1.00800           0
     53985 W2       17995    TIP3     H2       HT       0.417000       1.00800           0
     53986 W2       17996    TIP3     OH2      OT      -0.834000       15.9994           0
     53987 W2       17996    TIP3     H1       HT       0.417000       1.00800           0
     53988 W2       17996    TIP3     H2       HT       0.417000       1.00800           0
     53989 W2       17997    TIP3     OH2      OT      -0.834000       15.9994           0
     53990 W2       17997    TIP3     H1       HT       0.417000       1.00800           0
     53991 W2       17997    TIP3     H2       HT       0.417000       1.00800           0
     53992 W2       17998    TIP3     OH2      OT      -0.834000       15.9994           0
     53993 W2       17998    TIP3     H1       HT       0.417000       1.00800           0
     53994 W2       17998    TIP3     H2       HT       0.417000       1.00800           0
     53995 W2       17999    TIP3     OH2      OT      -0.834000       15.9994           0
     53996 W2       17999    TIP3     H1       HT       0.417000       1.00800           0
     53997 W2       17999    TIP3     H2       HT       0.417000       1.00800           0
     53998 W2       18000    TIP3     OH2      OT      -0.834000       15.9994           0
     53999 W2       18000    TIP3     H1       HT       0.417000       1.00800           0
     54000 W2       18000    TIP3     H2       HT       0.417000       1.00800           0
     54001 W2       18001    TIP3     OH2      OT      -0.834000       15.9994           0
     54002 W2       18001    TIP3     H1       HT       0.417000       1.00800           0
     54003 W2       18001    TIP3     H2       HT       0.417000       1.00800           0
     54004 W2       18002    TIP3     OH2      OT      -0.834000       15.9994           0
     54005 W2       18002    TIP3     H1       HT       0.417000       1.00800           0
     54006 W2       18002    TIP3     H2       HT       0.417000       1.00800           0
     54007 W2       18003    TIP3     OH2      OT      -0.834000       15.9994           0
     54008 W2       18003    TIP3     H1       HT       0.417000       1.00800           0
     54009 W2       18003    TIP3     H2       HT       0.417000       1.00800           0
     54010 W2       18004    TIP3     OH2      OT      -0.834000       15.9994           0
     54011 W2       18004    TIP3     H1       HT       0.417000       1.00800           0
     54012 W2       18004    TIP3     H2       HT       0.417000       1.00800           0
     54013 W2       18005    TIP3     OH2      OT      -0.834000       15.9994           0
     54014 W2       18005    TIP3     H1       HT       0.417000       1.00800           0
     54015 W2       18005    TIP3     H2       HT       0.417000       1.00800           0
     54016 W2       18006    TIP3     OH2      OT      -0.834000       15.9994           0
     54017 W2       18006    TIP3     H1       HT       0.417000       1.00800           0
     54018 W2       18006    TIP3     H2       HT       0.417000       1.00800           0
     54019 W2       18007    TIP3     OH2      OT      -0.834000       15.9994           0
     54020 W2       18007    TIP3     H1       HT       0.417000       1.00800           0
     54021 W2       18007    TIP3     H2       HT       0.417000       1.00800           0
     54022 W2       18008    TIP3     OH2      OT      -0.834000       15.9994           0
     54023 W2       18008    TIP3     H1       HT       0.417000       1.00800           0
     54024 W2       18008    TIP3     H2       HT       0.417000       1.00800           0
     54025 W2       18009    TIP3     OH2      OT      -0.834000       15.9994           0
     54026 W2       18009    TIP3     H1       HT       0.417000       1.00800           0
     54027 W2       18009    TIP3     H2       HT       0.417000       1.00800           0
     54028 W2       18010    TIP3     OH2      OT      -0.834000       15.9994           0
     54029 W2       18010    TIP3     H1       HT       0.417000       1.00800           0
     54030 W2       18010    TIP3     H2       HT       0.417000       1.00800           0
     54031 W2       18011    TIP3     OH2      OT      -0.834000       15.9994           0
     54032 W2       18011    TIP3     H1       HT       0.417000       1.00800           0
     54033 W2       18011    TIP3     H2       HT       0.417000       1.00800           0
     54034 W2       18012    TIP3     OH2      OT      -0.834000       15.9994           0
     54035 W2       18012    TIP3     H1       HT       0.417000       1.00800           0
     54036 W2       18012    TIP3     H2       HT       0.417000       1.00800           0
     54037 W2       18013    TIP3     OH2      OT      -0.834000       15.9994           0
     54038 W2       18013    TIP3     H1       HT       0.417000       1.00800           0
     54039 W2       18013    TIP3     H2       HT       0.417000       1.00800           0
     54040 W2       18014    TIP3     OH2      OT      -0.834000       15.9994           0
     54041 W2       18014    TIP3     H1       HT       0.417000       1.00800           0
     54042 W2       18014    TIP3     H2       HT       0.417000       1.00800           0
     54043 W2       18015    TIP3     OH2      OT      -0.834000       15.9994           0
     54044 W2       18015    TIP3     H1       HT       0.417000       1.00800           0
     54045 W2       18015    TIP3     H2       HT       0.417000       1.00800           0
     54046 W2       18016    TIP3     OH2      OT      -0.834000       15.9994           0
     54047 W2       18016    TIP3     H1       HT       0.417000       1.00800           0
     54048 W2       18016    TIP3     H2       HT       0.417000       1.00800           0
     54049 W2       18017    TIP3     OH2      OT      -0.834000       15.9994           0
     54050 W2       18017    TIP3     H1       HT       0.417000       1.00800           0
     54051 W2       18017    TIP3     H2       HT       0.417000       1.00800           0
     54052 W2       18018    TIP3     OH2      OT      -0.834000       15.9994           0
     54053 W2       18018    TIP3     H1       HT       0.417000       1.00800           0
     54054 W2       18018    TIP3     H2       HT       0.417000       1.00800           0
     54055 W2       18019    TIP3     OH2      OT      -0.834000       15.9994           0
     54056 W2       18019    TIP3     H1       HT       0.417000       1.00800           0
     54057 W2       18019    TIP3     H2       HT       0.417000       1.00800           0
     54058 W2       18020    TIP3     OH2      OT      -0.834000       15.9994           0
     54059 W2       18020    TIP3     H1       HT       0.417000       1.00800           0
     54060 W2       18020    TIP3     H2       HT       0.417000       1.00800           0
     54061 W2       18021    TIP3     OH2      OT      -0.834000       15.9994           0
     54062 W2       18021    TIP3     H1       HT       0.417000       1.00800           0
     54063 W2       18021    TIP3     H2       HT       0.417000       1.00800           0
     54064 W2       18022    TIP3     OH2      OT      -0.834000       15.9994           0
     54065 W2       18022    TIP3     H1       HT       0.417000       1.00800           0
     54066 W2       18022    TIP3     H2       HT       0.417000       1.00800           0
     54067 W2       18023    TIP3     OH2      OT      -0.834000       15.9994           0
     54068 W2       18023    TIP3     H1       HT       0.417000       1.00800           0
     54069 W2       18023    TIP3     H2       HT       0.417000       1.00800           0
     54070 W2       18024    TIP3     OH2      OT      -0.834000       15.9994           0
     54071 W2       18024    TIP3     H1       HT       0.417000       1.00800           0
     54072 W2       18024    TIP3     H2       HT       0.417000       1.00800           0
     54073 W2       18025    TIP3     OH2      OT      -0.834000       15.9994           0
     54074 W2       18025    TIP3     H1       HT       0.417000       1.00800           0
     54075 W2       18025    TIP3     H2       HT       0.417000       1.00800           0
     54076 W2       18026    TIP3     OH2      OT      -0.834000       15.9994           0
     54077 W2       18026    TIP3     H1       HT       0.417000       1.00800           0
     54078 W2       18026    TIP3     H2       HT       0.417000       1.00800           0
     54079 W2       18027    TIP3     OH2      OT      -0.834000       15.9994           0
     54080 W2       18027    TIP3     H1       HT       0.417000       1.00800           0
     54081 W2       18027    TIP3     H2       HT       0.417000       1.00800           0
     54082 W2       18028    TIP3     OH2      OT      -0.834000       15.9994           0
     54083 W2       18028    TIP3     H1       HT       0.417000       1.00800           0
     54084 W2       18028    TIP3     H2       HT       0.417000       1.00800           0
     54085 W2       18029    TIP3     OH2      OT      -0.834000       15.9994           0
     54086 W2       18029    TIP3     H1       HT       0.417000       1.00800           0
     54087 W2       18029    TIP3     H2       HT       0.417000       1.00800           0
     54088 W2       18030    TIP3     OH2      OT      -0.834000       15.9994           0
     54089 W2       18030    TIP3     H1       HT       0.417000       1.00800           0
     54090 W2       18030    TIP3     H2       HT       0.417000       1.00800           0
     54091 W2       18031    TIP3     OH2      OT      -0.834000       15.9994           0
     54092 W2       18031    TIP3     H1       HT       0.417000       1.00800           0
     54093 W2       18031    TIP3     H2       HT       0.417000       1.00800           0
     54094 W2       18032    TIP3     OH2      OT      -0.834000       15.9994           0
     54095 W2       18032    TIP3     H1       HT       0.417000       1.00800           0
     54096 W2       18032    TIP3     H2       HT       0.417000       1.00800           0
     54097 W2       18033    TIP3     OH2      OT      -0.834000       15.9994           0
     54098 W2       18033    TIP3     H1       HT       0.417000       1.00800           0
     54099 W2       18033    TIP3     H2       HT       0.417000       1.00800           0
     54100 W2       18034    TIP3     OH2      OT      -0.834000       15.9994           0
     54101 W2       18034    TIP3     H1       HT       0.417000       1.00800           0
     54102 W2       18034    TIP3     H2       HT       0.417000       1.00800           0
     54103 W2       18035    TIP3     OH2      OT      -0.834000       15.9994           0
     54104 W2       18035    TIP3     H1       HT       0.417000       1.00800           0
     54105 W2       18035    TIP3     H2       HT       0.417000       1.00800           0
     54106 W2       18036    TIP3     OH2      OT      -0.834000       15.9994           0
     54107 W2       18036    TIP3     H1       HT       0.417000       1.00800           0
     54108 W2       18036    TIP3     H2       HT       0.417000       1.00800           0
     54109 W2       18037    TIP3     OH2      OT      -0.834000       15.9994           0
     54110 W2       18037    TIP3     H1       HT       0.417000       1.00800           0
     54111 W2       18037    TIP3     H2       HT       0.417000       1.00800           0
     54112 W2       18038    TIP3     OH2      OT      -0.834000       15.9994           0
     54113 W2       18038    TIP3     H1       HT       0.417000       1.00800           0
     54114 W2       18038    TIP3     H2       HT       0.417000       1.00800           0
     54115 W2       18039    TIP3     OH2      OT      -0.834000       15.9994           0
     54116 W2       18039    TIP3     H1       HT       0.417000       1.00800           0
     54117 W2       18039    TIP3     H2       HT       0.417000       1.00800           0
     54118 W2       18040    TIP3     OH2      OT      -0.834000       15.9994           0
     54119 W2       18040    TIP3     H1       HT       0.417000       1.00800           0
     54120 W2       18040    TIP3     H2       HT       0.417000       1.00800           0
     54121 W2       18041    TIP3     OH2      OT      -0.834000       15.9994           0
     54122 W2       18041    TIP3     H1       HT       0.417000       1.00800           0
     54123 W2       18041    TIP3     H2       HT       0.417000       1.00800           0
     54124 W2       18042    TIP3     OH2      OT      -0.834000       15.9994           0
     54125 W2       18042    TIP3     H1       HT       0.417000       1.00800           0
     54126 W2       18042    TIP3     H2       HT       0.417000       1.00800           0
     54127 W2       18043    TIP3     OH2      OT      -0.834000       15.9994           0
     54128 W2       18043    TIP3     H1       HT       0.417000       1.00800           0
     54129 W2       18043    TIP3     H2       HT       0.417000       1.00800           0
     54130 W2       18044    TIP3     OH2      OT      -0.834000       15.9994           0
     54131 W2       18044    TIP3     H1       HT       0.417000       1.00800           0
     54132 W2       18044    TIP3     H2       HT       0.417000       1.00800           0
     54133 W2       18045    TIP3     OH2      OT      -0.834000       15.9994           0
     54134 W2       18045    TIP3     H1       HT       0.417000       1.00800           0
     54135 W2       18045    TIP3     H2       HT       0.417000       1.00800           0
     54136 W2       18046    TIP3     OH2      OT      -0.834000       15.9994           0
     54137 W2       18046    TIP3     H1       HT       0.417000       1.00800           0
     54138 W2       18046    TIP3     H2       HT       0.417000       1.00800           0
     54139 W2       18047    TIP3     OH2      OT      -0.834000       15.9994           0
     54140 W2       18047    TIP3     H1       HT       0.417000       1.00800           0
     54141 W2       18047    TIP3     H2       HT       0.417000       1.00800           0
     54142 W2       18048    TIP3     OH2      OT      -0.834000       15.9994           0
     54143 W2       18048    TIP3     H1       HT       0.417000       1.00800           0
     54144 W2       18048    TIP3     H2       HT       0.417000       1.00800           0
     54145 W2       18049    TIP3     OH2      OT      -0.834000       15.9994           0
     54146 W2       18049    TIP3     H1       HT       0.417000       1.00800           0
     54147 W2       18049    TIP3     H2       HT       0.417000       1.00800           0
     54148 W2       18050    TIP3     OH2      OT      -0.834000       15.9994           0
     54149 W2       18050    TIP3     H1       HT       0.417000       1.00800           0
     54150 W2       18050    TIP3     H2       HT       0.417000       1.00800           0
     54151 W2       18051    TIP3     OH2      OT      -0.834000       15.9994           0
     54152 W2       18051    TIP3     H1       HT       0.417000       1.00800           0
     54153 W2       18051    TIP3     H2       HT       0.417000       1.00800           0
     54154 W2       18052    TIP3     OH2      OT      -0.834000       15.9994           0
     54155 W2       18052    TIP3     H1       HT       0.417000       1.00800           0
     54156 W2       18052    TIP3     H2       HT       0.417000       1.00800           0
     54157 W2       18053    TIP3     OH2      OT      -0.834000       15.9994           0
     54158 W2       18053    TIP3     H1       HT       0.417000       1.00800           0
     54159 W2       18053    TIP3     H2       HT       0.417000       1.00800           0
     54160 W2       18054    TIP3     OH2      OT      -0.834000       15.9994           0
     54161 W2       18054    TIP3     H1       HT       0.417000       1.00800           0
     54162 W2       18054    TIP3     H2       HT       0.417000       1.00800           0
     54163 W2       18055    TIP3     OH2      OT      -0.834000       15.9994           0
     54164 W2       18055    TIP3     H1       HT       0.417000       1.00800           0
     54165 W2       18055    TIP3     H2       HT       0.417000       1.00800           0
     54166 W2       18056    TIP3     OH2      OT      -0.834000       15.9994           0
     54167 W2       18056    TIP3     H1       HT       0.417000       1.00800           0
     54168 W2       18056    TIP3     H2       HT       0.417000       1.00800           0
     54169 W2       18057    TIP3     OH2      OT      -0.834000       15.9994           0
     54170 W2       18057    TIP3     H1       HT       0.417000       1.00800           0
     54171 W2       18057    TIP3     H2       HT       0.417000       1.00800           0
     54172 W2       18058    TIP3     OH2      OT      -0.834000       15.9994           0
     54173 W2       18058    TIP3     H1       HT       0.417000       1.00800           0
     54174 W2       18058    TIP3     H2       HT       0.417000       1.00800           0
     54175 W2       18059    TIP3     OH2      OT      -0.834000       15.9994           0
     54176 W2       18059    TIP3     H1       HT       0.417000       1.00800           0
     54177 W2       18059    TIP3     H2       HT       0.417000       1.00800           0
     54178 W2       18060    TIP3     OH2      OT      -0.834000       15.9994           0
     54179 W2       18060    TIP3     H1       HT       0.417000       1.00800           0
     54180 W2       18060    TIP3     H2       HT       0.417000       1.00800           0
     54181 W2       18061    TIP3     OH2      OT      -0.834000       15.9994           0
     54182 W2       18061    TIP3     H1       HT       0.417000       1.00800           0
     54183 W2       18061    TIP3     H2       HT       0.417000       1.00800           0
     54184 W2       18062    TIP3     OH2      OT      -0.834000       15.9994           0
     54185 W2       18062    TIP3     H1       HT       0.417000       1.00800           0
     54186 W2       18062    TIP3     H2       HT       0.417000       1.00800           0
     54187 W2       18063    TIP3     OH2      OT      -0.834000       15.9994           0
     54188 W2       18063    TIP3     H1       HT       0.417000       1.00800           0
     54189 W2       18063    TIP3     H2       HT       0.417000       1.00800           0
     54190 W2       18064    TIP3     OH2      OT      -0.834000       15.9994           0
     54191 W2       18064    TIP3     H1       HT       0.417000       1.00800           0
     54192 W2       18064    TIP3     H2       HT       0.417000       1.00800           0
     54193 W2       18065    TIP3     OH2      OT      -0.834000       15.9994           0
     54194 W2       18065    TIP3     H1       HT       0.417000       1.00800           0
     54195 W2       18065    TIP3     H2       HT       0.417000       1.00800           0
     54196 W2       18066    TIP3     OH2      OT      -0.834000       15.9994           0
     54197 W2       18066    TIP3     H1       HT       0.417000       1.00800           0
     54198 W2       18066    TIP3     H2       HT       0.417000       1.00800           0
     54199 W2       18067    TIP3     OH2      OT      -0.834000       15.9994           0
     54200 W2       18067    TIP3     H1       HT       0.417000       1.00800           0
     54201 W2       18067    TIP3     H2       HT       0.417000       1.00800           0
     54202 W2       18068    TIP3     OH2      OT      -0.834000       15.9994           0
     54203 W2       18068    TIP3     H1       HT       0.417000       1.00800           0
     54204 W2       18068    TIP3     H2       HT       0.417000       1.00800           0
     54205 W2       18069    TIP3     OH2      OT      -0.834000       15.9994           0
     54206 W2       18069    TIP3     H1       HT       0.417000       1.00800           0
     54207 W2       18069    TIP3     H2       HT       0.417000       1.00800           0
     54208 W2       18070    TIP3     OH2      OT      -0.834000       15.9994           0
     54209 W2       18070    TIP3     H1       HT       0.417000       1.00800           0
     54210 W2       18070    TIP3     H2       HT       0.417000       1.00800           0
     54211 W2       18071    TIP3     OH2      OT      -0.834000       15.9994           0
     54212 W2       18071    TIP3     H1       HT       0.417000       1.00800           0
     54213 W2       18071    TIP3     H2       HT       0.417000       1.00800           0
     54214 W2       18072    TIP3     OH2      OT      -0.834000       15.9994           0
     54215 W2       18072    TIP3     H1       HT       0.417000       1.00800           0
     54216 W2       18072    TIP3     H2       HT       0.417000       1.00800           0
     54217 W2       18073    TIP3     OH2      OT      -0.834000       15.9994           0
     54218 W2       18073    TIP3     H1       HT       0.417000       1.00800           0
     54219 W2       18073    TIP3     H2       HT       0.417000       1.00800           0
     54220 W2       18074    TIP3     OH2      OT      -0.834000       15.9994           0
     54221 W2       18074    TIP3     H1       HT       0.417000       1.00800           0
     54222 W2       18074    TIP3     H2       HT       0.417000       1.00800           0
     54223 W2       18075    TIP3     OH2      OT      -0.834000       15.9994           0
     54224 W2       18075    TIP3     H1       HT       0.417000       1.00800           0
     54225 W2       18075    TIP3     H2       HT       0.417000       1.00800           0
     54226 W2       18076    TIP3     OH2      OT      -0.834000       15.9994           0
     54227 W2       18076    TIP3     H1       HT       0.417000       1.00800           0
     54228 W2       18076    TIP3     H2       HT       0.417000       1.00800           0
     54229 W2       18077    TIP3     OH2      OT      -0.834000       15.9994           0
     54230 W2       18077    TIP3     H1       HT       0.417000       1.00800           0
     54231 W2       18077    TIP3     H2       HT       0.417000       1.00800           0
     54232 W2       18078    TIP3     OH2      OT      -0.834000       15.9994           0
     54233 W2       18078    TIP3     H1       HT       0.417000       1.00800           0
     54234 W2       18078    TIP3     H2       HT       0.417000       1.00800           0
     54235 W2       18079    TIP3     OH2      OT      -0.834000       15.9994           0
     54236 W2       18079    TIP3     H1       HT       0.417000       1.00800           0
     54237 W2       18079    TIP3     H2       HT       0.417000       1.00800           0
     54238 W2       18080    TIP3     OH2      OT      -0.834000       15.9994           0
     54239 W2       18080    TIP3     H1       HT       0.417000       1.00800           0
     54240 W2       18080    TIP3     H2       HT       0.417000       1.00800           0
     54241 W2       18081    TIP3     OH2      OT      -0.834000       15.9994           0
     54242 W2       18081    TIP3     H1       HT       0.417000       1.00800           0
     54243 W2       18081    TIP3     H2       HT       0.417000       1.00800           0
     54244 W2       18082    TIP3     OH2      OT      -0.834000       15.9994           0
     54245 W2       18082    TIP3     H1       HT       0.417000       1.00800           0
     54246 W2       18082    TIP3     H2       HT       0.417000       1.00800           0
     54247 W2       18083    TIP3     OH2      OT      -0.834000       15.9994           0
     54248 W2       18083    TIP3     H1       HT       0.417000       1.00800           0
     54249 W2       18083    TIP3     H2       HT       0.417000       1.00800           0
     54250 W2       18084    TIP3     OH2      OT      -0.834000       15.9994           0
     54251 W2       18084    TIP3     H1       HT       0.417000       1.00800           0
     54252 W2       18084    TIP3     H2       HT       0.417000       1.00800           0
     54253 W2       18085    TIP3     OH2      OT      -0.834000       15.9994           0
     54254 W2       18085    TIP3     H1       HT       0.417000       1.00800           0
     54255 W2       18085    TIP3     H2       HT       0.417000       1.00800           0
     54256 W2       18086    TIP3     OH2      OT      -0.834000       15.9994           0
     54257 W2       18086    TIP3     H1       HT       0.417000       1.00800           0
     54258 W2       18086    TIP3     H2       HT       0.417000       1.00800           0
     54259 W2       18087    TIP3     OH2      OT      -0.834000       15.9994           0
     54260 W2       18087    TIP3     H1       HT       0.417000       1.00800           0
     54261 W2       18087    TIP3     H2       HT       0.417000       1.00800           0
     54262 W2       18088    TIP3     OH2      OT      -0.834000       15.9994           0
     54263 W2       18088    TIP3     H1       HT       0.417000       1.00800           0
     54264 W2       18088    TIP3     H2       HT       0.417000       1.00800           0
     54265 W2       18089    TIP3     OH2      OT      -0.834000       15.9994           0
     54266 W2       18089    TIP3     H1       HT       0.417000       1.00800           0
     54267 W2       18089    TIP3     H2       HT       0.417000       1.00800           0
     54268 W2       18090    TIP3     OH2      OT      -0.834000       15.9994           0
     54269 W2       18090    TIP3     H1       HT       0.417000       1.00800           0
     54270 W2       18090    TIP3     H2       HT       0.417000       1.00800           0
     54271 W2       18091    TIP3     OH2      OT      -0.834000       15.9994           0
     54272 W2       18091    TIP3     H1       HT       0.417000       1.00800           0
     54273 W2       18091    TIP3     H2       HT       0.417000       1.00800           0
     54274 W2       18092    TIP3     OH2      OT      -0.834000       15.9994           0
     54275 W2       18092    TIP3     H1       HT       0.417000       1.00800           0
     54276 W2       18092    TIP3     H2       HT       0.417000       1.00800           0
     54277 W2       18093    TIP3     OH2      OT      -0.834000       15.9994           0
     54278 W2       18093    TIP3     H1       HT       0.417000       1.00800           0
     54279 W2       18093    TIP3     H2       HT       0.417000       1.00800           0
     54280 W2       18094    TIP3     OH2      OT      -0.834000       15.9994           0
     54281 W2       18094    TIP3     H1       HT       0.417000       1.00800           0
     54282 W2       18094    TIP3     H2       HT       0.417000       1.00800           0
     54283 W2       18095    TIP3     OH2      OT      -0.834000       15.9994           0
     54284 W2       18095    TIP3     H1       HT       0.417000       1.00800           0
     54285 W2       18095    TIP3     H2       HT       0.417000       1.00800           0
     54286 W2       18096    TIP3     OH2      OT      -0.834000       15.9994           0
     54287 W2       18096    TIP3     H1       HT       0.417000       1.00800           0
     54288 W2       18096    TIP3     H2       HT       0.417000       1.00800           0
     54289 W2       18097    TIP3     OH2      OT      -0.834000       15.9994           0
     54290 W2       18097    TIP3     H1       HT       0.417000       1.00800           0
     54291 W2       18097    TIP3     H2       HT       0.417000       1.00800           0
     54292 W2       18098    TIP3     OH2      OT      -0.834000       15.9994           0
     54293 W2       18098    TIP3     H1       HT       0.417000       1.00800           0
     54294 W2       18098    TIP3     H2       HT       0.417000       1.00800           0
     54295 W2       18099    TIP3     OH2      OT      -0.834000       15.9994           0
     54296 W2       18099    TIP3     H1       HT       0.417000       1.00800           0
     54297 W2       18099    TIP3     H2       HT       0.417000       1.00800           0
     54298 W2       18100    TIP3     OH2      OT      -0.834000       15.9994           0
     54299 W2       18100    TIP3     H1       HT       0.417000       1.00800           0
     54300 W2       18100    TIP3     H2       HT       0.417000       1.00800           0
     54301 W2       18101    TIP3     OH2      OT      -0.834000       15.9994           0
     54302 W2       18101    TIP3     H1       HT       0.417000       1.00800           0
     54303 W2       18101    TIP3     H2       HT       0.417000       1.00800           0
     54304 W2       18102    TIP3     OH2      OT      -0.834000       15.9994           0
     54305 W2       18102    TIP3     H1       HT       0.417000       1.00800           0
     54306 W2       18102    TIP3     H2       HT       0.417000       1.00800           0
     54307 W2       18103    TIP3     OH2      OT      -0.834000       15.9994           0
     54308 W2       18103    TIP3     H1       HT       0.417000       1.00800           0
     54309 W2       18103    TIP3     H2       HT       0.417000       1.00800           0
     54310 W2       18104    TIP3     OH2      OT      -0.834000       15.9994           0
     54311 W2       18104    TIP3     H1       HT       0.417000       1.00800           0
     54312 W2       18104    TIP3     H2       HT       0.417000       1.00800           0
     54313 W2       18105    TIP3     OH2      OT      -0.834000       15.9994           0
     54314 W2       18105    TIP3     H1       HT       0.417000       1.00800           0
     54315 W2       18105    TIP3     H2       HT       0.417000       1.00800           0
     54316 W2       18106    TIP3     OH2      OT      -0.834000       15.9994           0
     54317 W2       18106    TIP3     H1       HT       0.417000       1.00800           0
     54318 W2       18106    TIP3     H2       HT       0.417000       1.00800           0
     54319 W2       18107    TIP3     OH2      OT      -0.834000       15.9994           0
     54320 W2       18107    TIP3     H1       HT       0.417000       1.00800           0
     54321 W2       18107    TIP3     H2       HT       0.417000       1.00800           0
     54322 W2       18108    TIP3     OH2      OT      -0.834000       15.9994           0
     54323 W2       18108    TIP3     H1       HT       0.417000       1.00800           0
     54324 W2       18108    TIP3     H2       HT       0.417000       1.00800           0
     54325 W2       18109    TIP3     OH2      OT      -0.834000       15.9994           0
     54326 W2       18109    TIP3     H1       HT       0.417000       1.00800           0
     54327 W2       18109    TIP3     H2       HT       0.417000       1.00800           0
     54328 W2       18110    TIP3     OH2      OT      -0.834000       15.9994           0
     54329 W2       18110    TIP3     H1       HT       0.417000       1.00800           0
     54330 W2       18110    TIP3     H2       HT       0.417000       1.00800           0
     54331 W2       18111    TIP3     OH2      OT      -0.834000       15.9994           0
     54332 W2       18111    TIP3     H1       HT       0.417000       1.00800           0
     54333 W2       18111    TIP3     H2       HT       0.417000       1.00800           0
     54334 W2       18112    TIP3     OH2      OT      -0.834000       15.9994           0
     54335 W2       18112    TIP3     H1       HT       0.417000       1.00800           0
     54336 W2       18112    TIP3     H2       HT       0.417000       1.00800           0
     54337 W2       18113    TIP3     OH2      OT      -0.834000       15.9994           0
     54338 W2       18113    TIP3     H1       HT       0.417000       1.00800           0
     54339 W2       18113    TIP3     H2       HT       0.417000       1.00800           0
     54340 W2       18114    TIP3     OH2      OT      -0.834000       15.9994           0
     54341 W2       18114    TIP3     H1       HT       0.417000       1.00800           0
     54342 W2       18114    TIP3     H2       HT       0.417000       1.00800           0
     54343 W2       18115    TIP3     OH2      OT      -0.834000       15.9994           0
     54344 W2       18115    TIP3     H1       HT       0.417000       1.00800           0
     54345 W2       18115    TIP3     H2       HT       0.417000       1.00800           0
     54346 W2       18116    TIP3     OH2      OT      -0.834000       15.9994           0
     54347 W2       18116    TIP3     H1       HT       0.417000       1.00800           0
     54348 W2       18116    TIP3     H2       HT       0.417000       1.00800           0
     54349 W2       18117    TIP3     OH2      OT      -0.834000       15.9994           0
     54350 W2       18117    TIP3     H1       HT       0.417000       1.00800           0
     54351 W2       18117    TIP3     H2       HT       0.417000       1.00800           0
     54352 W2       18118    TIP3     OH2      OT      -0.834000       15.9994           0
     54353 W2       18118    TIP3     H1       HT       0.417000       1.00800           0
     54354 W2       18118    TIP3     H2       HT       0.417000       1.00800           0
     54355 W2       18119    TIP3     OH2      OT      -0.834000       15.9994           0
     54356 W2       18119    TIP3     H1       HT       0.417000       1.00800           0
     54357 W2       18119    TIP3     H2       HT       0.417000       1.00800           0
     54358 W2       18120    TIP3     OH2      OT      -0.834000       15.9994           0
     54359 W2       18120    TIP3     H1       HT       0.417000       1.00800           0
     54360 W2       18120    TIP3     H2       HT       0.417000       1.00800           0
     54361 W2       18121    TIP3     OH2      OT      -0.834000       15.9994           0
     54362 W2       18121    TIP3     H1       HT       0.417000       1.00800           0
     54363 W2       18121    TIP3     H2       HT       0.417000       1.00800           0
     54364 W2       18122    TIP3     OH2      OT      -0.834000       15.9994           0
     54365 W2       18122    TIP3     H1       HT       0.417000       1.00800           0
     54366 W2       18122    TIP3     H2       HT       0.417000       1.00800           0
     54367 W2       18123    TIP3     OH2      OT      -0.834000       15.9994           0
     54368 W2       18123    TIP3     H1       HT       0.417000       1.00800           0
     54369 W2       18123    TIP3     H2       HT       0.417000       1.00800           0
     54370 W2       18124    TIP3     OH2      OT      -0.834000       15.9994           0
     54371 W2       18124    TIP3     H1       HT       0.417000       1.00800           0
     54372 W2       18124    TIP3     H2       HT       0.417000       1.00800           0
     54373 W2       18125    TIP3     OH2      OT      -0.834000       15.9994           0
     54374 W2       18125    TIP3     H1       HT       0.417000       1.00800           0
     54375 W2       18125    TIP3     H2       HT       0.417000       1.00800           0
     54376 W2       18126    TIP3     OH2      OT      -0.834000       15.9994           0
     54377 W2       18126    TIP3     H1       HT       0.417000       1.00800           0
     54378 W2       18126    TIP3     H2       HT       0.417000       1.00800           0
     54379 W2       18127    TIP3     OH2      OT      -0.834000       15.9994           0
     54380 W2       18127    TIP3     H1       HT       0.417000       1.00800           0
     54381 W2       18127    TIP3     H2       HT       0.417000       1.00800           0
     54382 W2       18128    TIP3     OH2      OT      -0.834000       15.9994           0
     54383 W2       18128    TIP3     H1       HT       0.417000       1.00800           0
     54384 W2       18128    TIP3     H2       HT       0.417000       1.00800           0
     54385 W2       18129    TIP3     OH2      OT      -0.834000       15.9994           0
     54386 W2       18129    TIP3     H1       HT       0.417000       1.00800           0
     54387 W2       18129    TIP3     H2       HT       0.417000       1.00800           0
     54388 W2       18130    TIP3     OH2      OT      -0.834000       15.9994           0
     54389 W2       18130    TIP3     H1       HT       0.417000       1.00800           0
     54390 W2       18130    TIP3     H2       HT       0.417000       1.00800           0
     54391 W2       18131    TIP3     OH2      OT      -0.834000       15.9994           0
     54392 W2       18131    TIP3     H1       HT       0.417000       1.00800           0
     54393 W2       18131    TIP3     H2       HT       0.417000       1.00800           0
     54394 W2       18132    TIP3     OH2      OT      -0.834000       15.9994           0
     54395 W2       18132    TIP3     H1       HT       0.417000       1.00800           0
     54396 W2       18132    TIP3     H2       HT       0.417000       1.00800           0
     54397 W2       18133    TIP3     OH2      OT      -0.834000       15.9994           0
     54398 W2       18133    TIP3     H1       HT       0.417000       1.00800           0
     54399 W2       18133    TIP3     H2       HT       0.417000       1.00800           0
     54400 W2       18134    TIP3     OH2      OT      -0.834000       15.9994           0
     54401 W2       18134    TIP3     H1       HT       0.417000       1.00800           0
     54402 W2       18134    TIP3     H2       HT       0.417000       1.00800           0
     54403 W2       18135    TIP3     OH2      OT      -0.834000       15.9994           0
     54404 W2       18135    TIP3     H1       HT       0.417000       1.00800           0
     54405 W2       18135    TIP3     H2       HT       0.417000       1.00800           0
     54406 W2       18136    TIP3     OH2      OT      -0.834000       15.9994           0
     54407 W2       18136    TIP3     H1       HT       0.417000       1.00800           0
     54408 W2       18136    TIP3     H2       HT       0.417000       1.00800           0
     54409 W2       18137    TIP3     OH2      OT      -0.834000       15.9994           0
     54410 W2       18137    TIP3     H1       HT       0.417000       1.00800           0
     54411 W2       18137    TIP3     H2       HT       0.417000       1.00800           0
     54412 W2       18138    TIP3     OH2      OT      -0.834000       15.9994           0
     54413 W2       18138    TIP3     H1       HT       0.417000       1.00800           0
     54414 W2       18138    TIP3     H2       HT       0.417000       1.00800           0
     54415 W2       18139    TIP3     OH2      OT      -0.834000       15.9994           0
     54416 W2       18139    TIP3     H1       HT       0.417000       1.00800           0
     54417 W2       18139    TIP3     H2       HT       0.417000       1.00800           0
     54418 W2       18140    TIP3     OH2      OT      -0.834000       15.9994           0
     54419 W2       18140    TIP3     H1       HT       0.417000       1.00800           0
     54420 W2       18140    TIP3     H2       HT       0.417000       1.00800           0
     54421 W2       18141    TIP3     OH2      OT      -0.834000       15.9994           0
     54422 W2       18141    TIP3     H1       HT       0.417000       1.00800           0
     54423 W2       18141    TIP3     H2       HT       0.417000       1.00800           0
     54424 W2       18142    TIP3     OH2      OT      -0.834000       15.9994           0
     54425 W2       18142    TIP3     H1       HT       0.417000       1.00800           0
     54426 W2       18142    TIP3     H2       HT       0.417000       1.00800           0
     54427 W2       18143    TIP3     OH2      OT      -0.834000       15.9994           0
     54428 W2       18143    TIP3     H1       HT       0.417000       1.00800           0
     54429 W2       18143    TIP3     H2       HT       0.417000       1.00800           0
     54430 W2       18144    TIP3     OH2      OT      -0.834000       15.9994           0
     54431 W2       18144    TIP3     H1       HT       0.417000       1.00800           0
     54432 W2       18144    TIP3     H2       HT       0.417000       1.00800           0
     54433 W2       18145    TIP3     OH2      OT      -0.834000       15.9994           0
     54434 W2       18145    TIP3     H1       HT       0.417000       1.00800           0
     54435 W2       18145    TIP3     H2       HT       0.417000       1.00800           0
     54436 W2       18146    TIP3     OH2      OT      -0.834000       15.9994           0
     54437 W2       18146    TIP3     H1       HT       0.417000       1.00800           0
     54438 W2       18146    TIP3     H2       HT       0.417000       1.00800           0
     54439 W2       18147    TIP3     OH2      OT      -0.834000       15.9994           0
     54440 W2       18147    TIP3     H1       HT       0.417000       1.00800           0
     54441 W2       18147    TIP3     H2       HT       0.417000       1.00800           0
     54442 W2       18148    TIP3     OH2      OT      -0.834000       15.9994           0
     54443 W2       18148    TIP3     H1       HT       0.417000       1.00800           0
     54444 W2       18148    TIP3     H2       HT       0.417000       1.00800           0
     54445 W2       18149    TIP3     OH2      OT      -0.834000       15.9994           0
     54446 W2       18149    TIP3     H1       HT       0.417000       1.00800           0
     54447 W2       18149    TIP3     H2       HT       0.417000       1.00800           0
     54448 W2       18150    TIP3     OH2      OT      -0.834000       15.9994           0
     54449 W2       18150    TIP3     H1       HT       0.417000       1.00800           0
     54450 W2       18150    TIP3     H2       HT       0.417000       1.00800           0
     54451 W2       18151    TIP3     OH2      OT      -0.834000       15.9994           0
     54452 W2       18151    TIP3     H1       HT       0.417000       1.00800           0
     54453 W2       18151    TIP3     H2       HT       0.417000       1.00800           0
     54454 W2       18152    TIP3     OH2      OT      -0.834000       15.9994           0
     54455 W2       18152    TIP3     H1       HT       0.417000       1.00800           0
     54456 W2       18152    TIP3     H2       HT       0.417000       1.00800           0
     54457 W2       18153    TIP3     OH2      OT      -0.834000       15.9994           0
     54458 W2       18153    TIP3     H1       HT       0.417000       1.00800           0
     54459 W2       18153    TIP3     H2       HT       0.417000       1.00800           0
     54460 W2       18154    TIP3     OH2      OT      -0.834000       15.9994           0
     54461 W2       18154    TIP3     H1       HT       0.417000       1.00800           0
     54462 W2       18154    TIP3     H2       HT       0.417000       1.00800           0
     54463 W2       18155    TIP3     OH2      OT      -0.834000       15.9994           0
     54464 W2       18155    TIP3     H1       HT       0.417000       1.00800           0
     54465 W2       18155    TIP3     H2       HT       0.417000       1.00800           0
     54466 W2       18156    TIP3     OH2      OT      -0.834000       15.9994           0
     54467 W2       18156    TIP3     H1       HT       0.417000       1.00800           0
     54468 W2       18156    TIP3     H2       HT       0.417000       1.00800           0
     54469 W2       18157    TIP3     OH2      OT      -0.834000       15.9994           0
     54470 W2       18157    TIP3     H1       HT       0.417000       1.00800           0
     54471 W2       18157    TIP3     H2       HT       0.417000       1.00800           0
     54472 W2       18158    TIP3     OH2      OT      -0.834000       15.9994           0
     54473 W2       18158    TIP3     H1       HT       0.417000       1.00800           0
     54474 W2       18158    TIP3     H2       HT       0.417000       1.00800           0
     54475 W2       18159    TIP3     OH2      OT      -0.834000       15.9994           0
     54476 W2       18159    TIP3     H1       HT       0.417000       1.00800           0
     54477 W2       18159    TIP3     H2       HT       0.417000       1.00800           0
     54478 W2       18160    TIP3     OH2      OT      -0.834000       15.9994           0
     54479 W2       18160    TIP3     H1       HT       0.417000       1.00800           0
     54480 W2       18160    TIP3     H2       HT       0.417000       1.00800           0
     54481 W2       18161    TIP3     OH2      OT      -0.834000       15.9994           0
     54482 W2       18161    TIP3     H1       HT       0.417000       1.00800           0
     54483 W2       18161    TIP3     H2       HT       0.417000       1.00800           0
     54484 W2       18162    TIP3     OH2      OT      -0.834000       15.9994           0
     54485 W2       18162    TIP3     H1       HT       0.417000       1.00800           0
     54486 W2       18162    TIP3     H2       HT       0.417000       1.00800           0
     54487 W2       18163    TIP3     OH2      OT      -0.834000       15.9994           0
     54488 W2       18163    TIP3     H1       HT       0.417000       1.00800           0
     54489 W2       18163    TIP3     H2       HT       0.417000       1.00800           0
     54490 W2       18164    TIP3     OH2      OT      -0.834000       15.9994           0
     54491 W2       18164    TIP3     H1       HT       0.417000       1.00800           0
     54492 W2       18164    TIP3     H2       HT       0.417000       1.00800           0
     54493 W2       18165    TIP3     OH2      OT      -0.834000       15.9994           0
     54494 W2       18165    TIP3     H1       HT       0.417000       1.00800           0
     54495 W2       18165    TIP3     H2       HT       0.417000       1.00800           0
     54496 W2       18166    TIP3     OH2      OT      -0.834000       15.9994           0
     54497 W2       18166    TIP3     H1       HT       0.417000       1.00800           0
     54498 W2       18166    TIP3     H2       HT       0.417000       1.00800           0
     54499 W2       18167    TIP3     OH2      OT      -0.834000       15.9994           0
     54500 W2       18167    TIP3     H1       HT       0.417000       1.00800           0
     54501 W2       18167    TIP3     H2       HT       0.417000       1.00800           0
     54502 W2       18168    TIP3     OH2      OT      -0.834000       15.9994           0
     54503 W2       18168    TIP3     H1       HT       0.417000       1.00800           0
     54504 W2       18168    TIP3     H2       HT       0.417000       1.00800           0
     54505 W2       18169    TIP3     OH2      OT      -0.834000       15.9994           0
     54506 W2       18169    TIP3     H1       HT       0.417000       1.00800           0
     54507 W2       18169    TIP3     H2       HT       0.417000       1.00800           0
     54508 W2       18170    TIP3     OH2      OT      -0.834000       15.9994           0
     54509 W2       18170    TIP3     H1       HT       0.417000       1.00800           0
     54510 W2       18170    TIP3     H2       HT       0.417000       1.00800           0
     54511 W2       18171    TIP3     OH2      OT      -0.834000       15.9994           0
     54512 W2       18171    TIP3     H1       HT       0.417000       1.00800           0
     54513 W2       18171    TIP3     H2       HT       0.417000       1.00800           0
     54514 W2       18172    TIP3     OH2      OT      -0.834000       15.9994           0
     54515 W2       18172    TIP3     H1       HT       0.417000       1.00800           0
     54516 W2       18172    TIP3     H2       HT       0.417000       1.00800           0
     54517 W2       18173    TIP3     OH2      OT      -0.834000       15.9994           0
     54518 W2       18173    TIP3     H1       HT       0.417000       1.00800           0
     54519 W2       18173    TIP3     H2       HT       0.417000       1.00800           0
     54520 W2       18174    TIP3     OH2      OT      -0.834000       15.9994           0
     54521 W2       18174    TIP3     H1       HT       0.417000       1.00800           0
     54522 W2       18174    TIP3     H2       HT       0.417000       1.00800           0
     54523 W2       18175    TIP3     OH2      OT      -0.834000       15.9994           0
     54524 W2       18175    TIP3     H1       HT       0.417000       1.00800           0
     54525 W2       18175    TIP3     H2       HT       0.417000       1.00800           0
     54526 W2       18176    TIP3     OH2      OT      -0.834000       15.9994           0
     54527 W2       18176    TIP3     H1       HT       0.417000       1.00800           0
     54528 W2       18176    TIP3     H2       HT       0.417000       1.00800           0
     54529 W2       18177    TIP3     OH2      OT      -0.834000       15.9994           0
     54530 W2       18177    TIP3     H1       HT       0.417000       1.00800           0
     54531 W2       18177    TIP3     H2       HT       0.417000       1.00800           0
     54532 W2       18178    TIP3     OH2      OT      -0.834000       15.9994           0
     54533 W2       18178    TIP3     H1       HT       0.417000       1.00800           0
     54534 W2       18178    TIP3     H2       HT       0.417000       1.00800           0
     54535 W2       18179    TIP3     OH2      OT      -0.834000       15.9994           0
     54536 W2       18179    TIP3     H1       HT       0.417000       1.00800           0
     54537 W2       18179    TIP3     H2       HT       0.417000       1.00800           0
     54538 W2       18180    TIP3     OH2      OT      -0.834000       15.9994           0
     54539 W2       18180    TIP3     H1       HT       0.417000       1.00800           0
     54540 W2       18180    TIP3     H2       HT       0.417000       1.00800           0
     54541 W2       18181    TIP3     OH2      OT      -0.834000       15.9994           0
     54542 W2       18181    TIP3     H1       HT       0.417000       1.00800           0
     54543 W2       18181    TIP3     H2       HT       0.417000       1.00800           0
     54544 W2       18182    TIP3     OH2      OT      -0.834000       15.9994           0
     54545 W2       18182    TIP3     H1       HT       0.417000       1.00800           0
     54546 W2       18182    TIP3     H2       HT       0.417000       1.00800           0
     54547 W2       18183    TIP3     OH2      OT      -0.834000       15.9994           0
     54548 W2       18183    TIP3     H1       HT       0.417000       1.00800           0
     54549 W2       18183    TIP3     H2       HT       0.417000       1.00800           0
     54550 W2       18184    TIP3     OH2      OT      -0.834000       15.9994           0
     54551 W2       18184    TIP3     H1       HT       0.417000       1.00800           0
     54552 W2       18184    TIP3     H2       HT       0.417000       1.00800           0
     54553 W2       18185    TIP3     OH2      OT      -0.834000       15.9994           0
     54554 W2       18185    TIP3     H1       HT       0.417000       1.00800           0
     54555 W2       18185    TIP3     H2       HT       0.417000       1.00800           0
     54556 W2       18186    TIP3     OH2      OT      -0.834000       15.9994           0
     54557 W2       18186    TIP3     H1       HT       0.417000       1.00800           0
     54558 W2       18186    TIP3     H2       HT       0.417000       1.00800           0
     54559 W2       18187    TIP3     OH2      OT      -0.834000       15.9994           0
     54560 W2       18187    TIP3     H1       HT       0.417000       1.00800           0
     54561 W2       18187    TIP3     H2       HT       0.417000       1.00800           0
     54562 W2       18188    TIP3     OH2      OT      -0.834000       15.9994           0
     54563 W2       18188    TIP3     H1       HT       0.417000       1.00800           0
     54564 W2       18188    TIP3     H2       HT       0.417000       1.00800           0
     54565 W2       18189    TIP3     OH2      OT      -0.834000       15.9994           0
     54566 W2       18189    TIP3     H1       HT       0.417000       1.00800           0
     54567 W2       18189    TIP3     H2       HT       0.417000       1.00800           0
     54568 W2       18190    TIP3     OH2      OT      -0.834000       15.9994           0
     54569 W2       18190    TIP3     H1       HT       0.417000       1.00800           0
     54570 W2       18190    TIP3     H2       HT       0.417000       1.00800           0
     54571 W2       18191    TIP3     OH2      OT      -0.834000       15.9994           0
     54572 W2       18191    TIP3     H1       HT       0.417000       1.00800           0
     54573 W2       18191    TIP3     H2       HT       0.417000       1.00800           0
     54574 W2       18192    TIP3     OH2      OT      -0.834000       15.9994           0
     54575 W2       18192    TIP3     H1       HT       0.417000       1.00800           0
     54576 W2       18192    TIP3     H2       HT       0.417000       1.00800           0
     54577 W2       18193    TIP3     OH2      OT      -0.834000       15.9994           0
     54578 W2       18193    TIP3     H1       HT       0.417000       1.00800           0
     54579 W2       18193    TIP3     H2       HT       0.417000       1.00800           0
     54580 W2       18194    TIP3     OH2      OT      -0.834000       15.9994           0
     54581 W2       18194    TIP3     H1       HT       0.417000       1.00800           0
     54582 W2       18194    TIP3     H2       HT       0.417000       1.00800           0
     54583 W2       18195    TIP3     OH2      OT      -0.834000       15.9994           0
     54584 W2       18195    TIP3     H1       HT       0.417000       1.00800           0
     54585 W2       18195    TIP3     H2       HT       0.417000       1.00800           0
     54586 W2       18196    TIP3     OH2      OT      -0.834000       15.9994           0
     54587 W2       18196    TIP3     H1       HT       0.417000       1.00800           0
     54588 W2       18196    TIP3     H2       HT       0.417000       1.00800           0
     54589 W2       18197    TIP3     OH2      OT      -0.834000       15.9994           0
     54590 W2       18197    TIP3     H1       HT       0.417000       1.00800           0
     54591 W2       18197    TIP3     H2       HT       0.417000       1.00800           0
     54592 W2       18198    TIP3     OH2      OT      -0.834000       15.9994           0
     54593 W2       18198    TIP3     H1       HT       0.417000       1.00800           0
     54594 W2       18198    TIP3     H2       HT       0.417000       1.00800           0
     54595 W2       18199    TIP3     OH2      OT      -0.834000       15.9994           0
     54596 W2       18199    TIP3     H1       HT       0.417000       1.00800           0
     54597 W2       18199    TIP3     H2       HT       0.417000       1.00800           0
     54598 W2       18200    TIP3     OH2      OT      -0.834000       15.9994           0
     54599 W2       18200    TIP3     H1       HT       0.417000       1.00800           0
     54600 W2       18200    TIP3     H2       HT       0.417000       1.00800           0
     54601 W2       18201    TIP3     OH2      OT      -0.834000       15.9994           0
     54602 W2       18201    TIP3     H1       HT       0.417000       1.00800           0
     54603 W2       18201    TIP3     H2       HT       0.417000       1.00800           0
     54604 W2       18202    TIP3     OH2      OT      -0.834000       15.9994           0
     54605 W2       18202    TIP3     H1       HT       0.417000       1.00800           0
     54606 W2       18202    TIP3     H2       HT       0.417000       1.00800           0
     54607 W2       18203    TIP3     OH2      OT      -0.834000       15.9994           0
     54608 W2       18203    TIP3     H1       HT       0.417000       1.00800           0
     54609 W2       18203    TIP3     H2       HT       0.417000       1.00800           0
     54610 W2       18204    TIP3     OH2      OT      -0.834000       15.9994           0
     54611 W2       18204    TIP3     H1       HT       0.417000       1.00800           0
     54612 W2       18204    TIP3     H2       HT       0.417000       1.00800           0
     54613 W2       18205    TIP3     OH2      OT      -0.834000       15.9994           0
     54614 W2       18205    TIP3     H1       HT       0.417000       1.00800           0
     54615 W2       18205    TIP3     H2       HT       0.417000       1.00800           0
     54616 W2       18206    TIP3     OH2      OT      -0.834000       15.9994           0
     54617 W2       18206    TIP3     H1       HT       0.417000       1.00800           0
     54618 W2       18206    TIP3     H2       HT       0.417000       1.00800           0
     54619 W2       18207    TIP3     OH2      OT      -0.834000       15.9994           0
     54620 W2       18207    TIP3     H1       HT       0.417000       1.00800           0
     54621 W2       18207    TIP3     H2       HT       0.417000       1.00800           0
     54622 W2       18208    TIP3     OH2      OT      -0.834000       15.9994           0
     54623 W2       18208    TIP3     H1       HT       0.417000       1.00800           0
     54624 W2       18208    TIP3     H2       HT       0.417000       1.00800           0
     54625 W2       18209    TIP3     OH2      OT      -0.834000       15.9994           0
     54626 W2       18209    TIP3     H1       HT       0.417000       1.00800           0
     54627 W2       18209    TIP3     H2       HT       0.417000       1.00800           0
     54628 W2       18210    TIP3     OH2      OT      -0.834000       15.9994           0
     54629 W2       18210    TIP3     H1       HT       0.417000       1.00800           0
     54630 W2       18210    TIP3     H2       HT       0.417000       1.00800           0
     54631 W2       18211    TIP3     OH2      OT      -0.834000       15.9994           0
     54632 W2       18211    TIP3     H1       HT       0.417000       1.00800           0
     54633 W2       18211    TIP3     H2       HT       0.417000       1.00800           0
     54634 W2       18212    TIP3     OH2      OT      -0.834000       15.9994           0
     54635 W2       18212    TIP3     H1       HT       0.417000       1.00800           0
     54636 W2       18212    TIP3     H2       HT       0.417000       1.00800           0
     54637 W2       18213    TIP3     OH2      OT      -0.834000       15.9994           0
     54638 W2       18213    TIP3     H1       HT       0.417000       1.00800           0
     54639 W2       18213    TIP3     H2       HT       0.417000       1.00800           0
     54640 W2       18214    TIP3     OH2      OT      -0.834000       15.9994           0
     54641 W2       18214    TIP3     H1       HT       0.417000       1.00800           0
     54642 W2       18214    TIP3     H2       HT       0.417000       1.00800           0
     54643 W2       18215    TIP3     OH2      OT      -0.834000       15.9994           0
     54644 W2       18215    TIP3     H1       HT       0.417000       1.00800           0
     54645 W2       18215    TIP3     H2       HT       0.417000       1.00800           0
     54646 W2       18216    TIP3     OH2      OT      -0.834000       15.9994           0
     54647 W2       18216    TIP3     H1       HT       0.417000       1.00800           0
     54648 W2       18216    TIP3     H2       HT       0.417000       1.00800           0
     54649 W2       18217    TIP3     OH2      OT      -0.834000       15.9994           0
     54650 W2       18217    TIP3     H1       HT       0.417000       1.00800           0
     54651 W2       18217    TIP3     H2       HT       0.417000       1.00800           0
     54652 W2       18218    TIP3     OH2      OT      -0.834000       15.9994           0
     54653 W2       18218    TIP3     H1       HT       0.417000       1.00800           0
     54654 W2       18218    TIP3     H2       HT       0.417000       1.00800           0
     54655 W2       18219    TIP3     OH2      OT      -0.834000       15.9994           0
     54656 W2       18219    TIP3     H1       HT       0.417000       1.00800           0
     54657 W2       18219    TIP3     H2       HT       0.417000       1.00800           0
     54658 W2       18220    TIP3     OH2      OT      -0.834000       15.9994           0
     54659 W2       18220    TIP3     H1       HT       0.417000       1.00800           0
     54660 W2       18220    TIP3     H2       HT       0.417000       1.00800           0
     54661 W2       18221    TIP3     OH2      OT      -0.834000       15.9994           0
     54662 W2       18221    TIP3     H1       HT       0.417000       1.00800           0
     54663 W2       18221    TIP3     H2       HT       0.417000       1.00800           0
     54664 W2       18222    TIP3     OH2      OT      -0.834000       15.9994           0
     54665 W2       18222    TIP3     H1       HT       0.417000       1.00800           0
     54666 W2       18222    TIP3     H2       HT       0.417000       1.00800           0
     54667 W2       18223    TIP3     OH2      OT      -0.834000       15.9994           0
     54668 W2       18223    TIP3     H1       HT       0.417000       1.00800           0
     54669 W2       18223    TIP3     H2       HT       0.417000       1.00800           0
     54670 W2       18224    TIP3     OH2      OT      -0.834000       15.9994           0
     54671 W2       18224    TIP3     H1       HT       0.417000       1.00800           0
     54672 W2       18224    TIP3     H2       HT       0.417000       1.00800           0
     54673 W2       18225    TIP3     OH2      OT      -0.834000       15.9994           0
     54674 W2       18225    TIP3     H1       HT       0.417000       1.00800           0
     54675 W2       18225    TIP3     H2       HT       0.417000       1.00800           0
     54676 W2       18226    TIP3     OH2      OT      -0.834000       15.9994           0
     54677 W2       18226    TIP3     H1       HT       0.417000       1.00800           0
     54678 W2       18226    TIP3     H2       HT       0.417000       1.00800           0
     54679 W2       18227    TIP3     OH2      OT      -0.834000       15.9994           0
     54680 W2       18227    TIP3     H1       HT       0.417000       1.00800           0
     54681 W2       18227    TIP3     H2       HT       0.417000       1.00800           0
     54682 W2       18228    TIP3     OH2      OT      -0.834000       15.9994           0
     54683 W2       18228    TIP3     H1       HT       0.417000       1.00800           0
     54684 W2       18228    TIP3     H2       HT       0.417000       1.00800           0
     54685 W2       18229    TIP3     OH2      OT      -0.834000       15.9994           0
     54686 W2       18229    TIP3     H1       HT       0.417000       1.00800           0
     54687 W2       18229    TIP3     H2       HT       0.417000       1.00800           0
     54688 W2       18230    TIP3     OH2      OT      -0.834000       15.9994           0
     54689 W2       18230    TIP3     H1       HT       0.417000       1.00800           0
     54690 W2       18230    TIP3     H2       HT       0.417000       1.00800           0
     54691 W2       18231    TIP3     OH2      OT      -0.834000       15.9994           0
     54692 W2       18231    TIP3     H1       HT       0.417000       1.00800           0
     54693 W2       18231    TIP3     H2       HT       0.417000       1.00800           0
     54694 W2       18232    TIP3     OH2      OT      -0.834000       15.9994           0
     54695 W2       18232    TIP3     H1       HT       0.417000       1.00800           0
     54696 W2       18232    TIP3     H2       HT       0.417000       1.00800           0
     54697 W2       18233    TIP3     OH2      OT      -0.834000       15.9994           0
     54698 W2       18233    TIP3     H1       HT       0.417000       1.00800           0
     54699 W2       18233    TIP3     H2       HT       0.417000       1.00800           0
     54700 W2       18234    TIP3     OH2      OT      -0.834000       15.9994           0
     54701 W2       18234    TIP3     H1       HT       0.417000       1.00800           0
     54702 W2       18234    TIP3     H2       HT       0.417000       1.00800           0
     54703 W2       18235    TIP3     OH2      OT      -0.834000       15.9994           0
     54704 W2       18235    TIP3     H1       HT       0.417000       1.00800           0
     54705 W2       18235    TIP3     H2       HT       0.417000       1.00800           0
     54706 W2       18236    TIP3     OH2      OT      -0.834000       15.9994           0
     54707 W2       18236    TIP3     H1       HT       0.417000       1.00800           0
     54708 W2       18236    TIP3     H2       HT       0.417000       1.00800           0
     54709 W2       18237    TIP3     OH2      OT      -0.834000       15.9994           0
     54710 W2       18237    TIP3     H1       HT       0.417000       1.00800           0
     54711 W2       18237    TIP3     H2       HT       0.417000       1.00800           0
     54712 W2       18238    TIP3     OH2      OT      -0.834000       15.9994           0
     54713 W2       18238    TIP3     H1       HT       0.417000       1.00800           0
     54714 W2       18238    TIP3     H2       HT       0.417000       1.00800           0
     54715 W2       18239    TIP3     OH2      OT      -0.834000       15.9994           0
     54716 W2       18239    TIP3     H1       HT       0.417000       1.00800           0
     54717 W2       18239    TIP3     H2       HT       0.417000       1.00800           0
     54718 W2       18240    TIP3     OH2      OT      -0.834000       15.9994           0
     54719 W2       18240    TIP3     H1       HT       0.417000       1.00800           0
     54720 W2       18240    TIP3     H2       HT       0.417000       1.00800           0
     54721 W2       18241    TIP3     OH2      OT      -0.834000       15.9994           0
     54722 W2       18241    TIP3     H1       HT       0.417000       1.00800           0
     54723 W2       18241    TIP3     H2       HT       0.417000       1.00800           0
     54724 W2       18242    TIP3     OH2      OT      -0.834000       15.9994           0
     54725 W2       18242    TIP3     H1       HT       0.417000       1.00800           0
     54726 W2       18242    TIP3     H2       HT       0.417000       1.00800           0
     54727 W2       18243    TIP3     OH2      OT      -0.834000       15.9994           0
     54728 W2       18243    TIP3     H1       HT       0.417000       1.00800           0
     54729 W2       18243    TIP3     H2       HT       0.417000       1.00800           0
     54730 W2       18244    TIP3     OH2      OT      -0.834000       15.9994           0
     54731 W2       18244    TIP3     H1       HT       0.417000       1.00800           0
     54732 W2       18244    TIP3     H2       HT       0.417000       1.00800           0
     54733 W2       18245    TIP3     OH2      OT      -0.834000       15.9994           0
     54734 W2       18245    TIP3     H1       HT       0.417000       1.00800           0
     54735 W2       18245    TIP3     H2       HT       0.417000       1.00800           0
     54736 W2       18246    TIP3     OH2      OT      -0.834000       15.9994           0
     54737 W2       18246    TIP3     H1       HT       0.417000       1.00800           0
     54738 W2       18246    TIP3     H2       HT       0.417000       1.00800           0
     54739 W2       18247    TIP3     OH2      OT      -0.834000       15.9994           0
     54740 W2       18247    TIP3     H1       HT       0.417000       1.00800           0
     54741 W2       18247    TIP3     H2       HT       0.417000       1.00800           0
     54742 W2       18248    TIP3     OH2      OT      -0.834000       15.9994           0
     54743 W2       18248    TIP3     H1       HT       0.417000       1.00800           0
     54744 W2       18248    TIP3     H2       HT       0.417000       1.00800           0
     54745 W2       18249    TIP3     OH2      OT      -0.834000       15.9994           0
     54746 W2       18249    TIP3     H1       HT       0.417000       1.00800           0
     54747 W2       18249    TIP3     H2       HT       0.417000       1.00800           0
     54748 W2       18250    TIP3     OH2      OT      -0.834000       15.9994           0
     54749 W2       18250    TIP3     H1       HT       0.417000       1.00800           0
     54750 W2       18250    TIP3     H2       HT       0.417000       1.00800           0
     54751 W2       18251    TIP3     OH2      OT      -0.834000       15.9994           0
     54752 W2       18251    TIP3     H1       HT       0.417000       1.00800           0
     54753 W2       18251    TIP3     H2       HT       0.417000       1.00800           0
     54754 W2       18252    TIP3     OH2      OT      -0.834000       15.9994           0
     54755 W2       18252    TIP3     H1       HT       0.417000       1.00800           0
     54756 W2       18252    TIP3     H2       HT       0.417000       1.00800           0
     54757 W2       18253    TIP3     OH2      OT      -0.834000       15.9994           0
     54758 W2       18253    TIP3     H1       HT       0.417000       1.00800           0
     54759 W2       18253    TIP3     H2       HT       0.417000       1.00800           0
     54760 W2       18254    TIP3     OH2      OT      -0.834000       15.9994           0
     54761 W2       18254    TIP3     H1       HT       0.417000       1.00800           0
     54762 W2       18254    TIP3     H2       HT       0.417000       1.00800           0
     54763 W2       18255    TIP3     OH2      OT      -0.834000       15.9994           0
     54764 W2       18255    TIP3     H1       HT       0.417000       1.00800           0
     54765 W2       18255    TIP3     H2       HT       0.417000       1.00800           0
     54766 W2       18256    TIP3     OH2      OT      -0.834000       15.9994           0
     54767 W2       18256    TIP3     H1       HT       0.417000       1.00800           0
     54768 W2       18256    TIP3     H2       HT       0.417000       1.00800           0
     54769 W2       18257    TIP3     OH2      OT      -0.834000       15.9994           0
     54770 W2       18257    TIP3     H1       HT       0.417000       1.00800           0
     54771 W2       18257    TIP3     H2       HT       0.417000       1.00800           0
     54772 W2       18258    TIP3     OH2      OT      -0.834000       15.9994           0
     54773 W2       18258    TIP3     H1       HT       0.417000       1.00800           0
     54774 W2       18258    TIP3     H2       HT       0.417000       1.00800           0
     54775 W2       18259    TIP3     OH2      OT      -0.834000       15.9994           0
     54776 W2       18259    TIP3     H1       HT       0.417000       1.00800           0
     54777 W2       18259    TIP3     H2       HT       0.417000       1.00800           0
     54778 W2       18260    TIP3     OH2      OT      -0.834000       15.9994           0
     54779 W2       18260    TIP3     H1       HT       0.417000       1.00800           0
     54780 W2       18260    TIP3     H2       HT       0.417000       1.00800           0
     54781 W2       18261    TIP3     OH2      OT      -0.834000       15.9994           0
     54782 W2       18261    TIP3     H1       HT       0.417000       1.00800           0
     54783 W2       18261    TIP3     H2       HT       0.417000       1.00800           0
     54784 W2       18262    TIP3     OH2      OT      -0.834000       15.9994           0
     54785 W2       18262    TIP3     H1       HT       0.417000       1.00800           0
     54786 W2       18262    TIP3     H2       HT       0.417000       1.00800           0
     54787 W2       18263    TIP3     OH2      OT      -0.834000       15.9994           0
     54788 W2       18263    TIP3     H1       HT       0.417000       1.00800           0
     54789 W2       18263    TIP3     H2       HT       0.417000       1.00800           0
     54790 W2       18264    TIP3     OH2      OT      -0.834000       15.9994           0
     54791 W2       18264    TIP3     H1       HT       0.417000       1.00800           0
     54792 W2       18264    TIP3     H2       HT       0.417000       1.00800           0
     54793 W2       18265    TIP3     OH2      OT      -0.834000       15.9994           0
     54794 W2       18265    TIP3     H1       HT       0.417000       1.00800           0
     54795 W2       18265    TIP3     H2       HT       0.417000       1.00800           0
     54796 W2       18266    TIP3     OH2      OT      -0.834000       15.9994           0
     54797 W2       18266    TIP3     H1       HT       0.417000       1.00800           0
     54798 W2       18266    TIP3     H2       HT       0.417000       1.00800           0
     54799 W2       18267    TIP3     OH2      OT      -0.834000       15.9994           0
     54800 W2       18267    TIP3     H1       HT       0.417000       1.00800           0
     54801 W2       18267    TIP3     H2       HT       0.417000       1.00800           0
     54802 W2       18268    TIP3     OH2      OT      -0.834000       15.9994           0
     54803 W2       18268    TIP3     H1       HT       0.417000       1.00800           0
     54804 W2       18268    TIP3     H2       HT       0.417000       1.00800           0
     54805 W2       18269    TIP3     OH2      OT      -0.834000       15.9994           0
     54806 W2       18269    TIP3     H1       HT       0.417000       1.00800           0
     54807 W2       18269    TIP3     H2       HT       0.417000       1.00800           0
     54808 W2       18270    TIP3     OH2      OT      -0.834000       15.9994           0
     54809 W2       18270    TIP3     H1       HT       0.417000       1.00800           0
     54810 W2       18270    TIP3     H2       HT       0.417000       1.00800           0
     54811 W2       18271    TIP3     OH2      OT      -0.834000       15.9994           0
     54812 W2       18271    TIP3     H1       HT       0.417000       1.00800           0
     54813 W2       18271    TIP3     H2       HT       0.417000       1.00800           0
     54814 W2       18272    TIP3     OH2      OT      -0.834000       15.9994           0
     54815 W2       18272    TIP3     H1       HT       0.417000       1.00800           0
     54816 W2       18272    TIP3     H2       HT       0.417000       1.00800           0
     54817 W2       18273    TIP3     OH2      OT      -0.834000       15.9994           0
     54818 W2       18273    TIP3     H1       HT       0.417000       1.00800           0
     54819 W2       18273    TIP3     H2       HT       0.417000       1.00800           0
     54820 W2       18274    TIP3     OH2      OT      -0.834000       15.9994           0
     54821 W2       18274    TIP3     H1       HT       0.417000       1.00800           0
     54822 W2       18274    TIP3     H2       HT       0.417000       1.00800           0
     54823 W2       18275    TIP3     OH2      OT      -0.834000       15.9994           0
     54824 W2       18275    TIP3     H1       HT       0.417000       1.00800           0
     54825 W2       18275    TIP3     H2       HT       0.417000       1.00800           0
     54826 W2       18276    TIP3     OH2      OT      -0.834000       15.9994           0
     54827 W2       18276    TIP3     H1       HT       0.417000       1.00800           0
     54828 W2       18276    TIP3     H2       HT       0.417000       1.00800           0
     54829 W2       18277    TIP3     OH2      OT      -0.834000       15.9994           0
     54830 W2       18277    TIP3     H1       HT       0.417000       1.00800           0
     54831 W2       18277    TIP3     H2       HT       0.417000       1.00800           0
     54832 W2       18278    TIP3     OH2      OT      -0.834000       15.9994           0
     54833 W2       18278    TIP3     H1       HT       0.417000       1.00800           0
     54834 W2       18278    TIP3     H2       HT       0.417000       1.00800           0
     54835 W2       18279    TIP3     OH2      OT      -0.834000       15.9994           0
     54836 W2       18279    TIP3     H1       HT       0.417000       1.00800           0
     54837 W2       18279    TIP3     H2       HT       0.417000       1.00800           0
     54838 W2       18280    TIP3     OH2      OT      -0.834000       15.9994           0
     54839 W2       18280    TIP3     H1       HT       0.417000       1.00800           0
     54840 W2       18280    TIP3     H2       HT       0.417000       1.00800           0
     54841 W2       18281    TIP3     OH2      OT      -0.834000       15.9994           0
     54842 W2       18281    TIP3     H1       HT       0.417000       1.00800           0
     54843 W2       18281    TIP3     H2       HT       0.417000       1.00800           0
     54844 W2       18282    TIP3     OH2      OT      -0.834000       15.9994           0
     54845 W2       18282    TIP3     H1       HT       0.417000       1.00800           0
     54846 W2       18282    TIP3     H2       HT       0.417000       1.00800           0
     54847 W2       18283    TIP3     OH2      OT      -0.834000       15.9994           0
     54848 W2       18283    TIP3     H1       HT       0.417000       1.00800           0
     54849 W2       18283    TIP3     H2       HT       0.417000       1.00800           0
     54850 W2       18284    TIP3     OH2      OT      -0.834000       15.9994           0
     54851 W2       18284    TIP3     H1       HT       0.417000       1.00800           0
     54852 W2       18284    TIP3     H2       HT       0.417000       1.00800           0
     54853 W2       18285    TIP3     OH2      OT      -0.834000       15.9994           0
     54854 W2       18285    TIP3     H1       HT       0.417000       1.00800           0
     54855 W2       18285    TIP3     H2       HT       0.417000       1.00800           0
     54856 W2       18286    TIP3     OH2      OT      -0.834000       15.9994           0
     54857 W2       18286    TIP3     H1       HT       0.417000       1.00800           0
     54858 W2       18286    TIP3     H2       HT       0.417000       1.00800           0
     54859 W2       18287    TIP3     OH2      OT      -0.834000       15.9994           0
     54860 W2       18287    TIP3     H1       HT       0.417000       1.00800           0
     54861 W2       18287    TIP3     H2       HT       0.417000       1.00800           0
     54862 W2       18288    TIP3     OH2      OT      -0.834000       15.9994           0
     54863 W2       18288    TIP3     H1       HT       0.417000       1.00800           0
     54864 W2       18288    TIP3     H2       HT       0.417000       1.00800           0
     54865 W2       18289    TIP3     OH2      OT      -0.834000       15.9994           0
     54866 W2       18289    TIP3     H1       HT       0.417000       1.00800           0
     54867 W2       18289    TIP3     H2       HT       0.417000       1.00800           0
     54868 W2       18290    TIP3     OH2      OT      -0.834000       15.9994           0
     54869 W2       18290    TIP3     H1       HT       0.417000       1.00800           0
     54870 W2       18290    TIP3     H2       HT       0.417000       1.00800           0
     54871 W2       18291    TIP3     OH2      OT      -0.834000       15.9994           0
     54872 W2       18291    TIP3     H1       HT       0.417000       1.00800           0
     54873 W2       18291    TIP3     H2       HT       0.417000       1.00800           0
     54874 W2       18292    TIP3     OH2      OT      -0.834000       15.9994           0
     54875 W2       18292    TIP3     H1       HT       0.417000       1.00800           0
     54876 W2       18292    TIP3     H2       HT       0.417000       1.00800           0
     54877 W2       18293    TIP3     OH2      OT      -0.834000       15.9994           0
     54878 W2       18293    TIP3     H1       HT       0.417000       1.00800           0
     54879 W2       18293    TIP3     H2       HT       0.417000       1.00800           0
     54880 W2       18294    TIP3     OH2      OT      -0.834000       15.9994           0
     54881 W2       18294    TIP3     H1       HT       0.417000       1.00800           0
     54882 W2       18294    TIP3     H2       HT       0.417000       1.00800           0
     54883 W2       18295    TIP3     OH2      OT      -0.834000       15.9994           0
     54884 W2       18295    TIP3     H1       HT       0.417000       1.00800           0
     54885 W2       18295    TIP3     H2       HT       0.417000       1.00800           0
     54886 W2       18296    TIP3     OH2      OT      -0.834000       15.9994           0
     54887 W2       18296    TIP3     H1       HT       0.417000       1.00800           0
     54888 W2       18296    TIP3     H2       HT       0.417000       1.00800           0
     54889 W2       18297    TIP3     OH2      OT      -0.834000       15.9994           0
     54890 W2       18297    TIP3     H1       HT       0.417000       1.00800           0
     54891 W2       18297    TIP3     H2       HT       0.417000       1.00800           0
     54892 W2       18298    TIP3     OH2      OT      -0.834000       15.9994           0
     54893 W2       18298    TIP3     H1       HT       0.417000       1.00800           0
     54894 W2       18298    TIP3     H2       HT       0.417000       1.00800           0
     54895 W2       18299    TIP3     OH2      OT      -0.834000       15.9994           0
     54896 W2       18299    TIP3     H1       HT       0.417000       1.00800           0
     54897 W2       18299    TIP3     H2       HT       0.417000       1.00800           0
     54898 W2       18300    TIP3     OH2      OT      -0.834000       15.9994           0
     54899 W2       18300    TIP3     H1       HT       0.417000       1.00800           0
     54900 W2       18300    TIP3     H2       HT       0.417000       1.00800           0
     54901 W2       18301    TIP3     OH2      OT      -0.834000       15.9994           0
     54902 W2       18301    TIP3     H1       HT       0.417000       1.00800           0
     54903 W2       18301    TIP3     H2       HT       0.417000       1.00800           0
     54904 W2       18302    TIP3     OH2      OT      -0.834000       15.9994           0
     54905 W2       18302    TIP3     H1       HT       0.417000       1.00800           0
     54906 W2       18302    TIP3     H2       HT       0.417000       1.00800           0
     54907 W2       18303    TIP3     OH2      OT      -0.834000       15.9994           0
     54908 W2       18303    TIP3     H1       HT       0.417000       1.00800           0
     54909 W2       18303    TIP3     H2       HT       0.417000       1.00800           0
     54910 W2       18304    TIP3     OH2      OT      -0.834000       15.9994           0
     54911 W2       18304    TIP3     H1       HT       0.417000       1.00800           0
     54912 W2       18304    TIP3     H2       HT       0.417000       1.00800           0
     54913 W2       18305    TIP3     OH2      OT      -0.834000       15.9994           0
     54914 W2       18305    TIP3     H1       HT       0.417000       1.00800           0
     54915 W2       18305    TIP3     H2       HT       0.417000       1.00800           0
     54916 W2       18306    TIP3     OH2      OT      -0.834000       15.9994           0
     54917 W2       18306    TIP3     H1       HT       0.417000       1.00800           0
     54918 W2       18306    TIP3     H2       HT       0.417000       1.00800           0
     54919 W2       18307    TIP3     OH2      OT      -0.834000       15.9994           0
     54920 W2       18307    TIP3     H1       HT       0.417000       1.00800           0
     54921 W2       18307    TIP3     H2       HT       0.417000       1.00800           0
     54922 W2       18308    TIP3     OH2      OT      -0.834000       15.9994           0
     54923 W2       18308    TIP3     H1       HT       0.417000       1.00800           0
     54924 W2       18308    TIP3     H2       HT       0.417000       1.00800           0
     54925 W2       18309    TIP3     OH2      OT      -0.834000       15.9994           0
     54926 W2       18309    TIP3     H1       HT       0.417000       1.00800           0
     54927 W2       18309    TIP3     H2       HT       0.417000       1.00800           0
     54928 W2       18310    TIP3     OH2      OT      -0.834000       15.9994           0
     54929 W2       18310    TIP3     H1       HT       0.417000       1.00800           0
     54930 W2       18310    TIP3     H2       HT       0.417000       1.00800           0
     54931 W2       18311    TIP3     OH2      OT      -0.834000       15.9994           0
     54932 W2       18311    TIP3     H1       HT       0.417000       1.00800           0
     54933 W2       18311    TIP3     H2       HT       0.417000       1.00800           0
     54934 W2       18312    TIP3     OH2      OT      -0.834000       15.9994           0
     54935 W2       18312    TIP3     H1       HT       0.417000       1.00800           0
     54936 W2       18312    TIP3     H2       HT       0.417000       1.00800           0
     54937 W2       18313    TIP3     OH2      OT      -0.834000       15.9994           0
     54938 W2       18313    TIP3     H1       HT       0.417000       1.00800           0
     54939 W2       18313    TIP3     H2       HT       0.417000       1.00800           0
     54940 W2       18314    TIP3     OH2      OT      -0.834000       15.9994           0
     54941 W2       18314    TIP3     H1       HT       0.417000       1.00800           0
     54942 W2       18314    TIP3     H2       HT       0.417000       1.00800           0
     54943 W2       18315    TIP3     OH2      OT      -0.834000       15.9994           0
     54944 W2       18315    TIP3     H1       HT       0.417000       1.00800           0
     54945 W2       18315    TIP3     H2       HT       0.417000       1.00800           0
     54946 W2       18316    TIP3     OH2      OT      -0.834000       15.9994           0
     54947 W2       18316    TIP3     H1       HT       0.417000       1.00800           0
     54948 W2       18316    TIP3     H2       HT       0.417000       1.00800           0
     54949 W2       18317    TIP3     OH2      OT      -0.834000       15.9994           0
     54950 W2       18317    TIP3     H1       HT       0.417000       1.00800           0
     54951 W2       18317    TIP3     H2       HT       0.417000       1.00800           0
     54952 W2       18318    TIP3     OH2      OT      -0.834000       15.9994           0
     54953 W2       18318    TIP3     H1       HT       0.417000       1.00800           0
     54954 W2       18318    TIP3     H2       HT       0.417000       1.00800           0
     54955 W2       18319    TIP3     OH2      OT      -0.834000       15.9994           0
     54956 W2       18319    TIP3     H1       HT       0.417000       1.00800           0
     54957 W2       18319    TIP3     H2       HT       0.417000       1.00800           0
     54958 W2       18320    TIP3     OH2      OT      -0.834000       15.9994           0
     54959 W2       18320    TIP3     H1       HT       0.417000       1.00800           0
     54960 W2       18320    TIP3     H2       HT       0.417000       1.00800           0
     54961 W2       18321    TIP3     OH2      OT      -0.834000       15.9994           0
     54962 W2       18321    TIP3     H1       HT       0.417000       1.00800           0
     54963 W2       18321    TIP3     H2       HT       0.417000       1.00800           0
     54964 W2       18322    TIP3     OH2      OT      -0.834000       15.9994           0
     54965 W2       18322    TIP3     H1       HT       0.417000       1.00800           0
     54966 W2       18322    TIP3     H2       HT       0.417000       1.00800           0
     54967 W2       18323    TIP3     OH2      OT      -0.834000       15.9994           0
     54968 W2       18323    TIP3     H1       HT       0.417000       1.00800           0
     54969 W2       18323    TIP3     H2       HT       0.417000       1.00800           0
     54970 W2       18324    TIP3     OH2      OT      -0.834000       15.9994           0
     54971 W2       18324    TIP3     H1       HT       0.417000       1.00800           0
     54972 W2       18324    TIP3     H2       HT       0.417000       1.00800           0
     54973 W2       18325    TIP3     OH2      OT      -0.834000       15.9994           0
     54974 W2       18325    TIP3     H1       HT       0.417000       1.00800           0
     54975 W2       18325    TIP3     H2       HT       0.417000       1.00800           0
     54976 W2       18326    TIP3     OH2      OT      -0.834000       15.9994           0
     54977 W2       18326    TIP3     H1       HT       0.417000       1.00800           0
     54978 W2       18326    TIP3     H2       HT       0.417000       1.00800           0
     54979 W2       18327    TIP3     OH2      OT      -0.834000       15.9994           0
     54980 W2       18327    TIP3     H1       HT       0.417000       1.00800           0
     54981 W2       18327    TIP3     H2       HT       0.417000       1.00800           0
     54982 W2       18328    TIP3     OH2      OT      -0.834000       15.9994           0
     54983 W2       18328    TIP3     H1       HT       0.417000       1.00800           0
     54984 W2       18328    TIP3     H2       HT       0.417000       1.00800           0
     54985 W2       18329    TIP3     OH2      OT      -0.834000       15.9994           0
     54986 W2       18329    TIP3     H1       HT       0.417000       1.00800           0
     54987 W2       18329    TIP3     H2       HT       0.417000       1.00800           0
     54988 W2       18330    TIP3     OH2      OT      -0.834000       15.9994           0
     54989 W2       18330    TIP3     H1       HT       0.417000       1.00800           0
     54990 W2       18330    TIP3     H2       HT       0.417000       1.00800           0
     54991 W2       18331    TIP3     OH2      OT      -0.834000       15.9994           0
     54992 W2       18331    TIP3     H1       HT       0.417000       1.00800           0
     54993 W2       18331    TIP3     H2       HT       0.417000       1.00800           0
     54994 W2       18332    TIP3     OH2      OT      -0.834000       15.9994           0
     54995 W2       18332    TIP3     H1       HT       0.417000       1.00800           0
     54996 W2       18332    TIP3     H2       HT       0.417000       1.00800           0
     54997 W2       18333    TIP3     OH2      OT      -0.834000       15.9994           0
     54998 W2       18333    TIP3     H1       HT       0.417000       1.00800           0
     54999 W2       18333    TIP3     H2       HT       0.417000       1.00800           0
     55000 W2       18334    TIP3     OH2      OT      -0.834000       15.9994           0
     55001 W2       18334    TIP3     H1       HT       0.417000       1.00800           0
     55002 W2       18334    TIP3     H2       HT       0.417000       1.00800           0
     55003 W2       18335    TIP3     OH2      OT      -0.834000       15.9994           0
     55004 W2       18335    TIP3     H1       HT       0.417000       1.00800           0
     55005 W2       18335    TIP3     H2       HT       0.417000       1.00800           0
     55006 W2       18336    TIP3     OH2      OT      -0.834000       15.9994           0
     55007 W2       18336    TIP3     H1       HT       0.417000       1.00800           0
     55008 W2       18336    TIP3     H2       HT       0.417000       1.00800           0
     55009 W2       18337    TIP3     OH2      OT      -0.834000       15.9994           0
     55010 W2       18337    TIP3     H1       HT       0.417000       1.00800           0
     55011 W2       18337    TIP3     H2       HT       0.417000       1.00800           0
     55012 W2       18338    TIP3     OH2      OT      -0.834000       15.9994           0
     55013 W2       18338    TIP3     H1       HT       0.417000       1.00800           0
     55014 W2       18338    TIP3     H2       HT       0.417000       1.00800           0
     55015 W2       18339    TIP3     OH2      OT      -0.834000       15.9994           0
     55016 W2       18339    TIP3     H1       HT       0.417000       1.00800           0
     55017 W2       18339    TIP3     H2       HT       0.417000       1.00800           0
     55018 W2       18340    TIP3     OH2      OT      -0.834000       15.9994           0
     55019 W2       18340    TIP3     H1       HT       0.417000       1.00800           0
     55020 W2       18340    TIP3     H2       HT       0.417000       1.00800           0
     55021 W2       18341    TIP3     OH2      OT      -0.834000       15.9994           0
     55022 W2       18341    TIP3     H1       HT       0.417000       1.00800           0
     55023 W2       18341    TIP3     H2       HT       0.417000       1.00800           0
     55024 W2       18342    TIP3     OH2      OT      -0.834000       15.9994           0
     55025 W2       18342    TIP3     H1       HT       0.417000       1.00800           0
     55026 W2       18342    TIP3     H2       HT       0.417000       1.00800           0
     55027 W2       18343    TIP3     OH2      OT      -0.834000       15.9994           0
     55028 W2       18343    TIP3     H1       HT       0.417000       1.00800           0
     55029 W2       18343    TIP3     H2       HT       0.417000       1.00800           0
     55030 W2       18344    TIP3     OH2      OT      -0.834000       15.9994           0
     55031 W2       18344    TIP3     H1       HT       0.417000       1.00800           0
     55032 W2       18344    TIP3     H2       HT       0.417000       1.00800           0
     55033 W2       18345    TIP3     OH2      OT      -0.834000       15.9994           0
     55034 W2       18345    TIP3     H1       HT       0.417000       1.00800           0
     55035 W2       18345    TIP3     H2       HT       0.417000       1.00800           0
     55036 W2       18346    TIP3     OH2      OT      -0.834000       15.9994           0
     55037 W2       18346    TIP3     H1       HT       0.417000       1.00800           0
     55038 W2       18346    TIP3     H2       HT       0.417000       1.00800           0
     55039 W2       18347    TIP3     OH2      OT      -0.834000       15.9994           0
     55040 W2       18347    TIP3     H1       HT       0.417000       1.00800           0
     55041 W2       18347    TIP3     H2       HT       0.417000       1.00800           0
     55042 W2       18348    TIP3     OH2      OT      -0.834000       15.9994           0
     55043 W2       18348    TIP3     H1       HT       0.417000       1.00800           0
     55044 W2       18348    TIP3     H2       HT       0.417000       1.00800           0
     55045 W2       18349    TIP3     OH2      OT      -0.834000       15.9994           0
     55046 W2       18349    TIP3     H1       HT       0.417000       1.00800           0
     55047 W2       18349    TIP3     H2       HT       0.417000       1.00800           0
     55048 W2       18350    TIP3     OH2      OT      -0.834000       15.9994           0
     55049 W2       18350    TIP3     H1       HT       0.417000       1.00800           0
     55050 W2       18350    TIP3     H2       HT       0.417000       1.00800           0
     55051 W2       18351    TIP3     OH2      OT      -0.834000       15.9994           0
     55052 W2       18351    TIP3     H1       HT       0.417000       1.00800           0
     55053 W2       18351    TIP3     H2       HT       0.417000       1.00800           0
     55054 W2       18352    TIP3     OH2      OT      -0.834000       15.9994           0
     55055 W2       18352    TIP3     H1       HT       0.417000       1.00800           0
     55056 W2       18352    TIP3     H2       HT       0.417000       1.00800           0
     55057 W2       18353    TIP3     OH2      OT      -0.834000       15.9994           0
     55058 W2       18353    TIP3     H1       HT       0.417000       1.00800           0
     55059 W2       18353    TIP3     H2       HT       0.417000       1.00800           0
     55060 W2       18354    TIP3     OH2      OT      -0.834000       15.9994           0
     55061 W2       18354    TIP3     H1       HT       0.417000       1.00800           0
     55062 W2       18354    TIP3     H2       HT       0.417000       1.00800           0
     55063 W2       18355    TIP3     OH2      OT      -0.834000       15.9994           0
     55064 W2       18355    TIP3     H1       HT       0.417000       1.00800           0
     55065 W2       18355    TIP3     H2       HT       0.417000       1.00800           0
     55066 W2       18356    TIP3     OH2      OT      -0.834000       15.9994           0
     55067 W2       18356    TIP3     H1       HT       0.417000       1.00800           0
     55068 W2       18356    TIP3     H2       HT       0.417000       1.00800           0
     55069 W2       18357    TIP3     OH2      OT      -0.834000       15.9994           0
     55070 W2       18357    TIP3     H1       HT       0.417000       1.00800           0
     55071 W2       18357    TIP3     H2       HT       0.417000       1.00800           0
     55072 W2       18358    TIP3     OH2      OT      -0.834000       15.9994           0
     55073 W2       18358    TIP3     H1       HT       0.417000       1.00800           0
     55074 W2       18358    TIP3     H2       HT       0.417000       1.00800           0
     55075 W2       18359    TIP3     OH2      OT      -0.834000       15.9994           0
     55076 W2       18359    TIP3     H1       HT       0.417000       1.00800           0
     55077 W2       18359    TIP3     H2       HT       0.417000       1.00800           0
     55078 W2       18360    TIP3     OH2      OT      -0.834000       15.9994           0
     55079 W2       18360    TIP3     H1       HT       0.417000       1.00800           0
     55080 W2       18360    TIP3     H2       HT       0.417000       1.00800           0
     55081 W2       18361    TIP3     OH2      OT      -0.834000       15.9994           0
     55082 W2       18361    TIP3     H1       HT       0.417000       1.00800           0
     55083 W2       18361    TIP3     H2       HT       0.417000       1.00800           0
     55084 W2       18362    TIP3     OH2      OT      -0.834000       15.9994           0
     55085 W2       18362    TIP3     H1       HT       0.417000       1.00800           0
     55086 W2       18362    TIP3     H2       HT       0.417000       1.00800           0
     55087 W2       18363    TIP3     OH2      OT      -0.834000       15.9994           0
     55088 W2       18363    TIP3     H1       HT       0.417000       1.00800           0
     55089 W2       18363    TIP3     H2       HT       0.417000       1.00800           0
     55090 W2       18364    TIP3     OH2      OT      -0.834000       15.9994           0
     55091 W2       18364    TIP3     H1       HT       0.417000       1.00800           0
     55092 W2       18364    TIP3     H2       HT       0.417000       1.00800           0
     55093 W2       18365    TIP3     OH2      OT      -0.834000       15.9994           0
     55094 W2       18365    TIP3     H1       HT       0.417000       1.00800           0
     55095 W2       18365    TIP3     H2       HT       0.417000       1.00800           0
     55096 W2       18366    TIP3     OH2      OT      -0.834000       15.9994           0
     55097 W2       18366    TIP3     H1       HT       0.417000       1.00800           0
     55098 W2       18366    TIP3     H2       HT       0.417000       1.00800           0
     55099 W2       18367    TIP3     OH2      OT      -0.834000       15.9994           0
     55100 W2       18367    TIP3     H1       HT       0.417000       1.00800           0
     55101 W2       18367    TIP3     H2       HT       0.417000       1.00800           0
     55102 W2       18368    TIP3     OH2      OT      -0.834000       15.9994           0
     55103 W2       18368    TIP3     H1       HT       0.417000       1.00800           0
     55104 W2       18368    TIP3     H2       HT       0.417000       1.00800           0
     55105 W2       18369    TIP3     OH2      OT      -0.834000       15.9994           0
     55106 W2       18369    TIP3     H1       HT       0.417000       1.00800           0
     55107 W2       18369    TIP3     H2       HT       0.417000       1.00800           0
     55108 W2       18370    TIP3     OH2      OT      -0.834000       15.9994           0
     55109 W2       18370    TIP3     H1       HT       0.417000       1.00800           0
     55110 W2       18370    TIP3     H2       HT       0.417000       1.00800           0
     55111 W2       18371    TIP3     OH2      OT      -0.834000       15.9994           0
     55112 W2       18371    TIP3     H1       HT       0.417000       1.00800           0
     55113 W2       18371    TIP3     H2       HT       0.417000       1.00800           0
     55114 W2       18372    TIP3     OH2      OT      -0.834000       15.9994           0
     55115 W2       18372    TIP3     H1       HT       0.417000       1.00800           0
     55116 W2       18372    TIP3     H2       HT       0.417000       1.00800           0
     55117 W2       18373    TIP3     OH2      OT      -0.834000       15.9994           0
     55118 W2       18373    TIP3     H1       HT       0.417000       1.00800           0
     55119 W2       18373    TIP3     H2       HT       0.417000       1.00800           0
     55120 W2       18374    TIP3     OH2      OT      -0.834000       15.9994           0
     55121 W2       18374    TIP3     H1       HT       0.417000       1.00800           0
     55122 W2       18374    TIP3     H2       HT       0.417000       1.00800           0
     55123 W2       18375    TIP3     OH2      OT      -0.834000       15.9994           0
     55124 W2       18375    TIP3     H1       HT       0.417000       1.00800           0
     55125 W2       18375    TIP3     H2       HT       0.417000       1.00800           0
     55126 W2       18376    TIP3     OH2      OT      -0.834000       15.9994           0
     55127 W2       18376    TIP3     H1       HT       0.417000       1.00800           0
     55128 W2       18376    TIP3     H2       HT       0.417000       1.00800           0
     55129 W2       18377    TIP3     OH2      OT      -0.834000       15.9994           0
     55130 W2       18377    TIP3     H1       HT       0.417000       1.00800           0
     55131 W2       18377    TIP3     H2       HT       0.417000       1.00800           0
     55132 W2       18378    TIP3     OH2      OT      -0.834000       15.9994           0
     55133 W2       18378    TIP3     H1       HT       0.417000       1.00800           0
     55134 W2       18378    TIP3     H2       HT       0.417000       1.00800           0
     55135 W2       18379    TIP3     OH2      OT      -0.834000       15.9994           0
     55136 W2       18379    TIP3     H1       HT       0.417000       1.00800           0
     55137 W2       18379    TIP3     H2       HT       0.417000       1.00800           0
     55138 W2       18380    TIP3     OH2      OT      -0.834000       15.9994           0
     55139 W2       18380    TIP3     H1       HT       0.417000       1.00800           0
     55140 W2       18380    TIP3     H2       HT       0.417000       1.00800           0
     55141 W2       18381    TIP3     OH2      OT      -0.834000       15.9994           0
     55142 W2       18381    TIP3     H1       HT       0.417000       1.00800           0
     55143 W2       18381    TIP3     H2       HT       0.417000       1.00800           0
     55144 W2       18382    TIP3     OH2      OT      -0.834000       15.9994           0
     55145 W2       18382    TIP3     H1       HT       0.417000       1.00800           0
     55146 W2       18382    TIP3     H2       HT       0.417000       1.00800           0
     55147 W2       18383    TIP3     OH2      OT      -0.834000       15.9994           0
     55148 W2       18383    TIP3     H1       HT       0.417000       1.00800           0
     55149 W2       18383    TIP3     H2       HT       0.417000       1.00800           0
     55150 W2       18384    TIP3     OH2      OT      -0.834000       15.9994           0
     55151 W2       18384    TIP3     H1       HT       0.417000       1.00800           0
     55152 W2       18384    TIP3     H2       HT       0.417000       1.00800           0
     55153 W2       18385    TIP3     OH2      OT      -0.834000       15.9994           0
     55154 W2       18385    TIP3     H1       HT       0.417000       1.00800           0
     55155 W2       18385    TIP3     H2       HT       0.417000       1.00800           0
     55156 W2       18386    TIP3     OH2      OT      -0.834000       15.9994           0
     55157 W2       18386    TIP3     H1       HT       0.417000       1.00800           0
     55158 W2       18386    TIP3     H2       HT       0.417000       1.00800           0
     55159 W2       18387    TIP3     OH2      OT      -0.834000       15.9994           0
     55160 W2       18387    TIP3     H1       HT       0.417000       1.00800           0
     55161 W2       18387    TIP3     H2       HT       0.417000       1.00800           0
     55162 W2       18388    TIP3     OH2      OT      -0.834000       15.9994           0
     55163 W2       18388    TIP3     H1       HT       0.417000       1.00800           0
     55164 W2       18388    TIP3     H2       HT       0.417000       1.00800           0
     55165 W2       18389    TIP3     OH2      OT      -0.834000       15.9994           0
     55166 W2       18389    TIP3     H1       HT       0.417000       1.00800           0
     55167 W2       18389    TIP3     H2       HT       0.417000       1.00800           0
     55168 W2       18390    TIP3     OH2      OT      -0.834000       15.9994           0
     55169 W2       18390    TIP3     H1       HT       0.417000       1.00800           0
     55170 W2       18390    TIP3     H2       HT       0.417000       1.00800           0
     55171 W2       18391    TIP3     OH2      OT      -0.834000       15.9994           0
     55172 W2       18391    TIP3     H1       HT       0.417000       1.00800           0
     55173 W2       18391    TIP3     H2       HT       0.417000       1.00800           0
     55174 W2       18392    TIP3     OH2      OT      -0.834000       15.9994           0
     55175 W2       18392    TIP3     H1       HT       0.417000       1.00800           0
     55176 W2       18392    TIP3     H2       HT       0.417000       1.00800           0
     55177 W2       18393    TIP3     OH2      OT      -0.834000       15.9994           0
     55178 W2       18393    TIP3     H1       HT       0.417000       1.00800           0
     55179 W2       18393    TIP3     H2       HT       0.417000       1.00800           0
     55180 W2       18394    TIP3     OH2      OT      -0.834000       15.9994           0
     55181 W2       18394    TIP3     H1       HT       0.417000       1.00800           0
     55182 W2       18394    TIP3     H2       HT       0.417000       1.00800           0
     55183 W2       18395    TIP3     OH2      OT      -0.834000       15.9994           0
     55184 W2       18395    TIP3     H1       HT       0.417000       1.00800           0
     55185 W2       18395    TIP3     H2       HT       0.417000       1.00800           0
     55186 W2       18396    TIP3     OH2      OT      -0.834000       15.9994           0
     55187 W2       18396    TIP3     H1       HT       0.417000       1.00800           0
     55188 W2       18396    TIP3     H2       HT       0.417000       1.00800           0
     55189 W2       18397    TIP3     OH2      OT      -0.834000       15.9994           0
     55190 W2       18397    TIP3     H1       HT       0.417000       1.00800           0
     55191 W2       18397    TIP3     H2       HT       0.417000       1.00800           0
     55192 W2       18398    TIP3     OH2      OT      -0.834000       15.9994           0
     55193 W2       18398    TIP3     H1       HT       0.417000       1.00800           0
     55194 W2       18398    TIP3     H2       HT       0.417000       1.00800           0
     55195 W2       18399    TIP3     OH2      OT      -0.834000       15.9994           0
     55196 W2       18399    TIP3     H1       HT       0.417000       1.00800           0
     55197 W2       18399    TIP3     H2       HT       0.417000       1.00800           0
     55198 W2       18400    TIP3     OH2      OT      -0.834000       15.9994           0
     55199 W2       18400    TIP3     H1       HT       0.417000       1.00800           0
     55200 W2       18400    TIP3     H2       HT       0.417000       1.00800           0
     55201 W2       18401    TIP3     OH2      OT      -0.834000       15.9994           0
     55202 W2       18401    TIP3     H1       HT       0.417000       1.00800           0
     55203 W2       18401    TIP3     H2       HT       0.417000       1.00800           0
     55204 W2       18402    TIP3     OH2      OT      -0.834000       15.9994           0
     55205 W2       18402    TIP3     H1       HT       0.417000       1.00800           0
     55206 W2       18402    TIP3     H2       HT       0.417000       1.00800           0
     55207 W2       18403    TIP3     OH2      OT      -0.834000       15.9994           0
     55208 W2       18403    TIP3     H1       HT       0.417000       1.00800           0
     55209 W2       18403    TIP3     H2       HT       0.417000       1.00800           0
     55210 W2       18404    TIP3     OH2      OT      -0.834000       15.9994           0
     55211 W2       18404    TIP3     H1       HT       0.417000       1.00800           0
     55212 W2       18404    TIP3     H2       HT       0.417000       1.00800           0
     55213 W2       18405    TIP3     OH2      OT      -0.834000       15.9994           0
     55214 W2       18405    TIP3     H1       HT       0.417000       1.00800           0
     55215 W2       18405    TIP3     H2       HT       0.417000       1.00800           0
     55216 W2       18406    TIP3     OH2      OT      -0.834000       15.9994           0
     55217 W2       18406    TIP3     H1       HT       0.417000       1.00800           0
     55218 W2       18406    TIP3     H2       HT       0.417000       1.00800           0
     55219 W2       18407    TIP3     OH2      OT      -0.834000       15.9994           0
     55220 W2       18407    TIP3     H1       HT       0.417000       1.00800           0
     55221 W2       18407    TIP3     H2       HT       0.417000       1.00800           0
     55222 W2       18408    TIP3     OH2      OT      -0.834000       15.9994           0
     55223 W2       18408    TIP3     H1       HT       0.417000       1.00800           0
     55224 W2       18408    TIP3     H2       HT       0.417000       1.00800           0
     55225 W2       18409    TIP3     OH2      OT      -0.834000       15.9994           0
     55226 W2       18409    TIP3     H1       HT       0.417000       1.00800           0
     55227 W2       18409    TIP3     H2       HT       0.417000       1.00800           0
     55228 W2       18410    TIP3     OH2      OT      -0.834000       15.9994           0
     55229 W2       18410    TIP3     H1       HT       0.417000       1.00800           0
     55230 W2       18410    TIP3     H2       HT       0.417000       1.00800           0
     55231 W2       18411    TIP3     OH2      OT      -0.834000       15.9994           0
     55232 W2       18411    TIP3     H1       HT       0.417000       1.00800           0
     55233 W2       18411    TIP3     H2       HT       0.417000       1.00800           0
     55234 W2       18412    TIP3     OH2      OT      -0.834000       15.9994           0
     55235 W2       18412    TIP3     H1       HT       0.417000       1.00800           0
     55236 W2       18412    TIP3     H2       HT       0.417000       1.00800           0
     55237 W2       18413    TIP3     OH2      OT      -0.834000       15.9994           0
     55238 W2       18413    TIP3     H1       HT       0.417000       1.00800           0
     55239 W2       18413    TIP3     H2       HT       0.417000       1.00800           0
     55240 W2       18414    TIP3     OH2      OT      -0.834000       15.9994           0
     55241 W2       18414    TIP3     H1       HT       0.417000       1.00800           0
     55242 W2       18414    TIP3     H2       HT       0.417000       1.00800           0
     55243 W2       18415    TIP3     OH2      OT      -0.834000       15.9994           0
     55244 W2       18415    TIP3     H1       HT       0.417000       1.00800           0
     55245 W2       18415    TIP3     H2       HT       0.417000       1.00800           0
     55246 W2       18416    TIP3     OH2      OT      -0.834000       15.9994           0
     55247 W2       18416    TIP3     H1       HT       0.417000       1.00800           0
     55248 W2       18416    TIP3     H2       HT       0.417000       1.00800           0
     55249 W2       18417    TIP3     OH2      OT      -0.834000       15.9994           0
     55250 W2       18417    TIP3     H1       HT       0.417000       1.00800           0
     55251 W2       18417    TIP3     H2       HT       0.417000       1.00800           0
     55252 W2       18418    TIP3     OH2      OT      -0.834000       15.9994           0
     55253 W2       18418    TIP3     H1       HT       0.417000       1.00800           0
     55254 W2       18418    TIP3     H2       HT       0.417000       1.00800           0
     55255 W2       18419    TIP3     OH2      OT      -0.834000       15.9994           0
     55256 W2       18419    TIP3     H1       HT       0.417000       1.00800           0
     55257 W2       18419    TIP3     H2       HT       0.417000       1.00800           0
     55258 W2       18420    TIP3     OH2      OT      -0.834000       15.9994           0
     55259 W2       18420    TIP3     H1       HT       0.417000       1.00800           0
     55260 W2       18420    TIP3     H2       HT       0.417000       1.00800           0
     55261 W2       18421    TIP3     OH2      OT      -0.834000       15.9994           0
     55262 W2       18421    TIP3     H1       HT       0.417000       1.00800           0
     55263 W2       18421    TIP3     H2       HT       0.417000       1.00800           0
     55264 W2       18422    TIP3     OH2      OT      -0.834000       15.9994           0
     55265 W2       18422    TIP3     H1       HT       0.417000       1.00800           0
     55266 W2       18422    TIP3     H2       HT       0.417000       1.00800           0
     55267 W2       18423    TIP3     OH2      OT      -0.834000       15.9994           0
     55268 W2       18423    TIP3     H1       HT       0.417000       1.00800           0
     55269 W2       18423    TIP3     H2       HT       0.417000       1.00800           0
     55270 W2       18424    TIP3     OH2      OT      -0.834000       15.9994           0
     55271 W2       18424    TIP3     H1       HT       0.417000       1.00800           0
     55272 W2       18424    TIP3     H2       HT       0.417000       1.00800           0
     55273 W2       18425    TIP3     OH2      OT      -0.834000       15.9994           0
     55274 W2       18425    TIP3     H1       HT       0.417000       1.00800           0
     55275 W2       18425    TIP3     H2       HT       0.417000       1.00800           0
     55276 W2       18426    TIP3     OH2      OT      -0.834000       15.9994           0
     55277 W2       18426    TIP3     H1       HT       0.417000       1.00800           0
     55278 W2       18426    TIP3     H2       HT       0.417000       1.00800           0
     55279 W2       18427    TIP3     OH2      OT      -0.834000       15.9994           0
     55280 W2       18427    TIP3     H1       HT       0.417000       1.00800           0
     55281 W2       18427    TIP3     H2       HT       0.417000       1.00800           0
     55282 W2       18428    TIP3     OH2      OT      -0.834000       15.9994           0
     55283 W2       18428    TIP3     H1       HT       0.417000       1.00800           0
     55284 W2       18428    TIP3     H2       HT       0.417000       1.00800           0
     55285 W2       18429    TIP3     OH2      OT      -0.834000       15.9994           0
     55286 W2       18429    TIP3     H1       HT       0.417000       1.00800           0
     55287 W2       18429    TIP3     H2       HT       0.417000       1.00800           0
     55288 W2       18430    TIP3     OH2      OT      -0.834000       15.9994           0
     55289 W2       18430    TIP3     H1       HT       0.417000       1.00800           0
     55290 W2       18430    TIP3     H2       HT       0.417000       1.00800           0
     55291 W2       18431    TIP3     OH2      OT      -0.834000       15.9994           0
     55292 W2       18431    TIP3     H1       HT       0.417000       1.00800           0
     55293 W2       18431    TIP3     H2       HT       0.417000       1.00800           0
     55294 W2       18432    TIP3     OH2      OT      -0.834000       15.9994           0
     55295 W2       18432    TIP3     H1       HT       0.417000       1.00800           0
     55296 W2       18432    TIP3     H2       HT       0.417000       1.00800           0
     55297 W2       18433    TIP3     OH2      OT      -0.834000       15.9994           0
     55298 W2       18433    TIP3     H1       HT       0.417000       1.00800           0
     55299 W2       18433    TIP3     H2       HT       0.417000       1.00800           0
     55300 W2       18434    TIP3     OH2      OT      -0.834000       15.9994           0
     55301 W2       18434    TIP3     H1       HT       0.417000       1.00800           0
     55302 W2       18434    TIP3     H2       HT       0.417000       1.00800           0
     55303 W2       18435    TIP3     OH2      OT      -0.834000       15.9994           0
     55304 W2       18435    TIP3     H1       HT       0.417000       1.00800           0
     55305 W2       18435    TIP3     H2       HT       0.417000       1.00800           0
     55306 W2       18436    TIP3     OH2      OT      -0.834000       15.9994           0
     55307 W2       18436    TIP3     H1       HT       0.417000       1.00800           0
     55308 W2       18436    TIP3     H2       HT       0.417000       1.00800           0
     55309 W2       18437    TIP3     OH2      OT      -0.834000       15.9994           0
     55310 W2       18437    TIP3     H1       HT       0.417000       1.00800           0
     55311 W2       18437    TIP3     H2       HT       0.417000       1.00800           0
     55312 W2       18438    TIP3     OH2      OT      -0.834000       15.9994           0
     55313 W2       18438    TIP3     H1       HT       0.417000       1.00800           0
     55314 W2       18438    TIP3     H2       HT       0.417000       1.00800           0
     55315 W2       18439    TIP3     OH2      OT      -0.834000       15.9994           0
     55316 W2       18439    TIP3     H1       HT       0.417000       1.00800           0
     55317 W2       18439    TIP3     H2       HT       0.417000       1.00800           0
     55318 W2       18440    TIP3     OH2      OT      -0.834000       15.9994           0
     55319 W2       18440    TIP3     H1       HT       0.417000       1.00800           0
     55320 W2       18440    TIP3     H2       HT       0.417000       1.00800           0
     55321 W2       18441    TIP3     OH2      OT      -0.834000       15.9994           0
     55322 W2       18441    TIP3     H1       HT       0.417000       1.00800           0
     55323 W2       18441    TIP3     H2       HT       0.417000       1.00800           0
     55324 W2       18442    TIP3     OH2      OT      -0.834000       15.9994           0
     55325 W2       18442    TIP3     H1       HT       0.417000       1.00800           0
     55326 W2       18442    TIP3     H2       HT       0.417000       1.00800           0
     55327 W2       18443    TIP3     OH2      OT      -0.834000       15.9994           0
     55328 W2       18443    TIP3     H1       HT       0.417000       1.00800           0
     55329 W2       18443    TIP3     H2       HT       0.417000       1.00800           0
     55330 W2       18444    TIP3     OH2      OT      -0.834000       15.9994           0
     55331 W2       18444    TIP3     H1       HT       0.417000       1.00800           0
     55332 W2       18444    TIP3     H2       HT       0.417000       1.00800           0
     55333 W2       18445    TIP3     OH2      OT      -0.834000       15.9994           0
     55334 W2       18445    TIP3     H1       HT       0.417000       1.00800           0
     55335 W2       18445    TIP3     H2       HT       0.417000       1.00800           0
     55336 W2       18446    TIP3     OH2      OT      -0.834000       15.9994           0
     55337 W2       18446    TIP3     H1       HT       0.417000       1.00800           0
     55338 W2       18446    TIP3     H2       HT       0.417000       1.00800           0
     55339 W2       18447    TIP3     OH2      OT      -0.834000       15.9994           0
     55340 W2       18447    TIP3     H1       HT       0.417000       1.00800           0
     55341 W2       18447    TIP3     H2       HT       0.417000       1.00800           0
     55342 W2       18448    TIP3     OH2      OT      -0.834000       15.9994           0
     55343 W2       18448    TIP3     H1       HT       0.417000       1.00800           0
     55344 W2       18448    TIP3     H2       HT       0.417000       1.00800           0
     55345 W2       18449    TIP3     OH2      OT      -0.834000       15.9994           0
     55346 W2       18449    TIP3     H1       HT       0.417000       1.00800           0
     55347 W2       18449    TIP3     H2       HT       0.417000       1.00800           0
     55348 W2       18450    TIP3     OH2      OT      -0.834000       15.9994           0
     55349 W2       18450    TIP3     H1       HT       0.417000       1.00800           0
     55350 W2       18450    TIP3     H2       HT       0.417000       1.00800           0
     55351 W2       18451    TIP3     OH2      OT      -0.834000       15.9994           0
     55352 W2       18451    TIP3     H1       HT       0.417000       1.00800           0
     55353 W2       18451    TIP3     H2       HT       0.417000       1.00800           0
     55354 W2       18452    TIP3     OH2      OT      -0.834000       15.9994           0
     55355 W2       18452    TIP3     H1       HT       0.417000       1.00800           0
     55356 W2       18452    TIP3     H2       HT       0.417000       1.00800           0
     55357 W2       18453    TIP3     OH2      OT      -0.834000       15.9994           0
     55358 W2       18453    TIP3     H1       HT       0.417000       1.00800           0
     55359 W2       18453    TIP3     H2       HT       0.417000       1.00800           0
     55360 W2       18454    TIP3     OH2      OT      -0.834000       15.9994           0
     55361 W2       18454    TIP3     H1       HT       0.417000       1.00800           0
     55362 W2       18454    TIP3     H2       HT       0.417000       1.00800           0
     55363 W2       18455    TIP3     OH2      OT      -0.834000       15.9994           0
     55364 W2       18455    TIP3     H1       HT       0.417000       1.00800           0
     55365 W2       18455    TIP3     H2       HT       0.417000       1.00800           0
     55366 W2       18456    TIP3     OH2      OT      -0.834000       15.9994           0
     55367 W2       18456    TIP3     H1       HT       0.417000       1.00800           0
     55368 W2       18456    TIP3     H2       HT       0.417000       1.00800           0
     55369 W2       18457    TIP3     OH2      OT      -0.834000       15.9994           0
     55370 W2       18457    TIP3     H1       HT       0.417000       1.00800           0
     55371 W2       18457    TIP3     H2       HT       0.417000       1.00800           0
     55372 W2       18458    TIP3     OH2      OT      -0.834000       15.9994           0
     55373 W2       18458    TIP3     H1       HT       0.417000       1.00800           0
     55374 W2       18458    TIP3     H2       HT       0.417000       1.00800           0
     55375 W2       18459    TIP3     OH2      OT      -0.834000       15.9994           0
     55376 W2       18459    TIP3     H1       HT       0.417000       1.00800           0
     55377 W2       18459    TIP3     H2       HT       0.417000       1.00800           0
     55378 W2       18460    TIP3     OH2      OT      -0.834000       15.9994           0
     55379 W2       18460    TIP3     H1       HT       0.417000       1.00800           0
     55380 W2       18460    TIP3     H2       HT       0.417000       1.00800           0
     55381 W2       18461    TIP3     OH2      OT      -0.834000       15.9994           0
     55382 W2       18461    TIP3     H1       HT       0.417000       1.00800           0
     55383 W2       18461    TIP3     H2       HT       0.417000       1.00800           0
     55384 W2       18462    TIP3     OH2      OT      -0.834000       15.9994           0
     55385 W2       18462    TIP3     H1       HT       0.417000       1.00800           0
     55386 W2       18462    TIP3     H2       HT       0.417000       1.00800           0
     55387 W2       18463    TIP3     OH2      OT      -0.834000       15.9994           0
     55388 W2       18463    TIP3     H1       HT       0.417000       1.00800           0
     55389 W2       18463    TIP3     H2       HT       0.417000       1.00800           0
     55390 W2       18464    TIP3     OH2      OT      -0.834000       15.9994           0
     55391 W2       18464    TIP3     H1       HT       0.417000       1.00800           0
     55392 W2       18464    TIP3     H2       HT       0.417000       1.00800           0
     55393 W2       18465    TIP3     OH2      OT      -0.834000       15.9994           0
     55394 W2       18465    TIP3     H1       HT       0.417000       1.00800           0
     55395 W2       18465    TIP3     H2       HT       0.417000       1.00800           0
     55396 W2       18466    TIP3     OH2      OT      -0.834000       15.9994           0
     55397 W2       18466    TIP3     H1       HT       0.417000       1.00800           0
     55398 W2       18466    TIP3     H2       HT       0.417000       1.00800           0
     55399 W2       18467    TIP3     OH2      OT      -0.834000       15.9994           0
     55400 W2       18467    TIP3     H1       HT       0.417000       1.00800           0
     55401 W2       18467    TIP3     H2       HT       0.417000       1.00800           0
     55402 W2       18468    TIP3     OH2      OT      -0.834000       15.9994           0
     55403 W2       18468    TIP3     H1       HT       0.417000       1.00800           0
     55404 W2       18468    TIP3     H2       HT       0.417000       1.00800           0
     55405 W2       18469    TIP3     OH2      OT      -0.834000       15.9994           0
     55406 W2       18469    TIP3     H1       HT       0.417000       1.00800           0
     55407 W2       18469    TIP3     H2       HT       0.417000       1.00800           0
     55408 W2       18470    TIP3     OH2      OT      -0.834000       15.9994           0
     55409 W2       18470    TIP3     H1       HT       0.417000       1.00800           0
     55410 W2       18470    TIP3     H2       HT       0.417000       1.00800           0
     55411 W2       18471    TIP3     OH2      OT      -0.834000       15.9994           0
     55412 W2       18471    TIP3     H1       HT       0.417000       1.00800           0
     55413 W2       18471    TIP3     H2       HT       0.417000       1.00800           0
     55414 W2       18472    TIP3     OH2      OT      -0.834000       15.9994           0
     55415 W2       18472    TIP3     H1       HT       0.417000       1.00800           0
     55416 W2       18472    TIP3     H2       HT       0.417000       1.00800           0
     55417 W2       18473    TIP3     OH2      OT      -0.834000       15.9994           0
     55418 W2       18473    TIP3     H1       HT       0.417000       1.00800           0
     55419 W2       18473    TIP3     H2       HT       0.417000       1.00800           0
     55420 W2       18474    TIP3     OH2      OT      -0.834000       15.9994           0
     55421 W2       18474    TIP3     H1       HT       0.417000       1.00800           0
     55422 W2       18474    TIP3     H2       HT       0.417000       1.00800           0
     55423 W2       18475    TIP3     OH2      OT      -0.834000       15.9994           0
     55424 W2       18475    TIP3     H1       HT       0.417000       1.00800           0
     55425 W2       18475    TIP3     H2       HT       0.417000       1.00800           0
     55426 W2       18476    TIP3     OH2      OT      -0.834000       15.9994           0
     55427 W2       18476    TIP3     H1       HT       0.417000       1.00800           0
     55428 W2       18476    TIP3     H2       HT       0.417000       1.00800           0
     55429 W2       18477    TIP3     OH2      OT      -0.834000       15.9994           0
     55430 W2       18477    TIP3     H1       HT       0.417000       1.00800           0
     55431 W2       18477    TIP3     H2       HT       0.417000       1.00800           0
     55432 W2       18478    TIP3     OH2      OT      -0.834000       15.9994           0
     55433 W2       18478    TIP3     H1       HT       0.417000       1.00800           0
     55434 W2       18478    TIP3     H2       HT       0.417000       1.00800           0
     55435 W2       18479    TIP3     OH2      OT      -0.834000       15.9994           0
     55436 W2       18479    TIP3     H1       HT       0.417000       1.00800           0
     55437 W2       18479    TIP3     H2       HT       0.417000       1.00800           0
     55438 W2       18480    TIP3     OH2      OT      -0.834000       15.9994           0
     55439 W2       18480    TIP3     H1       HT       0.417000       1.00800           0
     55440 W2       18480    TIP3     H2       HT       0.417000       1.00800           0
     55441 W2       18481    TIP3     OH2      OT      -0.834000       15.9994           0
     55442 W2       18481    TIP3     H1       HT       0.417000       1.00800           0
     55443 W2       18481    TIP3     H2       HT       0.417000       1.00800           0
     55444 W2       18482    TIP3     OH2      OT      -0.834000       15.9994           0
     55445 W2       18482    TIP3     H1       HT       0.417000       1.00800           0
     55446 W2       18482    TIP3     H2       HT       0.417000       1.00800           0
     55447 W2       18483    TIP3     OH2      OT      -0.834000       15.9994           0
     55448 W2       18483    TIP3     H1       HT       0.417000       1.00800           0
     55449 W2       18483    TIP3     H2       HT       0.417000       1.00800           0
     55450 W2       18484    TIP3     OH2      OT      -0.834000       15.9994           0
     55451 W2       18484    TIP3     H1       HT       0.417000       1.00800           0
     55452 W2       18484    TIP3     H2       HT       0.417000       1.00800           0
     55453 W2       18485    TIP3     OH2      OT      -0.834000       15.9994           0
     55454 W2       18485    TIP3     H1       HT       0.417000       1.00800           0
     55455 W2       18485    TIP3     H2       HT       0.417000       1.00800           0
     55456 W2       18486    TIP3     OH2      OT      -0.834000       15.9994           0
     55457 W2       18486    TIP3     H1       HT       0.417000       1.00800           0
     55458 W2       18486    TIP3     H2       HT       0.417000       1.00800           0
     55459 W2       18487    TIP3     OH2      OT      -0.834000       15.9994           0
     55460 W2       18487    TIP3     H1       HT       0.417000       1.00800           0
     55461 W2       18487    TIP3     H2       HT       0.417000       1.00800           0
     55462 W2       18488    TIP3     OH2      OT      -0.834000       15.9994           0
     55463 W2       18488    TIP3     H1       HT       0.417000       1.00800           0
     55464 W2       18488    TIP3     H2       HT       0.417000       1.00800           0
     55465 W2       18489    TIP3     OH2      OT      -0.834000       15.9994           0
     55466 W2       18489    TIP3     H1       HT       0.417000       1.00800           0
     55467 W2       18489    TIP3     H2       HT       0.417000       1.00800           0
     55468 W2       18490    TIP3     OH2      OT      -0.834000       15.9994           0
     55469 W2       18490    TIP3     H1       HT       0.417000       1.00800           0
     55470 W2       18490    TIP3     H2       HT       0.417000       1.00800           0
     55471 W2       18491    TIP3     OH2      OT      -0.834000       15.9994           0
     55472 W2       18491    TIP3     H1       HT       0.417000       1.00800           0
     55473 W2       18491    TIP3     H2       HT       0.417000       1.00800           0
     55474 W2       18492    TIP3     OH2      OT      -0.834000       15.9994           0
     55475 W2       18492    TIP3     H1       HT       0.417000       1.00800           0
     55476 W2       18492    TIP3     H2       HT       0.417000       1.00800           0
     55477 W2       18493    TIP3     OH2      OT      -0.834000       15.9994           0
     55478 W2       18493    TIP3     H1       HT       0.417000       1.00800           0
     55479 W2       18493    TIP3     H2       HT       0.417000       1.00800           0
     55480 W2       18494    TIP3     OH2      OT      -0.834000       15.9994           0
     55481 W2       18494    TIP3     H1       HT       0.417000       1.00800           0
     55482 W2       18494    TIP3     H2       HT       0.417000       1.00800           0
     55483 W2       18495    TIP3     OH2      OT      -0.834000       15.9994           0
     55484 W2       18495    TIP3     H1       HT       0.417000       1.00800           0
     55485 W2       18495    TIP3     H2       HT       0.417000       1.00800           0
     55486 W2       18496    TIP3     OH2      OT      -0.834000       15.9994           0
     55487 W2       18496    TIP3     H1       HT       0.417000       1.00800           0
     55488 W2       18496    TIP3     H2       HT       0.417000       1.00800           0
     55489 W2       18497    TIP3     OH2      OT      -0.834000       15.9994           0
     55490 W2       18497    TIP3     H1       HT       0.417000       1.00800           0
     55491 W2       18497    TIP3     H2       HT       0.417000       1.00800           0
     55492 W2       18498    TIP3     OH2      OT      -0.834000       15.9994           0
     55493 W2       18498    TIP3     H1       HT       0.417000       1.00800           0
     55494 W2       18498    TIP3     H2       HT       0.417000       1.00800           0
     55495 W2       18499    TIP3     OH2      OT      -0.834000       15.9994           0
     55496 W2       18499    TIP3     H1       HT       0.417000       1.00800           0
     55497 W2       18499    TIP3     H2       HT       0.417000       1.00800           0
     55498 W2       18500    TIP3     OH2      OT      -0.834000       15.9994           0
     55499 W2       18500    TIP3     H1       HT       0.417000       1.00800           0
     55500 W2       18500    TIP3     H2       HT       0.417000       1.00800           0
     55501 W2       18501    TIP3     OH2      OT      -0.834000       15.9994           0
     55502 W2       18501    TIP3     H1       HT       0.417000       1.00800           0
     55503 W2       18501    TIP3     H2       HT       0.417000       1.00800           0
     55504 W2       18502    TIP3     OH2      OT      -0.834000       15.9994           0
     55505 W2       18502    TIP3     H1       HT       0.417000       1.00800           0
     55506 W2       18502    TIP3     H2       HT       0.417000       1.00800           0
     55507 W2       18503    TIP3     OH2      OT      -0.834000       15.9994           0
     55508 W2       18503    TIP3     H1       HT       0.417000       1.00800           0
     55509 W2       18503    TIP3     H2       HT       0.417000       1.00800           0
     55510 W2       18504    TIP3     OH2      OT      -0.834000       15.9994           0
     55511 W2       18504    TIP3     H1       HT       0.417000       1.00800           0
     55512 W2       18504    TIP3     H2       HT       0.417000       1.00800           0
     55513 W2       18505    TIP3     OH2      OT      -0.834000       15.9994           0
     55514 W2       18505    TIP3     H1       HT       0.417000       1.00800           0
     55515 W2       18505    TIP3     H2       HT       0.417000       1.00800           0
     55516 W2       18506    TIP3     OH2      OT      -0.834000       15.9994           0
     55517 W2       18506    TIP3     H1       HT       0.417000       1.00800           0
     55518 W2       18506    TIP3     H2       HT       0.417000       1.00800           0
     55519 W2       18507    TIP3     OH2      OT      -0.834000       15.9994           0
     55520 W2       18507    TIP3     H1       HT       0.417000       1.00800           0
     55521 W2       18507    TIP3     H2       HT       0.417000       1.00800           0
     55522 W2       18508    TIP3     OH2      OT      -0.834000       15.9994           0
     55523 W2       18508    TIP3     H1       HT       0.417000       1.00800           0
     55524 W2       18508    TIP3     H2       HT       0.417000       1.00800           0
     55525 W2       18509    TIP3     OH2      OT      -0.834000       15.9994           0
     55526 W2       18509    TIP3     H1       HT       0.417000       1.00800           0
     55527 W2       18509    TIP3     H2       HT       0.417000       1.00800           0
     55528 W2       18510    TIP3     OH2      OT      -0.834000       15.9994           0
     55529 W2       18510    TIP3     H1       HT       0.417000       1.00800           0
     55530 W2       18510    TIP3     H2       HT       0.417000       1.00800           0
     55531 W2       18511    TIP3     OH2      OT      -0.834000       15.9994           0
     55532 W2       18511    TIP3     H1       HT       0.417000       1.00800           0
     55533 W2       18511    TIP3     H2       HT       0.417000       1.00800           0
     55534 W2       18512    TIP3     OH2      OT      -0.834000       15.9994           0
     55535 W2       18512    TIP3     H1       HT       0.417000       1.00800           0
     55536 W2       18512    TIP3     H2       HT       0.417000       1.00800           0
     55537 W2       18513    TIP3     OH2      OT      -0.834000       15.9994           0
     55538 W2       18513    TIP3     H1       HT       0.417000       1.00800           0
     55539 W2       18513    TIP3     H2       HT       0.417000       1.00800           0
     55540 W2       18514    TIP3     OH2      OT      -0.834000       15.9994           0
     55541 W2       18514    TIP3     H1       HT       0.417000       1.00800           0
     55542 W2       18514    TIP3     H2       HT       0.417000       1.00800           0
     55543 W2       18515    TIP3     OH2      OT      -0.834000       15.9994           0
     55544 W2       18515    TIP3     H1       HT       0.417000       1.00800           0
     55545 W2       18515    TIP3     H2       HT       0.417000       1.00800           0
     55546 W2       18516    TIP3     OH2      OT      -0.834000       15.9994           0
     55547 W2       18516    TIP3     H1       HT       0.417000       1.00800           0
     55548 W2       18516    TIP3     H2       HT       0.417000       1.00800           0
     55549 W2       18517    TIP3     OH2      OT      -0.834000       15.9994           0
     55550 W2       18517    TIP3     H1       HT       0.417000       1.00800           0
     55551 W2       18517    TIP3     H2       HT       0.417000       1.00800           0
     55552 W2       18518    TIP3     OH2      OT      -0.834000       15.9994           0
     55553 W2       18518    TIP3     H1       HT       0.417000       1.00800           0
     55554 W2       18518    TIP3     H2       HT       0.417000       1.00800           0
     55555 W2       18519    TIP3     OH2      OT      -0.834000       15.9994           0
     55556 W2       18519    TIP3     H1       HT       0.417000       1.00800           0
     55557 W2       18519    TIP3     H2       HT       0.417000       1.00800           0
     55558 W2       18520    TIP3     OH2      OT      -0.834000       15.9994           0
     55559 W2       18520    TIP3     H1       HT       0.417000       1.00800           0
     55560 W2       18520    TIP3     H2       HT       0.417000       1.00800           0
     55561 W2       18521    TIP3     OH2      OT      -0.834000       15.9994           0
     55562 W2       18521    TIP3     H1       HT       0.417000       1.00800           0
     55563 W2       18521    TIP3     H2       HT       0.417000       1.00800           0
     55564 W2       18522    TIP3     OH2      OT      -0.834000       15.9994           0
     55565 W2       18522    TIP3     H1       HT       0.417000       1.00800           0
     55566 W2       18522    TIP3     H2       HT       0.417000       1.00800           0
     55567 W2       18523    TIP3     OH2      OT      -0.834000       15.9994           0
     55568 W2       18523    TIP3     H1       HT       0.417000       1.00800           0
     55569 W2       18523    TIP3     H2       HT       0.417000       1.00800           0
     55570 W2       18524    TIP3     OH2      OT      -0.834000       15.9994           0
     55571 W2       18524    TIP3     H1       HT       0.417000       1.00800           0
     55572 W2       18524    TIP3     H2       HT       0.417000       1.00800           0
     55573 W2       18525    TIP3     OH2      OT      -0.834000       15.9994           0
     55574 W2       18525    TIP3     H1       HT       0.417000       1.00800           0
     55575 W2       18525    TIP3     H2       HT       0.417000       1.00800           0
     55576 W2       18526    TIP3     OH2      OT      -0.834000       15.9994           0
     55577 W2       18526    TIP3     H1       HT       0.417000       1.00800           0
     55578 W2       18526    TIP3     H2       HT       0.417000       1.00800           0
     55579 W2       18527    TIP3     OH2      OT      -0.834000       15.9994           0
     55580 W2       18527    TIP3     H1       HT       0.417000       1.00800           0
     55581 W2       18527    TIP3     H2       HT       0.417000       1.00800           0
     55582 W2       18528    TIP3     OH2      OT      -0.834000       15.9994           0
     55583 W2       18528    TIP3     H1       HT       0.417000       1.00800           0
     55584 W2       18528    TIP3     H2       HT       0.417000       1.00800           0
     55585 W2       18529    TIP3     OH2      OT      -0.834000       15.9994           0
     55586 W2       18529    TIP3     H1       HT       0.417000       1.00800           0
     55587 W2       18529    TIP3     H2       HT       0.417000       1.00800           0
     55588 W2       18530    TIP3     OH2      OT      -0.834000       15.9994           0
     55589 W2       18530    TIP3     H1       HT       0.417000       1.00800           0
     55590 W2       18530    TIP3     H2       HT       0.417000       1.00800           0
     55591 W2       18531    TIP3     OH2      OT      -0.834000       15.9994           0
     55592 W2       18531    TIP3     H1       HT       0.417000       1.00800           0
     55593 W2       18531    TIP3     H2       HT       0.417000       1.00800           0
     55594 W2       18532    TIP3     OH2      OT      -0.834000       15.9994           0
     55595 W2       18532    TIP3     H1       HT       0.417000       1.00800           0
     55596 W2       18532    TIP3     H2       HT       0.417000       1.00800           0
     55597 W2       18533    TIP3     OH2      OT      -0.834000       15.9994           0
     55598 W2       18533    TIP3     H1       HT       0.417000       1.00800           0
     55599 W2       18533    TIP3     H2       HT       0.417000       1.00800           0
     55600 W2       18534    TIP3     OH2      OT      -0.834000       15.9994           0
     55601 W2       18534    TIP3     H1       HT       0.417000       1.00800           0
     55602 W2       18534    TIP3     H2       HT       0.417000       1.00800           0
     55603 W2       18535    TIP3     OH2      OT      -0.834000       15.9994           0
     55604 W2       18535    TIP3     H1       HT       0.417000       1.00800           0
     55605 W2       18535    TIP3     H2       HT       0.417000       1.00800           0
     55606 W2       18536    TIP3     OH2      OT      -0.834000       15.9994           0
     55607 W2       18536    TIP3     H1       HT       0.417000       1.00800           0
     55608 W2       18536    TIP3     H2       HT       0.417000       1.00800           0
     55609 W2       18537    TIP3     OH2      OT      -0.834000       15.9994           0
     55610 W2       18537    TIP3     H1       HT       0.417000       1.00800           0
     55611 W2       18537    TIP3     H2       HT       0.417000       1.00800           0
     55612 W2       18538    TIP3     OH2      OT      -0.834000       15.9994           0
     55613 W2       18538    TIP3     H1       HT       0.417000       1.00800           0
     55614 W2       18538    TIP3     H2       HT       0.417000       1.00800           0
     55615 W2       18539    TIP3     OH2      OT      -0.834000       15.9994           0
     55616 W2       18539    TIP3     H1       HT       0.417000       1.00800           0
     55617 W2       18539    TIP3     H2       HT       0.417000       1.00800           0
     55618 W2       18540    TIP3     OH2      OT      -0.834000       15.9994           0
     55619 W2       18540    TIP3     H1       HT       0.417000       1.00800           0
     55620 W2       18540    TIP3     H2       HT       0.417000       1.00800           0
     55621 W2       18541    TIP3     OH2      OT      -0.834000       15.9994           0
     55622 W2       18541    TIP3     H1       HT       0.417000       1.00800           0
     55623 W2       18541    TIP3     H2       HT       0.417000       1.00800           0
     55624 W2       18542    TIP3     OH2      OT      -0.834000       15.9994           0
     55625 W2       18542    TIP3     H1       HT       0.417000       1.00800           0
     55626 W2       18542    TIP3     H2       HT       0.417000       1.00800           0
     55627 W2       18543    TIP3     OH2      OT      -0.834000       15.9994           0
     55628 W2       18543    TIP3     H1       HT       0.417000       1.00800           0
     55629 W2       18543    TIP3     H2       HT       0.417000       1.00800           0
     55630 W2       18544    TIP3     OH2      OT      -0.834000       15.9994           0
     55631 W2       18544    TIP3     H1       HT       0.417000       1.00800           0
     55632 W2       18544    TIP3     H2       HT       0.417000       1.00800           0
     55633 W2       18545    TIP3     OH2      OT      -0.834000       15.9994           0
     55634 W2       18545    TIP3     H1       HT       0.417000       1.00800           0
     55635 W2       18545    TIP3     H2       HT       0.417000       1.00800           0
     55636 W2       18546    TIP3     OH2      OT      -0.834000       15.9994           0
     55637 W2       18546    TIP3     H1       HT       0.417000       1.00800           0
     55638 W2       18546    TIP3     H2       HT       0.417000       1.00800           0
     55639 W2       18547    TIP3     OH2      OT      -0.834000       15.9994           0
     55640 W2       18547    TIP3     H1       HT       0.417000       1.00800           0
     55641 W2       18547    TIP3     H2       HT       0.417000       1.00800           0
     55642 W2       18548    TIP3     OH2      OT      -0.834000       15.9994           0
     55643 W2       18548    TIP3     H1       HT       0.417000       1.00800           0
     55644 W2       18548    TIP3     H2       HT       0.417000       1.00800           0
     55645 W2       18549    TIP3     OH2      OT      -0.834000       15.9994           0
     55646 W2       18549    TIP3     H1       HT       0.417000       1.00800           0
     55647 W2       18549    TIP3     H2       HT       0.417000       1.00800           0
     55648 W2       18550    TIP3     OH2      OT      -0.834000       15.9994           0
     55649 W2       18550    TIP3     H1       HT       0.417000       1.00800           0
     55650 W2       18550    TIP3     H2       HT       0.417000       1.00800           0
     55651 W2       18551    TIP3     OH2      OT      -0.834000       15.9994           0
     55652 W2       18551    TIP3     H1       HT       0.417000       1.00800           0
     55653 W2       18551    TIP3     H2       HT       0.417000       1.00800           0
     55654 W2       18552    TIP3     OH2      OT      -0.834000       15.9994           0
     55655 W2       18552    TIP3     H1       HT       0.417000       1.00800           0
     55656 W2       18552    TIP3     H2       HT       0.417000       1.00800           0
     55657 W2       18553    TIP3     OH2      OT      -0.834000       15.9994           0
     55658 W2       18553    TIP3     H1       HT       0.417000       1.00800           0
     55659 W2       18553    TIP3     H2       HT       0.417000       1.00800           0
     55660 W2       18554    TIP3     OH2      OT      -0.834000       15.9994           0
     55661 W2       18554    TIP3     H1       HT       0.417000       1.00800           0
     55662 W2       18554    TIP3     H2       HT       0.417000       1.00800           0
     55663 W2       18555    TIP3     OH2      OT      -0.834000       15.9994           0
     55664 W2       18555    TIP3     H1       HT       0.417000       1.00800           0
     55665 W2       18555    TIP3     H2       HT       0.417000       1.00800           0
     55666 W2       18556    TIP3     OH2      OT      -0.834000       15.9994           0
     55667 W2       18556    TIP3     H1       HT       0.417000       1.00800           0
     55668 W2       18556    TIP3     H2       HT       0.417000       1.00800           0
     55669 W2       18557    TIP3     OH2      OT      -0.834000       15.9994           0
     55670 W2       18557    TIP3     H1       HT       0.417000       1.00800           0
     55671 W2       18557    TIP3     H2       HT       0.417000       1.00800           0
     55672 W2       18558    TIP3     OH2      OT      -0.834000       15.9994           0
     55673 W2       18558    TIP3     H1       HT       0.417000       1.00800           0
     55674 W2       18558    TIP3     H2       HT       0.417000       1.00800           0
     55675 W2       18559    TIP3     OH2      OT      -0.834000       15.9994           0
     55676 W2       18559    TIP3     H1       HT       0.417000       1.00800           0
     55677 W2       18559    TIP3     H2       HT       0.417000       1.00800           0
     55678 W2       18560    TIP3     OH2      OT      -0.834000       15.9994           0
     55679 W2       18560    TIP3     H1       HT       0.417000       1.00800           0
     55680 W2       18560    TIP3     H2       HT       0.417000       1.00800           0
     55681 W2       18561    TIP3     OH2      OT      -0.834000       15.9994           0
     55682 W2       18561    TIP3     H1       HT       0.417000       1.00800           0
     55683 W2       18561    TIP3     H2       HT       0.417000       1.00800           0
     55684 W2       18562    TIP3     OH2      OT      -0.834000       15.9994           0
     55685 W2       18562    TIP3     H1       HT       0.417000       1.00800           0
     55686 W2       18562    TIP3     H2       HT       0.417000       1.00800           0
     55687 W2       18563    TIP3     OH2      OT      -0.834000       15.9994           0
     55688 W2       18563    TIP3     H1       HT       0.417000       1.00800           0
     55689 W2       18563    TIP3     H2       HT       0.417000       1.00800           0
     55690 W2       18564    TIP3     OH2      OT      -0.834000       15.9994           0
     55691 W2       18564    TIP3     H1       HT       0.417000       1.00800           0
     55692 W2       18564    TIP3     H2       HT       0.417000       1.00800           0
     55693 W2       18565    TIP3     OH2      OT      -0.834000       15.9994           0
     55694 W2       18565    TIP3     H1       HT       0.417000       1.00800           0
     55695 W2       18565    TIP3     H2       HT       0.417000       1.00800           0
     55696 W2       18566    TIP3     OH2      OT      -0.834000       15.9994           0
     55697 W2       18566    TIP3     H1       HT       0.417000       1.00800           0
     55698 W2       18566    TIP3     H2       HT       0.417000       1.00800           0
     55699 W2       18567    TIP3     OH2      OT      -0.834000       15.9994           0
     55700 W2       18567    TIP3     H1       HT       0.417000       1.00800           0
     55701 W2       18567    TIP3     H2       HT       0.417000       1.00800           0
     55702 W2       18568    TIP3     OH2      OT      -0.834000       15.9994           0
     55703 W2       18568    TIP3     H1       HT       0.417000       1.00800           0
     55704 W2       18568    TIP3     H2       HT       0.417000       1.00800           0
     55705 W2       18569    TIP3     OH2      OT      -0.834000       15.9994           0
     55706 W2       18569    TIP3     H1       HT       0.417000       1.00800           0
     55707 W2       18569    TIP3     H2       HT       0.417000       1.00800           0
     55708 W2       18570    TIP3     OH2      OT      -0.834000       15.9994           0
     55709 W2       18570    TIP3     H1       HT       0.417000       1.00800           0
     55710 W2       18570    TIP3     H2       HT       0.417000       1.00800           0
     55711 W2       18571    TIP3     OH2      OT      -0.834000       15.9994           0
     55712 W2       18571    TIP3     H1       HT       0.417000       1.00800           0
     55713 W2       18571    TIP3     H2       HT       0.417000       1.00800           0
     55714 W2       18572    TIP3     OH2      OT      -0.834000       15.9994           0
     55715 W2       18572    TIP3     H1       HT       0.417000       1.00800           0
     55716 W2       18572    TIP3     H2       HT       0.417000       1.00800           0
     55717 W2       18573    TIP3     OH2      OT      -0.834000       15.9994           0
     55718 W2       18573    TIP3     H1       HT       0.417000       1.00800           0
     55719 W2       18573    TIP3     H2       HT       0.417000       1.00800           0
     55720 W2       18574    TIP3     OH2      OT      -0.834000       15.9994           0
     55721 W2       18574    TIP3     H1       HT       0.417000       1.00800           0
     55722 W2       18574    TIP3     H2       HT       0.417000       1.00800           0
     55723 W2       18575    TIP3     OH2      OT      -0.834000       15.9994           0
     55724 W2       18575    TIP3     H1       HT       0.417000       1.00800           0
     55725 W2       18575    TIP3     H2       HT       0.417000       1.00800           0
     55726 W2       18576    TIP3     OH2      OT      -0.834000       15.9994           0
     55727 W2       18576    TIP3     H1       HT       0.417000       1.00800           0
     55728 W2       18576    TIP3     H2       HT       0.417000       1.00800           0
     55729 W2       18577    TIP3     OH2      OT      -0.834000       15.9994           0
     55730 W2       18577    TIP3     H1       HT       0.417000       1.00800           0
     55731 W2       18577    TIP3     H2       HT       0.417000       1.00800           0
     55732 W2       18578    TIP3     OH2      OT      -0.834000       15.9994           0
     55733 W2       18578    TIP3     H1       HT       0.417000       1.00800           0
     55734 W2       18578    TIP3     H2       HT       0.417000       1.00800           0
     55735 W2       18579    TIP3     OH2      OT      -0.834000       15.9994           0
     55736 W2       18579    TIP3     H1       HT       0.417000       1.00800           0
     55737 W2       18579    TIP3     H2       HT       0.417000       1.00800           0
     55738 W2       18580    TIP3     OH2      OT      -0.834000       15.9994           0
     55739 W2       18580    TIP3     H1       HT       0.417000       1.00800           0
     55740 W2       18580    TIP3     H2       HT       0.417000       1.00800           0
     55741 W2       18581    TIP3     OH2      OT      -0.834000       15.9994           0
     55742 W2       18581    TIP3     H1       HT       0.417000       1.00800           0
     55743 W2       18581    TIP3     H2       HT       0.417000       1.00800           0
     55744 W2       18582    TIP3     OH2      OT      -0.834000       15.9994           0
     55745 W2       18582    TIP3     H1       HT       0.417000       1.00800           0
     55746 W2       18582    TIP3     H2       HT       0.417000       1.00800           0
     55747 W2       18583    TIP3     OH2      OT      -0.834000       15.9994           0
     55748 W2       18583    TIP3     H1       HT       0.417000       1.00800           0
     55749 W2       18583    TIP3     H2       HT       0.417000       1.00800           0
     55750 W2       18584    TIP3     OH2      OT      -0.834000       15.9994           0
     55751 W2       18584    TIP3     H1       HT       0.417000       1.00800           0
     55752 W2       18584    TIP3     H2       HT       0.417000       1.00800           0
     55753 W2       18585    TIP3     OH2      OT      -0.834000       15.9994           0
     55754 W2       18585    TIP3     H1       HT       0.417000       1.00800           0
     55755 W2       18585    TIP3     H2       HT       0.417000       1.00800           0
     55756 W2       18586    TIP3     OH2      OT      -0.834000       15.9994           0
     55757 W2       18586    TIP3     H1       HT       0.417000       1.00800           0
     55758 W2       18586    TIP3     H2       HT       0.417000       1.00800           0
     55759 W2       18587    TIP3     OH2      OT      -0.834000       15.9994           0
     55760 W2       18587    TIP3     H1       HT       0.417000       1.00800           0
     55761 W2       18587    TIP3     H2       HT       0.417000       1.00800           0
     55762 W2       18588    TIP3     OH2      OT      -0.834000       15.9994           0
     55763 W2       18588    TIP3     H1       HT       0.417000       1.00800           0
     55764 W2       18588    TIP3     H2       HT       0.417000       1.00800           0
     55765 W2       18589    TIP3     OH2      OT      -0.834000       15.9994           0
     55766 W2       18589    TIP3     H1       HT       0.417000       1.00800           0
     55767 W2       18589    TIP3     H2       HT       0.417000       1.00800           0
     55768 W2       18590    TIP3     OH2      OT      -0.834000       15.9994           0
     55769 W2       18590    TIP3     H1       HT       0.417000       1.00800           0
     55770 W2       18590    TIP3     H2       HT       0.417000       1.00800           0
     55771 W2       18591    TIP3     OH2      OT      -0.834000       15.9994           0
     55772 W2       18591    TIP3     H1       HT       0.417000       1.00800           0
     55773 W2       18591    TIP3     H2       HT       0.417000       1.00800           0
     55774 W2       18592    TIP3     OH2      OT      -0.834000       15.9994           0
     55775 W2       18592    TIP3     H1       HT       0.417000       1.00800           0
     55776 W2       18592    TIP3     H2       HT       0.417000       1.00800           0
     55777 W2       18593    TIP3     OH2      OT      -0.834000       15.9994           0
     55778 W2       18593    TIP3     H1       HT       0.417000       1.00800           0
     55779 W2       18593    TIP3     H2       HT       0.417000       1.00800           0
     55780 W2       18594    TIP3     OH2      OT      -0.834000       15.9994           0
     55781 W2       18594    TIP3     H1       HT       0.417000       1.00800           0
     55782 W2       18594    TIP3     H2       HT       0.417000       1.00800           0
     55783 W2       18595    TIP3     OH2      OT      -0.834000       15.9994           0
     55784 W2       18595    TIP3     H1       HT       0.417000       1.00800           0
     55785 W2       18595    TIP3     H2       HT       0.417000       1.00800           0
     55786 W2       18596    TIP3     OH2      OT      -0.834000       15.9994           0
     55787 W2       18596    TIP3     H1       HT       0.417000       1.00800           0
     55788 W2       18596    TIP3     H2       HT       0.417000       1.00800           0
     55789 W2       18597    TIP3     OH2      OT      -0.834000       15.9994           0
     55790 W2       18597    TIP3     H1       HT       0.417000       1.00800           0
     55791 W2       18597    TIP3     H2       HT       0.417000       1.00800           0
     55792 W2       18598    TIP3     OH2      OT      -0.834000       15.9994           0
     55793 W2       18598    TIP3     H1       HT       0.417000       1.00800           0
     55794 W2       18598    TIP3     H2       HT       0.417000       1.00800           0
     55795 W2       18599    TIP3     OH2      OT      -0.834000       15.9994           0
     55796 W2       18599    TIP3     H1       HT       0.417000       1.00800           0
     55797 W2       18599    TIP3     H2       HT       0.417000       1.00800           0
     55798 W2       18600    TIP3     OH2      OT      -0.834000       15.9994           0
     55799 W2       18600    TIP3     H1       HT       0.417000       1.00800           0
     55800 W2       18600    TIP3     H2       HT       0.417000       1.00800           0
     55801 W2       18601    TIP3     OH2      OT      -0.834000       15.9994           0
     55802 W2       18601    TIP3     H1       HT       0.417000       1.00800           0
     55803 W2       18601    TIP3     H2       HT       0.417000       1.00800           0
     55804 W2       18602    TIP3     OH2      OT      -0.834000       15.9994           0
     55805 W2       18602    TIP3     H1       HT       0.417000       1.00800           0
     55806 W2       18602    TIP3     H2       HT       0.417000       1.00800           0
     55807 W2       18603    TIP3     OH2      OT      -0.834000       15.9994           0
     55808 W2       18603    TIP3     H1       HT       0.417000       1.00800           0
     55809 W2       18603    TIP3     H2       HT       0.417000       1.00800           0
     55810 W2       18604    TIP3     OH2      OT      -0.834000       15.9994           0
     55811 W2       18604    TIP3     H1       HT       0.417000       1.00800           0
     55812 W2       18604    TIP3     H2       HT       0.417000       1.00800           0
     55813 W2       18605    TIP3     OH2      OT      -0.834000       15.9994           0
     55814 W2       18605    TIP3     H1       HT       0.417000       1.00800           0
     55815 W2       18605    TIP3     H2       HT       0.417000       1.00800           0
     55816 W2       18606    TIP3     OH2      OT      -0.834000       15.9994           0
     55817 W2       18606    TIP3     H1       HT       0.417000       1.00800           0
     55818 W2       18606    TIP3     H2       HT       0.417000       1.00800           0
     55819 W2       18607    TIP3     OH2      OT      -0.834000       15.9994           0
     55820 W2       18607    TIP3     H1       HT       0.417000       1.00800           0
     55821 W2       18607    TIP3     H2       HT       0.417000       1.00800           0
     55822 W2       18608    TIP3     OH2      OT      -0.834000       15.9994           0
     55823 W2       18608    TIP3     H1       HT       0.417000       1.00800           0
     55824 W2       18608    TIP3     H2       HT       0.417000       1.00800           0
     55825 W2       18609    TIP3     OH2      OT      -0.834000       15.9994           0
     55826 W2       18609    TIP3     H1       HT       0.417000       1.00800           0
     55827 W2       18609    TIP3     H2       HT       0.417000       1.00800           0
     55828 W2       18610    TIP3     OH2      OT      -0.834000       15.9994           0
     55829 W2       18610    TIP3     H1       HT       0.417000       1.00800           0
     55830 W2       18610    TIP3     H2       HT       0.417000       1.00800           0
     55831 W2       18611    TIP3     OH2      OT      -0.834000       15.9994           0
     55832 W2       18611    TIP3     H1       HT       0.417000       1.00800           0
     55833 W2       18611    TIP3     H2       HT       0.417000       1.00800           0
     55834 W2       18612    TIP3     OH2      OT      -0.834000       15.9994           0
     55835 W2       18612    TIP3     H1       HT       0.417000       1.00800           0
     55836 W2       18612    TIP3     H2       HT       0.417000       1.00800           0
     55837 W2       18613    TIP3     OH2      OT      -0.834000       15.9994           0
     55838 W2       18613    TIP3     H1       HT       0.417000       1.00800           0
     55839 W2       18613    TIP3     H2       HT       0.417000       1.00800           0
     55840 W2       18614    TIP3     OH2      OT      -0.834000       15.9994           0
     55841 W2       18614    TIP3     H1       HT       0.417000       1.00800           0
     55842 W2       18614    TIP3     H2       HT       0.417000       1.00800           0
     55843 W2       18615    TIP3     OH2      OT      -0.834000       15.9994           0
     55844 W2       18615    TIP3     H1       HT       0.417000       1.00800           0
     55845 W2       18615    TIP3     H2       HT       0.417000       1.00800           0
     55846 W2       18616    TIP3     OH2      OT      -0.834000       15.9994           0
     55847 W2       18616    TIP3     H1       HT       0.417000       1.00800           0
     55848 W2       18616    TIP3     H2       HT       0.417000       1.00800           0
     55849 W2       18617    TIP3     OH2      OT      -0.834000       15.9994           0
     55850 W2       18617    TIP3     H1       HT       0.417000       1.00800           0
     55851 W2       18617    TIP3     H2       HT       0.417000       1.00800           0
     55852 W2       18618    TIP3     OH2      OT      -0.834000       15.9994           0
     55853 W2       18618    TIP3     H1       HT       0.417000       1.00800           0
     55854 W2       18618    TIP3     H2       HT       0.417000       1.00800           0
     55855 W2       18619    TIP3     OH2      OT      -0.834000       15.9994           0
     55856 W2       18619    TIP3     H1       HT       0.417000       1.00800           0
     55857 W2       18619    TIP3     H2       HT       0.417000       1.00800           0
     55858 W2       18620    TIP3     OH2      OT      -0.834000       15.9994           0
     55859 W2       18620    TIP3     H1       HT       0.417000       1.00800           0
     55860 W2       18620    TIP3     H2       HT       0.417000       1.00800           0
     55861 W2       18621    TIP3     OH2      OT      -0.834000       15.9994           0
     55862 W2       18621    TIP3     H1       HT       0.417000       1.00800           0
     55863 W2       18621    TIP3     H2       HT       0.417000       1.00800           0
     55864 W2       18622    TIP3     OH2      OT      -0.834000       15.9994           0
     55865 W2       18622    TIP3     H1       HT       0.417000       1.00800           0
     55866 W2       18622    TIP3     H2       HT       0.417000       1.00800           0
     55867 W2       18623    TIP3     OH2      OT      -0.834000       15.9994           0
     55868 W2       18623    TIP3     H1       HT       0.417000       1.00800           0
     55869 W2       18623    TIP3     H2       HT       0.417000       1.00800           0
     55870 W2       18624    TIP3     OH2      OT      -0.834000       15.9994           0
     55871 W2       18624    TIP3     H1       HT       0.417000       1.00800           0
     55872 W2       18624    TIP3     H2       HT       0.417000       1.00800           0
     55873 W2       18625    TIP3     OH2      OT      -0.834000       15.9994           0
     55874 W2       18625    TIP3     H1       HT       0.417000       1.00800           0
     55875 W2       18625    TIP3     H2       HT       0.417000       1.00800           0
     55876 W2       18626    TIP3     OH2      OT      -0.834000       15.9994           0
     55877 W2       18626    TIP3     H1       HT       0.417000       1.00800           0
     55878 W2       18626    TIP3     H2       HT       0.417000       1.00800           0
     55879 W2       18627    TIP3     OH2      OT      -0.834000       15.9994           0
     55880 W2       18627    TIP3     H1       HT       0.417000       1.00800           0
     55881 W2       18627    TIP3     H2       HT       0.417000       1.00800           0
     55882 W2       18628    TIP3     OH2      OT      -0.834000       15.9994           0
     55883 W2       18628    TIP3     H1       HT       0.417000       1.00800           0
     55884 W2       18628    TIP3     H2       HT       0.417000       1.00800           0
     55885 W2       18629    TIP3     OH2      OT      -0.834000       15.9994           0
     55886 W2       18629    TIP3     H1       HT       0.417000       1.00800           0
     55887 W2       18629    TIP3     H2       HT       0.417000       1.00800           0
     55888 W2       18630    TIP3     OH2      OT      -0.834000       15.9994           0
     55889 W2       18630    TIP3     H1       HT       0.417000       1.00800           0
     55890 W2       18630    TIP3     H2       HT       0.417000       1.00800           0
     55891 W2       18631    TIP3     OH2      OT      -0.834000       15.9994           0
     55892 W2       18631    TIP3     H1       HT       0.417000       1.00800           0
     55893 W2       18631    TIP3     H2       HT       0.417000       1.00800           0
     55894 W2       18632    TIP3     OH2      OT      -0.834000       15.9994           0
     55895 W2       18632    TIP3     H1       HT       0.417000       1.00800           0
     55896 W2       18632    TIP3     H2       HT       0.417000       1.00800           0
     55897 W2       18633    TIP3     OH2      OT      -0.834000       15.9994           0
     55898 W2       18633    TIP3     H1       HT       0.417000       1.00800           0
     55899 W2       18633    TIP3     H2       HT       0.417000       1.00800           0
     55900 W2       18634    TIP3     OH2      OT      -0.834000       15.9994           0
     55901 W2       18634    TIP3     H1       HT       0.417000       1.00800           0
     55902 W2       18634    TIP3     H2       HT       0.417000       1.00800           0
     55903 W2       18635    TIP3     OH2      OT      -0.834000       15.9994           0
     55904 W2       18635    TIP3     H1       HT       0.417000       1.00800           0
     55905 W2       18635    TIP3     H2       HT       0.417000       1.00800           0
     55906 W2       18636    TIP3     OH2      OT      -0.834000       15.9994           0
     55907 W2       18636    TIP3     H1       HT       0.417000       1.00800           0
     55908 W2       18636    TIP3     H2       HT       0.417000       1.00800           0
     55909 W2       18637    TIP3     OH2      OT      -0.834000       15.9994           0
     55910 W2       18637    TIP3     H1       HT       0.417000       1.00800           0
     55911 W2       18637    TIP3     H2       HT       0.417000       1.00800           0
     55912 W2       18638    TIP3     OH2      OT      -0.834000       15.9994           0
     55913 W2       18638    TIP3     H1       HT       0.417000       1.00800           0
     55914 W2       18638    TIP3     H2       HT       0.417000       1.00800           0
     55915 W2       18639    TIP3     OH2      OT      -0.834000       15.9994           0
     55916 W2       18639    TIP3     H1       HT       0.417000       1.00800           0
     55917 W2       18639    TIP3     H2       HT       0.417000       1.00800           0
     55918 W2       18640    TIP3     OH2      OT      -0.834000       15.9994           0
     55919 W2       18640    TIP3     H1       HT       0.417000       1.00800           0
     55920 W2       18640    TIP3     H2       HT       0.417000       1.00800           0
     55921 W2       18641    TIP3     OH2      OT      -0.834000       15.9994           0
     55922 W2       18641    TIP3     H1       HT       0.417000       1.00800           0
     55923 W2       18641    TIP3     H2       HT       0.417000       1.00800           0
     55924 W2       18642    TIP3     OH2      OT      -0.834000       15.9994           0
     55925 W2       18642    TIP3     H1       HT       0.417000       1.00800           0
     55926 W2       18642    TIP3     H2       HT       0.417000       1.00800           0
     55927 W2       18643    TIP3     OH2      OT      -0.834000       15.9994           0
     55928 W2       18643    TIP3     H1       HT       0.417000       1.00800           0
     55929 W2       18643    TIP3     H2       HT       0.417000       1.00800           0
     55930 W2       18644    TIP3     OH2      OT      -0.834000       15.9994           0
     55931 W2       18644    TIP3     H1       HT       0.417000       1.00800           0
     55932 W2       18644    TIP3     H2       HT       0.417000       1.00800           0
     55933 W2       18645    TIP3     OH2      OT      -0.834000       15.9994           0
     55934 W2       18645    TIP3     H1       HT       0.417000       1.00800           0
     55935 W2       18645    TIP3     H2       HT       0.417000       1.00800           0
     55936 W2       18646    TIP3     OH2      OT      -0.834000       15.9994           0
     55937 W2       18646    TIP3     H1       HT       0.417000       1.00800           0
     55938 W2       18646    TIP3     H2       HT       0.417000       1.00800           0
     55939 W2       18647    TIP3     OH2      OT      -0.834000       15.9994           0
     55940 W2       18647    TIP3     H1       HT       0.417000       1.00800           0
     55941 W2       18647    TIP3     H2       HT       0.417000       1.00800           0
     55942 W2       18648    TIP3     OH2      OT      -0.834000       15.9994           0
     55943 W2       18648    TIP3     H1       HT       0.417000       1.00800           0
     55944 W2       18648    TIP3     H2       HT       0.417000       1.00800           0
     55945 W2       18649    TIP3     OH2      OT      -0.834000       15.9994           0
     55946 W2       18649    TIP3     H1       HT       0.417000       1.00800           0
     55947 W2       18649    TIP3     H2       HT       0.417000       1.00800           0
     55948 W2       18650    TIP3     OH2      OT      -0.834000       15.9994           0
     55949 W2       18650    TIP3     H1       HT       0.417000       1.00800           0
     55950 W2       18650    TIP3     H2       HT       0.417000       1.00800           0
     55951 W2       18651    TIP3     OH2      OT      -0.834000       15.9994           0
     55952 W2       18651    TIP3     H1       HT       0.417000       1.00800           0
     55953 W2       18651    TIP3     H2       HT       0.417000       1.00800           0
     55954 W2       18652    TIP3     OH2      OT      -0.834000       15.9994           0
     55955 W2       18652    TIP3     H1       HT       0.417000       1.00800           0
     55956 W2       18652    TIP3     H2       HT       0.417000       1.00800           0
     55957 W2       18653    TIP3     OH2      OT      -0.834000       15.9994           0
     55958 W2       18653    TIP3     H1       HT       0.417000       1.00800           0
     55959 W2       18653    TIP3     H2       HT       0.417000       1.00800           0
     55960 W2       18654    TIP3     OH2      OT      -0.834000       15.9994           0
     55961 W2       18654    TIP3     H1       HT       0.417000       1.00800           0
     55962 W2       18654    TIP3     H2       HT       0.417000       1.00800           0
     55963 W2       18655    TIP3     OH2      OT      -0.834000       15.9994           0
     55964 W2       18655    TIP3     H1       HT       0.417000       1.00800           0
     55965 W2       18655    TIP3     H2       HT       0.417000       1.00800           0
     55966 W2       18656    TIP3     OH2      OT      -0.834000       15.9994           0
     55967 W2       18656    TIP3     H1       HT       0.417000       1.00800           0
     55968 W2       18656    TIP3     H2       HT       0.417000       1.00800           0
     55969 W2       18657    TIP3     OH2      OT      -0.834000       15.9994           0
     55970 W2       18657    TIP3     H1       HT       0.417000       1.00800           0
     55971 W2       18657    TIP3     H2       HT       0.417000       1.00800           0
     55972 W2       18658    TIP3     OH2      OT      -0.834000       15.9994           0
     55973 W2       18658    TIP3     H1       HT       0.417000       1.00800           0
     55974 W2       18658    TIP3     H2       HT       0.417000       1.00800           0
     55975 W2       18659    TIP3     OH2      OT      -0.834000       15.9994           0
     55976 W2       18659    TIP3     H1       HT       0.417000       1.00800           0
     55977 W2       18659    TIP3     H2       HT       0.417000       1.00800           0
     55978 W2       18660    TIP3     OH2      OT      -0.834000       15.9994           0
     55979 W2       18660    TIP3     H1       HT       0.417000       1.00800           0
     55980 W2       18660    TIP3     H2       HT       0.417000       1.00800           0
     55981 W2       18661    TIP3     OH2      OT      -0.834000       15.9994           0
     55982 W2       18661    TIP3     H1       HT       0.417000       1.00800           0
     55983 W2       18661    TIP3     H2       HT       0.417000       1.00800           0
     55984 W2       18662    TIP3     OH2      OT      -0.834000       15.9994           0
     55985 W2       18662    TIP3     H1       HT       0.417000       1.00800           0
     55986 W2       18662    TIP3     H2       HT       0.417000       1.00800           0
     55987 W2       18663    TIP3     OH2      OT      -0.834000       15.9994           0
     55988 W2       18663    TIP3     H1       HT       0.417000       1.00800           0
     55989 W2       18663    TIP3     H2       HT       0.417000       1.00800           0
     55990 W2       18664    TIP3     OH2      OT      -0.834000       15.9994           0
     55991 W2       18664    TIP3     H1       HT       0.417000       1.00800           0
     55992 W2       18664    TIP3     H2       HT       0.417000       1.00800           0
     55993 W2       18665    TIP3     OH2      OT      -0.834000       15.9994           0
     55994 W2       18665    TIP3     H1       HT       0.417000       1.00800           0
     55995 W2       18665    TIP3     H2       HT       0.417000       1.00800           0
     55996 W2       18666    TIP3     OH2      OT      -0.834000       15.9994           0
     55997 W2       18666    TIP3     H1       HT       0.417000       1.00800           0
     55998 W2       18666    TIP3     H2       HT       0.417000       1.00800           0
     55999 W2       18667    TIP3     OH2      OT      -0.834000       15.9994           0
     56000 W2       18667    TIP3     H1       HT       0.417000       1.00800           0
     56001 W2       18667    TIP3     H2       HT       0.417000       1.00800           0
     56002 W2       18668    TIP3     OH2      OT      -0.834000       15.9994           0
     56003 W2       18668    TIP3     H1       HT       0.417000       1.00800           0
     56004 W2       18668    TIP3     H2       HT       0.417000       1.00800           0
     56005 W2       18669    TIP3     OH2      OT      -0.834000       15.9994           0
     56006 W2       18669    TIP3     H1       HT       0.417000       1.00800           0
     56007 W2       18669    TIP3     H2       HT       0.417000       1.00800           0
     56008 W2       18670    TIP3     OH2      OT      -0.834000       15.9994           0
     56009 W2       18670    TIP3     H1       HT       0.417000       1.00800           0
     56010 W2       18670    TIP3     H2       HT       0.417000       1.00800           0
     56011 W2       18671    TIP3     OH2      OT      -0.834000       15.9994           0
     56012 W2       18671    TIP3     H1       HT       0.417000       1.00800           0
     56013 W2       18671    TIP3     H2       HT       0.417000       1.00800           0
     56014 W2       18672    TIP3     OH2      OT      -0.834000       15.9994           0
     56015 W2       18672    TIP3     H1       HT       0.417000       1.00800           0
     56016 W2       18672    TIP3     H2       HT       0.417000       1.00800           0
     56017 W2       18673    TIP3     OH2      OT      -0.834000       15.9994           0
     56018 W2       18673    TIP3     H1       HT       0.417000       1.00800           0
     56019 W2       18673    TIP3     H2       HT       0.417000       1.00800           0
     56020 W2       18674    TIP3     OH2      OT      -0.834000       15.9994           0
     56021 W2       18674    TIP3     H1       HT       0.417000       1.00800           0
     56022 W2       18674    TIP3     H2       HT       0.417000       1.00800           0
     56023 W2       18675    TIP3     OH2      OT      -0.834000       15.9994           0
     56024 W2       18675    TIP3     H1       HT       0.417000       1.00800           0
     56025 W2       18675    TIP3     H2       HT       0.417000       1.00800           0
     56026 W2       18676    TIP3     OH2      OT      -0.834000       15.9994           0
     56027 W2       18676    TIP3     H1       HT       0.417000       1.00800           0
     56028 W2       18676    TIP3     H2       HT       0.417000       1.00800           0
     56029 W2       18677    TIP3     OH2      OT      -0.834000       15.9994           0
     56030 W2       18677    TIP3     H1       HT       0.417000       1.00800           0
     56031 W2       18677    TIP3     H2       HT       0.417000       1.00800           0
     56032 W2       18678    TIP3     OH2      OT      -0.834000       15.9994           0
     56033 W2       18678    TIP3     H1       HT       0.417000       1.00800           0
     56034 W2       18678    TIP3     H2       HT       0.417000       1.00800           0
     56035 W2       18679    TIP3     OH2      OT      -0.834000       15.9994           0
     56036 W2       18679    TIP3     H1       HT       0.417000       1.00800           0
     56037 W2       18679    TIP3     H2       HT       0.417000       1.00800           0
     56038 W2       18680    TIP3     OH2      OT      -0.834000       15.9994           0
     56039 W2       18680    TIP3     H1       HT       0.417000       1.00800           0
     56040 W2       18680    TIP3     H2       HT       0.417000       1.00800           0
     56041 W2       18681    TIP3     OH2      OT      -0.834000       15.9994           0
     56042 W2       18681    TIP3     H1       HT       0.417000       1.00800           0
     56043 W2       18681    TIP3     H2       HT       0.417000       1.00800           0
     56044 W2       18682    TIP3     OH2      OT      -0.834000       15.9994           0
     56045 W2       18682    TIP3     H1       HT       0.417000       1.00800           0
     56046 W2       18682    TIP3     H2       HT       0.417000       1.00800           0
     56047 W2       18683    TIP3     OH2      OT      -0.834000       15.9994           0
     56048 W2       18683    TIP3     H1       HT       0.417000       1.00800           0
     56049 W2       18683    TIP3     H2       HT       0.417000       1.00800           0
     56050 W2       18684    TIP3     OH2      OT      -0.834000       15.9994           0
     56051 W2       18684    TIP3     H1       HT       0.417000       1.00800           0
     56052 W2       18684    TIP3     H2       HT       0.417000       1.00800           0
     56053 W2       18685    TIP3     OH2      OT      -0.834000       15.9994           0
     56054 W2       18685    TIP3     H1       HT       0.417000       1.00800           0
     56055 W2       18685    TIP3     H2       HT       0.417000       1.00800           0
     56056 W2       18686    TIP3     OH2      OT      -0.834000       15.9994           0
     56057 W2       18686    TIP3     H1       HT       0.417000       1.00800           0
     56058 W2       18686    TIP3     H2       HT       0.417000       1.00800           0
     56059 W2       18687    TIP3     OH2      OT      -0.834000       15.9994           0
     56060 W2       18687    TIP3     H1       HT       0.417000       1.00800           0
     56061 W2       18687    TIP3     H2       HT       0.417000       1.00800           0
     56062 W2       18688    TIP3     OH2      OT      -0.834000       15.9994           0
     56063 W2       18688    TIP3     H1       HT       0.417000       1.00800           0
     56064 W2       18688    TIP3     H2       HT       0.417000       1.00800           0
     56065 W2       18689    TIP3     OH2      OT      -0.834000       15.9994           0
     56066 W2       18689    TIP3     H1       HT       0.417000       1.00800           0
     56067 W2       18689    TIP3     H2       HT       0.417000       1.00800           0
     56068 W2       18690    TIP3     OH2      OT      -0.834000       15.9994           0
     56069 W2       18690    TIP3     H1       HT       0.417000       1.00800           0
     56070 W2       18690    TIP3     H2       HT       0.417000       1.00800           0
     56071 W2       18691    TIP3     OH2      OT      -0.834000       15.9994           0
     56072 W2       18691    TIP3     H1       HT       0.417000       1.00800           0
     56073 W2       18691    TIP3     H2       HT       0.417000       1.00800           0
     56074 W2       18692    TIP3     OH2      OT      -0.834000       15.9994           0
     56075 W2       18692    TIP3     H1       HT       0.417000       1.00800           0
     56076 W2       18692    TIP3     H2       HT       0.417000       1.00800           0
     56077 W2       18693    TIP3     OH2      OT      -0.834000       15.9994           0
     56078 W2       18693    TIP3     H1       HT       0.417000       1.00800           0
     56079 W2       18693    TIP3     H2       HT       0.417000       1.00800           0
     56080 W2       18694    TIP3     OH2      OT      -0.834000       15.9994           0
     56081 W2       18694    TIP3     H1       HT       0.417000       1.00800           0
     56082 W2       18694    TIP3     H2       HT       0.417000       1.00800           0
     56083 W2       18695    TIP3     OH2      OT      -0.834000       15.9994           0
     56084 W2       18695    TIP3     H1       HT       0.417000       1.00800           0
     56085 W2       18695    TIP3     H2       HT       0.417000       1.00800           0
     56086 W2       18696    TIP3     OH2      OT      -0.834000       15.9994           0
     56087 W2       18696    TIP3     H1       HT       0.417000       1.00800           0
     56088 W2       18696    TIP3     H2       HT       0.417000       1.00800           0
     56089 W2       18697    TIP3     OH2      OT      -0.834000       15.9994           0
     56090 W2       18697    TIP3     H1       HT       0.417000       1.00800           0
     56091 W2       18697    TIP3     H2       HT       0.417000       1.00800           0
     56092 W2       18698    TIP3     OH2      OT      -0.834000       15.9994           0
     56093 W2       18698    TIP3     H1       HT       0.417000       1.00800           0
     56094 W2       18698    TIP3     H2       HT       0.417000       1.00800           0
     56095 W2       18699    TIP3     OH2      OT      -0.834000       15.9994           0
     56096 W2       18699    TIP3     H1       HT       0.417000       1.00800           0
     56097 W2       18699    TIP3     H2       HT       0.417000       1.00800           0
     56098 W2       18700    TIP3     OH2      OT      -0.834000       15.9994           0
     56099 W2       18700    TIP3     H1       HT       0.417000       1.00800           0
     56100 W2       18700    TIP3     H2       HT       0.417000       1.00800           0
     56101 W2       18701    TIP3     OH2      OT      -0.834000       15.9994           0
     56102 W2       18701    TIP3     H1       HT       0.417000       1.00800           0
     56103 W2       18701    TIP3     H2       HT       0.417000       1.00800           0
     56104 W2       18702    TIP3     OH2      OT      -0.834000       15.9994           0
     56105 W2       18702    TIP3     H1       HT       0.417000       1.00800           0
     56106 W2       18702    TIP3     H2       HT       0.417000       1.00800           0
     56107 W2       18703    TIP3     OH2      OT      -0.834000       15.9994           0
     56108 W2       18703    TIP3     H1       HT       0.417000       1.00800           0
     56109 W2       18703    TIP3     H2       HT       0.417000       1.00800           0
     56110 W2       18704    TIP3     OH2      OT      -0.834000       15.9994           0
     56111 W2       18704    TIP3     H1       HT       0.417000       1.00800           0
     56112 W2       18704    TIP3     H2       HT       0.417000       1.00800           0
     56113 W2       18705    TIP3     OH2      OT      -0.834000       15.9994           0
     56114 W2       18705    TIP3     H1       HT       0.417000       1.00800           0
     56115 W2       18705    TIP3     H2       HT       0.417000       1.00800           0
     56116 W2       18706    TIP3     OH2      OT      -0.834000       15.9994           0
     56117 W2       18706    TIP3     H1       HT       0.417000       1.00800           0
     56118 W2       18706    TIP3     H2       HT       0.417000       1.00800           0
     56119 W2       18707    TIP3     OH2      OT      -0.834000       15.9994           0
     56120 W2       18707    TIP3     H1       HT       0.417000       1.00800           0
     56121 W2       18707    TIP3     H2       HT       0.417000       1.00800           0
     56122 W2       18708    TIP3     OH2      OT      -0.834000       15.9994           0
     56123 W2       18708    TIP3     H1       HT       0.417000       1.00800           0
     56124 W2       18708    TIP3     H2       HT       0.417000       1.00800           0
     56125 W2       18709    TIP3     OH2      OT      -0.834000       15.9994           0
     56126 W2       18709    TIP3     H1       HT       0.417000       1.00800           0
     56127 W2       18709    TIP3     H2       HT       0.417000       1.00800           0
     56128 W2       18710    TIP3     OH2      OT      -0.834000       15.9994           0
     56129 W2       18710    TIP3     H1       HT       0.417000       1.00800           0
     56130 W2       18710    TIP3     H2       HT       0.417000       1.00800           0
     56131 W2       18711    TIP3     OH2      OT      -0.834000       15.9994           0
     56132 W2       18711    TIP3     H1       HT       0.417000       1.00800           0
     56133 W2       18711    TIP3     H2       HT       0.417000       1.00800           0
     56134 W2       18712    TIP3     OH2      OT      -0.834000       15.9994           0
     56135 W2       18712    TIP3     H1       HT       0.417000       1.00800           0
     56136 W2       18712    TIP3     H2       HT       0.417000       1.00800           0
     56137 W2       18713    TIP3     OH2      OT      -0.834000       15.9994           0
     56138 W2       18713    TIP3     H1       HT       0.417000       1.00800           0
     56139 W2       18713    TIP3     H2       HT       0.417000       1.00800           0
     56140 W2       18714    TIP3     OH2      OT      -0.834000       15.9994           0
     56141 W2       18714    TIP3     H1       HT       0.417000       1.00800           0
     56142 W2       18714    TIP3     H2       HT       0.417000       1.00800           0
     56143 W2       18715    TIP3     OH2      OT      -0.834000       15.9994           0
     56144 W2       18715    TIP3     H1       HT       0.417000       1.00800           0
     56145 W2       18715    TIP3     H2       HT       0.417000       1.00800           0
     56146 W2       18716    TIP3     OH2      OT      -0.834000       15.9994           0
     56147 W2       18716    TIP3     H1       HT       0.417000       1.00800           0
     56148 W2       18716    TIP3     H2       HT       0.417000       1.00800           0
     56149 W2       18717    TIP3     OH2      OT      -0.834000       15.9994           0
     56150 W2       18717    TIP3     H1       HT       0.417000       1.00800           0
     56151 W2       18717    TIP3     H2       HT       0.417000       1.00800           0
     56152 W2       18718    TIP3     OH2      OT      -0.834000       15.9994           0
     56153 W2       18718    TIP3     H1       HT       0.417000       1.00800           0
     56154 W2       18718    TIP3     H2       HT       0.417000       1.00800           0
     56155 W2       18719    TIP3     OH2      OT      -0.834000       15.9994           0
     56156 W2       18719    TIP3     H1       HT       0.417000       1.00800           0
     56157 W2       18719    TIP3     H2       HT       0.417000       1.00800           0
     56158 W2       18720    TIP3     OH2      OT      -0.834000       15.9994           0
     56159 W2       18720    TIP3     H1       HT       0.417000       1.00800           0
     56160 W2       18720    TIP3     H2       HT       0.417000       1.00800           0
     56161 W2       18721    TIP3     OH2      OT      -0.834000       15.9994           0
     56162 W2       18721    TIP3     H1       HT       0.417000       1.00800           0
     56163 W2       18721    TIP3     H2       HT       0.417000       1.00800           0
     56164 W2       18722    TIP3     OH2      OT      -0.834000       15.9994           0
     56165 W2       18722    TIP3     H1       HT       0.417000       1.00800           0
     56166 W2       18722    TIP3     H2       HT       0.417000       1.00800           0
     56167 W2       18723    TIP3     OH2      OT      -0.834000       15.9994           0
     56168 W2       18723    TIP3     H1       HT       0.417000       1.00800           0
     56169 W2       18723    TIP3     H2       HT       0.417000       1.00800           0
     56170 W2       18724    TIP3     OH2      OT      -0.834000       15.9994           0
     56171 W2       18724    TIP3     H1       HT       0.417000       1.00800           0
     56172 W2       18724    TIP3     H2       HT       0.417000       1.00800           0
     56173 W2       18725    TIP3     OH2      OT      -0.834000       15.9994           0
     56174 W2       18725    TIP3     H1       HT       0.417000       1.00800           0
     56175 W2       18725    TIP3     H2       HT       0.417000       1.00800           0
     56176 W2       18726    TIP3     OH2      OT      -0.834000       15.9994           0
     56177 W2       18726    TIP3     H1       HT       0.417000       1.00800           0
     56178 W2       18726    TIP3     H2       HT       0.417000       1.00800           0
     56179 W2       18727    TIP3     OH2      OT      -0.834000       15.9994           0
     56180 W2       18727    TIP3     H1       HT       0.417000       1.00800           0
     56181 W2       18727    TIP3     H2       HT       0.417000       1.00800           0
     56182 W2       18728    TIP3     OH2      OT      -0.834000       15.9994           0
     56183 W2       18728    TIP3     H1       HT       0.417000       1.00800           0
     56184 W2       18728    TIP3     H2       HT       0.417000       1.00800           0
     56185 W2       18729    TIP3     OH2      OT      -0.834000       15.9994           0
     56186 W2       18729    TIP3     H1       HT       0.417000       1.00800           0
     56187 W2       18729    TIP3     H2       HT       0.417000       1.00800           0
     56188 W2       18730    TIP3     OH2      OT      -0.834000       15.9994           0
     56189 W2       18730    TIP3     H1       HT       0.417000       1.00800           0
     56190 W2       18730    TIP3     H2       HT       0.417000       1.00800           0
     56191 W2       18731    TIP3     OH2      OT      -0.834000       15.9994           0
     56192 W2       18731    TIP3     H1       HT       0.417000       1.00800           0
     56193 W2       18731    TIP3     H2       HT       0.417000       1.00800           0
     56194 W2       18732    TIP3     OH2      OT      -0.834000       15.9994           0
     56195 W2       18732    TIP3     H1       HT       0.417000       1.00800           0
     56196 W2       18732    TIP3     H2       HT       0.417000       1.00800           0
     56197 W2       18733    TIP3     OH2      OT      -0.834000       15.9994           0
     56198 W2       18733    TIP3     H1       HT       0.417000       1.00800           0
     56199 W2       18733    TIP3     H2       HT       0.417000       1.00800           0
     56200 W2       18734    TIP3     OH2      OT      -0.834000       15.9994           0
     56201 W2       18734    TIP3     H1       HT       0.417000       1.00800           0
     56202 W2       18734    TIP3     H2       HT       0.417000       1.00800           0
     56203 W2       18735    TIP3     OH2      OT      -0.834000       15.9994           0
     56204 W2       18735    TIP3     H1       HT       0.417000       1.00800           0
     56205 W2       18735    TIP3     H2       HT       0.417000       1.00800           0
     56206 W2       18736    TIP3     OH2      OT      -0.834000       15.9994           0
     56207 W2       18736    TIP3     H1       HT       0.417000       1.00800           0
     56208 W2       18736    TIP3     H2       HT       0.417000       1.00800           0
     56209 W2       18737    TIP3     OH2      OT      -0.834000       15.9994           0
     56210 W2       18737    TIP3     H1       HT       0.417000       1.00800           0
     56211 W2       18737    TIP3     H2       HT       0.417000       1.00800           0
     56212 W2       18738    TIP3     OH2      OT      -0.834000       15.9994           0
     56213 W2       18738    TIP3     H1       HT       0.417000       1.00800           0
     56214 W2       18738    TIP3     H2       HT       0.417000       1.00800           0
     56215 W2       18739    TIP3     OH2      OT      -0.834000       15.9994           0
     56216 W2       18739    TIP3     H1       HT       0.417000       1.00800           0
     56217 W2       18739    TIP3     H2       HT       0.417000       1.00800           0
     56218 W2       18740    TIP3     OH2      OT      -0.834000       15.9994           0
     56219 W2       18740    TIP3     H1       HT       0.417000       1.00800           0
     56220 W2       18740    TIP3     H2       HT       0.417000       1.00800           0
     56221 W2       18741    TIP3     OH2      OT      -0.834000       15.9994           0
     56222 W2       18741    TIP3     H1       HT       0.417000       1.00800           0
     56223 W2       18741    TIP3     H2       HT       0.417000       1.00800           0
     56224 W2       18742    TIP3     OH2      OT      -0.834000       15.9994           0
     56225 W2       18742    TIP3     H1       HT       0.417000       1.00800           0
     56226 W2       18742    TIP3     H2       HT       0.417000       1.00800           0
     56227 W2       18743    TIP3     OH2      OT      -0.834000       15.9994           0
     56228 W2       18743    TIP3     H1       HT       0.417000       1.00800           0
     56229 W2       18743    TIP3     H2       HT       0.417000       1.00800           0
     56230 W2       18744    TIP3     OH2      OT      -0.834000       15.9994           0
     56231 W2       18744    TIP3     H1       HT       0.417000       1.00800           0
     56232 W2       18744    TIP3     H2       HT       0.417000       1.00800           0
     56233 W2       18745    TIP3     OH2      OT      -0.834000       15.9994           0
     56234 W2       18745    TIP3     H1       HT       0.417000       1.00800           0
     56235 W2       18745    TIP3     H2       HT       0.417000       1.00800           0
     56236 W2       18746    TIP3     OH2      OT      -0.834000       15.9994           0
     56237 W2       18746    TIP3     H1       HT       0.417000       1.00800           0
     56238 W2       18746    TIP3     H2       HT       0.417000       1.00800           0
     56239 W2       18747    TIP3     OH2      OT      -0.834000       15.9994           0
     56240 W2       18747    TIP3     H1       HT       0.417000       1.00800           0
     56241 W2       18747    TIP3     H2       HT       0.417000       1.00800           0
     56242 W2       18748    TIP3     OH2      OT      -0.834000       15.9994           0
     56243 W2       18748    TIP3     H1       HT       0.417000       1.00800           0
     56244 W2       18748    TIP3     H2       HT       0.417000       1.00800           0
     56245 W2       18749    TIP3     OH2      OT      -0.834000       15.9994           0
     56246 W2       18749    TIP3     H1       HT       0.417000       1.00800           0
     56247 W2       18749    TIP3     H2       HT       0.417000       1.00800           0
     56248 W2       18750    TIP3     OH2      OT      -0.834000       15.9994           0
     56249 W2       18750    TIP3     H1       HT       0.417000       1.00800           0
     56250 W2       18750    TIP3     H2       HT       0.417000       1.00800           0
     56251 W2       18751    TIP3     OH2      OT      -0.834000       15.9994           0
     56252 W2       18751    TIP3     H1       HT       0.417000       1.00800           0
     56253 W2       18751    TIP3     H2       HT       0.417000       1.00800           0
     56254 W2       18752    TIP3     OH2      OT      -0.834000       15.9994           0
     56255 W2       18752    TIP3     H1       HT       0.417000       1.00800           0
     56256 W2       18752    TIP3     H2       HT       0.417000       1.00800           0
     56257 W2       18753    TIP3     OH2      OT      -0.834000       15.9994           0
     56258 W2       18753    TIP3     H1       HT       0.417000       1.00800           0
     56259 W2       18753    TIP3     H2       HT       0.417000       1.00800           0
     56260 W2       18754    TIP3     OH2      OT      -0.834000       15.9994           0
     56261 W2       18754    TIP3     H1       HT       0.417000       1.00800           0
     56262 W2       18754    TIP3     H2       HT       0.417000       1.00800           0
     56263 W2       18755    TIP3     OH2      OT      -0.834000       15.9994           0
     56264 W2       18755    TIP3     H1       HT       0.417000       1.00800           0
     56265 W2       18755    TIP3     H2       HT       0.417000       1.00800           0
     56266 W2       18756    TIP3     OH2      OT      -0.834000       15.9994           0
     56267 W2       18756    TIP3     H1       HT       0.417000       1.00800           0
     56268 W2       18756    TIP3     H2       HT       0.417000       1.00800           0
     56269 W2       18757    TIP3     OH2      OT      -0.834000       15.9994           0
     56270 W2       18757    TIP3     H1       HT       0.417000       1.00800           0
     56271 W2       18757    TIP3     H2       HT       0.417000       1.00800           0
     56272 W2       18758    TIP3     OH2      OT      -0.834000       15.9994           0
     56273 W2       18758    TIP3     H1       HT       0.417000       1.00800           0
     56274 W2       18758    TIP3     H2       HT       0.417000       1.00800           0
     56275 W2       18759    TIP3     OH2      OT      -0.834000       15.9994           0
     56276 W2       18759    TIP3     H1       HT       0.417000       1.00800           0
     56277 W2       18759    TIP3     H2       HT       0.417000       1.00800           0
     56278 W2       18760    TIP3     OH2      OT      -0.834000       15.9994           0
     56279 W2       18760    TIP3     H1       HT       0.417000       1.00800           0
     56280 W2       18760    TIP3     H2       HT       0.417000       1.00800           0
     56281 W2       18761    TIP3     OH2      OT      -0.834000       15.9994           0
     56282 W2       18761    TIP3     H1       HT       0.417000       1.00800           0
     56283 W2       18761    TIP3     H2       HT       0.417000       1.00800           0
     56284 W2       18762    TIP3     OH2      OT      -0.834000       15.9994           0
     56285 W2       18762    TIP3     H1       HT       0.417000       1.00800           0
     56286 W2       18762    TIP3     H2       HT       0.417000       1.00800           0
     56287 W2       18763    TIP3     OH2      OT      -0.834000       15.9994           0
     56288 W2       18763    TIP3     H1       HT       0.417000       1.00800           0
     56289 W2       18763    TIP3     H2       HT       0.417000       1.00800           0
     56290 W2       18764    TIP3     OH2      OT      -0.834000       15.9994           0
     56291 W2       18764    TIP3     H1       HT       0.417000       1.00800           0
     56292 W2       18764    TIP3     H2       HT       0.417000       1.00800           0
     56293 W2       18765    TIP3     OH2      OT      -0.834000       15.9994           0
     56294 W2       18765    TIP3     H1       HT       0.417000       1.00800           0
     56295 W2       18765    TIP3     H2       HT       0.417000       1.00800           0
     56296 W2       18766    TIP3     OH2      OT      -0.834000       15.9994           0
     56297 W2       18766    TIP3     H1       HT       0.417000       1.00800           0
     56298 W2       18766    TIP3     H2       HT       0.417000       1.00800           0
     56299 W2       18767    TIP3     OH2      OT      -0.834000       15.9994           0
     56300 W2       18767    TIP3     H1       HT       0.417000       1.00800           0
     56301 W2       18767    TIP3     H2       HT       0.417000       1.00800           0
     56302 W2       18768    TIP3     OH2      OT      -0.834000       15.9994           0
     56303 W2       18768    TIP3     H1       HT       0.417000       1.00800           0
     56304 W2       18768    TIP3     H2       HT       0.417000       1.00800           0
     56305 W2       18769    TIP3     OH2      OT      -0.834000       15.9994           0
     56306 W2       18769    TIP3     H1       HT       0.417000       1.00800           0
     56307 W2       18769    TIP3     H2       HT       0.417000       1.00800           0
     56308 W2       18770    TIP3     OH2      OT      -0.834000       15.9994           0
     56309 W2       18770    TIP3     H1       HT       0.417000       1.00800           0
     56310 W2       18770    TIP3     H2       HT       0.417000       1.00800           0
     56311 W2       18771    TIP3     OH2      OT      -0.834000       15.9994           0
     56312 W2       18771    TIP3     H1       HT       0.417000       1.00800           0
     56313 W2       18771    TIP3     H2       HT       0.417000       1.00800           0
     56314 W2       18772    TIP3     OH2      OT      -0.834000       15.9994           0
     56315 W2       18772    TIP3     H1       HT       0.417000       1.00800           0
     56316 W2       18772    TIP3     H2       HT       0.417000       1.00800           0
     56317 W2       18773    TIP3     OH2      OT      -0.834000       15.9994           0
     56318 W2       18773    TIP3     H1       HT       0.417000       1.00800           0
     56319 W2       18773    TIP3     H2       HT       0.417000       1.00800           0
     56320 W2       18774    TIP3     OH2      OT      -0.834000       15.9994           0
     56321 W2       18774    TIP3     H1       HT       0.417000       1.00800           0
     56322 W2       18774    TIP3     H2       HT       0.417000       1.00800           0
     56323 W2       18775    TIP3     OH2      OT      -0.834000       15.9994           0
     56324 W2       18775    TIP3     H1       HT       0.417000       1.00800           0
     56325 W2       18775    TIP3     H2       HT       0.417000       1.00800           0
     56326 W2       18776    TIP3     OH2      OT      -0.834000       15.9994           0
     56327 W2       18776    TIP3     H1       HT       0.417000       1.00800           0
     56328 W2       18776    TIP3     H2       HT       0.417000       1.00800           0
     56329 W2       18777    TIP3     OH2      OT      -0.834000       15.9994           0
     56330 W2       18777    TIP3     H1       HT       0.417000       1.00800           0
     56331 W2       18777    TIP3     H2       HT       0.417000       1.00800           0
     56332 W2       18778    TIP3     OH2      OT      -0.834000       15.9994           0
     56333 W2       18778    TIP3     H1       HT       0.417000       1.00800           0
     56334 W2       18778    TIP3     H2       HT       0.417000       1.00800           0
     56335 W2       18779    TIP3     OH2      OT      -0.834000       15.9994           0
     56336 W2       18779    TIP3     H1       HT       0.417000       1.00800           0
     56337 W2       18779    TIP3     H2       HT       0.417000       1.00800           0
     56338 W2       18780    TIP3     OH2      OT      -0.834000       15.9994           0
     56339 W2       18780    TIP3     H1       HT       0.417000       1.00800           0
     56340 W2       18780    TIP3     H2       HT       0.417000       1.00800           0
     56341 W2       18781    TIP3     OH2      OT      -0.834000       15.9994           0
     56342 W2       18781    TIP3     H1       HT       0.417000       1.00800           0
     56343 W2       18781    TIP3     H2       HT       0.417000       1.00800           0
     56344 W2       18782    TIP3     OH2      OT      -0.834000       15.9994           0
     56345 W2       18782    TIP3     H1       HT       0.417000       1.00800           0
     56346 W2       18782    TIP3     H2       HT       0.417000       1.00800           0
     56347 W2       18783    TIP3     OH2      OT      -0.834000       15.9994           0
     56348 W2       18783    TIP3     H1       HT       0.417000       1.00800           0
     56349 W2       18783    TIP3     H2       HT       0.417000       1.00800           0
     56350 W2       18784    TIP3     OH2      OT      -0.834000       15.9994           0
     56351 W2       18784    TIP3     H1       HT       0.417000       1.00800           0
     56352 W2       18784    TIP3     H2       HT       0.417000       1.00800           0
     56353 W2       18785    TIP3     OH2      OT      -0.834000       15.9994           0
     56354 W2       18785    TIP3     H1       HT       0.417000       1.00800           0
     56355 W2       18785    TIP3     H2       HT       0.417000       1.00800           0
     56356 W2       18786    TIP3     OH2      OT      -0.834000       15.9994           0
     56357 W2       18786    TIP3     H1       HT       0.417000       1.00800           0
     56358 W2       18786    TIP3     H2       HT       0.417000       1.00800           0
     56359 W2       18787    TIP3     OH2      OT      -0.834000       15.9994           0
     56360 W2       18787    TIP3     H1       HT       0.417000       1.00800           0
     56361 W2       18787    TIP3     H2       HT       0.417000       1.00800           0
     56362 W2       18788    TIP3     OH2      OT      -0.834000       15.9994           0
     56363 W2       18788    TIP3     H1       HT       0.417000       1.00800           0
     56364 W2       18788    TIP3     H2       HT       0.417000       1.00800           0
     56365 W2       18789    TIP3     OH2      OT      -0.834000       15.9994           0
     56366 W2       18789    TIP3     H1       HT       0.417000       1.00800           0
     56367 W2       18789    TIP3     H2       HT       0.417000       1.00800           0
     56368 W2       18790    TIP3     OH2      OT      -0.834000       15.9994           0
     56369 W2       18790    TIP3     H1       HT       0.417000       1.00800           0
     56370 W2       18790    TIP3     H2       HT       0.417000       1.00800           0
     56371 W2       18791    TIP3     OH2      OT      -0.834000       15.9994           0
     56372 W2       18791    TIP3     H1       HT       0.417000       1.00800           0
     56373 W2       18791    TIP3     H2       HT       0.417000       1.00800           0
     56374 W2       18792    TIP3     OH2      OT      -0.834000       15.9994           0
     56375 W2       18792    TIP3     H1       HT       0.417000       1.00800           0
     56376 W2       18792    TIP3     H2       HT       0.417000       1.00800           0
     56377 W2       18793    TIP3     OH2      OT      -0.834000       15.9994           0
     56378 W2       18793    TIP3     H1       HT       0.417000       1.00800           0
     56379 W2       18793    TIP3     H2       HT       0.417000       1.00800           0
     56380 W2       18794    TIP3     OH2      OT      -0.834000       15.9994           0
     56381 W2       18794    TIP3     H1       HT       0.417000       1.00800           0
     56382 W2       18794    TIP3     H2       HT       0.417000       1.00800           0
     56383 W2       18795    TIP3     OH2      OT      -0.834000       15.9994           0
     56384 W2       18795    TIP3     H1       HT       0.417000       1.00800           0
     56385 W2       18795    TIP3     H2       HT       0.417000       1.00800           0
     56386 W2       18796    TIP3     OH2      OT      -0.834000       15.9994           0
     56387 W2       18796    TIP3     H1       HT       0.417000       1.00800           0
     56388 W2       18796    TIP3     H2       HT       0.417000       1.00800           0
     56389 W2       18797    TIP3     OH2      OT      -0.834000       15.9994           0
     56390 W2       18797    TIP3     H1       HT       0.417000       1.00800           0
     56391 W2       18797    TIP3     H2       HT       0.417000       1.00800           0
     56392 W2       18798    TIP3     OH2      OT      -0.834000       15.9994           0
     56393 W2       18798    TIP3     H1       HT       0.417000       1.00800           0
     56394 W2       18798    TIP3     H2       HT       0.417000       1.00800           0
     56395 W2       18799    TIP3     OH2      OT      -0.834000       15.9994           0
     56396 W2       18799    TIP3     H1       HT       0.417000       1.00800           0
     56397 W2       18799    TIP3     H2       HT       0.417000       1.00800           0
     56398 W2       18800    TIP3     OH2      OT      -0.834000       15.9994           0
     56399 W2       18800    TIP3     H1       HT       0.417000       1.00800           0
     56400 W2       18800    TIP3     H2       HT       0.417000       1.00800           0
     56401 W2       18801    TIP3     OH2      OT      -0.834000       15.9994           0
     56402 W2       18801    TIP3     H1       HT       0.417000       1.00800           0
     56403 W2       18801    TIP3     H2       HT       0.417000       1.00800           0
     56404 W2       18802    TIP3     OH2      OT      -0.834000       15.9994           0
     56405 W2       18802    TIP3     H1       HT       0.417000       1.00800           0
     56406 W2       18802    TIP3     H2       HT       0.417000       1.00800           0
     56407 W2       18803    TIP3     OH2      OT      -0.834000       15.9994           0
     56408 W2       18803    TIP3     H1       HT       0.417000       1.00800           0
     56409 W2       18803    TIP3     H2       HT       0.417000       1.00800           0
     56410 W2       18804    TIP3     OH2      OT      -0.834000       15.9994           0
     56411 W2       18804    TIP3     H1       HT       0.417000       1.00800           0
     56412 W2       18804    TIP3     H2       HT       0.417000       1.00800           0
     56413 W2       18805    TIP3     OH2      OT      -0.834000       15.9994           0
     56414 W2       18805    TIP3     H1       HT       0.417000       1.00800           0
     56415 W2       18805    TIP3     H2       HT       0.417000       1.00800           0
     56416 W2       18806    TIP3     OH2      OT      -0.834000       15.9994           0
     56417 W2       18806    TIP3     H1       HT       0.417000       1.00800           0
     56418 W2       18806    TIP3     H2       HT       0.417000       1.00800           0
     56419 W2       18807    TIP3     OH2      OT      -0.834000       15.9994           0
     56420 W2       18807    TIP3     H1       HT       0.417000       1.00800           0
     56421 W2       18807    TIP3     H2       HT       0.417000       1.00800           0
     56422 W2       18808    TIP3     OH2      OT      -0.834000       15.9994           0
     56423 W2       18808    TIP3     H1       HT       0.417000       1.00800           0
     56424 W2       18808    TIP3     H2       HT       0.417000       1.00800           0
     56425 W2       18809    TIP3     OH2      OT      -0.834000       15.9994           0
     56426 W2       18809    TIP3     H1       HT       0.417000       1.00800           0
     56427 W2       18809    TIP3     H2       HT       0.417000       1.00800           0
     56428 W2       18810    TIP3     OH2      OT      -0.834000       15.9994           0
     56429 W2       18810    TIP3     H1       HT       0.417000       1.00800           0
     56430 W2       18810    TIP3     H2       HT       0.417000       1.00800           0
     56431 W2       18811    TIP3     OH2      OT      -0.834000       15.9994           0
     56432 W2       18811    TIP3     H1       HT       0.417000       1.00800           0
     56433 W2       18811    TIP3     H2       HT       0.417000       1.00800           0
     56434 W2       18812    TIP3     OH2      OT      -0.834000       15.9994           0
     56435 W2       18812    TIP3     H1       HT       0.417000       1.00800           0
     56436 W2       18812    TIP3     H2       HT       0.417000       1.00800           0
     56437 W2       18813    TIP3     OH2      OT      -0.834000       15.9994           0
     56438 W2       18813    TIP3     H1       HT       0.417000       1.00800           0
     56439 W2       18813    TIP3     H2       HT       0.417000       1.00800           0
     56440 W2       18814    TIP3     OH2      OT      -0.834000       15.9994           0
     56441 W2       18814    TIP3     H1       HT       0.417000       1.00800           0
     56442 W2       18814    TIP3     H2       HT       0.417000       1.00800           0
     56443 W2       18815    TIP3     OH2      OT      -0.834000       15.9994           0
     56444 W2       18815    TIP3     H1       HT       0.417000       1.00800           0
     56445 W2       18815    TIP3     H2       HT       0.417000       1.00800           0
     56446 W2       18816    TIP3     OH2      OT      -0.834000       15.9994           0
     56447 W2       18816    TIP3     H1       HT       0.417000       1.00800           0
     56448 W2       18816    TIP3     H2       HT       0.417000       1.00800           0
     56449 W2       18817    TIP3     OH2      OT      -0.834000       15.9994           0
     56450 W2       18817    TIP3     H1       HT       0.417000       1.00800           0
     56451 W2       18817    TIP3     H2       HT       0.417000       1.00800           0
     56452 W2       18818    TIP3     OH2      OT      -0.834000       15.9994           0
     56453 W2       18818    TIP3     H1       HT       0.417000       1.00800           0
     56454 W2       18818    TIP3     H2       HT       0.417000       1.00800           0
     56455 W2       18819    TIP3     OH2      OT      -0.834000       15.9994           0
     56456 W2       18819    TIP3     H1       HT       0.417000       1.00800           0
     56457 W2       18819    TIP3     H2       HT       0.417000       1.00800           0
     56458 W2       18820    TIP3     OH2      OT      -0.834000       15.9994           0
     56459 W2       18820    TIP3     H1       HT       0.417000       1.00800           0
     56460 W2       18820    TIP3     H2       HT       0.417000       1.00800           0
     56461 W2       18821    TIP3     OH2      OT      -0.834000       15.9994           0
     56462 W2       18821    TIP3     H1       HT       0.417000       1.00800           0
     56463 W2       18821    TIP3     H2       HT       0.417000       1.00800           0
     56464 W2       18822    TIP3     OH2      OT      -0.834000       15.9994           0
     56465 W2       18822    TIP3     H1       HT       0.417000       1.00800           0
     56466 W2       18822    TIP3     H2       HT       0.417000       1.00800           0
     56467 W2       18823    TIP3     OH2      OT      -0.834000       15.9994           0
     56468 W2       18823    TIP3     H1       HT       0.417000       1.00800           0
     56469 W2       18823    TIP3     H2       HT       0.417000       1.00800           0
     56470 W2       18824    TIP3     OH2      OT      -0.834000       15.9994           0
     56471 W2       18824    TIP3     H1       HT       0.417000       1.00800           0
     56472 W2       18824    TIP3     H2       HT       0.417000       1.00800           0
     56473 W2       18825    TIP3     OH2      OT      -0.834000       15.9994           0
     56474 W2       18825    TIP3     H1       HT       0.417000       1.00800           0
     56475 W2       18825    TIP3     H2       HT       0.417000       1.00800           0
     56476 W2       18826    TIP3     OH2      OT      -0.834000       15.9994           0
     56477 W2       18826    TIP3     H1       HT       0.417000       1.00800           0
     56478 W2       18826    TIP3     H2       HT       0.417000       1.00800           0
     56479 W2       18827    TIP3     OH2      OT      -0.834000       15.9994           0
     56480 W2       18827    TIP3     H1       HT       0.417000       1.00800           0
     56481 W2       18827    TIP3     H2       HT       0.417000       1.00800           0
     56482 W2       18828    TIP3     OH2      OT      -0.834000       15.9994           0
     56483 W2       18828    TIP3     H1       HT       0.417000       1.00800           0
     56484 W2       18828    TIP3     H2       HT       0.417000       1.00800           0
     56485 W2       18829    TIP3     OH2      OT      -0.834000       15.9994           0
     56486 W2       18829    TIP3     H1       HT       0.417000       1.00800           0
     56487 W2       18829    TIP3     H2       HT       0.417000       1.00800           0
     56488 W2       18830    TIP3     OH2      OT      -0.834000       15.9994           0
     56489 W2       18830    TIP3     H1       HT       0.417000       1.00800           0
     56490 W2       18830    TIP3     H2       HT       0.417000       1.00800           0
     56491 W2       18831    TIP3     OH2      OT      -0.834000       15.9994           0
     56492 W2       18831    TIP3     H1       HT       0.417000       1.00800           0
     56493 W2       18831    TIP3     H2       HT       0.417000       1.00800           0
     56494 W2       18832    TIP3     OH2      OT      -0.834000       15.9994           0
     56495 W2       18832    TIP3     H1       HT       0.417000       1.00800           0
     56496 W2       18832    TIP3     H2       HT       0.417000       1.00800           0
     56497 W2       18833    TIP3     OH2      OT      -0.834000       15.9994           0
     56498 W2       18833    TIP3     H1       HT       0.417000       1.00800           0
     56499 W2       18833    TIP3     H2       HT       0.417000       1.00800           0
     56500 W2       18834    TIP3     OH2      OT      -0.834000       15.9994           0
     56501 W2       18834    TIP3     H1       HT       0.417000       1.00800           0
     56502 W2       18834    TIP3     H2       HT       0.417000       1.00800           0
     56503 W2       18835    TIP3     OH2      OT      -0.834000       15.9994           0
     56504 W2       18835    TIP3     H1       HT       0.417000       1.00800           0
     56505 W2       18835    TIP3     H2       HT       0.417000       1.00800           0
     56506 W2       18836    TIP3     OH2      OT      -0.834000       15.9994           0
     56507 W2       18836    TIP3     H1       HT       0.417000       1.00800           0
     56508 W2       18836    TIP3     H2       HT       0.417000       1.00800           0
     56509 W2       18837    TIP3     OH2      OT      -0.834000       15.9994           0
     56510 W2       18837    TIP3     H1       HT       0.417000       1.00800           0
     56511 W2       18837    TIP3     H2       HT       0.417000       1.00800           0
     56512 W2       18838    TIP3     OH2      OT      -0.834000       15.9994           0
     56513 W2       18838    TIP3     H1       HT       0.417000       1.00800           0
     56514 W2       18838    TIP3     H2       HT       0.417000       1.00800           0
     56515 W2       18839    TIP3     OH2      OT      -0.834000       15.9994           0
     56516 W2       18839    TIP3     H1       HT       0.417000       1.00800           0
     56517 W2       18839    TIP3     H2       HT       0.417000       1.00800           0
     56518 W2       18840    TIP3     OH2      OT      -0.834000       15.9994           0
     56519 W2       18840    TIP3     H1       HT       0.417000       1.00800           0
     56520 W2       18840    TIP3     H2       HT       0.417000       1.00800           0
     56521 W2       18841    TIP3     OH2      OT      -0.834000       15.9994           0
     56522 W2       18841    TIP3     H1       HT       0.417000       1.00800           0
     56523 W2       18841    TIP3     H2       HT       0.417000       1.00800           0
     56524 W2       18842    TIP3     OH2      OT      -0.834000       15.9994           0
     56525 W2       18842    TIP3     H1       HT       0.417000       1.00800           0
     56526 W2       18842    TIP3     H2       HT       0.417000       1.00800           0
     56527 W2       18843    TIP3     OH2      OT      -0.834000       15.9994           0
     56528 W2       18843    TIP3     H1       HT       0.417000       1.00800           0
     56529 W2       18843    TIP3     H2       HT       0.417000       1.00800           0
     56530 W2       18844    TIP3     OH2      OT      -0.834000       15.9994           0
     56531 W2       18844    TIP3     H1       HT       0.417000       1.00800           0
     56532 W2       18844    TIP3     H2       HT       0.417000       1.00800           0
     56533 W2       18845    TIP3     OH2      OT      -0.834000       15.9994           0
     56534 W2       18845    TIP3     H1       HT       0.417000       1.00800           0
     56535 W2       18845    TIP3     H2       HT       0.417000       1.00800           0
     56536 W2       18846    TIP3     OH2      OT      -0.834000       15.9994           0
     56537 W2       18846    TIP3     H1       HT       0.417000       1.00800           0
     56538 W2       18846    TIP3     H2       HT       0.417000       1.00800           0
     56539 W2       18847    TIP3     OH2      OT      -0.834000       15.9994           0
     56540 W2       18847    TIP3     H1       HT       0.417000       1.00800           0
     56541 W2       18847    TIP3     H2       HT       0.417000       1.00800           0
     56542 W2       18848    TIP3     OH2      OT      -0.834000       15.9994           0
     56543 W2       18848    TIP3     H1       HT       0.417000       1.00800           0
     56544 W2       18848    TIP3     H2       HT       0.417000       1.00800           0
     56545 W2       18849    TIP3     OH2      OT      -0.834000       15.9994           0
     56546 W2       18849    TIP3     H1       HT       0.417000       1.00800           0
     56547 W2       18849    TIP3     H2       HT       0.417000       1.00800           0
     56548 W2       18850    TIP3     OH2      OT      -0.834000       15.9994           0
     56549 W2       18850    TIP3     H1       HT       0.417000       1.00800           0
     56550 W2       18850    TIP3     H2       HT       0.417000       1.00800           0
     56551 W2       18851    TIP3     OH2      OT      -0.834000       15.9994           0
     56552 W2       18851    TIP3     H1       HT       0.417000       1.00800           0
     56553 W2       18851    TIP3     H2       HT       0.417000       1.00800           0
     56554 W2       18852    TIP3     OH2      OT      -0.834000       15.9994           0
     56555 W2       18852    TIP3     H1       HT       0.417000       1.00800           0
     56556 W2       18852    TIP3     H2       HT       0.417000       1.00800           0
     56557 W2       18853    TIP3     OH2      OT      -0.834000       15.9994           0
     56558 W2       18853    TIP3     H1       HT       0.417000       1.00800           0
     56559 W2       18853    TIP3     H2       HT       0.417000       1.00800           0
     56560 W2       18854    TIP3     OH2      OT      -0.834000       15.9994           0
     56561 W2       18854    TIP3     H1       HT       0.417000       1.00800           0
     56562 W2       18854    TIP3     H2       HT       0.417000       1.00800           0
     56563 W2       18855    TIP3     OH2      OT      -0.834000       15.9994           0
     56564 W2       18855    TIP3     H1       HT       0.417000       1.00800           0
     56565 W2       18855    TIP3     H2       HT       0.417000       1.00800           0
     56566 W2       18856    TIP3     OH2      OT      -0.834000       15.9994           0
     56567 W2       18856    TIP3     H1       HT       0.417000       1.00800           0
     56568 W2       18856    TIP3     H2       HT       0.417000       1.00800           0
     56569 W2       18857    TIP3     OH2      OT      -0.834000       15.9994           0
     56570 W2       18857    TIP3     H1       HT       0.417000       1.00800           0
     56571 W2       18857    TIP3     H2       HT       0.417000       1.00800           0
     56572 W2       18858    TIP3     OH2      OT      -0.834000       15.9994           0
     56573 W2       18858    TIP3     H1       HT       0.417000       1.00800           0
     56574 W2       18858    TIP3     H2       HT       0.417000       1.00800           0
     56575 W2       18859    TIP3     OH2      OT      -0.834000       15.9994           0
     56576 W2       18859    TIP3     H1       HT       0.417000       1.00800           0
     56577 W2       18859    TIP3     H2       HT       0.417000       1.00800           0
     56578 W2       18860    TIP3     OH2      OT      -0.834000       15.9994           0
     56579 W2       18860    TIP3     H1       HT       0.417000       1.00800           0
     56580 W2       18860    TIP3     H2       HT       0.417000       1.00800           0
     56581 W2       18861    TIP3     OH2      OT      -0.834000       15.9994           0
     56582 W2       18861    TIP3     H1       HT       0.417000       1.00800           0
     56583 W2       18861    TIP3     H2       HT       0.417000       1.00800           0
     56584 W2       18862    TIP3     OH2      OT      -0.834000       15.9994           0
     56585 W2       18862    TIP3     H1       HT       0.417000       1.00800           0
     56586 W2       18862    TIP3     H2       HT       0.417000       1.00800           0
     56587 W2       18863    TIP3     OH2      OT      -0.834000       15.9994           0
     56588 W2       18863    TIP3     H1       HT       0.417000       1.00800           0
     56589 W2       18863    TIP3     H2       HT       0.417000       1.00800           0
     56590 W2       18864    TIP3     OH2      OT      -0.834000       15.9994           0
     56591 W2       18864    TIP3     H1       HT       0.417000       1.00800           0
     56592 W2       18864    TIP3     H2       HT       0.417000       1.00800           0
     56593 W2       18865    TIP3     OH2      OT      -0.834000       15.9994           0
     56594 W2       18865    TIP3     H1       HT       0.417000       1.00800           0
     56595 W2       18865    TIP3     H2       HT       0.417000       1.00800           0
     56596 W2       18866    TIP3     OH2      OT      -0.834000       15.9994           0
     56597 W2       18866    TIP3     H1       HT       0.417000       1.00800           0
     56598 W2       18866    TIP3     H2       HT       0.417000       1.00800           0
     56599 W2       18867    TIP3     OH2      OT      -0.834000       15.9994           0
     56600 W2       18867    TIP3     H1       HT       0.417000       1.00800           0
     56601 W2       18867    TIP3     H2       HT       0.417000       1.00800           0
     56602 W2       18868    TIP3     OH2      OT      -0.834000       15.9994           0
     56603 W2       18868    TIP3     H1       HT       0.417000       1.00800           0
     56604 W2       18868    TIP3     H2       HT       0.417000       1.00800           0
     56605 W2       18869    TIP3     OH2      OT      -0.834000       15.9994           0
     56606 W2       18869    TIP3     H1       HT       0.417000       1.00800           0
     56607 W2       18869    TIP3     H2       HT       0.417000       1.00800           0
     56608 W2       18870    TIP3     OH2      OT      -0.834000       15.9994           0
     56609 W2       18870    TIP3     H1       HT       0.417000       1.00800           0
     56610 W2       18870    TIP3     H2       HT       0.417000       1.00800           0
     56611 W2       18871    TIP3     OH2      OT      -0.834000       15.9994           0
     56612 W2       18871    TIP3     H1       HT       0.417000       1.00800           0
     56613 W2       18871    TIP3     H2       HT       0.417000       1.00800           0
     56614 W2       18872    TIP3     OH2      OT      -0.834000       15.9994           0
     56615 W2       18872    TIP3     H1       HT       0.417000       1.00800           0
     56616 W2       18872    TIP3     H2       HT       0.417000       1.00800           0
     56617 W2       18873    TIP3     OH2      OT      -0.834000       15.9994           0
     56618 W2       18873    TIP3     H1       HT       0.417000       1.00800           0
     56619 W2       18873    TIP3     H2       HT       0.417000       1.00800           0
     56620 W2       18874    TIP3     OH2      OT      -0.834000       15.9994           0
     56621 W2       18874    TIP3     H1       HT       0.417000       1.00800           0
     56622 W2       18874    TIP3     H2       HT       0.417000       1.00800           0
     56623 W2       18875    TIP3     OH2      OT      -0.834000       15.9994           0
     56624 W2       18875    TIP3     H1       HT       0.417000       1.00800           0
     56625 W2       18875    TIP3     H2       HT       0.417000       1.00800           0
     56626 W2       18876    TIP3     OH2      OT      -0.834000       15.9994           0
     56627 W2       18876    TIP3     H1       HT       0.417000       1.00800           0
     56628 W2       18876    TIP3     H2       HT       0.417000       1.00800           0
     56629 W2       18877    TIP3     OH2      OT      -0.834000       15.9994           0
     56630 W2       18877    TIP3     H1       HT       0.417000       1.00800           0
     56631 W2       18877    TIP3     H2       HT       0.417000       1.00800           0
     56632 W2       18878    TIP3     OH2      OT      -0.834000       15.9994           0
     56633 W2       18878    TIP3     H1       HT       0.417000       1.00800           0
     56634 W2       18878    TIP3     H2       HT       0.417000       1.00800           0
     56635 W2       18879    TIP3     OH2      OT      -0.834000       15.9994           0
     56636 W2       18879    TIP3     H1       HT       0.417000       1.00800           0
     56637 W2       18879    TIP3     H2       HT       0.417000       1.00800           0
     56638 W2       18880    TIP3     OH2      OT      -0.834000       15.9994           0
     56639 W2       18880    TIP3     H1       HT       0.417000       1.00800           0
     56640 W2       18880    TIP3     H2       HT       0.417000       1.00800           0
     56641 W2       18881    TIP3     OH2      OT      -0.834000       15.9994           0
     56642 W2       18881    TIP3     H1       HT       0.417000       1.00800           0
     56643 W2       18881    TIP3     H2       HT       0.417000       1.00800           0
     56644 W2       18882    TIP3     OH2      OT      -0.834000       15.9994           0
     56645 W2       18882    TIP3     H1       HT       0.417000       1.00800           0
     56646 W2       18882    TIP3     H2       HT       0.417000       1.00800           0
     56647 W2       18883    TIP3     OH2      OT      -0.834000       15.9994           0
     56648 W2       18883    TIP3     H1       HT       0.417000       1.00800           0
     56649 W2       18883    TIP3     H2       HT       0.417000       1.00800           0
     56650 W2       18884    TIP3     OH2      OT      -0.834000       15.9994           0
     56651 W2       18884    TIP3     H1       HT       0.417000       1.00800           0
     56652 W2       18884    TIP3     H2       HT       0.417000       1.00800           0
     56653 W2       18885    TIP3     OH2      OT      -0.834000       15.9994           0
     56654 W2       18885    TIP3     H1       HT       0.417000       1.00800           0
     56655 W2       18885    TIP3     H2       HT       0.417000       1.00800           0
     56656 W2       18886    TIP3     OH2      OT      -0.834000       15.9994           0
     56657 W2       18886    TIP3     H1       HT       0.417000       1.00800           0
     56658 W2       18886    TIP3     H2       HT       0.417000       1.00800           0
     56659 W2       18887    TIP3     OH2      OT      -0.834000       15.9994           0
     56660 W2       18887    TIP3     H1       HT       0.417000       1.00800           0
     56661 W2       18887    TIP3     H2       HT       0.417000       1.00800           0
     56662 W2       18888    TIP3     OH2      OT      -0.834000       15.9994           0
     56663 W2       18888    TIP3     H1       HT       0.417000       1.00800           0
     56664 W2       18888    TIP3     H2       HT       0.417000       1.00800           0
     56665 W2       18889    TIP3     OH2      OT      -0.834000       15.9994           0
     56666 W2       18889    TIP3     H1       HT       0.417000       1.00800           0
     56667 W2       18889    TIP3     H2       HT       0.417000       1.00800           0
     56668 W2       18890    TIP3     OH2      OT      -0.834000       15.9994           0
     56669 W2       18890    TIP3     H1       HT       0.417000       1.00800           0
     56670 W2       18890    TIP3     H2       HT       0.417000       1.00800           0
     56671 W2       18891    TIP3     OH2      OT      -0.834000       15.9994           0
     56672 W2       18891    TIP3     H1       HT       0.417000       1.00800           0
     56673 W2       18891    TIP3     H2       HT       0.417000       1.00800           0
     56674 W2       18892    TIP3     OH2      OT      -0.834000       15.9994           0
     56675 W2       18892    TIP3     H1       HT       0.417000       1.00800           0
     56676 W2       18892    TIP3     H2       HT       0.417000       1.00800           0
     56677 W2       18893    TIP3     OH2      OT      -0.834000       15.9994           0
     56678 W2       18893    TIP3     H1       HT       0.417000       1.00800           0
     56679 W2       18893    TIP3     H2       HT       0.417000       1.00800           0
     56680 W2       18894    TIP3     OH2      OT      -0.834000       15.9994           0
     56681 W2       18894    TIP3     H1       HT       0.417000       1.00800           0
     56682 W2       18894    TIP3     H2       HT       0.417000       1.00800           0
     56683 W2       18895    TIP3     OH2      OT      -0.834000       15.9994           0
     56684 W2       18895    TIP3     H1       HT       0.417000       1.00800           0
     56685 W2       18895    TIP3     H2       HT       0.417000       1.00800           0
     56686 W2       18896    TIP3     OH2      OT      -0.834000       15.9994           0
     56687 W2       18896    TIP3     H1       HT       0.417000       1.00800           0
     56688 W2       18896    TIP3     H2       HT       0.417000       1.00800           0
     56689 W2       18897    TIP3     OH2      OT      -0.834000       15.9994           0
     56690 W2       18897    TIP3     H1       HT       0.417000       1.00800           0
     56691 W2       18897    TIP3     H2       HT       0.417000       1.00800           0
     56692 W2       18898    TIP3     OH2      OT      -0.834000       15.9994           0
     56693 W2       18898    TIP3     H1       HT       0.417000       1.00800           0
     56694 W2       18898    TIP3     H2       HT       0.417000       1.00800           0
     56695 W2       18899    TIP3     OH2      OT      -0.834000       15.9994           0
     56696 W2       18899    TIP3     H1       HT       0.417000       1.00800           0
     56697 W2       18899    TIP3     H2       HT       0.417000       1.00800           0
     56698 W2       18900    TIP3     OH2      OT      -0.834000       15.9994           0
     56699 W2       18900    TIP3     H1       HT       0.417000       1.00800           0
     56700 W2       18900    TIP3     H2       HT       0.417000       1.00800           0
     56701 W2       18901    TIP3     OH2      OT      -0.834000       15.9994           0
     56702 W2       18901    TIP3     H1       HT       0.417000       1.00800           0
     56703 W2       18901    TIP3     H2       HT       0.417000       1.00800           0
     56704 W2       18902    TIP3     OH2      OT      -0.834000       15.9994           0
     56705 W2       18902    TIP3     H1       HT       0.417000       1.00800           0
     56706 W2       18902    TIP3     H2       HT       0.417000       1.00800           0
     56707 W2       18903    TIP3     OH2      OT      -0.834000       15.9994           0
     56708 W2       18903    TIP3     H1       HT       0.417000       1.00800           0
     56709 W2       18903    TIP3     H2       HT       0.417000       1.00800           0
     56710 W2       18904    TIP3     OH2      OT      -0.834000       15.9994           0
     56711 W2       18904    TIP3     H1       HT       0.417000       1.00800           0
     56712 W2       18904    TIP3     H2       HT       0.417000       1.00800           0
     56713 W2       18905    TIP3     OH2      OT      -0.834000       15.9994           0
     56714 W2       18905    TIP3     H1       HT       0.417000       1.00800           0
     56715 W2       18905    TIP3     H2       HT       0.417000       1.00800           0
     56716 W2       18906    TIP3     OH2      OT      -0.834000       15.9994           0
     56717 W2       18906    TIP3     H1       HT       0.417000       1.00800           0
     56718 W2       18906    TIP3     H2       HT       0.417000       1.00800           0
     56719 W2       18907    TIP3     OH2      OT      -0.834000       15.9994           0
     56720 W2       18907    TIP3     H1       HT       0.417000       1.00800           0
     56721 W2       18907    TIP3     H2       HT       0.417000       1.00800           0
     56722 W2       18908    TIP3     OH2      OT      -0.834000       15.9994           0
     56723 W2       18908    TIP3     H1       HT       0.417000       1.00800           0
     56724 W2       18908    TIP3     H2       HT       0.417000       1.00800           0
     56725 W2       18909    TIP3     OH2      OT      -0.834000       15.9994           0
     56726 W2       18909    TIP3     H1       HT       0.417000       1.00800           0
     56727 W2       18909    TIP3     H2       HT       0.417000       1.00800           0
     56728 W2       18910    TIP3     OH2      OT      -0.834000       15.9994           0
     56729 W2       18910    TIP3     H1       HT       0.417000       1.00800           0
     56730 W2       18910    TIP3     H2       HT       0.417000       1.00800           0
     56731 W2       18911    TIP3     OH2      OT      -0.834000       15.9994           0
     56732 W2       18911    TIP3     H1       HT       0.417000       1.00800           0
     56733 W2       18911    TIP3     H2       HT       0.417000       1.00800           0
     56734 W2       18912    TIP3     OH2      OT      -0.834000       15.9994           0
     56735 W2       18912    TIP3     H1       HT       0.417000       1.00800           0
     56736 W2       18912    TIP3     H2       HT       0.417000       1.00800           0
     56737 W2       18913    TIP3     OH2      OT      -0.834000       15.9994           0
     56738 W2       18913    TIP3     H1       HT       0.417000       1.00800           0
     56739 W2       18913    TIP3     H2       HT       0.417000       1.00800           0
     56740 W2       18914    TIP3     OH2      OT      -0.834000       15.9994           0
     56741 W2       18914    TIP3     H1       HT       0.417000       1.00800           0
     56742 W2       18914    TIP3     H2       HT       0.417000       1.00800           0
     56743 W2       18915    TIP3     OH2      OT      -0.834000       15.9994           0
     56744 W2       18915    TIP3     H1       HT       0.417000       1.00800           0
     56745 W2       18915    TIP3     H2       HT       0.417000       1.00800           0
     56746 W2       18916    TIP3     OH2      OT      -0.834000       15.9994           0
     56747 W2       18916    TIP3     H1       HT       0.417000       1.00800           0
     56748 W2       18916    TIP3     H2       HT       0.417000       1.00800           0
     56749 W2       18917    TIP3     OH2      OT      -0.834000       15.9994           0
     56750 W2       18917    TIP3     H1       HT       0.417000       1.00800           0
     56751 W2       18917    TIP3     H2       HT       0.417000       1.00800           0
     56752 W2       18918    TIP3     OH2      OT      -0.834000       15.9994           0
     56753 W2       18918    TIP3     H1       HT       0.417000       1.00800           0
     56754 W2       18918    TIP3     H2       HT       0.417000       1.00800           0
     56755 W2       18919    TIP3     OH2      OT      -0.834000       15.9994           0
     56756 W2       18919    TIP3     H1       HT       0.417000       1.00800           0
     56757 W2       18919    TIP3     H2       HT       0.417000       1.00800           0
     56758 W2       18920    TIP3     OH2      OT      -0.834000       15.9994           0
     56759 W2       18920    TIP3     H1       HT       0.417000       1.00800           0
     56760 W2       18920    TIP3     H2       HT       0.417000       1.00800           0
     56761 W2       18921    TIP3     OH2      OT      -0.834000       15.9994           0
     56762 W2       18921    TIP3     H1       HT       0.417000       1.00800           0
     56763 W2       18921    TIP3     H2       HT       0.417000       1.00800           0
     56764 W2       18922    TIP3     OH2      OT      -0.834000       15.9994           0
     56765 W2       18922    TIP3     H1       HT       0.417000       1.00800           0
     56766 W2       18922    TIP3     H2       HT       0.417000       1.00800           0
     56767 W2       18923    TIP3     OH2      OT      -0.834000       15.9994           0
     56768 W2       18923    TIP3     H1       HT       0.417000       1.00800           0
     56769 W2       18923    TIP3     H2       HT       0.417000       1.00800           0
     56770 W2       18924    TIP3     OH2      OT      -0.834000       15.9994           0
     56771 W2       18924    TIP3     H1       HT       0.417000       1.00800           0
     56772 W2       18924    TIP3     H2       HT       0.417000       1.00800           0
     56773 W2       18925    TIP3     OH2      OT      -0.834000       15.9994           0
     56774 W2       18925    TIP3     H1       HT       0.417000       1.00800           0
     56775 W2       18925    TIP3     H2       HT       0.417000       1.00800           0
     56776 W2       18926    TIP3     OH2      OT      -0.834000       15.9994           0
     56777 W2       18926    TIP3     H1       HT       0.417000       1.00800           0
     56778 W2       18926    TIP3     H2       HT       0.417000       1.00800           0
     56779 W2       18927    TIP3     OH2      OT      -0.834000       15.9994           0
     56780 W2       18927    TIP3     H1       HT       0.417000       1.00800           0
     56781 W2       18927    TIP3     H2       HT       0.417000       1.00800           0
     56782 W2       18928    TIP3     OH2      OT      -0.834000       15.9994           0
     56783 W2       18928    TIP3     H1       HT       0.417000       1.00800           0
     56784 W2       18928    TIP3     H2       HT       0.417000       1.00800           0
     56785 W2       18929    TIP3     OH2      OT      -0.834000       15.9994           0
     56786 W2       18929    TIP3     H1       HT       0.417000       1.00800           0
     56787 W2       18929    TIP3     H2       HT       0.417000       1.00800           0
     56788 W2       18930    TIP3     OH2      OT      -0.834000       15.9994           0
     56789 W2       18930    TIP3     H1       HT       0.417000       1.00800           0
     56790 W2       18930    TIP3     H2       HT       0.417000       1.00800           0
     56791 W2       18931    TIP3     OH2      OT      -0.834000       15.9994           0
     56792 W2       18931    TIP3     H1       HT       0.417000       1.00800           0
     56793 W2       18931    TIP3     H2       HT       0.417000       1.00800           0
     56794 W2       18932    TIP3     OH2      OT      -0.834000       15.9994           0
     56795 W2       18932    TIP3     H1       HT       0.417000       1.00800           0
     56796 W2       18932    TIP3     H2       HT       0.417000       1.00800           0
     56797 W2       18933    TIP3     OH2      OT      -0.834000       15.9994           0
     56798 W2       18933    TIP3     H1       HT       0.417000       1.00800           0
     56799 W2       18933    TIP3     H2       HT       0.417000       1.00800           0
     56800 W2       18934    TIP3     OH2      OT      -0.834000       15.9994           0
     56801 W2       18934    TIP3     H1       HT       0.417000       1.00800           0
     56802 W2       18934    TIP3     H2       HT       0.417000       1.00800           0
     56803 W2       18935    TIP3     OH2      OT      -0.834000       15.9994           0
     56804 W2       18935    TIP3     H1       HT       0.417000       1.00800           0
     56805 W2       18935    TIP3     H2       HT       0.417000       1.00800           0
     56806 W2       18936    TIP3     OH2      OT      -0.834000       15.9994           0
     56807 W2       18936    TIP3     H1       HT       0.417000       1.00800           0
     56808 W2       18936    TIP3     H2       HT       0.417000       1.00800           0
     56809 W2       18937    TIP3     OH2      OT      -0.834000       15.9994           0
     56810 W2       18937    TIP3     H1       HT       0.417000       1.00800           0
     56811 W2       18937    TIP3     H2       HT       0.417000       1.00800           0
     56812 W2       18938    TIP3     OH2      OT      -0.834000       15.9994           0
     56813 W2       18938    TIP3     H1       HT       0.417000       1.00800           0
     56814 W2       18938    TIP3     H2       HT       0.417000       1.00800           0
     56815 W2       18939    TIP3     OH2      OT      -0.834000       15.9994           0
     56816 W2       18939    TIP3     H1       HT       0.417000       1.00800           0
     56817 W2       18939    TIP3     H2       HT       0.417000       1.00800           0
     56818 W2       18940    TIP3     OH2      OT      -0.834000       15.9994           0
     56819 W2       18940    TIP3     H1       HT       0.417000       1.00800           0
     56820 W2       18940    TIP3     H2       HT       0.417000       1.00800           0
     56821 W2       18941    TIP3     OH2      OT      -0.834000       15.9994           0
     56822 W2       18941    TIP3     H1       HT       0.417000       1.00800           0
     56823 W2       18941    TIP3     H2       HT       0.417000       1.00800           0
     56824 W2       18942    TIP3     OH2      OT      -0.834000       15.9994           0
     56825 W2       18942    TIP3     H1       HT       0.417000       1.00800           0
     56826 W2       18942    TIP3     H2       HT       0.417000       1.00800           0
     56827 W2       18943    TIP3     OH2      OT      -0.834000       15.9994           0
     56828 W2       18943    TIP3     H1       HT       0.417000       1.00800           0
     56829 W2       18943    TIP3     H2       HT       0.417000       1.00800           0
     56830 W2       18944    TIP3     OH2      OT      -0.834000       15.9994           0
     56831 W2       18944    TIP3     H1       HT       0.417000       1.00800           0
     56832 W2       18944    TIP3     H2       HT       0.417000       1.00800           0
     56833 W2       18945    TIP3     OH2      OT      -0.834000       15.9994           0
     56834 W2       18945    TIP3     H1       HT       0.417000       1.00800           0
     56835 W2       18945    TIP3     H2       HT       0.417000       1.00800           0
     56836 W2       18946    TIP3     OH2      OT      -0.834000       15.9994           0
     56837 W2       18946    TIP3     H1       HT       0.417000       1.00800           0
     56838 W2       18946    TIP3     H2       HT       0.417000       1.00800           0
     56839 W2       18947    TIP3     OH2      OT      -0.834000       15.9994           0
     56840 W2       18947    TIP3     H1       HT       0.417000       1.00800           0
     56841 W2       18947    TIP3     H2       HT       0.417000       1.00800           0
     56842 W2       18948    TIP3     OH2      OT      -0.834000       15.9994           0
     56843 W2       18948    TIP3     H1       HT       0.417000       1.00800           0
     56844 W2       18948    TIP3     H2       HT       0.417000       1.00800           0
     56845 W2       18949    TIP3     OH2      OT      -0.834000       15.9994           0
     56846 W2       18949    TIP3     H1       HT       0.417000       1.00800           0
     56847 W2       18949    TIP3     H2       HT       0.417000       1.00800           0
     56848 W2       18950    TIP3     OH2      OT      -0.834000       15.9994           0
     56849 W2       18950    TIP3     H1       HT       0.417000       1.00800           0
     56850 W2       18950    TIP3     H2       HT       0.417000       1.00800           0
     56851 W2       18951    TIP3     OH2      OT      -0.834000       15.9994           0
     56852 W2       18951    TIP3     H1       HT       0.417000       1.00800           0
     56853 W2       18951    TIP3     H2       HT       0.417000       1.00800           0
     56854 W2       18952    TIP3     OH2      OT      -0.834000       15.9994           0
     56855 W2       18952    TIP3     H1       HT       0.417000       1.00800           0
     56856 W2       18952    TIP3     H2       HT       0.417000       1.00800           0
     56857 W2       18953    TIP3     OH2      OT      -0.834000       15.9994           0
     56858 W2       18953    TIP3     H1       HT       0.417000       1.00800           0
     56859 W2       18953    TIP3     H2       HT       0.417000       1.00800           0
     56860 W2       18954    TIP3     OH2      OT      -0.834000       15.9994           0
     56861 W2       18954    TIP3     H1       HT       0.417000       1.00800           0
     56862 W2       18954    TIP3     H2       HT       0.417000       1.00800           0
     56863 W2       18955    TIP3     OH2      OT      -0.834000       15.9994           0
     56864 W2       18955    TIP3     H1       HT       0.417000       1.00800           0
     56865 W2       18955    TIP3     H2       HT       0.417000       1.00800           0
     56866 W2       18956    TIP3     OH2      OT      -0.834000       15.9994           0
     56867 W2       18956    TIP3     H1       HT       0.417000       1.00800           0
     56868 W2       18956    TIP3     H2       HT       0.417000       1.00800           0
     56869 W2       18957    TIP3     OH2      OT      -0.834000       15.9994           0
     56870 W2       18957    TIP3     H1       HT       0.417000       1.00800           0
     56871 W2       18957    TIP3     H2       HT       0.417000       1.00800           0
     56872 W2       18958    TIP3     OH2      OT      -0.834000       15.9994           0
     56873 W2       18958    TIP3     H1       HT       0.417000       1.00800           0
     56874 W2       18958    TIP3     H2       HT       0.417000       1.00800           0
     56875 W2       18959    TIP3     OH2      OT      -0.834000       15.9994           0
     56876 W2       18959    TIP3     H1       HT       0.417000       1.00800           0
     56877 W2       18959    TIP3     H2       HT       0.417000       1.00800           0
     56878 W2       18960    TIP3     OH2      OT      -0.834000       15.9994           0
     56879 W2       18960    TIP3     H1       HT       0.417000       1.00800           0
     56880 W2       18960    TIP3     H2       HT       0.417000       1.00800           0
     56881 W2       18961    TIP3     OH2      OT      -0.834000       15.9994           0
     56882 W2       18961    TIP3     H1       HT       0.417000       1.00800           0
     56883 W2       18961    TIP3     H2       HT       0.417000       1.00800           0
     56884 W2       18962    TIP3     OH2      OT      -0.834000       15.9994           0
     56885 W2       18962    TIP3     H1       HT       0.417000       1.00800           0
     56886 W2       18962    TIP3     H2       HT       0.417000       1.00800           0
     56887 W2       18963    TIP3     OH2      OT      -0.834000       15.9994           0
     56888 W2       18963    TIP3     H1       HT       0.417000       1.00800           0
     56889 W2       18963    TIP3     H2       HT       0.417000       1.00800           0
     56890 W2       18964    TIP3     OH2      OT      -0.834000       15.9994           0
     56891 W2       18964    TIP3     H1       HT       0.417000       1.00800           0
     56892 W2       18964    TIP3     H2       HT       0.417000       1.00800           0
     56893 W2       18965    TIP3     OH2      OT      -0.834000       15.9994           0
     56894 W2       18965    TIP3     H1       HT       0.417000       1.00800           0
     56895 W2       18965    TIP3     H2       HT       0.417000       1.00800           0
     56896 W2       18966    TIP3     OH2      OT      -0.834000       15.9994           0
     56897 W2       18966    TIP3     H1       HT       0.417000       1.00800           0
     56898 W2       18966    TIP3     H2       HT       0.417000       1.00800           0
     56899 W2       18967    TIP3     OH2      OT      -0.834000       15.9994           0
     56900 W2       18967    TIP3     H1       HT       0.417000       1.00800           0
     56901 W2       18967    TIP3     H2       HT       0.417000       1.00800           0
     56902 W2       18968    TIP3     OH2      OT      -0.834000       15.9994           0
     56903 W2       18968    TIP3     H1       HT       0.417000       1.00800           0
     56904 W2       18968    TIP3     H2       HT       0.417000       1.00800           0
     56905 W2       18969    TIP3     OH2      OT      -0.834000       15.9994           0
     56906 W2       18969    TIP3     H1       HT       0.417000       1.00800           0
     56907 W2       18969    TIP3     H2       HT       0.417000       1.00800           0
     56908 W2       18970    TIP3     OH2      OT      -0.834000       15.9994           0
     56909 W2       18970    TIP3     H1       HT       0.417000       1.00800           0
     56910 W2       18970    TIP3     H2       HT       0.417000       1.00800           0
     56911 W2       18971    TIP3     OH2      OT      -0.834000       15.9994           0
     56912 W2       18971    TIP3     H1       HT       0.417000       1.00800           0
     56913 W2       18971    TIP3     H2       HT       0.417000       1.00800           0
     56914 W2       18972    TIP3     OH2      OT      -0.834000       15.9994           0
     56915 W2       18972    TIP3     H1       HT       0.417000       1.00800           0
     56916 W2       18972    TIP3     H2       HT       0.417000       1.00800           0
     56917 W2       18973    TIP3     OH2      OT      -0.834000       15.9994           0
     56918 W2       18973    TIP3     H1       HT       0.417000       1.00800           0
     56919 W2       18973    TIP3     H2       HT       0.417000       1.00800           0
     56920 W2       18974    TIP3     OH2      OT      -0.834000       15.9994           0
     56921 W2       18974    TIP3     H1       HT       0.417000       1.00800           0
     56922 W2       18974    TIP3     H2       HT       0.417000       1.00800           0
     56923 W2       18975    TIP3     OH2      OT      -0.834000       15.9994           0
     56924 W2       18975    TIP3     H1       HT       0.417000       1.00800           0
     56925 W2       18975    TIP3     H2       HT       0.417000       1.00800           0
     56926 W2       18976    TIP3     OH2      OT      -0.834000       15.9994           0
     56927 W2       18976    TIP3     H1       HT       0.417000       1.00800           0
     56928 W2       18976    TIP3     H2       HT       0.417000       1.00800           0
     56929 W2       18977    TIP3     OH2      OT      -0.834000       15.9994           0
     56930 W2       18977    TIP3     H1       HT       0.417000       1.00800           0
     56931 W2       18977    TIP3     H2       HT       0.417000       1.00800           0
     56932 W2       18978    TIP3     OH2      OT      -0.834000       15.9994           0
     56933 W2       18978    TIP3     H1       HT       0.417000       1.00800           0
     56934 W2       18978    TIP3     H2       HT       0.417000       1.00800           0
     56935 W2       18979    TIP3     OH2      OT      -0.834000       15.9994           0
     56936 W2       18979    TIP3     H1       HT       0.417000       1.00800           0
     56937 W2       18979    TIP3     H2       HT       0.417000       1.00800           0
     56938 W2       18980    TIP3     OH2      OT      -0.834000       15.9994           0
     56939 W2       18980    TIP3     H1       HT       0.417000       1.00800           0
     56940 W2       18980    TIP3     H2       HT       0.417000       1.00800           0
     56941 W2       18981    TIP3     OH2      OT      -0.834000       15.9994           0
     56942 W2       18981    TIP3     H1       HT       0.417000       1.00800           0
     56943 W2       18981    TIP3     H2       HT       0.417000       1.00800           0
     56944 W2       18982    TIP3     OH2      OT      -0.834000       15.9994           0
     56945 W2       18982    TIP3     H1       HT       0.417000       1.00800           0
     56946 W2       18982    TIP3     H2       HT       0.417000       1.00800           0
     56947 W2       18983    TIP3     OH2      OT      -0.834000       15.9994           0
     56948 W2       18983    TIP3     H1       HT       0.417000       1.00800           0
     56949 W2       18983    TIP3     H2       HT       0.417000       1.00800           0
     56950 W2       18984    TIP3     OH2      OT      -0.834000       15.9994           0
     56951 W2       18984    TIP3     H1       HT       0.417000       1.00800           0
     56952 W2       18984    TIP3     H2       HT       0.417000       1.00800           0
     56953 W2       18985    TIP3     OH2      OT      -0.834000       15.9994           0
     56954 W2       18985    TIP3     H1       HT       0.417000       1.00800           0
     56955 W2       18985    TIP3     H2       HT       0.417000       1.00800           0
     56956 W2       18986    TIP3     OH2      OT      -0.834000       15.9994           0
     56957 W2       18986    TIP3     H1       HT       0.417000       1.00800           0
     56958 W2       18986    TIP3     H2       HT       0.417000       1.00800           0
     56959 W2       18987    TIP3     OH2      OT      -0.834000       15.9994           0
     56960 W2       18987    TIP3     H1       HT       0.417000       1.00800           0
     56961 W2       18987    TIP3     H2       HT       0.417000       1.00800           0
     56962 W2       18988    TIP3     OH2      OT      -0.834000       15.9994           0
     56963 W2       18988    TIP3     H1       HT       0.417000       1.00800           0
     56964 W2       18988    TIP3     H2       HT       0.417000       1.00800           0
     56965 W2       18989    TIP3     OH2      OT      -0.834000       15.9994           0
     56966 W2       18989    TIP3     H1       HT       0.417000       1.00800           0
     56967 W2       18989    TIP3     H2       HT       0.417000       1.00800           0
     56968 W2       18990    TIP3     OH2      OT      -0.834000       15.9994           0
     56969 W2       18990    TIP3     H1       HT       0.417000       1.00800           0
     56970 W2       18990    TIP3     H2       HT       0.417000       1.00800           0
     56971 W2       18991    TIP3     OH2      OT      -0.834000       15.9994           0
     56972 W2       18991    TIP3     H1       HT       0.417000       1.00800           0
     56973 W2       18991    TIP3     H2       HT       0.417000       1.00800           0
     56974 W2       18992    TIP3     OH2      OT      -0.834000       15.9994           0
     56975 W2       18992    TIP3     H1       HT       0.417000       1.00800           0
     56976 W2       18992    TIP3     H2       HT       0.417000       1.00800           0
     56977 W2       18993    TIP3     OH2      OT      -0.834000       15.9994           0
     56978 W2       18993    TIP3     H1       HT       0.417000       1.00800           0
     56979 W2       18993    TIP3     H2       HT       0.417000       1.00800           0
     56980 W2       18994    TIP3     OH2      OT      -0.834000       15.9994           0
     56981 W2       18994    TIP3     H1       HT       0.417000       1.00800           0
     56982 W2       18994    TIP3     H2       HT       0.417000       1.00800           0
     56983 W2       18995    TIP3     OH2      OT      -0.834000       15.9994           0
     56984 W2       18995    TIP3     H1       HT       0.417000       1.00800           0
     56985 W2       18995    TIP3     H2       HT       0.417000       1.00800           0
     56986 W2       18996    TIP3     OH2      OT      -0.834000       15.9994           0
     56987 W2       18996    TIP3     H1       HT       0.417000       1.00800           0
     56988 W2       18996    TIP3     H2       HT       0.417000       1.00800           0
     56989 W2       18997    TIP3     OH2      OT      -0.834000       15.9994           0
     56990 W2       18997    TIP3     H1       HT       0.417000       1.00800           0
     56991 W2       18997    TIP3     H2       HT       0.417000       1.00800           0
     56992 W2       18998    TIP3     OH2      OT      -0.834000       15.9994           0
     56993 W2       18998    TIP3     H1       HT       0.417000       1.00800           0
     56994 W2       18998    TIP3     H2       HT       0.417000       1.00800           0
     56995 W2       18999    TIP3     OH2      OT      -0.834000       15.9994           0
     56996 W2       18999    TIP3     H1       HT       0.417000       1.00800           0
     56997 W2       18999    TIP3     H2       HT       0.417000       1.00800           0
     56998 W2       19000    TIP3     OH2      OT      -0.834000       15.9994           0
     56999 W2       19000    TIP3     H1       HT       0.417000       1.00800           0
     57000 W2       19000    TIP3     H2       HT       0.417000       1.00800           0
     57001 W2       19001    TIP3     OH2      OT      -0.834000       15.9994           0
     57002 W2       19001    TIP3     H1       HT       0.417000       1.00800           0
     57003 W2       19001    TIP3     H2       HT       0.417000       1.00800           0
     57004 W2       19002    TIP3     OH2      OT      -0.834000       15.9994           0
     57005 W2       19002    TIP3     H1       HT       0.417000       1.00800           0
     57006 W2       19002    TIP3     H2       HT       0.417000       1.00800           0
     57007 W2       19003    TIP3     OH2      OT      -0.834000       15.9994           0
     57008 W2       19003    TIP3     H1       HT       0.417000       1.00800           0
     57009 W2       19003    TIP3     H2       HT       0.417000       1.00800           0
     57010 W2       19004    TIP3     OH2      OT      -0.834000       15.9994           0
     57011 W2       19004    TIP3     H1       HT       0.417000       1.00800           0
     57012 W2       19004    TIP3     H2       HT       0.417000       1.00800           0
     57013 W2       19005    TIP3     OH2      OT      -0.834000       15.9994           0
     57014 W2       19005    TIP3     H1       HT       0.417000       1.00800           0
     57015 W2       19005    TIP3     H2       HT       0.417000       1.00800           0
     57016 W2       19006    TIP3     OH2      OT      -0.834000       15.9994           0
     57017 W2       19006    TIP3     H1       HT       0.417000       1.00800           0
     57018 W2       19006    TIP3     H2       HT       0.417000       1.00800           0
     57019 W2       19007    TIP3     OH2      OT      -0.834000       15.9994           0
     57020 W2       19007    TIP3     H1       HT       0.417000       1.00800           0
     57021 W2       19007    TIP3     H2       HT       0.417000       1.00800           0
     57022 W2       19008    TIP3     OH2      OT      -0.834000       15.9994           0
     57023 W2       19008    TIP3     H1       HT       0.417000       1.00800           0
     57024 W2       19008    TIP3     H2       HT       0.417000       1.00800           0
     57025 W2       19009    TIP3     OH2      OT      -0.834000       15.9994           0
     57026 W2       19009    TIP3     H1       HT       0.417000       1.00800           0
     57027 W2       19009    TIP3     H2       HT       0.417000       1.00800           0
     57028 W2       19010    TIP3     OH2      OT      -0.834000       15.9994           0
     57029 W2       19010    TIP3     H1       HT       0.417000       1.00800           0
     57030 W2       19010    TIP3     H2       HT       0.417000       1.00800           0
     57031 W2       19011    TIP3     OH2      OT      -0.834000       15.9994           0
     57032 W2       19011    TIP3     H1       HT       0.417000       1.00800           0
     57033 W2       19011    TIP3     H2       HT       0.417000       1.00800           0
     57034 W2       19012    TIP3     OH2      OT      -0.834000       15.9994           0
     57035 W2       19012    TIP3     H1       HT       0.417000       1.00800           0
     57036 W2       19012    TIP3     H2       HT       0.417000       1.00800           0
     57037 W2       19013    TIP3     OH2      OT      -0.834000       15.9994           0
     57038 W2       19013    TIP3     H1       HT       0.417000       1.00800           0
     57039 W2       19013    TIP3     H2       HT       0.417000       1.00800           0
     57040 W2       19014    TIP3     OH2      OT      -0.834000       15.9994           0
     57041 W2       19014    TIP3     H1       HT       0.417000       1.00800           0
     57042 W2       19014    TIP3     H2       HT       0.417000       1.00800           0
     57043 W2       19015    TIP3     OH2      OT      -0.834000       15.9994           0
     57044 W2       19015    TIP3     H1       HT       0.417000       1.00800           0
     57045 W2       19015    TIP3     H2       HT       0.417000       1.00800           0
     57046 W2       19016    TIP3     OH2      OT      -0.834000       15.9994           0
     57047 W2       19016    TIP3     H1       HT       0.417000       1.00800           0
     57048 W2       19016    TIP3     H2       HT       0.417000       1.00800           0
     57049 W2       19017    TIP3     OH2      OT      -0.834000       15.9994           0
     57050 W2       19017    TIP3     H1       HT       0.417000       1.00800           0
     57051 W2       19017    TIP3     H2       HT       0.417000       1.00800           0
     57052 W2       19018    TIP3     OH2      OT      -0.834000       15.9994           0
     57053 W2       19018    TIP3     H1       HT       0.417000       1.00800           0
     57054 W2       19018    TIP3     H2       HT       0.417000       1.00800           0
     57055 W2       19019    TIP3     OH2      OT      -0.834000       15.9994           0
     57056 W2       19019    TIP3     H1       HT       0.417000       1.00800           0
     57057 W2       19019    TIP3     H2       HT       0.417000       1.00800           0
     57058 W2       19020    TIP3     OH2      OT      -0.834000       15.9994           0
     57059 W2       19020    TIP3     H1       HT       0.417000       1.00800           0
     57060 W2       19020    TIP3     H2       HT       0.417000       1.00800           0
     57061 W2       19021    TIP3     OH2      OT      -0.834000       15.9994           0
     57062 W2       19021    TIP3     H1       HT       0.417000       1.00800           0
     57063 W2       19021    TIP3     H2       HT       0.417000       1.00800           0
     57064 W2       19022    TIP3     OH2      OT      -0.834000       15.9994           0
     57065 W2       19022    TIP3     H1       HT       0.417000       1.00800           0
     57066 W2       19022    TIP3     H2       HT       0.417000       1.00800           0
     57067 W2       19023    TIP3     OH2      OT      -0.834000       15.9994           0
     57068 W2       19023    TIP3     H1       HT       0.417000       1.00800           0
     57069 W2       19023    TIP3     H2       HT       0.417000       1.00800           0
     57070 W2       19024    TIP3     OH2      OT      -0.834000       15.9994           0
     57071 W2       19024    TIP3     H1       HT       0.417000       1.00800           0
     57072 W2       19024    TIP3     H2       HT       0.417000       1.00800           0
     57073 W2       19025    TIP3     OH2      OT      -0.834000       15.9994           0
     57074 W2       19025    TIP3     H1       HT       0.417000       1.00800           0
     57075 W2       19025    TIP3     H2       HT       0.417000       1.00800           0
     57076 W2       19026    TIP3     OH2      OT      -0.834000       15.9994           0
     57077 W2       19026    TIP3     H1       HT       0.417000       1.00800           0
     57078 W2       19026    TIP3     H2       HT       0.417000       1.00800           0
     57079 W2       19027    TIP3     OH2      OT      -0.834000       15.9994           0
     57080 W2       19027    TIP3     H1       HT       0.417000       1.00800           0
     57081 W2       19027    TIP3     H2       HT       0.417000       1.00800           0
     57082 W2       19028    TIP3     OH2      OT      -0.834000       15.9994           0
     57083 W2       19028    TIP3     H1       HT       0.417000       1.00800           0
     57084 W2       19028    TIP3     H2       HT       0.417000       1.00800           0
     57085 W2       19029    TIP3     OH2      OT      -0.834000       15.9994           0
     57086 W2       19029    TIP3     H1       HT       0.417000       1.00800           0
     57087 W2       19029    TIP3     H2       HT       0.417000       1.00800           0
     57088 W2       19030    TIP3     OH2      OT      -0.834000       15.9994           0
     57089 W2       19030    TIP3     H1       HT       0.417000       1.00800           0
     57090 W2       19030    TIP3     H2       HT       0.417000       1.00800           0
     57091 W2       19031    TIP3     OH2      OT      -0.834000       15.9994           0
     57092 W2       19031    TIP3     H1       HT       0.417000       1.00800           0
     57093 W2       19031    TIP3     H2       HT       0.417000       1.00800           0
     57094 W2       19032    TIP3     OH2      OT      -0.834000       15.9994           0
     57095 W2       19032    TIP3     H1       HT       0.417000       1.00800           0
     57096 W2       19032    TIP3     H2       HT       0.417000       1.00800           0
     57097 W2       19033    TIP3     OH2      OT      -0.834000       15.9994           0
     57098 W2       19033    TIP3     H1       HT       0.417000       1.00800           0
     57099 W2       19033    TIP3     H2       HT       0.417000       1.00800           0
     57100 W2       19034    TIP3     OH2      OT      -0.834000       15.9994           0
     57101 W2       19034    TIP3     H1       HT       0.417000       1.00800           0
     57102 W2       19034    TIP3     H2       HT       0.417000       1.00800           0
     57103 W2       19035    TIP3     OH2      OT      -0.834000       15.9994           0
     57104 W2       19035    TIP3     H1       HT       0.417000       1.00800           0
     57105 W2       19035    TIP3     H2       HT       0.417000       1.00800           0
     57106 W2       19036    TIP3     OH2      OT      -0.834000       15.9994           0
     57107 W2       19036    TIP3     H1       HT       0.417000       1.00800           0
     57108 W2       19036    TIP3     H2       HT       0.417000       1.00800           0
     57109 W2       19037    TIP3     OH2      OT      -0.834000       15.9994           0
     57110 W2       19037    TIP3     H1       HT       0.417000       1.00800           0
     57111 W2       19037    TIP3     H2       HT       0.417000       1.00800           0
     57112 W2       19038    TIP3     OH2      OT      -0.834000       15.9994           0
     57113 W2       19038    TIP3     H1       HT       0.417000       1.00800           0
     57114 W2       19038    TIP3     H2       HT       0.417000       1.00800           0
     57115 W2       19039    TIP3     OH2      OT      -0.834000       15.9994           0
     57116 W2       19039    TIP3     H1       HT       0.417000       1.00800           0
     57117 W2       19039    TIP3     H2       HT       0.417000       1.00800           0
     57118 W2       19040    TIP3     OH2      OT      -0.834000       15.9994           0
     57119 W2       19040    TIP3     H1       HT       0.417000       1.00800           0
     57120 W2       19040    TIP3     H2       HT       0.417000       1.00800           0
     57121 W2       19041    TIP3     OH2      OT      -0.834000       15.9994           0
     57122 W2       19041    TIP3     H1       HT       0.417000       1.00800           0
     57123 W2       19041    TIP3     H2       HT       0.417000       1.00800           0
     57124 W2       19042    TIP3     OH2      OT      -0.834000       15.9994           0
     57125 W2       19042    TIP3     H1       HT       0.417000       1.00800           0
     57126 W2       19042    TIP3     H2       HT       0.417000       1.00800           0
     57127 W2       19043    TIP3     OH2      OT      -0.834000       15.9994           0
     57128 W2       19043    TIP3     H1       HT       0.417000       1.00800           0
     57129 W2       19043    TIP3     H2       HT       0.417000       1.00800           0
     57130 W2       19044    TIP3     OH2      OT      -0.834000       15.9994           0
     57131 W2       19044    TIP3     H1       HT       0.417000       1.00800           0
     57132 W2       19044    TIP3     H2       HT       0.417000       1.00800           0
     57133 W2       19045    TIP3     OH2      OT      -0.834000       15.9994           0
     57134 W2       19045    TIP3     H1       HT       0.417000       1.00800           0
     57135 W2       19045    TIP3     H2       HT       0.417000       1.00800           0
     57136 W2       19046    TIP3     OH2      OT      -0.834000       15.9994           0
     57137 W2       19046    TIP3     H1       HT       0.417000       1.00800           0
     57138 W2       19046    TIP3     H2       HT       0.417000       1.00800           0
     57139 W2       19047    TIP3     OH2      OT      -0.834000       15.9994           0
     57140 W2       19047    TIP3     H1       HT       0.417000       1.00800           0
     57141 W2       19047    TIP3     H2       HT       0.417000       1.00800           0
     57142 W2       19048    TIP3     OH2      OT      -0.834000       15.9994           0
     57143 W2       19048    TIP3     H1       HT       0.417000       1.00800           0
     57144 W2       19048    TIP3     H2       HT       0.417000       1.00800           0
     57145 W2       19049    TIP3     OH2      OT      -0.834000       15.9994           0
     57146 W2       19049    TIP3     H1       HT       0.417000       1.00800           0
     57147 W2       19049    TIP3     H2       HT       0.417000       1.00800           0
     57148 W2       19050    TIP3     OH2      OT      -0.834000       15.9994           0
     57149 W2       19050    TIP3     H1       HT       0.417000       1.00800           0
     57150 W2       19050    TIP3     H2       HT       0.417000       1.00800           0
     57151 W2       19051    TIP3     OH2      OT      -0.834000       15.9994           0
     57152 W2       19051    TIP3     H1       HT       0.417000       1.00800           0
     57153 W2       19051    TIP3     H2       HT       0.417000       1.00800           0
     57154 W2       19052    TIP3     OH2      OT      -0.834000       15.9994           0
     57155 W2       19052    TIP3     H1       HT       0.417000       1.00800           0
     57156 W2       19052    TIP3     H2       HT       0.417000       1.00800           0
     57157 W2       19053    TIP3     OH2      OT      -0.834000       15.9994           0
     57158 W2       19053    TIP3     H1       HT       0.417000       1.00800           0
     57159 W2       19053    TIP3     H2       HT       0.417000       1.00800           0
     57160 W2       19054    TIP3     OH2      OT      -0.834000       15.9994           0
     57161 W2       19054    TIP3     H1       HT       0.417000       1.00800           0
     57162 W2       19054    TIP3     H2       HT       0.417000       1.00800           0
     57163 W2       19055    TIP3     OH2      OT      -0.834000       15.9994           0
     57164 W2       19055    TIP3     H1       HT       0.417000       1.00800           0
     57165 W2       19055    TIP3     H2       HT       0.417000       1.00800           0
     57166 W2       19056    TIP3     OH2      OT      -0.834000       15.9994           0
     57167 W2       19056    TIP3     H1       HT       0.417000       1.00800           0
     57168 W2       19056    TIP3     H2       HT       0.417000       1.00800           0
     57169 W2       19057    TIP3     OH2      OT      -0.834000       15.9994           0
     57170 W2       19057    TIP3     H1       HT       0.417000       1.00800           0
     57171 W2       19057    TIP3     H2       HT       0.417000       1.00800           0
     57172 W2       19058    TIP3     OH2      OT      -0.834000       15.9994           0
     57173 W2       19058    TIP3     H1       HT       0.417000       1.00800           0
     57174 W2       19058    TIP3     H2       HT       0.417000       1.00800           0
     57175 W2       19059    TIP3     OH2      OT      -0.834000       15.9994           0
     57176 W2       19059    TIP3     H1       HT       0.417000       1.00800           0
     57177 W2       19059    TIP3     H2       HT       0.417000       1.00800           0
     57178 W2       19060    TIP3     OH2      OT      -0.834000       15.9994           0
     57179 W2       19060    TIP3     H1       HT       0.417000       1.00800           0
     57180 W2       19060    TIP3     H2       HT       0.417000       1.00800           0
     57181 W2       19061    TIP3     OH2      OT      -0.834000       15.9994           0
     57182 W2       19061    TIP3     H1       HT       0.417000       1.00800           0
     57183 W2       19061    TIP3     H2       HT       0.417000       1.00800           0
     57184 W2       19062    TIP3     OH2      OT      -0.834000       15.9994           0
     57185 W2       19062    TIP3     H1       HT       0.417000       1.00800           0
     57186 W2       19062    TIP3     H2       HT       0.417000       1.00800           0
     57187 W2       19063    TIP3     OH2      OT      -0.834000       15.9994           0
     57188 W2       19063    TIP3     H1       HT       0.417000       1.00800           0
     57189 W2       19063    TIP3     H2       HT       0.417000       1.00800           0
     57190 W2       19064    TIP3     OH2      OT      -0.834000       15.9994           0
     57191 W2       19064    TIP3     H1       HT       0.417000       1.00800           0
     57192 W2       19064    TIP3     H2       HT       0.417000       1.00800           0
     57193 W2       19065    TIP3     OH2      OT      -0.834000       15.9994           0
     57194 W2       19065    TIP3     H1       HT       0.417000       1.00800           0
     57195 W2       19065    TIP3     H2       HT       0.417000       1.00800           0
     57196 W2       19066    TIP3     OH2      OT      -0.834000       15.9994           0
     57197 W2       19066    TIP3     H1       HT       0.417000       1.00800           0
     57198 W2       19066    TIP3     H2       HT       0.417000       1.00800           0
     57199 W2       19067    TIP3     OH2      OT      -0.834000       15.9994           0
     57200 W2       19067    TIP3     H1       HT       0.417000       1.00800           0
     57201 W2       19067    TIP3     H2       HT       0.417000       1.00800           0
     57202 W2       19068    TIP3     OH2      OT      -0.834000       15.9994           0
     57203 W2       19068    TIP3     H1       HT       0.417000       1.00800           0
     57204 W2       19068    TIP3     H2       HT       0.417000       1.00800           0
     57205 W2       19069    TIP3     OH2      OT      -0.834000       15.9994           0
     57206 W2       19069    TIP3     H1       HT       0.417000       1.00800           0
     57207 W2       19069    TIP3     H2       HT       0.417000       1.00800           0
     57208 W2       19070    TIP3     OH2      OT      -0.834000       15.9994           0
     57209 W2       19070    TIP3     H1       HT       0.417000       1.00800           0
     57210 W2       19070    TIP3     H2       HT       0.417000       1.00800           0
     57211 W2       19071    TIP3     OH2      OT      -0.834000       15.9994           0
     57212 W2       19071    TIP3     H1       HT       0.417000       1.00800           0
     57213 W2       19071    TIP3     H2       HT       0.417000       1.00800           0
     57214 W2       19072    TIP3     OH2      OT      -0.834000       15.9994           0
     57215 W2       19072    TIP3     H1       HT       0.417000       1.00800           0
     57216 W2       19072    TIP3     H2       HT       0.417000       1.00800           0
     57217 W2       19073    TIP3     OH2      OT      -0.834000       15.9994           0
     57218 W2       19073    TIP3     H1       HT       0.417000       1.00800           0
     57219 W2       19073    TIP3     H2       HT       0.417000       1.00800           0
     57220 W2       19074    TIP3     OH2      OT      -0.834000       15.9994           0
     57221 W2       19074    TIP3     H1       HT       0.417000       1.00800           0
     57222 W2       19074    TIP3     H2       HT       0.417000       1.00800           0
     57223 W2       19075    TIP3     OH2      OT      -0.834000       15.9994           0
     57224 W2       19075    TIP3     H1       HT       0.417000       1.00800           0
     57225 W2       19075    TIP3     H2       HT       0.417000       1.00800           0
     57226 W2       19076    TIP3     OH2      OT      -0.834000       15.9994           0
     57227 W2       19076    TIP3     H1       HT       0.417000       1.00800           0
     57228 W2       19076    TIP3     H2       HT       0.417000       1.00800           0
     57229 W2       19077    TIP3     OH2      OT      -0.834000       15.9994           0
     57230 W2       19077    TIP3     H1       HT       0.417000       1.00800           0
     57231 W2       19077    TIP3     H2       HT       0.417000       1.00800           0
     57232 W2       19078    TIP3     OH2      OT      -0.834000       15.9994           0
     57233 W2       19078    TIP3     H1       HT       0.417000       1.00800           0
     57234 W2       19078    TIP3     H2       HT       0.417000       1.00800           0
     57235 W2       19079    TIP3     OH2      OT      -0.834000       15.9994           0
     57236 W2       19079    TIP3     H1       HT       0.417000       1.00800           0
     57237 W2       19079    TIP3     H2       HT       0.417000       1.00800           0
     57238 W2       19080    TIP3     OH2      OT      -0.834000       15.9994           0
     57239 W2       19080    TIP3     H1       HT       0.417000       1.00800           0
     57240 W2       19080    TIP3     H2       HT       0.417000       1.00800           0
     57241 W2       19081    TIP3     OH2      OT      -0.834000       15.9994           0
     57242 W2       19081    TIP3     H1       HT       0.417000       1.00800           0
     57243 W2       19081    TIP3     H2       HT       0.417000       1.00800           0
     57244 W2       19082    TIP3     OH2      OT      -0.834000       15.9994           0
     57245 W2       19082    TIP3     H1       HT       0.417000       1.00800           0
     57246 W2       19082    TIP3     H2       HT       0.417000       1.00800           0
     57247 W2       19083    TIP3     OH2      OT      -0.834000       15.9994           0
     57248 W2       19083    TIP3     H1       HT       0.417000       1.00800           0
     57249 W2       19083    TIP3     H2       HT       0.417000       1.00800           0
     57250 W2       19084    TIP3     OH2      OT      -0.834000       15.9994           0
     57251 W2       19084    TIP3     H1       HT       0.417000       1.00800           0
     57252 W2       19084    TIP3     H2       HT       0.417000       1.00800           0
     57253 W2       19085    TIP3     OH2      OT      -0.834000       15.9994           0
     57254 W2       19085    TIP3     H1       HT       0.417000       1.00800           0
     57255 W2       19085    TIP3     H2       HT       0.417000       1.00800           0
     57256 W2       19086    TIP3     OH2      OT      -0.834000       15.9994           0
     57257 W2       19086    TIP3     H1       HT       0.417000       1.00800           0
     57258 W2       19086    TIP3     H2       HT       0.417000       1.00800           0
     57259 W2       19087    TIP3     OH2      OT      -0.834000       15.9994           0
     57260 W2       19087    TIP3     H1       HT       0.417000       1.00800           0
     57261 W2       19087    TIP3     H2       HT       0.417000       1.00800           0
     57262 W2       19088    TIP3     OH2      OT      -0.834000       15.9994           0
     57263 W2       19088    TIP3     H1       HT       0.417000       1.00800           0
     57264 W2       19088    TIP3     H2       HT       0.417000       1.00800           0
     57265 W2       19089    TIP3     OH2      OT      -0.834000       15.9994           0
     57266 W2       19089    TIP3     H1       HT       0.417000       1.00800           0
     57267 W2       19089    TIP3     H2       HT       0.417000       1.00800           0
     57268 W2       19090    TIP3     OH2      OT      -0.834000       15.9994           0
     57269 W2       19090    TIP3     H1       HT       0.417000       1.00800           0
     57270 W2       19090    TIP3     H2       HT       0.417000       1.00800           0
     57271 W2       19091    TIP3     OH2      OT      -0.834000       15.9994           0
     57272 W2       19091    TIP3     H1       HT       0.417000       1.00800           0
     57273 W2       19091    TIP3     H2       HT       0.417000       1.00800           0
     57274 W2       19092    TIP3     OH2      OT      -0.834000       15.9994           0
     57275 W2       19092    TIP3     H1       HT       0.417000       1.00800           0
     57276 W2       19092    TIP3     H2       HT       0.417000       1.00800           0
     57277 W2       19093    TIP3     OH2      OT      -0.834000       15.9994           0
     57278 W2       19093    TIP3     H1       HT       0.417000       1.00800           0
     57279 W2       19093    TIP3     H2       HT       0.417000       1.00800           0
     57280 W2       19094    TIP3     OH2      OT      -0.834000       15.9994           0
     57281 W2       19094    TIP3     H1       HT       0.417000       1.00800           0
     57282 W2       19094    TIP3     H2       HT       0.417000       1.00800           0
     57283 W2       19095    TIP3     OH2      OT      -0.834000       15.9994           0
     57284 W2       19095    TIP3     H1       HT       0.417000       1.00800           0
     57285 W2       19095    TIP3     H2       HT       0.417000       1.00800           0
     57286 W2       19096    TIP3     OH2      OT      -0.834000       15.9994           0
     57287 W2       19096    TIP3     H1       HT       0.417000       1.00800           0
     57288 W2       19096    TIP3     H2       HT       0.417000       1.00800           0
     57289 W2       19097    TIP3     OH2      OT      -0.834000       15.9994           0
     57290 W2       19097    TIP3     H1       HT       0.417000       1.00800           0
     57291 W2       19097    TIP3     H2       HT       0.417000       1.00800           0
     57292 W2       19098    TIP3     OH2      OT      -0.834000       15.9994           0
     57293 W2       19098    TIP3     H1       HT       0.417000       1.00800           0
     57294 W2       19098    TIP3     H2       HT       0.417000       1.00800           0
     57295 W2       19099    TIP3     OH2      OT      -0.834000       15.9994           0
     57296 W2       19099    TIP3     H1       HT       0.417000       1.00800           0
     57297 W2       19099    TIP3     H2       HT       0.417000       1.00800           0
     57298 W2       19100    TIP3     OH2      OT      -0.834000       15.9994           0
     57299 W2       19100    TIP3     H1       HT       0.417000       1.00800           0
     57300 W2       19100    TIP3     H2       HT       0.417000       1.00800           0
     57301 W2       19101    TIP3     OH2      OT      -0.834000       15.9994           0
     57302 W2       19101    TIP3     H1       HT       0.417000       1.00800           0
     57303 W2       19101    TIP3     H2       HT       0.417000       1.00800           0
     57304 W2       19102    TIP3     OH2      OT      -0.834000       15.9994           0
     57305 W2       19102    TIP3     H1       HT       0.417000       1.00800           0
     57306 W2       19102    TIP3     H2       HT       0.417000       1.00800           0
     57307 W2       19103    TIP3     OH2      OT      -0.834000       15.9994           0
     57308 W2       19103    TIP3     H1       HT       0.417000       1.00800           0
     57309 W2       19103    TIP3     H2       HT       0.417000       1.00800           0
     57310 W2       19104    TIP3     OH2      OT      -0.834000       15.9994           0
     57311 W2       19104    TIP3     H1       HT       0.417000       1.00800           0
     57312 W2       19104    TIP3     H2       HT       0.417000       1.00800           0
     57313 W2       19105    TIP3     OH2      OT      -0.834000       15.9994           0
     57314 W2       19105    TIP3     H1       HT       0.417000       1.00800           0
     57315 W2       19105    TIP3     H2       HT       0.417000       1.00800           0
     57316 W2       19106    TIP3     OH2      OT      -0.834000       15.9994           0
     57317 W2       19106    TIP3     H1       HT       0.417000       1.00800           0
     57318 W2       19106    TIP3     H2       HT       0.417000       1.00800           0
     57319 W2       19107    TIP3     OH2      OT      -0.834000       15.9994           0
     57320 W2       19107    TIP3     H1       HT       0.417000       1.00800           0
     57321 W2       19107    TIP3     H2       HT       0.417000       1.00800           0
     57322 W2       19108    TIP3     OH2      OT      -0.834000       15.9994           0
     57323 W2       19108    TIP3     H1       HT       0.417000       1.00800           0
     57324 W2       19108    TIP3     H2       HT       0.417000       1.00800           0
     57325 W2       19109    TIP3     OH2      OT      -0.834000       15.9994           0
     57326 W2       19109    TIP3     H1       HT       0.417000       1.00800           0
     57327 W2       19109    TIP3     H2       HT       0.417000       1.00800           0
     57328 W2       19110    TIP3     OH2      OT      -0.834000       15.9994           0
     57329 W2       19110    TIP3     H1       HT       0.417000       1.00800           0
     57330 W2       19110    TIP3     H2       HT       0.417000       1.00800           0
     57331 W2       19111    TIP3     OH2      OT      -0.834000       15.9994           0
     57332 W2       19111    TIP3     H1       HT       0.417000       1.00800           0
     57333 W2       19111    TIP3     H2       HT       0.417000       1.00800           0
     57334 W2       19112    TIP3     OH2      OT      -0.834000       15.9994           0
     57335 W2       19112    TIP3     H1       HT       0.417000       1.00800           0
     57336 W2       19112    TIP3     H2       HT       0.417000       1.00800           0
     57337 W2       19113    TIP3     OH2      OT      -0.834000       15.9994           0
     57338 W2       19113    TIP3     H1       HT       0.417000       1.00800           0
     57339 W2       19113    TIP3     H2       HT       0.417000       1.00800           0
     57340 W2       19114    TIP3     OH2      OT      -0.834000       15.9994           0
     57341 W2       19114    TIP3     H1       HT       0.417000       1.00800           0
     57342 W2       19114    TIP3     H2       HT       0.417000       1.00800           0
     57343 W2       19115    TIP3     OH2      OT      -0.834000       15.9994           0
     57344 W2       19115    TIP3     H1       HT       0.417000       1.00800           0
     57345 W2       19115    TIP3     H2       HT       0.417000       1.00800           0
     57346 W2       19116    TIP3     OH2      OT      -0.834000       15.9994           0
     57347 W2       19116    TIP3     H1       HT       0.417000       1.00800           0
     57348 W2       19116    TIP3     H2       HT       0.417000       1.00800           0
     57349 W2       19117    TIP3     OH2      OT      -0.834000       15.9994           0
     57350 W2       19117    TIP3     H1       HT       0.417000       1.00800           0
     57351 W2       19117    TIP3     H2       HT       0.417000       1.00800           0
     57352 W2       19118    TIP3     OH2      OT      -0.834000       15.9994           0
     57353 W2       19118    TIP3     H1       HT       0.417000       1.00800           0
     57354 W2       19118    TIP3     H2       HT       0.417000       1.00800           0
     57355 W2       19119    TIP3     OH2      OT      -0.834000       15.9994           0
     57356 W2       19119    TIP3     H1       HT       0.417000       1.00800           0
     57357 W2       19119    TIP3     H2       HT       0.417000       1.00800           0
     57358 W2       19120    TIP3     OH2      OT      -0.834000       15.9994           0
     57359 W2       19120    TIP3     H1       HT       0.417000       1.00800           0
     57360 W2       19120    TIP3     H2       HT       0.417000       1.00800           0
     57361 W2       19121    TIP3     OH2      OT      -0.834000       15.9994           0
     57362 W2       19121    TIP3     H1       HT       0.417000       1.00800           0
     57363 W2       19121    TIP3     H2       HT       0.417000       1.00800           0
     57364 W2       19122    TIP3     OH2      OT      -0.834000       15.9994           0
     57365 W2       19122    TIP3     H1       HT       0.417000       1.00800           0
     57366 W2       19122    TIP3     H2       HT       0.417000       1.00800           0
     57367 W2       19123    TIP3     OH2      OT      -0.834000       15.9994           0
     57368 W2       19123    TIP3     H1       HT       0.417000       1.00800           0
     57369 W2       19123    TIP3     H2       HT       0.417000       1.00800           0
     57370 W2       19124    TIP3     OH2      OT      -0.834000       15.9994           0
     57371 W2       19124    TIP3     H1       HT       0.417000       1.00800           0
     57372 W2       19124    TIP3     H2       HT       0.417000       1.00800           0
     57373 W2       19125    TIP3     OH2      OT      -0.834000       15.9994           0
     57374 W2       19125    TIP3     H1       HT       0.417000       1.00800           0
     57375 W2       19125    TIP3     H2       HT       0.417000       1.00800           0
     57376 W2       19126    TIP3     OH2      OT      -0.834000       15.9994           0
     57377 W2       19126    TIP3     H1       HT       0.417000       1.00800           0
     57378 W2       19126    TIP3     H2       HT       0.417000       1.00800           0
     57379 W2       19127    TIP3     OH2      OT      -0.834000       15.9994           0
     57380 W2       19127    TIP3     H1       HT       0.417000       1.00800           0
     57381 W2       19127    TIP3     H2       HT       0.417000       1.00800           0
     57382 W2       19128    TIP3     OH2      OT      -0.834000       15.9994           0
     57383 W2       19128    TIP3     H1       HT       0.417000       1.00800           0
     57384 W2       19128    TIP3     H2       HT       0.417000       1.00800           0
     57385 W2       19129    TIP3     OH2      OT      -0.834000       15.9994           0
     57386 W2       19129    TIP3     H1       HT       0.417000       1.00800           0
     57387 W2       19129    TIP3     H2       HT       0.417000       1.00800           0
     57388 W2       19130    TIP3     OH2      OT      -0.834000       15.9994           0
     57389 W2       19130    TIP3     H1       HT       0.417000       1.00800           0
     57390 W2       19130    TIP3     H2       HT       0.417000       1.00800           0
     57391 W2       19131    TIP3     OH2      OT      -0.834000       15.9994           0
     57392 W2       19131    TIP3     H1       HT       0.417000       1.00800           0
     57393 W2       19131    TIP3     H2       HT       0.417000       1.00800           0
     57394 W2       19132    TIP3     OH2      OT      -0.834000       15.9994           0
     57395 W2       19132    TIP3     H1       HT       0.417000       1.00800           0
     57396 W2       19132    TIP3     H2       HT       0.417000       1.00800           0
     57397 W2       19133    TIP3     OH2      OT      -0.834000       15.9994           0
     57398 W2       19133    TIP3     H1       HT       0.417000       1.00800           0
     57399 W2       19133    TIP3     H2       HT       0.417000       1.00800           0
     57400 W2       19134    TIP3     OH2      OT      -0.834000       15.9994           0
     57401 W2       19134    TIP3     H1       HT       0.417000       1.00800           0
     57402 W2       19134    TIP3     H2       HT       0.417000       1.00800           0
     57403 W2       19135    TIP3     OH2      OT      -0.834000       15.9994           0
     57404 W2       19135    TIP3     H1       HT       0.417000       1.00800           0
     57405 W2       19135    TIP3     H2       HT       0.417000       1.00800           0
     57406 W2       19136    TIP3     OH2      OT      -0.834000       15.9994           0
     57407 W2       19136    TIP3     H1       HT       0.417000       1.00800           0
     57408 W2       19136    TIP3     H2       HT       0.417000       1.00800           0
     57409 W2       19137    TIP3     OH2      OT      -0.834000       15.9994           0
     57410 W2       19137    TIP3     H1       HT       0.417000       1.00800           0
     57411 W2       19137    TIP3     H2       HT       0.417000       1.00800           0
     57412 W2       19138    TIP3     OH2      OT      -0.834000       15.9994           0
     57413 W2       19138    TIP3     H1       HT       0.417000       1.00800           0
     57414 W2       19138    TIP3     H2       HT       0.417000       1.00800           0
     57415 W2       19139    TIP3     OH2      OT      -0.834000       15.9994           0
     57416 W2       19139    TIP3     H1       HT       0.417000       1.00800           0
     57417 W2       19139    TIP3     H2       HT       0.417000       1.00800           0
     57418 W2       19140    TIP3     OH2      OT      -0.834000       15.9994           0
     57419 W2       19140    TIP3     H1       HT       0.417000       1.00800           0
     57420 W2       19140    TIP3     H2       HT       0.417000       1.00800           0
     57421 W2       19141    TIP3     OH2      OT      -0.834000       15.9994           0
     57422 W2       19141    TIP3     H1       HT       0.417000       1.00800           0
     57423 W2       19141    TIP3     H2       HT       0.417000       1.00800           0
     57424 W2       19142    TIP3     OH2      OT      -0.834000       15.9994           0
     57425 W2       19142    TIP3     H1       HT       0.417000       1.00800           0
     57426 W2       19142    TIP3     H2       HT       0.417000       1.00800           0
     57427 W2       19143    TIP3     OH2      OT      -0.834000       15.9994           0
     57428 W2       19143    TIP3     H1       HT       0.417000       1.00800           0
     57429 W2       19143    TIP3     H2       HT       0.417000       1.00800           0
     57430 W2       19144    TIP3     OH2      OT      -0.834000       15.9994           0
     57431 W2       19144    TIP3     H1       HT       0.417000       1.00800           0
     57432 W2       19144    TIP3     H2       HT       0.417000       1.00800           0
     57433 W2       19145    TIP3     OH2      OT      -0.834000       15.9994           0
     57434 W2       19145    TIP3     H1       HT       0.417000       1.00800           0
     57435 W2       19145    TIP3     H2       HT       0.417000       1.00800           0
     57436 W2       19146    TIP3     OH2      OT      -0.834000       15.9994           0
     57437 W2       19146    TIP3     H1       HT       0.417000       1.00800           0
     57438 W2       19146    TIP3     H2       HT       0.417000       1.00800           0
     57439 W2       19147    TIP3     OH2      OT      -0.834000       15.9994           0
     57440 W2       19147    TIP3     H1       HT       0.417000       1.00800           0
     57441 W2       19147    TIP3     H2       HT       0.417000       1.00800           0
     57442 W2       19148    TIP3     OH2      OT      -0.834000       15.9994           0
     57443 W2       19148    TIP3     H1       HT       0.417000       1.00800           0
     57444 W2       19148    TIP3     H2       HT       0.417000       1.00800           0
     57445 W2       19149    TIP3     OH2      OT      -0.834000       15.9994           0
     57446 W2       19149    TIP3     H1       HT       0.417000       1.00800           0
     57447 W2       19149    TIP3     H2       HT       0.417000       1.00800           0
     57448 W2       19150    TIP3     OH2      OT      -0.834000       15.9994           0
     57449 W2       19150    TIP3     H1       HT       0.417000       1.00800           0
     57450 W2       19150    TIP3     H2       HT       0.417000       1.00800           0
     57451 W2       19151    TIP3     OH2      OT      -0.834000       15.9994           0
     57452 W2       19151    TIP3     H1       HT       0.417000       1.00800           0
     57453 W2       19151    TIP3     H2       HT       0.417000       1.00800           0
     57454 W2       19152    TIP3     OH2      OT      -0.834000       15.9994           0
     57455 W2       19152    TIP3     H1       HT       0.417000       1.00800           0
     57456 W2       19152    TIP3     H2       HT       0.417000       1.00800           0
     57457 W2       19153    TIP3     OH2      OT      -0.834000       15.9994           0
     57458 W2       19153    TIP3     H1       HT       0.417000       1.00800           0
     57459 W2       19153    TIP3     H2       HT       0.417000       1.00800           0
     57460 W2       19154    TIP3     OH2      OT      -0.834000       15.9994           0
     57461 W2       19154    TIP3     H1       HT       0.417000       1.00800           0
     57462 W2       19154    TIP3     H2       HT       0.417000       1.00800           0
     57463 W2       19155    TIP3     OH2      OT      -0.834000       15.9994           0
     57464 W2       19155    TIP3     H1       HT       0.417000       1.00800           0
     57465 W2       19155    TIP3     H2       HT       0.417000       1.00800           0
     57466 W2       19156    TIP3     OH2      OT      -0.834000       15.9994           0
     57467 W2       19156    TIP3     H1       HT       0.417000       1.00800           0
     57468 W2       19156    TIP3     H2       HT       0.417000       1.00800           0
     57469 W2       19157    TIP3     OH2      OT      -0.834000       15.9994           0
     57470 W2       19157    TIP3     H1       HT       0.417000       1.00800           0
     57471 W2       19157    TIP3     H2       HT       0.417000       1.00800           0
     57472 W2       19158    TIP3     OH2      OT      -0.834000       15.9994           0
     57473 W2       19158    TIP3     H1       HT       0.417000       1.00800           0
     57474 W2       19158    TIP3     H2       HT       0.417000       1.00800           0
     57475 W2       19159    TIP3     OH2      OT      -0.834000       15.9994           0
     57476 W2       19159    TIP3     H1       HT       0.417000       1.00800           0
     57477 W2       19159    TIP3     H2       HT       0.417000       1.00800           0
     57478 W2       19160    TIP3     OH2      OT      -0.834000       15.9994           0
     57479 W2       19160    TIP3     H1       HT       0.417000       1.00800           0
     57480 W2       19160    TIP3     H2       HT       0.417000       1.00800           0
     57481 W2       19161    TIP3     OH2      OT      -0.834000       15.9994           0
     57482 W2       19161    TIP3     H1       HT       0.417000       1.00800           0
     57483 W2       19161    TIP3     H2       HT       0.417000       1.00800           0
     57484 W2       19162    TIP3     OH2      OT      -0.834000       15.9994           0
     57485 W2       19162    TIP3     H1       HT       0.417000       1.00800           0
     57486 W2       19162    TIP3     H2       HT       0.417000       1.00800           0
     57487 W2       19163    TIP3     OH2      OT      -0.834000       15.9994           0
     57488 W2       19163    TIP3     H1       HT       0.417000       1.00800           0
     57489 W2       19163    TIP3     H2       HT       0.417000       1.00800           0
     57490 W2       19164    TIP3     OH2      OT      -0.834000       15.9994           0
     57491 W2       19164    TIP3     H1       HT       0.417000       1.00800           0
     57492 W2       19164    TIP3     H2       HT       0.417000       1.00800           0
     57493 W2       19165    TIP3     OH2      OT      -0.834000       15.9994           0
     57494 W2       19165    TIP3     H1       HT       0.417000       1.00800           0
     57495 W2       19165    TIP3     H2       HT       0.417000       1.00800           0
     57496 W2       19166    TIP3     OH2      OT      -0.834000       15.9994           0
     57497 W2       19166    TIP3     H1       HT       0.417000       1.00800           0
     57498 W2       19166    TIP3     H2       HT       0.417000       1.00800           0
     57499 W2       19167    TIP3     OH2      OT      -0.834000       15.9994           0
     57500 W2       19167    TIP3     H1       HT       0.417000       1.00800           0
     57501 W2       19167    TIP3     H2       HT       0.417000       1.00800           0
     57502 W2       19168    TIP3     OH2      OT      -0.834000       15.9994           0
     57503 W2       19168    TIP3     H1       HT       0.417000       1.00800           0
     57504 W2       19168    TIP3     H2       HT       0.417000       1.00800           0
     57505 W2       19169    TIP3     OH2      OT      -0.834000       15.9994           0
     57506 W2       19169    TIP3     H1       HT       0.417000       1.00800           0
     57507 W2       19169    TIP3     H2       HT       0.417000       1.00800           0
     57508 W2       19170    TIP3     OH2      OT      -0.834000       15.9994           0
     57509 W2       19170    TIP3     H1       HT       0.417000       1.00800           0
     57510 W2       19170    TIP3     H2       HT       0.417000       1.00800           0
     57511 W2       19171    TIP3     OH2      OT      -0.834000       15.9994           0
     57512 W2       19171    TIP3     H1       HT       0.417000       1.00800           0
     57513 W2       19171    TIP3     H2       HT       0.417000       1.00800           0
     57514 W2       19172    TIP3     OH2      OT      -0.834000       15.9994           0
     57515 W2       19172    TIP3     H1       HT       0.417000       1.00800           0
     57516 W2       19172    TIP3     H2       HT       0.417000       1.00800           0
     57517 W2       19173    TIP3     OH2      OT      -0.834000       15.9994           0
     57518 W2       19173    TIP3     H1       HT       0.417000       1.00800           0
     57519 W2       19173    TIP3     H2       HT       0.417000       1.00800           0
     57520 W2       19174    TIP3     OH2      OT      -0.834000       15.9994           0
     57521 W2       19174    TIP3     H1       HT       0.417000       1.00800           0
     57522 W2       19174    TIP3     H2       HT       0.417000       1.00800           0
     57523 W2       19175    TIP3     OH2      OT      -0.834000       15.9994           0
     57524 W2       19175    TIP3     H1       HT       0.417000       1.00800           0
     57525 W2       19175    TIP3     H2       HT       0.417000       1.00800           0
     57526 W2       19176    TIP3     OH2      OT      -0.834000       15.9994           0
     57527 W2       19176    TIP3     H1       HT       0.417000       1.00800           0
     57528 W2       19176    TIP3     H2       HT       0.417000       1.00800           0
     57529 W2       19177    TIP3     OH2      OT      -0.834000       15.9994           0
     57530 W2       19177    TIP3     H1       HT       0.417000       1.00800           0
     57531 W2       19177    TIP3     H2       HT       0.417000       1.00800           0
     57532 W2       19178    TIP3     OH2      OT      -0.834000       15.9994           0
     57533 W2       19178    TIP3     H1       HT       0.417000       1.00800           0
     57534 W2       19178    TIP3     H2       HT       0.417000       1.00800           0
     57535 W2       19179    TIP3     OH2      OT      -0.834000       15.9994           0
     57536 W2       19179    TIP3     H1       HT       0.417000       1.00800           0
     57537 W2       19179    TIP3     H2       HT       0.417000       1.00800           0
     57538 W2       19180    TIP3     OH2      OT      -0.834000       15.9994           0
     57539 W2       19180    TIP3     H1       HT       0.417000       1.00800           0
     57540 W2       19180    TIP3     H2       HT       0.417000       1.00800           0
     57541 W2       19181    TIP3     OH2      OT      -0.834000       15.9994           0
     57542 W2       19181    TIP3     H1       HT       0.417000       1.00800           0
     57543 W2       19181    TIP3     H2       HT       0.417000       1.00800           0
     57544 W2       19182    TIP3     OH2      OT      -0.834000       15.9994           0
     57545 W2       19182    TIP3     H1       HT       0.417000       1.00800           0
     57546 W2       19182    TIP3     H2       HT       0.417000       1.00800           0
     57547 W2       19183    TIP3     OH2      OT      -0.834000       15.9994           0
     57548 W2       19183    TIP3     H1       HT       0.417000       1.00800           0
     57549 W2       19183    TIP3     H2       HT       0.417000       1.00800           0
     57550 W2       19184    TIP3     OH2      OT      -0.834000       15.9994           0
     57551 W2       19184    TIP3     H1       HT       0.417000       1.00800           0
     57552 W2       19184    TIP3     H2       HT       0.417000       1.00800           0
     57553 W2       19185    TIP3     OH2      OT      -0.834000       15.9994           0
     57554 W2       19185    TIP3     H1       HT       0.417000       1.00800           0
     57555 W2       19185    TIP3     H2       HT       0.417000       1.00800           0
     57556 W2       19186    TIP3     OH2      OT      -0.834000       15.9994           0
     57557 W2       19186    TIP3     H1       HT       0.417000       1.00800           0
     57558 W2       19186    TIP3     H2       HT       0.417000       1.00800           0
     57559 W2       19187    TIP3     OH2      OT      -0.834000       15.9994           0
     57560 W2       19187    TIP3     H1       HT       0.417000       1.00800           0
     57561 W2       19187    TIP3     H2       HT       0.417000       1.00800           0
     57562 W2       19188    TIP3     OH2      OT      -0.834000       15.9994           0
     57563 W2       19188    TIP3     H1       HT       0.417000       1.00800           0
     57564 W2       19188    TIP3     H2       HT       0.417000       1.00800           0
     57565 W2       19189    TIP3     OH2      OT      -0.834000       15.9994           0
     57566 W2       19189    TIP3     H1       HT       0.417000       1.00800           0
     57567 W2       19189    TIP3     H2       HT       0.417000       1.00800           0
     57568 W2       19190    TIP3     OH2      OT      -0.834000       15.9994           0
     57569 W2       19190    TIP3     H1       HT       0.417000       1.00800           0
     57570 W2       19190    TIP3     H2       HT       0.417000       1.00800           0
     57571 W2       19191    TIP3     OH2      OT      -0.834000       15.9994           0
     57572 W2       19191    TIP3     H1       HT       0.417000       1.00800           0
     57573 W2       19191    TIP3     H2       HT       0.417000       1.00800           0
     57574 W2       19192    TIP3     OH2      OT      -0.834000       15.9994           0
     57575 W2       19192    TIP3     H1       HT       0.417000       1.00800           0
     57576 W2       19192    TIP3     H2       HT       0.417000       1.00800           0
     57577 W2       19193    TIP3     OH2      OT      -0.834000       15.9994           0
     57578 W2       19193    TIP3     H1       HT       0.417000       1.00800           0
     57579 W2       19193    TIP3     H2       HT       0.417000       1.00800           0
     57580 W2       19194    TIP3     OH2      OT      -0.834000       15.9994           0
     57581 W2       19194    TIP3     H1       HT       0.417000       1.00800           0
     57582 W2       19194    TIP3     H2       HT       0.417000       1.00800           0
     57583 W2       19195    TIP3     OH2      OT      -0.834000       15.9994           0
     57584 W2       19195    TIP3     H1       HT       0.417000       1.00800           0
     57585 W2       19195    TIP3     H2       HT       0.417000       1.00800           0
     57586 W2       19196    TIP3     OH2      OT      -0.834000       15.9994           0
     57587 W2       19196    TIP3     H1       HT       0.417000       1.00800           0
     57588 W2       19196    TIP3     H2       HT       0.417000       1.00800           0
     57589 W2       19197    TIP3     OH2      OT      -0.834000       15.9994           0
     57590 W2       19197    TIP3     H1       HT       0.417000       1.00800           0
     57591 W2       19197    TIP3     H2       HT       0.417000       1.00800           0
     57592 W2       19198    TIP3     OH2      OT      -0.834000       15.9994           0
     57593 W2       19198    TIP3     H1       HT       0.417000       1.00800           0
     57594 W2       19198    TIP3     H2       HT       0.417000       1.00800           0
     57595 W2       19199    TIP3     OH2      OT      -0.834000       15.9994           0
     57596 W2       19199    TIP3     H1       HT       0.417000       1.00800           0
     57597 W2       19199    TIP3     H2       HT       0.417000       1.00800           0
     57598 W2       19200    TIP3     OH2      OT      -0.834000       15.9994           0
     57599 W2       19200    TIP3     H1       HT       0.417000       1.00800           0
     57600 W2       19200    TIP3     H2       HT       0.417000       1.00800           0
     57601 W2       19201    TIP3     OH2      OT      -0.834000       15.9994           0
     57602 W2       19201    TIP3     H1       HT       0.417000       1.00800           0
     57603 W2       19201    TIP3     H2       HT       0.417000       1.00800           0
     57604 W2       19202    TIP3     OH2      OT      -0.834000       15.9994           0
     57605 W2       19202    TIP3     H1       HT       0.417000       1.00800           0
     57606 W2       19202    TIP3     H2       HT       0.417000       1.00800           0
     57607 W2       19203    TIP3     OH2      OT      -0.834000       15.9994           0
     57608 W2       19203    TIP3     H1       HT       0.417000       1.00800           0
     57609 W2       19203    TIP3     H2       HT       0.417000       1.00800           0
     57610 W2       19204    TIP3     OH2      OT      -0.834000       15.9994           0
     57611 W2       19204    TIP3     H1       HT       0.417000       1.00800           0
     57612 W2       19204    TIP3     H2       HT       0.417000       1.00800           0
     57613 W2       19205    TIP3     OH2      OT      -0.834000       15.9994           0
     57614 W2       19205    TIP3     H1       HT       0.417000       1.00800           0
     57615 W2       19205    TIP3     H2       HT       0.417000       1.00800           0
     57616 W2       19206    TIP3     OH2      OT      -0.834000       15.9994           0
     57617 W2       19206    TIP3     H1       HT       0.417000       1.00800           0
     57618 W2       19206    TIP3     H2       HT       0.417000       1.00800           0
     57619 W2       19207    TIP3     OH2      OT      -0.834000       15.9994           0
     57620 W2       19207    TIP3     H1       HT       0.417000       1.00800           0
     57621 W2       19207    TIP3     H2       HT       0.417000       1.00800           0
     57622 W2       19208    TIP3     OH2      OT      -0.834000       15.9994           0
     57623 W2       19208    TIP3     H1       HT       0.417000       1.00800           0
     57624 W2       19208    TIP3     H2       HT       0.417000       1.00800           0
     57625 W2       19209    TIP3     OH2      OT      -0.834000       15.9994           0
     57626 W2       19209    TIP3     H1       HT       0.417000       1.00800           0
     57627 W2       19209    TIP3     H2       HT       0.417000       1.00800           0
     57628 W2       19210    TIP3     OH2      OT      -0.834000       15.9994           0
     57629 W2       19210    TIP3     H1       HT       0.417000       1.00800           0
     57630 W2       19210    TIP3     H2       HT       0.417000       1.00800           0
     57631 W2       19211    TIP3     OH2      OT      -0.834000       15.9994           0
     57632 W2       19211    TIP3     H1       HT       0.417000       1.00800           0
     57633 W2       19211    TIP3     H2       HT       0.417000       1.00800           0
     57634 W2       19212    TIP3     OH2      OT      -0.834000       15.9994           0
     57635 W2       19212    TIP3     H1       HT       0.417000       1.00800           0
     57636 W2       19212    TIP3     H2       HT       0.417000       1.00800           0
     57637 W2       19213    TIP3     OH2      OT      -0.834000       15.9994           0
     57638 W2       19213    TIP3     H1       HT       0.417000       1.00800           0
     57639 W2       19213    TIP3     H2       HT       0.417000       1.00800           0
     57640 W2       19214    TIP3     OH2      OT      -0.834000       15.9994           0
     57641 W2       19214    TIP3     H1       HT       0.417000       1.00800           0
     57642 W2       19214    TIP3     H2       HT       0.417000       1.00800           0
     57643 W2       19215    TIP3     OH2      OT      -0.834000       15.9994           0
     57644 W2       19215    TIP3     H1       HT       0.417000       1.00800           0
     57645 W2       19215    TIP3     H2       HT       0.417000       1.00800           0
     57646 W2       19216    TIP3     OH2      OT      -0.834000       15.9994           0
     57647 W2       19216    TIP3     H1       HT       0.417000       1.00800           0
     57648 W2       19216    TIP3     H2       HT       0.417000       1.00800           0
     57649 W2       19217    TIP3     OH2      OT      -0.834000       15.9994           0
     57650 W2       19217    TIP3     H1       HT       0.417000       1.00800           0
     57651 W2       19217    TIP3     H2       HT       0.417000       1.00800           0
     57652 W2       19218    TIP3     OH2      OT      -0.834000       15.9994           0
     57653 W2       19218    TIP3     H1       HT       0.417000       1.00800           0
     57654 W2       19218    TIP3     H2       HT       0.417000       1.00800           0
     57655 W2       19219    TIP3     OH2      OT      -0.834000       15.9994           0
     57656 W2       19219    TIP3     H1       HT       0.417000       1.00800           0
     57657 W2       19219    TIP3     H2       HT       0.417000       1.00800           0
     57658 W2       19220    TIP3     OH2      OT      -0.834000       15.9994           0
     57659 W2       19220    TIP3     H1       HT       0.417000       1.00800           0
     57660 W2       19220    TIP3     H2       HT       0.417000       1.00800           0
     57661 W2       19221    TIP3     OH2      OT      -0.834000       15.9994           0
     57662 W2       19221    TIP3     H1       HT       0.417000       1.00800           0
     57663 W2       19221    TIP3     H2       HT       0.417000       1.00800           0
     57664 W2       19222    TIP3     OH2      OT      -0.834000       15.9994           0
     57665 W2       19222    TIP3     H1       HT       0.417000       1.00800           0
     57666 W2       19222    TIP3     H2       HT       0.417000       1.00800           0
     57667 W2       19223    TIP3     OH2      OT      -0.834000       15.9994           0
     57668 W2       19223    TIP3     H1       HT       0.417000       1.00800           0
     57669 W2       19223    TIP3     H2       HT       0.417000       1.00800           0
     57670 W2       19224    TIP3     OH2      OT      -0.834000       15.9994           0
     57671 W2       19224    TIP3     H1       HT       0.417000       1.00800           0
     57672 W2       19224    TIP3     H2       HT       0.417000       1.00800           0
     57673 W2       19225    TIP3     OH2      OT      -0.834000       15.9994           0
     57674 W2       19225    TIP3     H1       HT       0.417000       1.00800           0
     57675 W2       19225    TIP3     H2       HT       0.417000       1.00800           0
     57676 W2       19226    TIP3     OH2      OT      -0.834000       15.9994           0
     57677 W2       19226    TIP3     H1       HT       0.417000       1.00800           0
     57678 W2       19226    TIP3     H2       HT       0.417000       1.00800           0
     57679 W2       19227    TIP3     OH2      OT      -0.834000       15.9994           0
     57680 W2       19227    TIP3     H1       HT       0.417000       1.00800           0
     57681 W2       19227    TIP3     H2       HT       0.417000       1.00800           0
     57682 W2       19228    TIP3     OH2      OT      -0.834000       15.9994           0
     57683 W2       19228    TIP3     H1       HT       0.417000       1.00800           0
     57684 W2       19228    TIP3     H2       HT       0.417000       1.00800           0
     57685 W2       19229    TIP3     OH2      OT      -0.834000       15.9994           0
     57686 W2       19229    TIP3     H1       HT       0.417000       1.00800           0
     57687 W2       19229    TIP3     H2       HT       0.417000       1.00800           0
     57688 W2       19230    TIP3     OH2      OT      -0.834000       15.9994           0
     57689 W2       19230    TIP3     H1       HT       0.417000       1.00800           0
     57690 W2       19230    TIP3     H2       HT       0.417000       1.00800           0
     57691 W2       19231    TIP3     OH2      OT      -0.834000       15.9994           0
     57692 W2       19231    TIP3     H1       HT       0.417000       1.00800           0
     57693 W2       19231    TIP3     H2       HT       0.417000       1.00800           0
     57694 W2       19232    TIP3     OH2      OT      -0.834000       15.9994           0
     57695 W2       19232    TIP3     H1       HT       0.417000       1.00800           0
     57696 W2       19232    TIP3     H2       HT       0.417000       1.00800           0
     57697 W2       19233    TIP3     OH2      OT      -0.834000       15.9994           0
     57698 W2       19233    TIP3     H1       HT       0.417000       1.00800           0
     57699 W2       19233    TIP3     H2       HT       0.417000       1.00800           0
     57700 W2       19234    TIP3     OH2      OT      -0.834000       15.9994           0
     57701 W2       19234    TIP3     H1       HT       0.417000       1.00800           0
     57702 W2       19234    TIP3     H2       HT       0.417000       1.00800           0
     57703 W2       19235    TIP3     OH2      OT      -0.834000       15.9994           0
     57704 W2       19235    TIP3     H1       HT       0.417000       1.00800           0
     57705 W2       19235    TIP3     H2       HT       0.417000       1.00800           0
     57706 W2       19236    TIP3     OH2      OT      -0.834000       15.9994           0
     57707 W2       19236    TIP3     H1       HT       0.417000       1.00800           0
     57708 W2       19236    TIP3     H2       HT       0.417000       1.00800           0
     57709 W2       19237    TIP3     OH2      OT      -0.834000       15.9994           0
     57710 W2       19237    TIP3     H1       HT       0.417000       1.00800           0
     57711 W2       19237    TIP3     H2       HT       0.417000       1.00800           0
     57712 W2       19238    TIP3     OH2      OT      -0.834000       15.9994           0
     57713 W2       19238    TIP3     H1       HT       0.417000       1.00800           0
     57714 W2       19238    TIP3     H2       HT       0.417000       1.00800           0
     57715 W2       19239    TIP3     OH2      OT      -0.834000       15.9994           0
     57716 W2       19239    TIP3     H1       HT       0.417000       1.00800           0
     57717 W2       19239    TIP3     H2       HT       0.417000       1.00800           0
     57718 W2       19240    TIP3     OH2      OT      -0.834000       15.9994           0
     57719 W2       19240    TIP3     H1       HT       0.417000       1.00800           0
     57720 W2       19240    TIP3     H2       HT       0.417000       1.00800           0
     57721 W2       19241    TIP3     OH2      OT      -0.834000       15.9994           0
     57722 W2       19241    TIP3     H1       HT       0.417000       1.00800           0
     57723 W2       19241    TIP3     H2       HT       0.417000       1.00800           0
     57724 W2       19242    TIP3     OH2      OT      -0.834000       15.9994           0
     57725 W2       19242    TIP3     H1       HT       0.417000       1.00800           0
     57726 W2       19242    TIP3     H2       HT       0.417000       1.00800           0
     57727 W2       19243    TIP3     OH2      OT      -0.834000       15.9994           0
     57728 W2       19243    TIP3     H1       HT       0.417000       1.00800           0
     57729 W2       19243    TIP3     H2       HT       0.417000       1.00800           0
     57730 W2       19244    TIP3     OH2      OT      -0.834000       15.9994           0
     57731 W2       19244    TIP3     H1       HT       0.417000       1.00800           0
     57732 W2       19244    TIP3     H2       HT       0.417000       1.00800           0
     57733 W2       19245    TIP3     OH2      OT      -0.834000       15.9994           0
     57734 W2       19245    TIP3     H1       HT       0.417000       1.00800           0
     57735 W2       19245    TIP3     H2       HT       0.417000       1.00800           0
     57736 W2       19246    TIP3     OH2      OT      -0.834000       15.9994           0
     57737 W2       19246    TIP3     H1       HT       0.417000       1.00800           0
     57738 W2       19246    TIP3     H2       HT       0.417000       1.00800           0
     57739 W2       19247    TIP3     OH2      OT      -0.834000       15.9994           0
     57740 W2       19247    TIP3     H1       HT       0.417000       1.00800           0
     57741 W2       19247    TIP3     H2       HT       0.417000       1.00800           0
     57742 W2       19248    TIP3     OH2      OT      -0.834000       15.9994           0
     57743 W2       19248    TIP3     H1       HT       0.417000       1.00800           0
     57744 W2       19248    TIP3     H2       HT       0.417000       1.00800           0
     57745 W2       19249    TIP3     OH2      OT      -0.834000       15.9994           0
     57746 W2       19249    TIP3     H1       HT       0.417000       1.00800           0
     57747 W2       19249    TIP3     H2       HT       0.417000       1.00800           0
     57748 W2       19250    TIP3     OH2      OT      -0.834000       15.9994           0
     57749 W2       19250    TIP3     H1       HT       0.417000       1.00800           0
     57750 W2       19250    TIP3     H2       HT       0.417000       1.00800           0
     57751 W2       19251    TIP3     OH2      OT      -0.834000       15.9994           0
     57752 W2       19251    TIP3     H1       HT       0.417000       1.00800           0
     57753 W2       19251    TIP3     H2       HT       0.417000       1.00800           0
     57754 W2       19252    TIP3     OH2      OT      -0.834000       15.9994           0
     57755 W2       19252    TIP3     H1       HT       0.417000       1.00800           0
     57756 W2       19252    TIP3     H2       HT       0.417000       1.00800           0
     57757 W2       19253    TIP3     OH2      OT      -0.834000       15.9994           0
     57758 W2       19253    TIP3     H1       HT       0.417000       1.00800           0
     57759 W2       19253    TIP3     H2       HT       0.417000       1.00800           0
     57760 W2       19254    TIP3     OH2      OT      -0.834000       15.9994           0
     57761 W2       19254    TIP3     H1       HT       0.417000       1.00800           0
     57762 W2       19254    TIP3     H2       HT       0.417000       1.00800           0
     57763 W2       19255    TIP3     OH2      OT      -0.834000       15.9994           0
     57764 W2       19255    TIP3     H1       HT       0.417000       1.00800           0
     57765 W2       19255    TIP3     H2       HT       0.417000       1.00800           0
     57766 W2       19256    TIP3     OH2      OT      -0.834000       15.9994           0
     57767 W2       19256    TIP3     H1       HT       0.417000       1.00800           0
     57768 W2       19256    TIP3     H2       HT       0.417000       1.00800           0
     57769 W2       19257    TIP3     OH2      OT      -0.834000       15.9994           0
     57770 W2       19257    TIP3     H1       HT       0.417000       1.00800           0
     57771 W2       19257    TIP3     H2       HT       0.417000       1.00800           0
     57772 W2       19258    TIP3     OH2      OT      -0.834000       15.9994           0
     57773 W2       19258    TIP3     H1       HT       0.417000       1.00800           0
     57774 W2       19258    TIP3     H2       HT       0.417000       1.00800           0
     57775 W2       19259    TIP3     OH2      OT      -0.834000       15.9994           0
     57776 W2       19259    TIP3     H1       HT       0.417000       1.00800           0
     57777 W2       19259    TIP3     H2       HT       0.417000       1.00800           0
     57778 W2       19260    TIP3     OH2      OT      -0.834000       15.9994           0
     57779 W2       19260    TIP3     H1       HT       0.417000       1.00800           0
     57780 W2       19260    TIP3     H2       HT       0.417000       1.00800           0
     57781 W2       19261    TIP3     OH2      OT      -0.834000       15.9994           0
     57782 W2       19261    TIP3     H1       HT       0.417000       1.00800           0
     57783 W2       19261    TIP3     H2       HT       0.417000       1.00800           0
     57784 W2       19262    TIP3     OH2      OT      -0.834000       15.9994           0
     57785 W2       19262    TIP3     H1       HT       0.417000       1.00800           0
     57786 W2       19262    TIP3     H2       HT       0.417000       1.00800           0
     57787 W2       19263    TIP3     OH2      OT      -0.834000       15.9994           0
     57788 W2       19263    TIP3     H1       HT       0.417000       1.00800           0
     57789 W2       19263    TIP3     H2       HT       0.417000       1.00800           0
     57790 W2       19264    TIP3     OH2      OT      -0.834000       15.9994           0
     57791 W2       19264    TIP3     H1       HT       0.417000       1.00800           0
     57792 W2       19264    TIP3     H2       HT       0.417000       1.00800           0
     57793 W2       19265    TIP3     OH2      OT      -0.834000       15.9994           0
     57794 W2       19265    TIP3     H1       HT       0.417000       1.00800           0
     57795 W2       19265    TIP3     H2       HT       0.417000       1.00800           0
     57796 W2       19266    TIP3     OH2      OT      -0.834000       15.9994           0
     57797 W2       19266    TIP3     H1       HT       0.417000       1.00800           0
     57798 W2       19266    TIP3     H2       HT       0.417000       1.00800           0
     57799 W2       19267    TIP3     OH2      OT      -0.834000       15.9994           0
     57800 W2       19267    TIP3     H1       HT       0.417000       1.00800           0
     57801 W2       19267    TIP3     H2       HT       0.417000       1.00800           0
     57802 W2       19268    TIP3     OH2      OT      -0.834000       15.9994           0
     57803 W2       19268    TIP3     H1       HT       0.417000       1.00800           0
     57804 W2       19268    TIP3     H2       HT       0.417000       1.00800           0
     57805 W2       19269    TIP3     OH2      OT      -0.834000       15.9994           0
     57806 W2       19269    TIP3     H1       HT       0.417000       1.00800           0
     57807 W2       19269    TIP3     H2       HT       0.417000       1.00800           0
     57808 W2       19270    TIP3     OH2      OT      -0.834000       15.9994           0
     57809 W2       19270    TIP3     H1       HT       0.417000       1.00800           0
     57810 W2       19270    TIP3     H2       HT       0.417000       1.00800           0
     57811 W2       19271    TIP3     OH2      OT      -0.834000       15.9994           0
     57812 W2       19271    TIP3     H1       HT       0.417000       1.00800           0
     57813 W2       19271    TIP3     H2       HT       0.417000       1.00800           0
     57814 W2       19272    TIP3     OH2      OT      -0.834000       15.9994           0
     57815 W2       19272    TIP3     H1       HT       0.417000       1.00800           0
     57816 W2       19272    TIP3     H2       HT       0.417000       1.00800           0
     57817 W2       19273    TIP3     OH2      OT      -0.834000       15.9994           0
     57818 W2       19273    TIP3     H1       HT       0.417000       1.00800           0
     57819 W2       19273    TIP3     H2       HT       0.417000       1.00800           0
     57820 W2       19274    TIP3     OH2      OT      -0.834000       15.9994           0
     57821 W2       19274    TIP3     H1       HT       0.417000       1.00800           0
     57822 W2       19274    TIP3     H2       HT       0.417000       1.00800           0
     57823 W2       19275    TIP3     OH2      OT      -0.834000       15.9994           0
     57824 W2       19275    TIP3     H1       HT       0.417000       1.00800           0
     57825 W2       19275    TIP3     H2       HT       0.417000       1.00800           0
     57826 W2       19276    TIP3     OH2      OT      -0.834000       15.9994           0
     57827 W2       19276    TIP3     H1       HT       0.417000       1.00800           0
     57828 W2       19276    TIP3     H2       HT       0.417000       1.00800           0
     57829 W2       19277    TIP3     OH2      OT      -0.834000       15.9994           0
     57830 W2       19277    TIP3     H1       HT       0.417000       1.00800           0
     57831 W2       19277    TIP3     H2       HT       0.417000       1.00800           0
     57832 W2       19278    TIP3     OH2      OT      -0.834000       15.9994           0
     57833 W2       19278    TIP3     H1       HT       0.417000       1.00800           0
     57834 W2       19278    TIP3     H2       HT       0.417000       1.00800           0
     57835 W2       19279    TIP3     OH2      OT      -0.834000       15.9994           0
     57836 W2       19279    TIP3     H1       HT       0.417000       1.00800           0
     57837 W2       19279    TIP3     H2       HT       0.417000       1.00800           0
     57838 W2       19280    TIP3     OH2      OT      -0.834000       15.9994           0
     57839 W2       19280    TIP3     H1       HT       0.417000       1.00800           0
     57840 W2       19280    TIP3     H2       HT       0.417000       1.00800           0
     57841 W2       19281    TIP3     OH2      OT      -0.834000       15.9994           0
     57842 W2       19281    TIP3     H1       HT       0.417000       1.00800           0
     57843 W2       19281    TIP3     H2       HT       0.417000       1.00800           0
     57844 W2       19282    TIP3     OH2      OT      -0.834000       15.9994           0
     57845 W2       19282    TIP3     H1       HT       0.417000       1.00800           0
     57846 W2       19282    TIP3     H2       HT       0.417000       1.00800           0
     57847 W2       19283    TIP3     OH2      OT      -0.834000       15.9994           0
     57848 W2       19283    TIP3     H1       HT       0.417000       1.00800           0
     57849 W2       19283    TIP3     H2       HT       0.417000       1.00800           0
     57850 W2       19284    TIP3     OH2      OT      -0.834000       15.9994           0
     57851 W2       19284    TIP3     H1       HT       0.417000       1.00800           0
     57852 W2       19284    TIP3     H2       HT       0.417000       1.00800           0
     57853 W2       19285    TIP3     OH2      OT      -0.834000       15.9994           0
     57854 W2       19285    TIP3     H1       HT       0.417000       1.00800           0
     57855 W2       19285    TIP3     H2       HT       0.417000       1.00800           0
     57856 W2       19286    TIP3     OH2      OT      -0.834000       15.9994           0
     57857 W2       19286    TIP3     H1       HT       0.417000       1.00800           0
     57858 W2       19286    TIP3     H2       HT       0.417000       1.00800           0
     57859 W2       19287    TIP3     OH2      OT      -0.834000       15.9994           0
     57860 W2       19287    TIP3     H1       HT       0.417000       1.00800           0
     57861 W2       19287    TIP3     H2       HT       0.417000       1.00800           0
     57862 W2       19288    TIP3     OH2      OT      -0.834000       15.9994           0
     57863 W2       19288    TIP3     H1       HT       0.417000       1.00800           0
     57864 W2       19288    TIP3     H2       HT       0.417000       1.00800           0
     57865 W2       19289    TIP3     OH2      OT      -0.834000       15.9994           0
     57866 W2       19289    TIP3     H1       HT       0.417000       1.00800           0
     57867 W2       19289    TIP3     H2       HT       0.417000       1.00800           0
     57868 W2       19290    TIP3     OH2      OT      -0.834000       15.9994           0
     57869 W2       19290    TIP3     H1       HT       0.417000       1.00800           0
     57870 W2       19290    TIP3     H2       HT       0.417000       1.00800           0
     57871 W2       19291    TIP3     OH2      OT      -0.834000       15.9994           0
     57872 W2       19291    TIP3     H1       HT       0.417000       1.00800           0
     57873 W2       19291    TIP3     H2       HT       0.417000       1.00800           0
     57874 W2       19292    TIP3     OH2      OT      -0.834000       15.9994           0
     57875 W2       19292    TIP3     H1       HT       0.417000       1.00800           0
     57876 W2       19292    TIP3     H2       HT       0.417000       1.00800           0
     57877 W2       19293    TIP3     OH2      OT      -0.834000       15.9994           0
     57878 W2       19293    TIP3     H1       HT       0.417000       1.00800           0
     57879 W2       19293    TIP3     H2       HT       0.417000       1.00800           0
     57880 W2       19294    TIP3     OH2      OT      -0.834000       15.9994           0
     57881 W2       19294    TIP3     H1       HT       0.417000       1.00800           0
     57882 W2       19294    TIP3     H2       HT       0.417000       1.00800           0
     57883 W2       19295    TIP3     OH2      OT      -0.834000       15.9994           0
     57884 W2       19295    TIP3     H1       HT       0.417000       1.00800           0
     57885 W2       19295    TIP3     H2       HT       0.417000       1.00800           0
     57886 W2       19296    TIP3     OH2      OT      -0.834000       15.9994           0
     57887 W2       19296    TIP3     H1       HT       0.417000       1.00800           0
     57888 W2       19296    TIP3     H2       HT       0.417000       1.00800           0
     57889 W2       19297    TIP3     OH2      OT      -0.834000       15.9994           0
     57890 W2       19297    TIP3     H1       HT       0.417000       1.00800           0
     57891 W2       19297    TIP3     H2       HT       0.417000       1.00800           0
     57892 W2       19298    TIP3     OH2      OT      -0.834000       15.9994           0
     57893 W2       19298    TIP3     H1       HT       0.417000       1.00800           0
     57894 W2       19298    TIP3     H2       HT       0.417000       1.00800           0
     57895 W2       19299    TIP3     OH2      OT      -0.834000       15.9994           0
     57896 W2       19299    TIP3     H1       HT       0.417000       1.00800           0
     57897 W2       19299    TIP3     H2       HT       0.417000       1.00800           0
     57898 W2       19300    TIP3     OH2      OT      -0.834000       15.9994           0
     57899 W2       19300    TIP3     H1       HT       0.417000       1.00800           0
     57900 W2       19300    TIP3     H2       HT       0.417000       1.00800           0
     57901 W2       19301    TIP3     OH2      OT      -0.834000       15.9994           0
     57902 W2       19301    TIP3     H1       HT       0.417000       1.00800           0
     57903 W2       19301    TIP3     H2       HT       0.417000       1.00800           0
     57904 W2       19302    TIP3     OH2      OT      -0.834000       15.9994           0
     57905 W2       19302    TIP3     H1       HT       0.417000       1.00800           0
     57906 W2       19302    TIP3     H2       HT       0.417000       1.00800           0
     57907 W2       19303    TIP3     OH2      OT      -0.834000       15.9994           0
     57908 W2       19303    TIP3     H1       HT       0.417000       1.00800           0
     57909 W2       19303    TIP3     H2       HT       0.417000       1.00800           0
     57910 W2       19304    TIP3     OH2      OT      -0.834000       15.9994           0
     57911 W2       19304    TIP3     H1       HT       0.417000       1.00800           0
     57912 W2       19304    TIP3     H2       HT       0.417000       1.00800           0
     57913 W2       19305    TIP3     OH2      OT      -0.834000       15.9994           0
     57914 W2       19305    TIP3     H1       HT       0.417000       1.00800           0
     57915 W2       19305    TIP3     H2       HT       0.417000       1.00800           0
     57916 W2       19306    TIP3     OH2      OT      -0.834000       15.9994           0
     57917 W2       19306    TIP3     H1       HT       0.417000       1.00800           0
     57918 W2       19306    TIP3     H2       HT       0.417000       1.00800           0
     57919 W2       19307    TIP3     OH2      OT      -0.834000       15.9994           0
     57920 W2       19307    TIP3     H1       HT       0.417000       1.00800           0
     57921 W2       19307    TIP3     H2       HT       0.417000       1.00800           0
     57922 W2       19308    TIP3     OH2      OT      -0.834000       15.9994           0
     57923 W2       19308    TIP3     H1       HT       0.417000       1.00800           0
     57924 W2       19308    TIP3     H2       HT       0.417000       1.00800           0
     57925 W2       19309    TIP3     OH2      OT      -0.834000       15.9994           0
     57926 W2       19309    TIP3     H1       HT       0.417000       1.00800           0
     57927 W2       19309    TIP3     H2       HT       0.417000       1.00800           0
     57928 W2       19310    TIP3     OH2      OT      -0.834000       15.9994           0
     57929 W2       19310    TIP3     H1       HT       0.417000       1.00800           0
     57930 W2       19310    TIP3     H2       HT       0.417000       1.00800           0
     57931 W2       19311    TIP3     OH2      OT      -0.834000       15.9994           0
     57932 W2       19311    TIP3     H1       HT       0.417000       1.00800           0
     57933 W2       19311    TIP3     H2       HT       0.417000       1.00800           0
     57934 W2       19312    TIP3     OH2      OT      -0.834000       15.9994           0
     57935 W2       19312    TIP3     H1       HT       0.417000       1.00800           0
     57936 W2       19312    TIP3     H2       HT       0.417000       1.00800           0
     57937 W2       19313    TIP3     OH2      OT      -0.834000       15.9994           0
     57938 W2       19313    TIP3     H1       HT       0.417000       1.00800           0
     57939 W2       19313    TIP3     H2       HT       0.417000       1.00800           0
     57940 W2       19314    TIP3     OH2      OT      -0.834000       15.9994           0
     57941 W2       19314    TIP3     H1       HT       0.417000       1.00800           0
     57942 W2       19314    TIP3     H2       HT       0.417000       1.00800           0
     57943 W2       19315    TIP3     OH2      OT      -0.834000       15.9994           0
     57944 W2       19315    TIP3     H1       HT       0.417000       1.00800           0
     57945 W2       19315    TIP3     H2       HT       0.417000       1.00800           0
     57946 W2       19316    TIP3     OH2      OT      -0.834000       15.9994           0
     57947 W2       19316    TIP3     H1       HT       0.417000       1.00800           0
     57948 W2       19316    TIP3     H2       HT       0.417000       1.00800           0
     57949 W2       19317    TIP3     OH2      OT      -0.834000       15.9994           0
     57950 W2       19317    TIP3     H1       HT       0.417000       1.00800           0
     57951 W2       19317    TIP3     H2       HT       0.417000       1.00800           0
     57952 W2       19318    TIP3     OH2      OT      -0.834000       15.9994           0
     57953 W2       19318    TIP3     H1       HT       0.417000       1.00800           0
     57954 W2       19318    TIP3     H2       HT       0.417000       1.00800           0
     57955 W2       19319    TIP3     OH2      OT      -0.834000       15.9994           0
     57956 W2       19319    TIP3     H1       HT       0.417000       1.00800           0
     57957 W2       19319    TIP3     H2       HT       0.417000       1.00800           0
     57958 W2       19320    TIP3     OH2      OT      -0.834000       15.9994           0
     57959 W2       19320    TIP3     H1       HT       0.417000       1.00800           0
     57960 W2       19320    TIP3     H2       HT       0.417000       1.00800           0
     57961 W2       19321    TIP3     OH2      OT      -0.834000       15.9994           0
     57962 W2       19321    TIP3     H1       HT       0.417000       1.00800           0
     57963 W2       19321    TIP3     H2       HT       0.417000       1.00800           0
     57964 W2       19322    TIP3     OH2      OT      -0.834000       15.9994           0
     57965 W2       19322    TIP3     H1       HT       0.417000       1.00800           0
     57966 W2       19322    TIP3     H2       HT       0.417000       1.00800           0
     57967 W2       19323    TIP3     OH2      OT      -0.834000       15.9994           0
     57968 W2       19323    TIP3     H1       HT       0.417000       1.00800           0
     57969 W2       19323    TIP3     H2       HT       0.417000       1.00800           0
     57970 W2       19324    TIP3     OH2      OT      -0.834000       15.9994           0
     57971 W2       19324    TIP3     H1       HT       0.417000       1.00800           0
     57972 W2       19324    TIP3     H2       HT       0.417000       1.00800           0
     57973 W2       19325    TIP3     OH2      OT      -0.834000       15.9994           0
     57974 W2       19325    TIP3     H1       HT       0.417000       1.00800           0
     57975 W2       19325    TIP3     H2       HT       0.417000       1.00800           0
     57976 W2       19326    TIP3     OH2      OT      -0.834000       15.9994           0
     57977 W2       19326    TIP3     H1       HT       0.417000       1.00800           0
     57978 W2       19326    TIP3     H2       HT       0.417000       1.00800           0
     57979 W2       19327    TIP3     OH2      OT      -0.834000       15.9994           0
     57980 W2       19327    TIP3     H1       HT       0.417000       1.00800           0
     57981 W2       19327    TIP3     H2       HT       0.417000       1.00800           0
     57982 W2       19328    TIP3     OH2      OT      -0.834000       15.9994           0
     57983 W2       19328    TIP3     H1       HT       0.417000       1.00800           0
     57984 W2       19328    TIP3     H2       HT       0.417000       1.00800           0
     57985 W2       19329    TIP3     OH2      OT      -0.834000       15.9994           0
     57986 W2       19329    TIP3     H1       HT       0.417000       1.00800           0
     57987 W2       19329    TIP3     H2       HT       0.417000       1.00800           0
     57988 W2       19330    TIP3     OH2      OT      -0.834000       15.9994           0
     57989 W2       19330    TIP3     H1       HT       0.417000       1.00800           0
     57990 W2       19330    TIP3     H2       HT       0.417000       1.00800           0
     57991 W2       19331    TIP3     OH2      OT      -0.834000       15.9994           0
     57992 W2       19331    TIP3     H1       HT       0.417000       1.00800           0
     57993 W2       19331    TIP3     H2       HT       0.417000       1.00800           0
     57994 W2       19332    TIP3     OH2      OT      -0.834000       15.9994           0
     57995 W2       19332    TIP3     H1       HT       0.417000       1.00800           0
     57996 W2       19332    TIP3     H2       HT       0.417000       1.00800           0
     57997 W2       19333    TIP3     OH2      OT      -0.834000       15.9994           0
     57998 W2       19333    TIP3     H1       HT       0.417000       1.00800           0
     57999 W2       19333    TIP3     H2       HT       0.417000       1.00800           0
     58000 W2       19334    TIP3     OH2      OT      -0.834000       15.9994           0
     58001 W2       19334    TIP3     H1       HT       0.417000       1.00800           0
     58002 W2       19334    TIP3     H2       HT       0.417000       1.00800           0
     58003 W2       19335    TIP3     OH2      OT      -0.834000       15.9994           0
     58004 W2       19335    TIP3     H1       HT       0.417000       1.00800           0
     58005 W2       19335    TIP3     H2       HT       0.417000       1.00800           0
     58006 W2       19336    TIP3     OH2      OT      -0.834000       15.9994           0
     58007 W2       19336    TIP3     H1       HT       0.417000       1.00800           0
     58008 W2       19336    TIP3     H2       HT       0.417000       1.00800           0
     58009 W2       19337    TIP3     OH2      OT      -0.834000       15.9994           0
     58010 W2       19337    TIP3     H1       HT       0.417000       1.00800           0
     58011 W2       19337    TIP3     H2       HT       0.417000       1.00800           0
     58012 W2       19338    TIP3     OH2      OT      -0.834000       15.9994           0
     58013 W2       19338    TIP3     H1       HT       0.417000       1.00800           0
     58014 W2       19338    TIP3     H2       HT       0.417000       1.00800           0
     58015 W2       19339    TIP3     OH2      OT      -0.834000       15.9994           0
     58016 W2       19339    TIP3     H1       HT       0.417000       1.00800           0
     58017 W2       19339    TIP3     H2       HT       0.417000       1.00800           0
     58018 W2       19340    TIP3     OH2      OT      -0.834000       15.9994           0
     58019 W2       19340    TIP3     H1       HT       0.417000       1.00800           0
     58020 W2       19340    TIP3     H2       HT       0.417000       1.00800           0
     58021 W2       19341    TIP3     OH2      OT      -0.834000       15.9994           0
     58022 W2       19341    TIP3     H1       HT       0.417000       1.00800           0
     58023 W2       19341    TIP3     H2       HT       0.417000       1.00800           0
     58024 W2       19342    TIP3     OH2      OT      -0.834000       15.9994           0
     58025 W2       19342    TIP3     H1       HT       0.417000       1.00800           0
     58026 W2       19342    TIP3     H2       HT       0.417000       1.00800           0
     58027 W2       19343    TIP3     OH2      OT      -0.834000       15.9994           0
     58028 W2       19343    TIP3     H1       HT       0.417000       1.00800           0
     58029 W2       19343    TIP3     H2       HT       0.417000       1.00800           0
     58030 W2       19344    TIP3     OH2      OT      -0.834000       15.9994           0
     58031 W2       19344    TIP3     H1       HT       0.417000       1.00800           0
     58032 W2       19344    TIP3     H2       HT       0.417000       1.00800           0
     58033 W2       19345    TIP3     OH2      OT      -0.834000       15.9994           0
     58034 W2       19345    TIP3     H1       HT       0.417000       1.00800           0
     58035 W2       19345    TIP3     H2       HT       0.417000       1.00800           0
     58036 W2       19346    TIP3     OH2      OT      -0.834000       15.9994           0
     58037 W2       19346    TIP3     H1       HT       0.417000       1.00800           0
     58038 W2       19346    TIP3     H2       HT       0.417000       1.00800           0
     58039 W2       19347    TIP3     OH2      OT      -0.834000       15.9994           0
     58040 W2       19347    TIP3     H1       HT       0.417000       1.00800           0
     58041 W2       19347    TIP3     H2       HT       0.417000       1.00800           0
     58042 W2       19348    TIP3     OH2      OT      -0.834000       15.9994           0
     58043 W2       19348    TIP3     H1       HT       0.417000       1.00800           0
     58044 W2       19348    TIP3     H2       HT       0.417000       1.00800           0
     58045 W2       19349    TIP3     OH2      OT      -0.834000       15.9994           0
     58046 W2       19349    TIP3     H1       HT       0.417000       1.00800           0
     58047 W2       19349    TIP3     H2       HT       0.417000       1.00800           0
     58048 W2       19350    TIP3     OH2      OT      -0.834000       15.9994           0
     58049 W2       19350    TIP3     H1       HT       0.417000       1.00800           0
     58050 W2       19350    TIP3     H2       HT       0.417000       1.00800           0
     58051 W2       19351    TIP3     OH2      OT      -0.834000       15.9994           0
     58052 W2       19351    TIP3     H1       HT       0.417000       1.00800           0
     58053 W2       19351    TIP3     H2       HT       0.417000       1.00800           0
     58054 W2       19352    TIP3     OH2      OT      -0.834000       15.9994           0
     58055 W2       19352    TIP3     H1       HT       0.417000       1.00800           0
     58056 W2       19352    TIP3     H2       HT       0.417000       1.00800           0
     58057 W2       19353    TIP3     OH2      OT      -0.834000       15.9994           0
     58058 W2       19353    TIP3     H1       HT       0.417000       1.00800           0
     58059 W2       19353    TIP3     H2       HT       0.417000       1.00800           0
     58060 W2       19354    TIP3     OH2      OT      -0.834000       15.9994           0
     58061 W2       19354    TIP3     H1       HT       0.417000       1.00800           0
     58062 W2       19354    TIP3     H2       HT       0.417000       1.00800           0
     58063 W2       19355    TIP3     OH2      OT      -0.834000       15.9994           0
     58064 W2       19355    TIP3     H1       HT       0.417000       1.00800           0
     58065 W2       19355    TIP3     H2       HT       0.417000       1.00800           0
     58066 W2       19356    TIP3     OH2      OT      -0.834000       15.9994           0
     58067 W2       19356    TIP3     H1       HT       0.417000       1.00800           0
     58068 W2       19356    TIP3     H2       HT       0.417000       1.00800           0
     58069 W2       19357    TIP3     OH2      OT      -0.834000       15.9994           0
     58070 W2       19357    TIP3     H1       HT       0.417000       1.00800           0
     58071 W2       19357    TIP3     H2       HT       0.417000       1.00800           0
     58072 W2       19358    TIP3     OH2      OT      -0.834000       15.9994           0
     58073 W2       19358    TIP3     H1       HT       0.417000       1.00800           0
     58074 W2       19358    TIP3     H2       HT       0.417000       1.00800           0
     58075 W2       19359    TIP3     OH2      OT      -0.834000       15.9994           0
     58076 W2       19359    TIP3     H1       HT       0.417000       1.00800           0
     58077 W2       19359    TIP3     H2       HT       0.417000       1.00800           0
     58078 W2       19360    TIP3     OH2      OT      -0.834000       15.9994           0
     58079 W2       19360    TIP3     H1       HT       0.417000       1.00800           0
     58080 W2       19360    TIP3     H2       HT       0.417000       1.00800           0
     58081 W2       19361    TIP3     OH2      OT      -0.834000       15.9994           0
     58082 W2       19361    TIP3     H1       HT       0.417000       1.00800           0
     58083 W2       19361    TIP3     H2       HT       0.417000       1.00800           0
     58084 W2       19362    TIP3     OH2      OT      -0.834000       15.9994           0
     58085 W2       19362    TIP3     H1       HT       0.417000       1.00800           0
     58086 W2       19362    TIP3     H2       HT       0.417000       1.00800           0
     58087 W2       19363    TIP3     OH2      OT      -0.834000       15.9994           0
     58088 W2       19363    TIP3     H1       HT       0.417000       1.00800           0
     58089 W2       19363    TIP3     H2       HT       0.417000       1.00800           0
     58090 W2       19364    TIP3     OH2      OT      -0.834000       15.9994           0
     58091 W2       19364    TIP3     H1       HT       0.417000       1.00800           0
     58092 W2       19364    TIP3     H2       HT       0.417000       1.00800           0
     58093 W2       19365    TIP3     OH2      OT      -0.834000       15.9994           0
     58094 W2       19365    TIP3     H1       HT       0.417000       1.00800           0
     58095 W2       19365    TIP3     H2       HT       0.417000       1.00800           0
     58096 W2       19366    TIP3     OH2      OT      -0.834000       15.9994           0
     58097 W2       19366    TIP3     H1       HT       0.417000       1.00800           0
     58098 W2       19366    TIP3     H2       HT       0.417000       1.00800           0
     58099 W2       19367    TIP3     OH2      OT      -0.834000       15.9994           0
     58100 W2       19367    TIP3     H1       HT       0.417000       1.00800           0
     58101 W2       19367    TIP3     H2       HT       0.417000       1.00800           0
     58102 W2       19368    TIP3     OH2      OT      -0.834000       15.9994           0
     58103 W2       19368    TIP3     H1       HT       0.417000       1.00800           0
     58104 W2       19368    TIP3     H2       HT       0.417000       1.00800           0
     58105 W2       19369    TIP3     OH2      OT      -0.834000       15.9994           0
     58106 W2       19369    TIP3     H1       HT       0.417000       1.00800           0
     58107 W2       19369    TIP3     H2       HT       0.417000       1.00800           0
     58108 W2       19370    TIP3     OH2      OT      -0.834000       15.9994           0
     58109 W2       19370    TIP3     H1       HT       0.417000       1.00800           0
     58110 W2       19370    TIP3     H2       HT       0.417000       1.00800           0
     58111 W2       19371    TIP3     OH2      OT      -0.834000       15.9994           0
     58112 W2       19371    TIP3     H1       HT       0.417000       1.00800           0
     58113 W2       19371    TIP3     H2       HT       0.417000       1.00800           0
     58114 W2       19372    TIP3     OH2      OT      -0.834000       15.9994           0
     58115 W2       19372    TIP3     H1       HT       0.417000       1.00800           0
     58116 W2       19372    TIP3     H2       HT       0.417000       1.00800           0
     58117 W2       19373    TIP3     OH2      OT      -0.834000       15.9994           0
     58118 W2       19373    TIP3     H1       HT       0.417000       1.00800           0
     58119 W2       19373    TIP3     H2       HT       0.417000       1.00800           0
     58120 W2       19374    TIP3     OH2      OT      -0.834000       15.9994           0
     58121 W2       19374    TIP3     H1       HT       0.417000       1.00800           0
     58122 W2       19374    TIP3     H2       HT       0.417000       1.00800           0
     58123 W2       19375    TIP3     OH2      OT      -0.834000       15.9994           0
     58124 W2       19375    TIP3     H1       HT       0.417000       1.00800           0
     58125 W2       19375    TIP3     H2       HT       0.417000       1.00800           0
     58126 W2       19376    TIP3     OH2      OT      -0.834000       15.9994           0
     58127 W2       19376    TIP3     H1       HT       0.417000       1.00800           0
     58128 W2       19376    TIP3     H2       HT       0.417000       1.00800           0
     58129 W2       19377    TIP3     OH2      OT      -0.834000       15.9994           0
     58130 W2       19377    TIP3     H1       HT       0.417000       1.00800           0
     58131 W2       19377    TIP3     H2       HT       0.417000       1.00800           0
     58132 W2       19378    TIP3     OH2      OT      -0.834000       15.9994           0
     58133 W2       19378    TIP3     H1       HT       0.417000       1.00800           0
     58134 W2       19378    TIP3     H2       HT       0.417000       1.00800           0
     58135 W2       19379    TIP3     OH2      OT      -0.834000       15.9994           0
     58136 W2       19379    TIP3     H1       HT       0.417000       1.00800           0
     58137 W2       19379    TIP3     H2       HT       0.417000       1.00800           0
     58138 W2       19380    TIP3     OH2      OT      -0.834000       15.9994           0
     58139 W2       19380    TIP3     H1       HT       0.417000       1.00800           0
     58140 W2       19380    TIP3     H2       HT       0.417000       1.00800           0
     58141 W2       19381    TIP3     OH2      OT      -0.834000       15.9994           0
     58142 W2       19381    TIP3     H1       HT       0.417000       1.00800           0
     58143 W2       19381    TIP3     H2       HT       0.417000       1.00800           0
     58144 W2       19382    TIP3     OH2      OT      -0.834000       15.9994           0
     58145 W2       19382    TIP3     H1       HT       0.417000       1.00800           0
     58146 W2       19382    TIP3     H2       HT       0.417000       1.00800           0
     58147 W2       19383    TIP3     OH2      OT      -0.834000       15.9994           0
     58148 W2       19383    TIP3     H1       HT       0.417000       1.00800           0
     58149 W2       19383    TIP3     H2       HT       0.417000       1.00800           0
     58150 W2       19384    TIP3     OH2      OT      -0.834000       15.9994           0
     58151 W2       19384    TIP3     H1       HT       0.417000       1.00800           0
     58152 W2       19384    TIP3     H2       HT       0.417000       1.00800           0
     58153 W2       19385    TIP3     OH2      OT      -0.834000       15.9994           0
     58154 W2       19385    TIP3     H1       HT       0.417000       1.00800           0
     58155 W2       19385    TIP3     H2       HT       0.417000       1.00800           0
     58156 W2       19386    TIP3     OH2      OT      -0.834000       15.9994           0
     58157 W2       19386    TIP3     H1       HT       0.417000       1.00800           0
     58158 W2       19386    TIP3     H2       HT       0.417000       1.00800           0
     58159 W2       19387    TIP3     OH2      OT      -0.834000       15.9994           0
     58160 W2       19387    TIP3     H1       HT       0.417000       1.00800           0
     58161 W2       19387    TIP3     H2       HT       0.417000       1.00800           0
     58162 W2       19388    TIP3     OH2      OT      -0.834000       15.9994           0
     58163 W2       19388    TIP3     H1       HT       0.417000       1.00800           0
     58164 W2       19388    TIP3     H2       HT       0.417000       1.00800           0
     58165 W2       19389    TIP3     OH2      OT      -0.834000       15.9994           0
     58166 W2       19389    TIP3     H1       HT       0.417000       1.00800           0
     58167 W2       19389    TIP3     H2       HT       0.417000       1.00800           0
     58168 W2       19390    TIP3     OH2      OT      -0.834000       15.9994           0
     58169 W2       19390    TIP3     H1       HT       0.417000       1.00800           0
     58170 W2       19390    TIP3     H2       HT       0.417000       1.00800           0
     58171 W2       19391    TIP3     OH2      OT      -0.834000       15.9994           0
     58172 W2       19391    TIP3     H1       HT       0.417000       1.00800           0
     58173 W2       19391    TIP3     H2       HT       0.417000       1.00800           0
     58174 W2       19392    TIP3     OH2      OT      -0.834000       15.9994           0
     58175 W2       19392    TIP3     H1       HT       0.417000       1.00800           0
     58176 W2       19392    TIP3     H2       HT       0.417000       1.00800           0
     58177 W2       19393    TIP3     OH2      OT      -0.834000       15.9994           0
     58178 W2       19393    TIP3     H1       HT       0.417000       1.00800           0
     58179 W2       19393    TIP3     H2       HT       0.417000       1.00800           0
     58180 W2       19394    TIP3     OH2      OT      -0.834000       15.9994           0
     58181 W2       19394    TIP3     H1       HT       0.417000       1.00800           0
     58182 W2       19394    TIP3     H2       HT       0.417000       1.00800           0
     58183 W2       19395    TIP3     OH2      OT      -0.834000       15.9994           0
     58184 W2       19395    TIP3     H1       HT       0.417000       1.00800           0
     58185 W2       19395    TIP3     H2       HT       0.417000       1.00800           0
     58186 W2       19396    TIP3     OH2      OT      -0.834000       15.9994           0
     58187 W2       19396    TIP3     H1       HT       0.417000       1.00800           0
     58188 W2       19396    TIP3     H2       HT       0.417000       1.00800           0
     58189 W2       19397    TIP3     OH2      OT      -0.834000       15.9994           0
     58190 W2       19397    TIP3     H1       HT       0.417000       1.00800           0
     58191 W2       19397    TIP3     H2       HT       0.417000       1.00800           0
     58192 W2       19398    TIP3     OH2      OT      -0.834000       15.9994           0
     58193 W2       19398    TIP3     H1       HT       0.417000       1.00800           0
     58194 W2       19398    TIP3     H2       HT       0.417000       1.00800           0
     58195 W2       19399    TIP3     OH2      OT      -0.834000       15.9994           0
     58196 W2       19399    TIP3     H1       HT       0.417000       1.00800           0
     58197 W2       19399    TIP3     H2       HT       0.417000       1.00800           0
     58198 W2       19400    TIP3     OH2      OT      -0.834000       15.9994           0
     58199 W2       19400    TIP3     H1       HT       0.417000       1.00800           0
     58200 W2       19400    TIP3     H2       HT       0.417000       1.00800           0
     58201 W2       19401    TIP3     OH2      OT      -0.834000       15.9994           0
     58202 W2       19401    TIP3     H1       HT       0.417000       1.00800           0
     58203 W2       19401    TIP3     H2       HT       0.417000       1.00800           0
     58204 W2       19402    TIP3     OH2      OT      -0.834000       15.9994           0
     58205 W2       19402    TIP3     H1       HT       0.417000       1.00800           0
     58206 W2       19402    TIP3     H2       HT       0.417000       1.00800           0
     58207 W2       19403    TIP3     OH2      OT      -0.834000       15.9994           0
     58208 W2       19403    TIP3     H1       HT       0.417000       1.00800           0
     58209 W2       19403    TIP3     H2       HT       0.417000       1.00800           0
     58210 W2       19404    TIP3     OH2      OT      -0.834000       15.9994           0
     58211 W2       19404    TIP3     H1       HT       0.417000       1.00800           0
     58212 W2       19404    TIP3     H2       HT       0.417000       1.00800           0
     58213 W2       19405    TIP3     OH2      OT      -0.834000       15.9994           0
     58214 W2       19405    TIP3     H1       HT       0.417000       1.00800           0
     58215 W2       19405    TIP3     H2       HT       0.417000       1.00800           0
     58216 W2       19406    TIP3     OH2      OT      -0.834000       15.9994           0
     58217 W2       19406    TIP3     H1       HT       0.417000       1.00800           0
     58218 W2       19406    TIP3     H2       HT       0.417000       1.00800           0
     58219 W2       19407    TIP3     OH2      OT      -0.834000       15.9994           0
     58220 W2       19407    TIP3     H1       HT       0.417000       1.00800           0
     58221 W2       19407    TIP3     H2       HT       0.417000       1.00800           0
     58222 W2       19408    TIP3     OH2      OT      -0.834000       15.9994           0
     58223 W2       19408    TIP3     H1       HT       0.417000       1.00800           0
     58224 W2       19408    TIP3     H2       HT       0.417000       1.00800           0
     58225 W2       19409    TIP3     OH2      OT      -0.834000       15.9994           0
     58226 W2       19409    TIP3     H1       HT       0.417000       1.00800           0
     58227 W2       19409    TIP3     H2       HT       0.417000       1.00800           0
     58228 W2       19410    TIP3     OH2      OT      -0.834000       15.9994           0
     58229 W2       19410    TIP3     H1       HT       0.417000       1.00800           0
     58230 W2       19410    TIP3     H2       HT       0.417000       1.00800           0
     58231 W2       19411    TIP3     OH2      OT      -0.834000       15.9994           0
     58232 W2       19411    TIP3     H1       HT       0.417000       1.00800           0
     58233 W2       19411    TIP3     H2       HT       0.417000       1.00800           0
     58234 W2       19412    TIP3     OH2      OT      -0.834000       15.9994           0
     58235 W2       19412    TIP3     H1       HT       0.417000       1.00800           0
     58236 W2       19412    TIP3     H2       HT       0.417000       1.00800           0
     58237 W2       19413    TIP3     OH2      OT      -0.834000       15.9994           0
     58238 W2       19413    TIP3     H1       HT       0.417000       1.00800           0
     58239 W2       19413    TIP3     H2       HT       0.417000       1.00800           0
     58240 W2       19414    TIP3     OH2      OT      -0.834000       15.9994           0
     58241 W2       19414    TIP3     H1       HT       0.417000       1.00800           0
     58242 W2       19414    TIP3     H2       HT       0.417000       1.00800           0
     58243 W2       19415    TIP3     OH2      OT      -0.834000       15.9994           0
     58244 W2       19415    TIP3     H1       HT       0.417000       1.00800           0
     58245 W2       19415    TIP3     H2       HT       0.417000       1.00800           0
     58246 W2       19416    TIP3     OH2      OT      -0.834000       15.9994           0
     58247 W2       19416    TIP3     H1       HT       0.417000       1.00800           0
     58248 W2       19416    TIP3     H2       HT       0.417000       1.00800           0
     58249 W2       19417    TIP3     OH2      OT      -0.834000       15.9994           0
     58250 W2       19417    TIP3     H1       HT       0.417000       1.00800           0
     58251 W2       19417    TIP3     H2       HT       0.417000       1.00800           0
     58252 W2       19418    TIP3     OH2      OT      -0.834000       15.9994           0
     58253 W2       19418    TIP3     H1       HT       0.417000       1.00800           0
     58254 W2       19418    TIP3     H2       HT       0.417000       1.00800           0
     58255 W2       19419    TIP3     OH2      OT      -0.834000       15.9994           0
     58256 W2       19419    TIP3     H1       HT       0.417000       1.00800           0
     58257 W2       19419    TIP3     H2       HT       0.417000       1.00800           0
     58258 W2       19420    TIP3     OH2      OT      -0.834000       15.9994           0
     58259 W2       19420    TIP3     H1       HT       0.417000       1.00800           0
     58260 W2       19420    TIP3     H2       HT       0.417000       1.00800           0
     58261 W2       19421    TIP3     OH2      OT      -0.834000       15.9994           0
     58262 W2       19421    TIP3     H1       HT       0.417000       1.00800           0
     58263 W2       19421    TIP3     H2       HT       0.417000       1.00800           0
     58264 W2       19422    TIP3     OH2      OT      -0.834000       15.9994           0
     58265 W2       19422    TIP3     H1       HT       0.417000       1.00800           0
     58266 W2       19422    TIP3     H2       HT       0.417000       1.00800           0
     58267 W2       19423    TIP3     OH2      OT      -0.834000       15.9994           0
     58268 W2       19423    TIP3     H1       HT       0.417000       1.00800           0
     58269 W2       19423    TIP3     H2       HT       0.417000       1.00800           0
     58270 W2       19424    TIP3     OH2      OT      -0.834000       15.9994           0
     58271 W2       19424    TIP3     H1       HT       0.417000       1.00800           0
     58272 W2       19424    TIP3     H2       HT       0.417000       1.00800           0
     58273 W2       19425    TIP3     OH2      OT      -0.834000       15.9994           0
     58274 W2       19425    TIP3     H1       HT       0.417000       1.00800           0
     58275 W2       19425    TIP3     H2       HT       0.417000       1.00800           0
     58276 W2       19426    TIP3     OH2      OT      -0.834000       15.9994           0
     58277 W2       19426    TIP3     H1       HT       0.417000       1.00800           0
     58278 W2       19426    TIP3     H2       HT       0.417000       1.00800           0
     58279 W2       19427    TIP3     OH2      OT      -0.834000       15.9994           0
     58280 W2       19427    TIP3     H1       HT       0.417000       1.00800           0
     58281 W2       19427    TIP3     H2       HT       0.417000       1.00800           0
     58282 W2       19428    TIP3     OH2      OT      -0.834000       15.9994           0
     58283 W2       19428    TIP3     H1       HT       0.417000       1.00800           0
     58284 W2       19428    TIP3     H2       HT       0.417000       1.00800           0
     58285 W2       19429    TIP3     OH2      OT      -0.834000       15.9994           0
     58286 W2       19429    TIP3     H1       HT       0.417000       1.00800           0
     58287 W2       19429    TIP3     H2       HT       0.417000       1.00800           0
     58288 W2       19430    TIP3     OH2      OT      -0.834000       15.9994           0
     58289 W2       19430    TIP3     H1       HT       0.417000       1.00800           0
     58290 W2       19430    TIP3     H2       HT       0.417000       1.00800           0
     58291 W2       19431    TIP3     OH2      OT      -0.834000       15.9994           0
     58292 W2       19431    TIP3     H1       HT       0.417000       1.00800           0
     58293 W2       19431    TIP3     H2       HT       0.417000       1.00800           0
     58294 W2       19432    TIP3     OH2      OT      -0.834000       15.9994           0
     58295 W2       19432    TIP3     H1       HT       0.417000       1.00800           0
     58296 W2       19432    TIP3     H2       HT       0.417000       1.00800           0
     58297 W2       19433    TIP3     OH2      OT      -0.834000       15.9994           0
     58298 W2       19433    TIP3     H1       HT       0.417000       1.00800           0
     58299 W2       19433    TIP3     H2       HT       0.417000       1.00800           0
     58300 W2       19434    TIP3     OH2      OT      -0.834000       15.9994           0
     58301 W2       19434    TIP3     H1       HT       0.417000       1.00800           0
     58302 W2       19434    TIP3     H2       HT       0.417000       1.00800           0
     58303 W2       19435    TIP3     OH2      OT      -0.834000       15.9994           0
     58304 W2       19435    TIP3     H1       HT       0.417000       1.00800           0
     58305 W2       19435    TIP3     H2       HT       0.417000       1.00800           0
     58306 W2       19436    TIP3     OH2      OT      -0.834000       15.9994           0
     58307 W2       19436    TIP3     H1       HT       0.417000       1.00800           0
     58308 W2       19436    TIP3     H2       HT       0.417000       1.00800           0
     58309 W2       19437    TIP3     OH2      OT      -0.834000       15.9994           0
     58310 W2       19437    TIP3     H1       HT       0.417000       1.00800           0
     58311 W2       19437    TIP3     H2       HT       0.417000       1.00800           0
     58312 W2       19438    TIP3     OH2      OT      -0.834000       15.9994           0
     58313 W2       19438    TIP3     H1       HT       0.417000       1.00800           0
     58314 W2       19438    TIP3     H2       HT       0.417000       1.00800           0
     58315 W2       19439    TIP3     OH2      OT      -0.834000       15.9994           0
     58316 W2       19439    TIP3     H1       HT       0.417000       1.00800           0
     58317 W2       19439    TIP3     H2       HT       0.417000       1.00800           0
     58318 W2       19440    TIP3     OH2      OT      -0.834000       15.9994           0
     58319 W2       19440    TIP3     H1       HT       0.417000       1.00800           0
     58320 W2       19440    TIP3     H2       HT       0.417000       1.00800           0
     58321 W2       19441    TIP3     OH2      OT      -0.834000       15.9994           0
     58322 W2       19441    TIP3     H1       HT       0.417000       1.00800           0
     58323 W2       19441    TIP3     H2       HT       0.417000       1.00800           0
     58324 W2       19442    TIP3     OH2      OT      -0.834000       15.9994           0
     58325 W2       19442    TIP3     H1       HT       0.417000       1.00800           0
     58326 W2       19442    TIP3     H2       HT       0.417000       1.00800           0
     58327 W2       19443    TIP3     OH2      OT      -0.834000       15.9994           0
     58328 W2       19443    TIP3     H1       HT       0.417000       1.00800           0
     58329 W2       19443    TIP3     H2       HT       0.417000       1.00800           0
     58330 W2       19444    TIP3     OH2      OT      -0.834000       15.9994           0
     58331 W2       19444    TIP3     H1       HT       0.417000       1.00800           0
     58332 W2       19444    TIP3     H2       HT       0.417000       1.00800           0
     58333 W2       19445    TIP3     OH2      OT      -0.834000       15.9994           0
     58334 W2       19445    TIP3     H1       HT       0.417000       1.00800           0
     58335 W2       19445    TIP3     H2       HT       0.417000       1.00800           0
     58336 W2       19446    TIP3     OH2      OT      -0.834000       15.9994           0
     58337 W2       19446    TIP3     H1       HT       0.417000       1.00800           0
     58338 W2       19446    TIP3     H2       HT       0.417000       1.00800           0
     58339 W2       19447    TIP3     OH2      OT      -0.834000       15.9994           0
     58340 W2       19447    TIP3     H1       HT       0.417000       1.00800           0
     58341 W2       19447    TIP3     H2       HT       0.417000       1.00800           0
     58342 W2       19448    TIP3     OH2      OT      -0.834000       15.9994           0
     58343 W2       19448    TIP3     H1       HT       0.417000       1.00800           0
     58344 W2       19448    TIP3     H2       HT       0.417000       1.00800           0
     58345 W2       19449    TIP3     OH2      OT      -0.834000       15.9994           0
     58346 W2       19449    TIP3     H1       HT       0.417000       1.00800           0
     58347 W2       19449    TIP3     H2       HT       0.417000       1.00800           0
     58348 W2       19450    TIP3     OH2      OT      -0.834000       15.9994           0
     58349 W2       19450    TIP3     H1       HT       0.417000       1.00800           0
     58350 W2       19450    TIP3     H2       HT       0.417000       1.00800           0
     58351 W2       19451    TIP3     OH2      OT      -0.834000       15.9994           0
     58352 W2       19451    TIP3     H1       HT       0.417000       1.00800           0
     58353 W2       19451    TIP3     H2       HT       0.417000       1.00800           0
     58354 W2       19452    TIP3     OH2      OT      -0.834000       15.9994           0
     58355 W2       19452    TIP3     H1       HT       0.417000       1.00800           0
     58356 W2       19452    TIP3     H2       HT       0.417000       1.00800           0
     58357 W2       19453    TIP3     OH2      OT      -0.834000       15.9994           0
     58358 W2       19453    TIP3     H1       HT       0.417000       1.00800           0
     58359 W2       19453    TIP3     H2       HT       0.417000       1.00800           0
     58360 W2       19454    TIP3     OH2      OT      -0.834000       15.9994           0
     58361 W2       19454    TIP3     H1       HT       0.417000       1.00800           0
     58362 W2       19454    TIP3     H2       HT       0.417000       1.00800           0
     58363 W2       19455    TIP3     OH2      OT      -0.834000       15.9994           0
     58364 W2       19455    TIP3     H1       HT       0.417000       1.00800           0
     58365 W2       19455    TIP3     H2       HT       0.417000       1.00800           0
     58366 W2       19456    TIP3     OH2      OT      -0.834000       15.9994           0
     58367 W2       19456    TIP3     H1       HT       0.417000       1.00800           0
     58368 W2       19456    TIP3     H2       HT       0.417000       1.00800           0
     58369 W2       19457    TIP3     OH2      OT      -0.834000       15.9994           0
     58370 W2       19457    TIP3     H1       HT       0.417000       1.00800           0
     58371 W2       19457    TIP3     H2       HT       0.417000       1.00800           0
     58372 W2       19458    TIP3     OH2      OT      -0.834000       15.9994           0
     58373 W2       19458    TIP3     H1       HT       0.417000       1.00800           0
     58374 W2       19458    TIP3     H2       HT       0.417000       1.00800           0
     58375 W2       19459    TIP3     OH2      OT      -0.834000       15.9994           0
     58376 W2       19459    TIP3     H1       HT       0.417000       1.00800           0
     58377 W2       19459    TIP3     H2       HT       0.417000       1.00800           0
     58378 W2       19460    TIP3     OH2      OT      -0.834000       15.9994           0
     58379 W2       19460    TIP3     H1       HT       0.417000       1.00800           0
     58380 W2       19460    TIP3     H2       HT       0.417000       1.00800           0
     58381 W2       19461    TIP3     OH2      OT      -0.834000       15.9994           0
     58382 W2       19461    TIP3     H1       HT       0.417000       1.00800           0
     58383 W2       19461    TIP3     H2       HT       0.417000       1.00800           0
     58384 W2       19462    TIP3     OH2      OT      -0.834000       15.9994           0
     58385 W2       19462    TIP3     H1       HT       0.417000       1.00800           0
     58386 W2       19462    TIP3     H2       HT       0.417000       1.00800           0
     58387 W2       19463    TIP3     OH2      OT      -0.834000       15.9994           0
     58388 W2       19463    TIP3     H1       HT       0.417000       1.00800           0
     58389 W2       19463    TIP3     H2       HT       0.417000       1.00800           0
     58390 W2       19464    TIP3     OH2      OT      -0.834000       15.9994           0
     58391 W2       19464    TIP3     H1       HT       0.417000       1.00800           0
     58392 W2       19464    TIP3     H2       HT       0.417000       1.00800           0
     58393 W2       19465    TIP3     OH2      OT      -0.834000       15.9994           0
     58394 W2       19465    TIP3     H1       HT       0.417000       1.00800           0
     58395 W2       19465    TIP3     H2       HT       0.417000       1.00800           0
     58396 W2       19466    TIP3     OH2      OT      -0.834000       15.9994           0
     58397 W2       19466    TIP3     H1       HT       0.417000       1.00800           0
     58398 W2       19466    TIP3     H2       HT       0.417000       1.00800           0
     58399 W2       19467    TIP3     OH2      OT      -0.834000       15.9994           0
     58400 W2       19467    TIP3     H1       HT       0.417000       1.00800           0
     58401 W2       19467    TIP3     H2       HT       0.417000       1.00800           0
     58402 W2       19468    TIP3     OH2      OT      -0.834000       15.9994           0
     58403 W2       19468    TIP3     H1       HT       0.417000       1.00800           0
     58404 W2       19468    TIP3     H2       HT       0.417000       1.00800           0
     58405 W2       19469    TIP3     OH2      OT      -0.834000       15.9994           0
     58406 W2       19469    TIP3     H1       HT       0.417000       1.00800           0
     58407 W2       19469    TIP3     H2       HT       0.417000       1.00800           0
     58408 W2       19470    TIP3     OH2      OT      -0.834000       15.9994           0
     58409 W2       19470    TIP3     H1       HT       0.417000       1.00800           0
     58410 W2       19470    TIP3     H2       HT       0.417000       1.00800           0
     58411 W2       19471    TIP3     OH2      OT      -0.834000       15.9994           0
     58412 W2       19471    TIP3     H1       HT       0.417000       1.00800           0
     58413 W2       19471    TIP3     H2       HT       0.417000       1.00800           0
     58414 W2       19472    TIP3     OH2      OT      -0.834000       15.9994           0
     58415 W2       19472    TIP3     H1       HT       0.417000       1.00800           0
     58416 W2       19472    TIP3     H2       HT       0.417000       1.00800           0
     58417 W2       19473    TIP3     OH2      OT      -0.834000       15.9994           0
     58418 W2       19473    TIP3     H1       HT       0.417000       1.00800           0
     58419 W2       19473    TIP3     H2       HT       0.417000       1.00800           0
     58420 W2       19474    TIP3     OH2      OT      -0.834000       15.9994           0
     58421 W2       19474    TIP3     H1       HT       0.417000       1.00800           0
     58422 W2       19474    TIP3     H2       HT       0.417000       1.00800           0
     58423 W2       19475    TIP3     OH2      OT      -0.834000       15.9994           0
     58424 W2       19475    TIP3     H1       HT       0.417000       1.00800           0
     58425 W2       19475    TIP3     H2       HT       0.417000       1.00800           0
     58426 W2       19476    TIP3     OH2      OT      -0.834000       15.9994           0
     58427 W2       19476    TIP3     H1       HT       0.417000       1.00800           0
     58428 W2       19476    TIP3     H2       HT       0.417000       1.00800           0
     58429 W2       19477    TIP3     OH2      OT      -0.834000       15.9994           0
     58430 W2       19477    TIP3     H1       HT       0.417000       1.00800           0
     58431 W2       19477    TIP3     H2       HT       0.417000       1.00800           0
     58432 W2       19478    TIP3     OH2      OT      -0.834000       15.9994           0
     58433 W2       19478    TIP3     H1       HT       0.417000       1.00800           0
     58434 W2       19478    TIP3     H2       HT       0.417000       1.00800           0
     58435 W2       19479    TIP3     OH2      OT      -0.834000       15.9994           0
     58436 W2       19479    TIP3     H1       HT       0.417000       1.00800           0
     58437 W2       19479    TIP3     H2       HT       0.417000       1.00800           0
     58438 W2       19480    TIP3     OH2      OT      -0.834000       15.9994           0
     58439 W2       19480    TIP3     H1       HT       0.417000       1.00800           0
     58440 W2       19480    TIP3     H2       HT       0.417000       1.00800           0
     58441 W2       19481    TIP3     OH2      OT      -0.834000       15.9994           0
     58442 W2       19481    TIP3     H1       HT       0.417000       1.00800           0
     58443 W2       19481    TIP3     H2       HT       0.417000       1.00800           0
     58444 W2       19482    TIP3     OH2      OT      -0.834000       15.9994           0
     58445 W2       19482    TIP3     H1       HT       0.417000       1.00800           0
     58446 W2       19482    TIP3     H2       HT       0.417000       1.00800           0
     58447 W2       19483    TIP3     OH2      OT      -0.834000       15.9994           0
     58448 W2       19483    TIP3     H1       HT       0.417000       1.00800           0
     58449 W2       19483    TIP3     H2       HT       0.417000       1.00800           0
     58450 W2       19484    TIP3     OH2      OT      -0.834000       15.9994           0
     58451 W2       19484    TIP3     H1       HT       0.417000       1.00800           0
     58452 W2       19484    TIP3     H2       HT       0.417000       1.00800           0
     58453 W2       19485    TIP3     OH2      OT      -0.834000       15.9994           0
     58454 W2       19485    TIP3     H1       HT       0.417000       1.00800           0
     58455 W2       19485    TIP3     H2       HT       0.417000       1.00800           0
     58456 W2       19486    TIP3     OH2      OT      -0.834000       15.9994           0
     58457 W2       19486    TIP3     H1       HT       0.417000       1.00800           0
     58458 W2       19486    TIP3     H2       HT       0.417000       1.00800           0
     58459 W2       19487    TIP3     OH2      OT      -0.834000       15.9994           0
     58460 W2       19487    TIP3     H1       HT       0.417000       1.00800           0
     58461 W2       19487    TIP3     H2       HT       0.417000       1.00800           0
     58462 W2       19488    TIP3     OH2      OT      -0.834000       15.9994           0
     58463 W2       19488    TIP3     H1       HT       0.417000       1.00800           0
     58464 W2       19488    TIP3     H2       HT       0.417000       1.00800           0
     58465 W2       19489    TIP3     OH2      OT      -0.834000       15.9994           0
     58466 W2       19489    TIP3     H1       HT       0.417000       1.00800           0
     58467 W2       19489    TIP3     H2       HT       0.417000       1.00800           0
     58468 W2       19490    TIP3     OH2      OT      -0.834000       15.9994           0
     58469 W2       19490    TIP3     H1       HT       0.417000       1.00800           0
     58470 W2       19490    TIP3     H2       HT       0.417000       1.00800           0
     58471 W2       19491    TIP3     OH2      OT      -0.834000       15.9994           0
     58472 W2       19491    TIP3     H1       HT       0.417000       1.00800           0
     58473 W2       19491    TIP3     H2       HT       0.417000       1.00800           0
     58474 W2       19492    TIP3     OH2      OT      -0.834000       15.9994           0
     58475 W2       19492    TIP3     H1       HT       0.417000       1.00800           0
     58476 W2       19492    TIP3     H2       HT       0.417000       1.00800           0
     58477 W2       19493    TIP3     OH2      OT      -0.834000       15.9994           0
     58478 W2       19493    TIP3     H1       HT       0.417000       1.00800           0
     58479 W2       19493    TIP3     H2       HT       0.417000       1.00800           0
     58480 W2       19494    TIP3     OH2      OT      -0.834000       15.9994           0
     58481 W2       19494    TIP3     H1       HT       0.417000       1.00800           0
     58482 W2       19494    TIP3     H2       HT       0.417000       1.00800           0
     58483 W2       19495    TIP3     OH2      OT      -0.834000       15.9994           0
     58484 W2       19495    TIP3     H1       HT       0.417000       1.00800           0
     58485 W2       19495    TIP3     H2       HT       0.417000       1.00800           0
     58486 W2       19496    TIP3     OH2      OT      -0.834000       15.9994           0
     58487 W2       19496    TIP3     H1       HT       0.417000       1.00800           0
     58488 W2       19496    TIP3     H2       HT       0.417000       1.00800           0
     58489 W2       19497    TIP3     OH2      OT      -0.834000       15.9994           0
     58490 W2       19497    TIP3     H1       HT       0.417000       1.00800           0
     58491 W2       19497    TIP3     H2       HT       0.417000       1.00800           0
     58492 W2       19498    TIP3     OH2      OT      -0.834000       15.9994           0
     58493 W2       19498    TIP3     H1       HT       0.417000       1.00800           0
     58494 W2       19498    TIP3     H2       HT       0.417000       1.00800           0
     58495 W2       19499    TIP3     OH2      OT      -0.834000       15.9994           0
     58496 W2       19499    TIP3     H1       HT       0.417000       1.00800           0
     58497 W2       19499    TIP3     H2       HT       0.417000       1.00800           0
     58498 W2       19500    TIP3     OH2      OT      -0.834000       15.9994           0
     58499 W2       19500    TIP3     H1       HT       0.417000       1.00800           0
     58500 W2       19500    TIP3     H2       HT       0.417000       1.00800           0
     58501 W2       19501    TIP3     OH2      OT      -0.834000       15.9994           0
     58502 W2       19501    TIP3     H1       HT       0.417000       1.00800           0
     58503 W2       19501    TIP3     H2       HT       0.417000       1.00800           0
     58504 W2       19502    TIP3     OH2      OT      -0.834000       15.9994           0
     58505 W2       19502    TIP3     H1       HT       0.417000       1.00800           0
     58506 W2       19502    TIP3     H2       HT       0.417000       1.00800           0
     58507 W2       19503    TIP3     OH2      OT      -0.834000       15.9994           0
     58508 W2       19503    TIP3     H1       HT       0.417000       1.00800           0
     58509 W2       19503    TIP3     H2       HT       0.417000       1.00800           0
     58510 W2       19504    TIP3     OH2      OT      -0.834000       15.9994           0
     58511 W2       19504    TIP3     H1       HT       0.417000       1.00800           0
     58512 W2       19504    TIP3     H2       HT       0.417000       1.00800           0
     58513 W2       19505    TIP3     OH2      OT      -0.834000       15.9994           0
     58514 W2       19505    TIP3     H1       HT       0.417000       1.00800           0
     58515 W2       19505    TIP3     H2       HT       0.417000       1.00800           0
     58516 W2       19506    TIP3     OH2      OT      -0.834000       15.9994           0
     58517 W2       19506    TIP3     H1       HT       0.417000       1.00800           0
     58518 W2       19506    TIP3     H2       HT       0.417000       1.00800           0
     58519 W2       19507    TIP3     OH2      OT      -0.834000       15.9994           0
     58520 W2       19507    TIP3     H1       HT       0.417000       1.00800           0
     58521 W2       19507    TIP3     H2       HT       0.417000       1.00800           0
     58522 W2       19508    TIP3     OH2      OT      -0.834000       15.9994           0
     58523 W2       19508    TIP3     H1       HT       0.417000       1.00800           0
     58524 W2       19508    TIP3     H2       HT       0.417000       1.00800           0
     58525 W2       19509    TIP3     OH2      OT      -0.834000       15.9994           0
     58526 W2       19509    TIP3     H1       HT       0.417000       1.00800           0
     58527 W2       19509    TIP3     H2       HT       0.417000       1.00800           0
     58528 W2       19510    TIP3     OH2      OT      -0.834000       15.9994           0
     58529 W2       19510    TIP3     H1       HT       0.417000       1.00800           0
     58530 W2       19510    TIP3     H2       HT       0.417000       1.00800           0
     58531 W2       19511    TIP3     OH2      OT      -0.834000       15.9994           0
     58532 W2       19511    TIP3     H1       HT       0.417000       1.00800           0
     58533 W2       19511    TIP3     H2       HT       0.417000       1.00800           0
     58534 W2       19512    TIP3     OH2      OT      -0.834000       15.9994           0
     58535 W2       19512    TIP3     H1       HT       0.417000       1.00800           0
     58536 W2       19512    TIP3     H2       HT       0.417000       1.00800           0
     58537 W2       19513    TIP3     OH2      OT      -0.834000       15.9994           0
     58538 W2       19513    TIP3     H1       HT       0.417000       1.00800           0
     58539 W2       19513    TIP3     H2       HT       0.417000       1.00800           0
     58540 W2       19514    TIP3     OH2      OT      -0.834000       15.9994           0
     58541 W2       19514    TIP3     H1       HT       0.417000       1.00800           0
     58542 W2       19514    TIP3     H2       HT       0.417000       1.00800           0
     58543 W2       19515    TIP3     OH2      OT      -0.834000       15.9994           0
     58544 W2       19515    TIP3     H1       HT       0.417000       1.00800           0
     58545 W2       19515    TIP3     H2       HT       0.417000       1.00800           0
     58546 W2       19516    TIP3     OH2      OT      -0.834000       15.9994           0
     58547 W2       19516    TIP3     H1       HT       0.417000       1.00800           0
     58548 W2       19516    TIP3     H2       HT       0.417000       1.00800           0
     58549 W2       19517    TIP3     OH2      OT      -0.834000       15.9994           0
     58550 W2       19517    TIP3     H1       HT       0.417000       1.00800           0
     58551 W2       19517    TIP3     H2       HT       0.417000       1.00800           0
     58552 W2       19518    TIP3     OH2      OT      -0.834000       15.9994           0
     58553 W2       19518    TIP3     H1       HT       0.417000       1.00800           0
     58554 W2       19518    TIP3     H2       HT       0.417000       1.00800           0
     58555 W2       19519    TIP3     OH2      OT      -0.834000       15.9994           0
     58556 W2       19519    TIP3     H1       HT       0.417000       1.00800           0
     58557 W2       19519    TIP3     H2       HT       0.417000       1.00800           0
     58558 W2       19520    TIP3     OH2      OT      -0.834000       15.9994           0
     58559 W2       19520    TIP3     H1       HT       0.417000       1.00800           0
     58560 W2       19520    TIP3     H2       HT       0.417000       1.00800           0
     58561 W2       19521    TIP3     OH2      OT      -0.834000       15.9994           0
     58562 W2       19521    TIP3     H1       HT       0.417000       1.00800           0
     58563 W2       19521    TIP3     H2       HT       0.417000       1.00800           0
     58564 W2       19522    TIP3     OH2      OT      -0.834000       15.9994           0
     58565 W2       19522    TIP3     H1       HT       0.417000       1.00800           0
     58566 W2       19522    TIP3     H2       HT       0.417000       1.00800           0
     58567 W2       19523    TIP3     OH2      OT      -0.834000       15.9994           0
     58568 W2       19523    TIP3     H1       HT       0.417000       1.00800           0
     58569 W2       19523    TIP3     H2       HT       0.417000       1.00800           0
     58570 W2       19524    TIP3     OH2      OT      -0.834000       15.9994           0
     58571 W2       19524    TIP3     H1       HT       0.417000       1.00800           0
     58572 W2       19524    TIP3     H2       HT       0.417000       1.00800           0
     58573 W2       19525    TIP3     OH2      OT      -0.834000       15.9994           0
     58574 W2       19525    TIP3     H1       HT       0.417000       1.00800           0
     58575 W2       19525    TIP3     H2       HT       0.417000       1.00800           0
     58576 W2       19526    TIP3     OH2      OT      -0.834000       15.9994           0
     58577 W2       19526    TIP3     H1       HT       0.417000       1.00800           0
     58578 W2       19526    TIP3     H2       HT       0.417000       1.00800           0
     58579 W2       19527    TIP3     OH2      OT      -0.834000       15.9994           0
     58580 W2       19527    TIP3     H1       HT       0.417000       1.00800           0
     58581 W2       19527    TIP3     H2       HT       0.417000       1.00800           0
     58582 W2       19528    TIP3     OH2      OT      -0.834000       15.9994           0
     58583 W2       19528    TIP3     H1       HT       0.417000       1.00800           0
     58584 W2       19528    TIP3     H2       HT       0.417000       1.00800           0
     58585 W2       19529    TIP3     OH2      OT      -0.834000       15.9994           0
     58586 W2       19529    TIP3     H1       HT       0.417000       1.00800           0
     58587 W2       19529    TIP3     H2       HT       0.417000       1.00800           0
     58588 W2       19530    TIP3     OH2      OT      -0.834000       15.9994           0
     58589 W2       19530    TIP3     H1       HT       0.417000       1.00800           0
     58590 W2       19530    TIP3     H2       HT       0.417000       1.00800           0
     58591 W2       19531    TIP3     OH2      OT      -0.834000       15.9994           0
     58592 W2       19531    TIP3     H1       HT       0.417000       1.00800           0
     58593 W2       19531    TIP3     H2       HT       0.417000       1.00800           0
     58594 W2       19532    TIP3     OH2      OT      -0.834000       15.9994           0
     58595 W2       19532    TIP3     H1       HT       0.417000       1.00800           0
     58596 W2       19532    TIP3     H2       HT       0.417000       1.00800           0
     58597 W2       19533    TIP3     OH2      OT      -0.834000       15.9994           0
     58598 W2       19533    TIP3     H1       HT       0.417000       1.00800           0
     58599 W2       19533    TIP3     H2       HT       0.417000       1.00800           0
     58600 W2       19534    TIP3     OH2      OT      -0.834000       15.9994           0
     58601 W2       19534    TIP3     H1       HT       0.417000       1.00800           0
     58602 W2       19534    TIP3     H2       HT       0.417000       1.00800           0
     58603 W2       19535    TIP3     OH2      OT      -0.834000       15.9994           0
     58604 W2       19535    TIP3     H1       HT       0.417000       1.00800           0
     58605 W2       19535    TIP3     H2       HT       0.417000       1.00800           0
     58606 W2       19536    TIP3     OH2      OT      -0.834000       15.9994           0
     58607 W2       19536    TIP3     H1       HT       0.417000       1.00800           0
     58608 W2       19536    TIP3     H2       HT       0.417000       1.00800           0
     58609 W2       19537    TIP3     OH2      OT      -0.834000       15.9994           0
     58610 W2       19537    TIP3     H1       HT       0.417000       1.00800           0
     58611 W2       19537    TIP3     H2       HT       0.417000       1.00800           0
     58612 W2       19538    TIP3     OH2      OT      -0.834000       15.9994           0
     58613 W2       19538    TIP3     H1       HT       0.417000       1.00800           0
     58614 W2       19538    TIP3     H2       HT       0.417000       1.00800           0
     58615 W2       19539    TIP3     OH2      OT      -0.834000       15.9994           0
     58616 W2       19539    TIP3     H1       HT       0.417000       1.00800           0
     58617 W2       19539    TIP3     H2       HT       0.417000       1.00800           0
     58618 W2       19540    TIP3     OH2      OT      -0.834000       15.9994           0
     58619 W2       19540    TIP3     H1       HT       0.417000       1.00800           0
     58620 W2       19540    TIP3     H2       HT       0.417000       1.00800           0
     58621 W2       19541    TIP3     OH2      OT      -0.834000       15.9994           0
     58622 W2       19541    TIP3     H1       HT       0.417000       1.00800           0
     58623 W2       19541    TIP3     H2       HT       0.417000       1.00800           0
     58624 W2       19542    TIP3     OH2      OT      -0.834000       15.9994           0
     58625 W2       19542    TIP3     H1       HT       0.417000       1.00800           0
     58626 W2       19542    TIP3     H2       HT       0.417000       1.00800           0
     58627 W2       19543    TIP3     OH2      OT      -0.834000       15.9994           0
     58628 W2       19543    TIP3     H1       HT       0.417000       1.00800           0
     58629 W2       19543    TIP3     H2       HT       0.417000       1.00800           0
     58630 W2       19544    TIP3     OH2      OT      -0.834000       15.9994           0
     58631 W2       19544    TIP3     H1       HT       0.417000       1.00800           0
     58632 W2       19544    TIP3     H2       HT       0.417000       1.00800           0
     58633 W2       19545    TIP3     OH2      OT      -0.834000       15.9994           0
     58634 W2       19545    TIP3     H1       HT       0.417000       1.00800           0
     58635 W2       19545    TIP3     H2       HT       0.417000       1.00800           0
     58636 W2       19546    TIP3     OH2      OT      -0.834000       15.9994           0
     58637 W2       19546    TIP3     H1       HT       0.417000       1.00800           0
     58638 W2       19546    TIP3     H2       HT       0.417000       1.00800           0
     58639 W2       19547    TIP3     OH2      OT      -0.834000       15.9994           0
     58640 W2       19547    TIP3     H1       HT       0.417000       1.00800           0
     58641 W2       19547    TIP3     H2       HT       0.417000       1.00800           0
     58642 W2       19548    TIP3     OH2      OT      -0.834000       15.9994           0
     58643 W2       19548    TIP3     H1       HT       0.417000       1.00800           0
     58644 W2       19548    TIP3     H2       HT       0.417000       1.00800           0
     58645 W2       19549    TIP3     OH2      OT      -0.834000       15.9994           0
     58646 W2       19549    TIP3     H1       HT       0.417000       1.00800           0
     58647 W2       19549    TIP3     H2       HT       0.417000       1.00800           0
     58648 W2       19550    TIP3     OH2      OT      -0.834000       15.9994           0
     58649 W2       19550    TIP3     H1       HT       0.417000       1.00800           0
     58650 W2       19550    TIP3     H2       HT       0.417000       1.00800           0
     58651 W2       19551    TIP3     OH2      OT      -0.834000       15.9994           0
     58652 W2       19551    TIP3     H1       HT       0.417000       1.00800           0
     58653 W2       19551    TIP3     H2       HT       0.417000       1.00800           0
     58654 W2       19552    TIP3     OH2      OT      -0.834000       15.9994           0
     58655 W2       19552    TIP3     H1       HT       0.417000       1.00800           0
     58656 W2       19552    TIP3     H2       HT       0.417000       1.00800           0
     58657 W2       19553    TIP3     OH2      OT      -0.834000       15.9994           0
     58658 W2       19553    TIP3     H1       HT       0.417000       1.00800           0
     58659 W2       19553    TIP3     H2       HT       0.417000       1.00800           0
     58660 W2       19554    TIP3     OH2      OT      -0.834000       15.9994           0
     58661 W2       19554    TIP3     H1       HT       0.417000       1.00800           0
     58662 W2       19554    TIP3     H2       HT       0.417000       1.00800           0
     58663 W2       19555    TIP3     OH2      OT      -0.834000       15.9994           0
     58664 W2       19555    TIP3     H1       HT       0.417000       1.00800           0
     58665 W2       19555    TIP3     H2       HT       0.417000       1.00800           0
     58666 W2       19556    TIP3     OH2      OT      -0.834000       15.9994           0
     58667 W2       19556    TIP3     H1       HT       0.417000       1.00800           0
     58668 W2       19556    TIP3     H2       HT       0.417000       1.00800           0
     58669 W2       19557    TIP3     OH2      OT      -0.834000       15.9994           0
     58670 W2       19557    TIP3     H1       HT       0.417000       1.00800           0
     58671 W2       19557    TIP3     H2       HT       0.417000       1.00800           0
     58672 W2       19558    TIP3     OH2      OT      -0.834000       15.9994           0
     58673 W2       19558    TIP3     H1       HT       0.417000       1.00800           0
     58674 W2       19558    TIP3     H2       HT       0.417000       1.00800           0
     58675 W2       19559    TIP3     OH2      OT      -0.834000       15.9994           0
     58676 W2       19559    TIP3     H1       HT       0.417000       1.00800           0
     58677 W2       19559    TIP3     H2       HT       0.417000       1.00800           0
     58678 W2       19560    TIP3     OH2      OT      -0.834000       15.9994           0
     58679 W2       19560    TIP3     H1       HT       0.417000       1.00800           0
     58680 W2       19560    TIP3     H2       HT       0.417000       1.00800           0
     58681 W2       19561    TIP3     OH2      OT      -0.834000       15.9994           0
     58682 W2       19561    TIP3     H1       HT       0.417000       1.00800           0
     58683 W2       19561    TIP3     H2       HT       0.417000       1.00800           0
     58684 W2       19562    TIP3     OH2      OT      -0.834000       15.9994           0
     58685 W2       19562    TIP3     H1       HT       0.417000       1.00800           0
     58686 W2       19562    TIP3     H2       HT       0.417000       1.00800           0
     58687 W2       19563    TIP3     OH2      OT      -0.834000       15.9994           0
     58688 W2       19563    TIP3     H1       HT       0.417000       1.00800           0
     58689 W2       19563    TIP3     H2       HT       0.417000       1.00800           0
     58690 W2       19564    TIP3     OH2      OT      -0.834000       15.9994           0
     58691 W2       19564    TIP3     H1       HT       0.417000       1.00800           0
     58692 W2       19564    TIP3     H2       HT       0.417000       1.00800           0
     58693 W2       19565    TIP3     OH2      OT      -0.834000       15.9994           0
     58694 W2       19565    TIP3     H1       HT       0.417000       1.00800           0
     58695 W2       19565    TIP3     H2       HT       0.417000       1.00800           0
     58696 W2       19566    TIP3     OH2      OT      -0.834000       15.9994           0
     58697 W2       19566    TIP3     H1       HT       0.417000       1.00800           0
     58698 W2       19566    TIP3     H2       HT       0.417000       1.00800           0
     58699 W2       19567    TIP3     OH2      OT      -0.834000       15.9994           0
     58700 W2       19567    TIP3     H1       HT       0.417000       1.00800           0
     58701 W2       19567    TIP3     H2       HT       0.417000       1.00800           0
     58702 W2       19568    TIP3     OH2      OT      -0.834000       15.9994           0
     58703 W2       19568    TIP3     H1       HT       0.417000       1.00800           0
     58704 W2       19568    TIP3     H2       HT       0.417000       1.00800           0
     58705 W2       19569    TIP3     OH2      OT      -0.834000       15.9994           0
     58706 W2       19569    TIP3     H1       HT       0.417000       1.00800           0
     58707 W2       19569    TIP3     H2       HT       0.417000       1.00800           0
     58708 W2       19570    TIP3     OH2      OT      -0.834000       15.9994           0
     58709 W2       19570    TIP3     H1       HT       0.417000       1.00800           0
     58710 W2       19570    TIP3     H2       HT       0.417000       1.00800           0
     58711 W2       19571    TIP3     OH2      OT      -0.834000       15.9994           0
     58712 W2       19571    TIP3     H1       HT       0.417000       1.00800           0
     58713 W2       19571    TIP3     H2       HT       0.417000       1.00800           0
     58714 W2       19572    TIP3     OH2      OT      -0.834000       15.9994           0
     58715 W2       19572    TIP3     H1       HT       0.417000       1.00800           0
     58716 W2       19572    TIP3     H2       HT       0.417000       1.00800           0
     58717 W2       19573    TIP3     OH2      OT      -0.834000       15.9994           0
     58718 W2       19573    TIP3     H1       HT       0.417000       1.00800           0
     58719 W2       19573    TIP3     H2       HT       0.417000       1.00800           0
     58720 W2       19574    TIP3     OH2      OT      -0.834000       15.9994           0
     58721 W2       19574    TIP3     H1       HT       0.417000       1.00800           0
     58722 W2       19574    TIP3     H2       HT       0.417000       1.00800           0
     58723 W2       19575    TIP3     OH2      OT      -0.834000       15.9994           0
     58724 W2       19575    TIP3     H1       HT       0.417000       1.00800           0
     58725 W2       19575    TIP3     H2       HT       0.417000       1.00800           0
     58726 W2       19576    TIP3     OH2      OT      -0.834000       15.9994           0
     58727 W2       19576    TIP3     H1       HT       0.417000       1.00800           0
     58728 W2       19576    TIP3     H2       HT       0.417000       1.00800           0
     58729 W2       19577    TIP3     OH2      OT      -0.834000       15.9994           0
     58730 W2       19577    TIP3     H1       HT       0.417000       1.00800           0
     58731 W2       19577    TIP3     H2       HT       0.417000       1.00800           0
     58732 W2       19578    TIP3     OH2      OT      -0.834000       15.9994           0
     58733 W2       19578    TIP3     H1       HT       0.417000       1.00800           0
     58734 W2       19578    TIP3     H2       HT       0.417000       1.00800           0
     58735 W2       19579    TIP3     OH2      OT      -0.834000       15.9994           0
     58736 W2       19579    TIP3     H1       HT       0.417000       1.00800           0
     58737 W2       19579    TIP3     H2       HT       0.417000       1.00800           0
     58738 W2       19580    TIP3     OH2      OT      -0.834000       15.9994           0
     58739 W2       19580    TIP3     H1       HT       0.417000       1.00800           0
     58740 W2       19580    TIP3     H2       HT       0.417000       1.00800           0
     58741 W2       19581    TIP3     OH2      OT      -0.834000       15.9994           0
     58742 W2       19581    TIP3     H1       HT       0.417000       1.00800           0
     58743 W2       19581    TIP3     H2       HT       0.417000       1.00800           0
     58744 W2       19582    TIP3     OH2      OT      -0.834000       15.9994           0
     58745 W2       19582    TIP3     H1       HT       0.417000       1.00800           0
     58746 W2       19582    TIP3     H2       HT       0.417000       1.00800           0
     58747 W2       19583    TIP3     OH2      OT      -0.834000       15.9994           0
     58748 W2       19583    TIP3     H1       HT       0.417000       1.00800           0
     58749 W2       19583    TIP3     H2       HT       0.417000       1.00800           0
     58750 W2       19584    TIP3     OH2      OT      -0.834000       15.9994           0
     58751 W2       19584    TIP3     H1       HT       0.417000       1.00800           0
     58752 W2       19584    TIP3     H2       HT       0.417000       1.00800           0
     58753 W2       19585    TIP3     OH2      OT      -0.834000       15.9994           0
     58754 W2       19585    TIP3     H1       HT       0.417000       1.00800           0
     58755 W2       19585    TIP3     H2       HT       0.417000       1.00800           0
     58756 W2       19586    TIP3     OH2      OT      -0.834000       15.9994           0
     58757 W2       19586    TIP3     H1       HT       0.417000       1.00800           0
     58758 W2       19586    TIP3     H2       HT       0.417000       1.00800           0
     58759 W2       19587    TIP3     OH2      OT      -0.834000       15.9994           0
     58760 W2       19587    TIP3     H1       HT       0.417000       1.00800           0
     58761 W2       19587    TIP3     H2       HT       0.417000       1.00800           0
     58762 W2       19588    TIP3     OH2      OT      -0.834000       15.9994           0
     58763 W2       19588    TIP3     H1       HT       0.417000       1.00800           0
     58764 W2       19588    TIP3     H2       HT       0.417000       1.00800           0
     58765 W2       19589    TIP3     OH2      OT      -0.834000       15.9994           0
     58766 W2       19589    TIP3     H1       HT       0.417000       1.00800           0
     58767 W2       19589    TIP3     H2       HT       0.417000       1.00800           0
     58768 W2       19590    TIP3     OH2      OT      -0.834000       15.9994           0
     58769 W2       19590    TIP3     H1       HT       0.417000       1.00800           0
     58770 W2       19590    TIP3     H2       HT       0.417000       1.00800           0
     58771 W2       19591    TIP3     OH2      OT      -0.834000       15.9994           0
     58772 W2       19591    TIP3     H1       HT       0.417000       1.00800           0
     58773 W2       19591    TIP3     H2       HT       0.417000       1.00800           0
     58774 W2       19592    TIP3     OH2      OT      -0.834000       15.9994           0
     58775 W2       19592    TIP3     H1       HT       0.417000       1.00800           0
     58776 W2       19592    TIP3     H2       HT       0.417000       1.00800           0
     58777 W2       19593    TIP3     OH2      OT      -0.834000       15.9994           0
     58778 W2       19593    TIP3     H1       HT       0.417000       1.00800           0
     58779 W2       19593    TIP3     H2       HT       0.417000       1.00800           0
     58780 W2       19594    TIP3     OH2      OT      -0.834000       15.9994           0
     58781 W2       19594    TIP3     H1       HT       0.417000       1.00800           0
     58782 W2       19594    TIP3     H2       HT       0.417000       1.00800           0
     58783 W2       19595    TIP3     OH2      OT      -0.834000       15.9994           0
     58784 W2       19595    TIP3     H1       HT       0.417000       1.00800           0
     58785 W2       19595    TIP3     H2       HT       0.417000       1.00800           0
     58786 W2       19596    TIP3     OH2      OT      -0.834000       15.9994           0
     58787 W2       19596    TIP3     H1       HT       0.417000       1.00800           0
     58788 W2       19596    TIP3     H2       HT       0.417000       1.00800           0
     58789 W2       19597    TIP3     OH2      OT      -0.834000       15.9994           0
     58790 W2       19597    TIP3     H1       HT       0.417000       1.00800           0
     58791 W2       19597    TIP3     H2       HT       0.417000       1.00800           0
     58792 W2       19598    TIP3     OH2      OT      -0.834000       15.9994           0
     58793 W2       19598    TIP3     H1       HT       0.417000       1.00800           0
     58794 W2       19598    TIP3     H2       HT       0.417000       1.00800           0
     58795 W2       19599    TIP3     OH2      OT      -0.834000       15.9994           0
     58796 W2       19599    TIP3     H1       HT       0.417000       1.00800           0
     58797 W2       19599    TIP3     H2       HT       0.417000       1.00800           0
     58798 W2       19600    TIP3     OH2      OT      -0.834000       15.9994           0
     58799 W2       19600    TIP3     H1       HT       0.417000       1.00800           0
     58800 W2       19600    TIP3     H2       HT       0.417000       1.00800           0
     58801 W2       19601    TIP3     OH2      OT      -0.834000       15.9994           0
     58802 W2       19601    TIP3     H1       HT       0.417000       1.00800           0
     58803 W2       19601    TIP3     H2       HT       0.417000       1.00800           0
     58804 W2       19602    TIP3     OH2      OT      -0.834000       15.9994           0
     58805 W2       19602    TIP3     H1       HT       0.417000       1.00800           0
     58806 W2       19602    TIP3     H2       HT       0.417000       1.00800           0
     58807 W2       19603    TIP3     OH2      OT      -0.834000       15.9994           0
     58808 W2       19603    TIP3     H1       HT       0.417000       1.00800           0
     58809 W2       19603    TIP3     H2       HT       0.417000       1.00800           0
     58810 W2       19604    TIP3     OH2      OT      -0.834000       15.9994           0
     58811 W2       19604    TIP3     H1       HT       0.417000       1.00800           0
     58812 W2       19604    TIP3     H2       HT       0.417000       1.00800           0
     58813 W2       19605    TIP3     OH2      OT      -0.834000       15.9994           0
     58814 W2       19605    TIP3     H1       HT       0.417000       1.00800           0
     58815 W2       19605    TIP3     H2       HT       0.417000       1.00800           0
     58816 W2       19606    TIP3     OH2      OT      -0.834000       15.9994           0
     58817 W2       19606    TIP3     H1       HT       0.417000       1.00800           0
     58818 W2       19606    TIP3     H2       HT       0.417000       1.00800           0
     58819 W2       19607    TIP3     OH2      OT      -0.834000       15.9994           0
     58820 W2       19607    TIP3     H1       HT       0.417000       1.00800           0
     58821 W2       19607    TIP3     H2       HT       0.417000       1.00800           0
     58822 W2       19608    TIP3     OH2      OT      -0.834000       15.9994           0
     58823 W2       19608    TIP3     H1       HT       0.417000       1.00800           0
     58824 W2       19608    TIP3     H2       HT       0.417000       1.00800           0
     58825 W2       19609    TIP3     OH2      OT      -0.834000       15.9994           0
     58826 W2       19609    TIP3     H1       HT       0.417000       1.00800           0
     58827 W2       19609    TIP3     H2       HT       0.417000       1.00800           0
     58828 W2       19610    TIP3     OH2      OT      -0.834000       15.9994           0
     58829 W2       19610    TIP3     H1       HT       0.417000       1.00800           0
     58830 W2       19610    TIP3     H2       HT       0.417000       1.00800           0
     58831 W2       19611    TIP3     OH2      OT      -0.834000       15.9994           0
     58832 W2       19611    TIP3     H1       HT       0.417000       1.00800           0
     58833 W2       19611    TIP3     H2       HT       0.417000       1.00800           0
     58834 W2       19612    TIP3     OH2      OT      -0.834000       15.9994           0
     58835 W2       19612    TIP3     H1       HT       0.417000       1.00800           0
     58836 W2       19612    TIP3     H2       HT       0.417000       1.00800           0
     58837 W2       19613    TIP3     OH2      OT      -0.834000       15.9994           0
     58838 W2       19613    TIP3     H1       HT       0.417000       1.00800           0
     58839 W2       19613    TIP3     H2       HT       0.417000       1.00800           0
     58840 W2       19614    TIP3     OH2      OT      -0.834000       15.9994           0
     58841 W2       19614    TIP3     H1       HT       0.417000       1.00800           0
     58842 W2       19614    TIP3     H2       HT       0.417000       1.00800           0
     58843 W2       19615    TIP3     OH2      OT      -0.834000       15.9994           0
     58844 W2       19615    TIP3     H1       HT       0.417000       1.00800           0
     58845 W2       19615    TIP3     H2       HT       0.417000       1.00800           0
     58846 W2       19616    TIP3     OH2      OT      -0.834000       15.9994           0
     58847 W2       19616    TIP3     H1       HT       0.417000       1.00800           0
     58848 W2       19616    TIP3     H2       HT       0.417000       1.00800           0
     58849 W2       19617    TIP3     OH2      OT      -0.834000       15.9994           0
     58850 W2       19617    TIP3     H1       HT       0.417000       1.00800           0
     58851 W2       19617    TIP3     H2       HT       0.417000       1.00800           0
     58852 W2       19618    TIP3     OH2      OT      -0.834000       15.9994           0
     58853 W2       19618    TIP3     H1       HT       0.417000       1.00800           0
     58854 W2       19618    TIP3     H2       HT       0.417000       1.00800           0
     58855 W2       19619    TIP3     OH2      OT      -0.834000       15.9994           0
     58856 W2       19619    TIP3     H1       HT       0.417000       1.00800           0
     58857 W2       19619    TIP3     H2       HT       0.417000       1.00800           0
     58858 W2       19620    TIP3     OH2      OT      -0.834000       15.9994           0
     58859 W2       19620    TIP3     H1       HT       0.417000       1.00800           0
     58860 W2       19620    TIP3     H2       HT       0.417000       1.00800           0
     58861 W2       19621    TIP3     OH2      OT      -0.834000       15.9994           0
     58862 W2       19621    TIP3     H1       HT       0.417000       1.00800           0
     58863 W2       19621    TIP3     H2       HT       0.417000       1.00800           0
     58864 W2       19622    TIP3     OH2      OT      -0.834000       15.9994           0
     58865 W2       19622    TIP3     H1       HT       0.417000       1.00800           0
     58866 W2       19622    TIP3     H2       HT       0.417000       1.00800           0
     58867 W2       19623    TIP3     OH2      OT      -0.834000       15.9994           0
     58868 W2       19623    TIP3     H1       HT       0.417000       1.00800           0
     58869 W2       19623    TIP3     H2       HT       0.417000       1.00800           0
     58870 W2       19624    TIP3     OH2      OT      -0.834000       15.9994           0
     58871 W2       19624    TIP3     H1       HT       0.417000       1.00800           0
     58872 W2       19624    TIP3     H2       HT       0.417000       1.00800           0
     58873 W2       19625    TIP3     OH2      OT      -0.834000       15.9994           0
     58874 W2       19625    TIP3     H1       HT       0.417000       1.00800           0
     58875 W2       19625    TIP3     H2       HT       0.417000       1.00800           0
     58876 W2       19626    TIP3     OH2      OT      -0.834000       15.9994           0
     58877 W2       19626    TIP3     H1       HT       0.417000       1.00800           0
     58878 W2       19626    TIP3     H2       HT       0.417000       1.00800           0
     58879 W2       19627    TIP3     OH2      OT      -0.834000       15.9994           0
     58880 W2       19627    TIP3     H1       HT       0.417000       1.00800           0
     58881 W2       19627    TIP3     H2       HT       0.417000       1.00800           0
     58882 W2       19628    TIP3     OH2      OT      -0.834000       15.9994           0
     58883 W2       19628    TIP3     H1       HT       0.417000       1.00800           0
     58884 W2       19628    TIP3     H2       HT       0.417000       1.00800           0
     58885 W2       19629    TIP3     OH2      OT      -0.834000       15.9994           0
     58886 W2       19629    TIP3     H1       HT       0.417000       1.00800           0
     58887 W2       19629    TIP3     H2       HT       0.417000       1.00800           0
     58888 W2       19630    TIP3     OH2      OT      -0.834000       15.9994           0
     58889 W2       19630    TIP3     H1       HT       0.417000       1.00800           0
     58890 W2       19630    TIP3     H2       HT       0.417000       1.00800           0
     58891 W2       19631    TIP3     OH2      OT      -0.834000       15.9994           0
     58892 W2       19631    TIP3     H1       HT       0.417000       1.00800           0
     58893 W2       19631    TIP3     H2       HT       0.417000       1.00800           0
     58894 W2       19632    TIP3     OH2      OT      -0.834000       15.9994           0
     58895 W2       19632    TIP3     H1       HT       0.417000       1.00800           0
     58896 W2       19632    TIP3     H2       HT       0.417000       1.00800           0
     58897 W2       19633    TIP3     OH2      OT      -0.834000       15.9994           0
     58898 W2       19633    TIP3     H1       HT       0.417000       1.00800           0
     58899 W2       19633    TIP3     H2       HT       0.417000       1.00800           0
     58900 W2       19634    TIP3     OH2      OT      -0.834000       15.9994           0
     58901 W2       19634    TIP3     H1       HT       0.417000       1.00800           0
     58902 W2       19634    TIP3     H2       HT       0.417000       1.00800           0
     58903 W2       19635    TIP3     OH2      OT      -0.834000       15.9994           0
     58904 W2       19635    TIP3     H1       HT       0.417000       1.00800           0
     58905 W2       19635    TIP3     H2       HT       0.417000       1.00800           0
     58906 W2       19636    TIP3     OH2      OT      -0.834000       15.9994           0
     58907 W2       19636    TIP3     H1       HT       0.417000       1.00800           0
     58908 W2       19636    TIP3     H2       HT       0.417000       1.00800           0
     58909 W2       19637    TIP3     OH2      OT      -0.834000       15.9994           0
     58910 W2       19637    TIP3     H1       HT       0.417000       1.00800           0
     58911 W2       19637    TIP3     H2       HT       0.417000       1.00800           0
     58912 W2       19638    TIP3     OH2      OT      -0.834000       15.9994           0
     58913 W2       19638    TIP3     H1       HT       0.417000       1.00800           0
     58914 W2       19638    TIP3     H2       HT       0.417000       1.00800           0
     58915 W2       19639    TIP3     OH2      OT      -0.834000       15.9994           0
     58916 W2       19639    TIP3     H1       HT       0.417000       1.00800           0
     58917 W2       19639    TIP3     H2       HT       0.417000       1.00800           0
     58918 W2       19640    TIP3     OH2      OT      -0.834000       15.9994           0
     58919 W2       19640    TIP3     H1       HT       0.417000       1.00800           0
     58920 W2       19640    TIP3     H2       HT       0.417000       1.00800           0
     58921 W2       19641    TIP3     OH2      OT      -0.834000       15.9994           0
     58922 W2       19641    TIP3     H1       HT       0.417000       1.00800           0
     58923 W2       19641    TIP3     H2       HT       0.417000       1.00800           0
     58924 W2       19642    TIP3     OH2      OT      -0.834000       15.9994           0
     58925 W2       19642    TIP3     H1       HT       0.417000       1.00800           0
     58926 W2       19642    TIP3     H2       HT       0.417000       1.00800           0
     58927 W2       19643    TIP3     OH2      OT      -0.834000       15.9994           0
     58928 W2       19643    TIP3     H1       HT       0.417000       1.00800           0
     58929 W2       19643    TIP3     H2       HT       0.417000       1.00800           0
     58930 W2       19644    TIP3     OH2      OT      -0.834000       15.9994           0
     58931 W2       19644    TIP3     H1       HT       0.417000       1.00800           0
     58932 W2       19644    TIP3     H2       HT       0.417000       1.00800           0
     58933 W2       19645    TIP3     OH2      OT      -0.834000       15.9994           0
     58934 W2       19645    TIP3     H1       HT       0.417000       1.00800           0
     58935 W2       19645    TIP3     H2       HT       0.417000       1.00800           0
     58936 W2       19646    TIP3     OH2      OT      -0.834000       15.9994           0
     58937 W2       19646    TIP3     H1       HT       0.417000       1.00800           0
     58938 W2       19646    TIP3     H2       HT       0.417000       1.00800           0
     58939 W2       19647    TIP3     OH2      OT      -0.834000       15.9994           0
     58940 W2       19647    TIP3     H1       HT       0.417000       1.00800           0
     58941 W2       19647    TIP3     H2       HT       0.417000       1.00800           0
     58942 W2       19648    TIP3     OH2      OT      -0.834000       15.9994           0
     58943 W2       19648    TIP3     H1       HT       0.417000       1.00800           0
     58944 W2       19648    TIP3     H2       HT       0.417000       1.00800           0
     58945 W2       19649    TIP3     OH2      OT      -0.834000       15.9994           0
     58946 W2       19649    TIP3     H1       HT       0.417000       1.00800           0
     58947 W2       19649    TIP3     H2       HT       0.417000       1.00800           0
     58948 W2       19650    TIP3     OH2      OT      -0.834000       15.9994           0
     58949 W2       19650    TIP3     H1       HT       0.417000       1.00800           0
     58950 W2       19650    TIP3     H2       HT       0.417000       1.00800           0
     58951 W2       19651    TIP3     OH2      OT      -0.834000       15.9994           0
     58952 W2       19651    TIP3     H1       HT       0.417000       1.00800           0
     58953 W2       19651    TIP3     H2       HT       0.417000       1.00800           0
     58954 W2       19652    TIP3     OH2      OT      -0.834000       15.9994           0
     58955 W2       19652    TIP3     H1       HT       0.417000       1.00800           0
     58956 W2       19652    TIP3     H2       HT       0.417000       1.00800           0
     58957 W2       19653    TIP3     OH2      OT      -0.834000       15.9994           0
     58958 W2       19653    TIP3     H1       HT       0.417000       1.00800           0
     58959 W2       19653    TIP3     H2       HT       0.417000       1.00800           0
     58960 W2       19654    TIP3     OH2      OT      -0.834000       15.9994           0
     58961 W2       19654    TIP3     H1       HT       0.417000       1.00800           0
     58962 W2       19654    TIP3     H2       HT       0.417000       1.00800           0
     58963 W2       19655    TIP3     OH2      OT      -0.834000       15.9994           0
     58964 W2       19655    TIP3     H1       HT       0.417000       1.00800           0
     58965 W2       19655    TIP3     H2       HT       0.417000       1.00800           0
     58966 W2       19656    TIP3     OH2      OT      -0.834000       15.9994           0
     58967 W2       19656    TIP3     H1       HT       0.417000       1.00800           0
     58968 W2       19656    TIP3     H2       HT       0.417000       1.00800           0
     58969 W2       19657    TIP3     OH2      OT      -0.834000       15.9994           0
     58970 W2       19657    TIP3     H1       HT       0.417000       1.00800           0
     58971 W2       19657    TIP3     H2       HT       0.417000       1.00800           0
     58972 W2       19658    TIP3     OH2      OT      -0.834000       15.9994           0
     58973 W2       19658    TIP3     H1       HT       0.417000       1.00800           0
     58974 W2       19658    TIP3     H2       HT       0.417000       1.00800           0
     58975 W2       19659    TIP3     OH2      OT      -0.834000       15.9994           0
     58976 W2       19659    TIP3     H1       HT       0.417000       1.00800           0
     58977 W2       19659    TIP3     H2       HT       0.417000       1.00800           0
     58978 W2       19660    TIP3     OH2      OT      -0.834000       15.9994           0
     58979 W2       19660    TIP3     H1       HT       0.417000       1.00800           0
     58980 W2       19660    TIP3     H2       HT       0.417000       1.00800           0
     58981 W2       19661    TIP3     OH2      OT      -0.834000       15.9994           0
     58982 W2       19661    TIP3     H1       HT       0.417000       1.00800           0
     58983 W2       19661    TIP3     H2       HT       0.417000       1.00800           0
     58984 W2       19662    TIP3     OH2      OT      -0.834000       15.9994           0
     58985 W2       19662    TIP3     H1       HT       0.417000       1.00800           0
     58986 W2       19662    TIP3     H2       HT       0.417000       1.00800           0
     58987 W2       19663    TIP3     OH2      OT      -0.834000       15.9994           0
     58988 W2       19663    TIP3     H1       HT       0.417000       1.00800           0
     58989 W2       19663    TIP3     H2       HT       0.417000       1.00800           0
     58990 W2       19664    TIP3     OH2      OT      -0.834000       15.9994           0
     58991 W2       19664    TIP3     H1       HT       0.417000       1.00800           0
     58992 W2       19664    TIP3     H2       HT       0.417000       1.00800           0
     58993 W2       19665    TIP3     OH2      OT      -0.834000       15.9994           0
     58994 W2       19665    TIP3     H1       HT       0.417000       1.00800           0
     58995 W2       19665    TIP3     H2       HT       0.417000       1.00800           0
     58996 W2       19666    TIP3     OH2      OT      -0.834000       15.9994           0
     58997 W2       19666    TIP3     H1       HT       0.417000       1.00800           0
     58998 W2       19666    TIP3     H2       HT       0.417000       1.00800           0
     58999 W2       19667    TIP3     OH2      OT      -0.834000       15.9994           0
     59000 W2       19667    TIP3     H1       HT       0.417000       1.00800           0
     59001 W2       19667    TIP3     H2       HT       0.417000       1.00800           0
     59002 W2       19668    TIP3     OH2      OT      -0.834000       15.9994           0
     59003 W2       19668    TIP3     H1       HT       0.417000       1.00800           0
     59004 W2       19668    TIP3     H2       HT       0.417000       1.00800           0
     59005 W2       19669    TIP3     OH2      OT      -0.834000       15.9994           0
     59006 W2       19669    TIP3     H1       HT       0.417000       1.00800           0
     59007 W2       19669    TIP3     H2       HT       0.417000       1.00800           0
     59008 W2       19670    TIP3     OH2      OT      -0.834000       15.9994           0
     59009 W2       19670    TIP3     H1       HT       0.417000       1.00800           0
     59010 W2       19670    TIP3     H2       HT       0.417000       1.00800           0
     59011 W2       19671    TIP3     OH2      OT      -0.834000       15.9994           0
     59012 W2       19671    TIP3     H1       HT       0.417000       1.00800           0
     59013 W2       19671    TIP3     H2       HT       0.417000       1.00800           0
     59014 W2       19672    TIP3     OH2      OT      -0.834000       15.9994           0
     59015 W2       19672    TIP3     H1       HT       0.417000       1.00800           0
     59016 W2       19672    TIP3     H2       HT       0.417000       1.00800           0
     59017 W2       19673    TIP3     OH2      OT      -0.834000       15.9994           0
     59018 W2       19673    TIP3     H1       HT       0.417000       1.00800           0
     59019 W2       19673    TIP3     H2       HT       0.417000       1.00800           0
     59020 W2       19674    TIP3     OH2      OT      -0.834000       15.9994           0
     59021 W2       19674    TIP3     H1       HT       0.417000       1.00800           0
     59022 W2       19674    TIP3     H2       HT       0.417000       1.00800           0
     59023 W2       19675    TIP3     OH2      OT      -0.834000       15.9994           0
     59024 W2       19675    TIP3     H1       HT       0.417000       1.00800           0
     59025 W2       19675    TIP3     H2       HT       0.417000       1.00800           0
     59026 W2       19676    TIP3     OH2      OT      -0.834000       15.9994           0
     59027 W2       19676    TIP3     H1       HT       0.417000       1.00800           0
     59028 W2       19676    TIP3     H2       HT       0.417000       1.00800           0
     59029 W2       19677    TIP3     OH2      OT      -0.834000       15.9994           0
     59030 W2       19677    TIP3     H1       HT       0.417000       1.00800           0
     59031 W2       19677    TIP3     H2       HT       0.417000       1.00800           0
     59032 W2       19678    TIP3     OH2      OT      -0.834000       15.9994           0
     59033 W2       19678    TIP3     H1       HT       0.417000       1.00800           0
     59034 W2       19678    TIP3     H2       HT       0.417000       1.00800           0
     59035 W2       19679    TIP3     OH2      OT      -0.834000       15.9994           0
     59036 W2       19679    TIP3     H1       HT       0.417000       1.00800           0
     59037 W2       19679    TIP3     H2       HT       0.417000       1.00800           0
     59038 W2       19680    TIP3     OH2      OT      -0.834000       15.9994           0
     59039 W2       19680    TIP3     H1       HT       0.417000       1.00800           0
     59040 W2       19680    TIP3     H2       HT       0.417000       1.00800           0
     59041 W2       19681    TIP3     OH2      OT      -0.834000       15.9994           0
     59042 W2       19681    TIP3     H1       HT       0.417000       1.00800           0
     59043 W2       19681    TIP3     H2       HT       0.417000       1.00800           0
     59044 W2       19682    TIP3     OH2      OT      -0.834000       15.9994           0
     59045 W2       19682    TIP3     H1       HT       0.417000       1.00800           0
     59046 W2       19682    TIP3     H2       HT       0.417000       1.00800           0
     59047 W2       19683    TIP3     OH2      OT      -0.834000       15.9994           0
     59048 W2       19683    TIP3     H1       HT       0.417000       1.00800           0
     59049 W2       19683    TIP3     H2       HT       0.417000       1.00800           0
     59050 W2       19684    TIP3     OH2      OT      -0.834000       15.9994           0
     59051 W2       19684    TIP3     H1       HT       0.417000       1.00800           0
     59052 W2       19684    TIP3     H2       HT       0.417000       1.00800           0
     59053 W2       19685    TIP3     OH2      OT      -0.834000       15.9994           0
     59054 W2       19685    TIP3     H1       HT       0.417000       1.00800           0
     59055 W2       19685    TIP3     H2       HT       0.417000       1.00800           0
     59056 W2       19686    TIP3     OH2      OT      -0.834000       15.9994           0
     59057 W2       19686    TIP3     H1       HT       0.417000       1.00800           0
     59058 W2       19686    TIP3     H2       HT       0.417000       1.00800           0
     59059 W2       19687    TIP3     OH2      OT      -0.834000       15.9994           0
     59060 W2       19687    TIP3     H1       HT       0.417000       1.00800           0
     59061 W2       19687    TIP3     H2       HT       0.417000       1.00800           0
     59062 W2       19688    TIP3     OH2      OT      -0.834000       15.9994           0
     59063 W2       19688    TIP3     H1       HT       0.417000       1.00800           0
     59064 W2       19688    TIP3     H2       HT       0.417000       1.00800           0
     59065 W2       19689    TIP3     OH2      OT      -0.834000       15.9994           0
     59066 W2       19689    TIP3     H1       HT       0.417000       1.00800           0
     59067 W2       19689    TIP3     H2       HT       0.417000       1.00800           0
     59068 W2       19690    TIP3     OH2      OT      -0.834000       15.9994           0
     59069 W2       19690    TIP3     H1       HT       0.417000       1.00800           0
     59070 W2       19690    TIP3     H2       HT       0.417000       1.00800           0
     59071 W2       19691    TIP3     OH2      OT      -0.834000       15.9994           0
     59072 W2       19691    TIP3     H1       HT       0.417000       1.00800           0
     59073 W2       19691    TIP3     H2       HT       0.417000       1.00800           0
     59074 W2       19692    TIP3     OH2      OT      -0.834000       15.9994           0
     59075 W2       19692    TIP3     H1       HT       0.417000       1.00800           0
     59076 W2       19692    TIP3     H2       HT       0.417000       1.00800           0
     59077 W2       19693    TIP3     OH2      OT      -0.834000       15.9994           0
     59078 W2       19693    TIP3     H1       HT       0.417000       1.00800           0
     59079 W2       19693    TIP3     H2       HT       0.417000       1.00800           0
     59080 W2       19694    TIP3     OH2      OT      -0.834000       15.9994           0
     59081 W2       19694    TIP3     H1       HT       0.417000       1.00800           0
     59082 W2       19694    TIP3     H2       HT       0.417000       1.00800           0
     59083 W2       19695    TIP3     OH2      OT      -0.834000       15.9994           0
     59084 W2       19695    TIP3     H1       HT       0.417000       1.00800           0
     59085 W2       19695    TIP3     H2       HT       0.417000       1.00800           0
     59086 W2       19696    TIP3     OH2      OT      -0.834000       15.9994           0
     59087 W2       19696    TIP3     H1       HT       0.417000       1.00800           0
     59088 W2       19696    TIP3     H2       HT       0.417000       1.00800           0
     59089 W2       19697    TIP3     OH2      OT      -0.834000       15.9994           0
     59090 W2       19697    TIP3     H1       HT       0.417000       1.00800           0
     59091 W2       19697    TIP3     H2       HT       0.417000       1.00800           0
     59092 W2       19698    TIP3     OH2      OT      -0.834000       15.9994           0
     59093 W2       19698    TIP3     H1       HT       0.417000       1.00800           0
     59094 W2       19698    TIP3     H2       HT       0.417000       1.00800           0
     59095 W2       19699    TIP3     OH2      OT      -0.834000       15.9994           0
     59096 W2       19699    TIP3     H1       HT       0.417000       1.00800           0
     59097 W2       19699    TIP3     H2       HT       0.417000       1.00800           0
     59098 W2       19700    TIP3     OH2      OT      -0.834000       15.9994           0
     59099 W2       19700    TIP3     H1       HT       0.417000       1.00800           0
     59100 W2       19700    TIP3     H2       HT       0.417000       1.00800           0
     59101 W2       19701    TIP3     OH2      OT      -0.834000       15.9994           0
     59102 W2       19701    TIP3     H1       HT       0.417000       1.00800           0
     59103 W2       19701    TIP3     H2       HT       0.417000       1.00800           0
     59104 W2       19702    TIP3     OH2      OT      -0.834000       15.9994           0
     59105 W2       19702    TIP3     H1       HT       0.417000       1.00800           0
     59106 W2       19702    TIP3     H2       HT       0.417000       1.00800           0
     59107 W2       19703    TIP3     OH2      OT      -0.834000       15.9994           0
     59108 W2       19703    TIP3     H1       HT       0.417000       1.00800           0
     59109 W2       19703    TIP3     H2       HT       0.417000       1.00800           0
     59110 W2       19704    TIP3     OH2      OT      -0.834000       15.9994           0
     59111 W2       19704    TIP3     H1       HT       0.417000       1.00800           0
     59112 W2       19704    TIP3     H2       HT       0.417000       1.00800           0
     59113 W2       19705    TIP3     OH2      OT      -0.834000       15.9994           0
     59114 W2       19705    TIP3     H1       HT       0.417000       1.00800           0
     59115 W2       19705    TIP3     H2       HT       0.417000       1.00800           0
     59116 W2       19706    TIP3     OH2      OT      -0.834000       15.9994           0
     59117 W2       19706    TIP3     H1       HT       0.417000       1.00800           0
     59118 W2       19706    TIP3     H2       HT       0.417000       1.00800           0
     59119 W2       19707    TIP3     OH2      OT      -0.834000       15.9994           0
     59120 W2       19707    TIP3     H1       HT       0.417000       1.00800           0
     59121 W2       19707    TIP3     H2       HT       0.417000       1.00800           0
     59122 W2       19708    TIP3     OH2      OT      -0.834000       15.9994           0
     59123 W2       19708    TIP3     H1       HT       0.417000       1.00800           0
     59124 W2       19708    TIP3     H2       HT       0.417000       1.00800           0
     59125 W2       19709    TIP3     OH2      OT      -0.834000       15.9994           0
     59126 W2       19709    TIP3     H1       HT       0.417000       1.00800           0
     59127 W2       19709    TIP3     H2       HT       0.417000       1.00800           0
     59128 W2       19710    TIP3     OH2      OT      -0.834000       15.9994           0
     59129 W2       19710    TIP3     H1       HT       0.417000       1.00800           0
     59130 W2       19710    TIP3     H2       HT       0.417000       1.00800           0
     59131 W2       19711    TIP3     OH2      OT      -0.834000       15.9994           0
     59132 W2       19711    TIP3     H1       HT       0.417000       1.00800           0
     59133 W2       19711    TIP3     H2       HT       0.417000       1.00800           0
     59134 W2       19712    TIP3     OH2      OT      -0.834000       15.9994           0
     59135 W2       19712    TIP3     H1       HT       0.417000       1.00800           0
     59136 W2       19712    TIP3     H2       HT       0.417000       1.00800           0
     59137 W2       19713    TIP3     OH2      OT      -0.834000       15.9994           0
     59138 W2       19713    TIP3     H1       HT       0.417000       1.00800           0
     59139 W2       19713    TIP3     H2       HT       0.417000       1.00800           0
     59140 W2       19714    TIP3     OH2      OT      -0.834000       15.9994           0
     59141 W2       19714    TIP3     H1       HT       0.417000       1.00800           0
     59142 W2       19714    TIP3     H2       HT       0.417000       1.00800           0
     59143 W2       19715    TIP3     OH2      OT      -0.834000       15.9994           0
     59144 W2       19715    TIP3     H1       HT       0.417000       1.00800           0
     59145 W2       19715    TIP3     H2       HT       0.417000       1.00800           0
     59146 W2       19716    TIP3     OH2      OT      -0.834000       15.9994           0
     59147 W2       19716    TIP3     H1       HT       0.417000       1.00800           0
     59148 W2       19716    TIP3     H2       HT       0.417000       1.00800           0
     59149 W2       19717    TIP3     OH2      OT      -0.834000       15.9994           0
     59150 W2       19717    TIP3     H1       HT       0.417000       1.00800           0
     59151 W2       19717    TIP3     H2       HT       0.417000       1.00800           0
     59152 W2       19718    TIP3     OH2      OT      -0.834000       15.9994           0
     59153 W2       19718    TIP3     H1       HT       0.417000       1.00800           0
     59154 W2       19718    TIP3     H2       HT       0.417000       1.00800           0
     59155 W2       19719    TIP3     OH2      OT      -0.834000       15.9994           0
     59156 W2       19719    TIP3     H1       HT       0.417000       1.00800           0
     59157 W2       19719    TIP3     H2       HT       0.417000       1.00800           0
     59158 W2       19720    TIP3     OH2      OT      -0.834000       15.9994           0
     59159 W2       19720    TIP3     H1       HT       0.417000       1.00800           0
     59160 W2       19720    TIP3     H2       HT       0.417000       1.00800           0
     59161 W2       19721    TIP3     OH2      OT      -0.834000       15.9994           0
     59162 W2       19721    TIP3     H1       HT       0.417000       1.00800           0
     59163 W2       19721    TIP3     H2       HT       0.417000       1.00800           0
     59164 W2       19722    TIP3     OH2      OT      -0.834000       15.9994           0
     59165 W2       19722    TIP3     H1       HT       0.417000       1.00800           0
     59166 W2       19722    TIP3     H2       HT       0.417000       1.00800           0
     59167 W2       19723    TIP3     OH2      OT      -0.834000       15.9994           0
     59168 W2       19723    TIP3     H1       HT       0.417000       1.00800           0
     59169 W2       19723    TIP3     H2       HT       0.417000       1.00800           0
     59170 W2       19724    TIP3     OH2      OT      -0.834000       15.9994           0
     59171 W2       19724    TIP3     H1       HT       0.417000       1.00800           0
     59172 W2       19724    TIP3     H2       HT       0.417000       1.00800           0
     59173 W2       19725    TIP3     OH2      OT      -0.834000       15.9994           0
     59174 W2       19725    TIP3     H1       HT       0.417000       1.00800           0
     59175 W2       19725    TIP3     H2       HT       0.417000       1.00800           0
     59176 W2       19726    TIP3     OH2      OT      -0.834000       15.9994           0
     59177 W2       19726    TIP3     H1       HT       0.417000       1.00800           0
     59178 W2       19726    TIP3     H2       HT       0.417000       1.00800           0
     59179 W2       19727    TIP3     OH2      OT      -0.834000       15.9994           0
     59180 W2       19727    TIP3     H1       HT       0.417000       1.00800           0
     59181 W2       19727    TIP3     H2       HT       0.417000       1.00800           0
     59182 W2       19728    TIP3     OH2      OT      -0.834000       15.9994           0
     59183 W2       19728    TIP3     H1       HT       0.417000       1.00800           0
     59184 W2       19728    TIP3     H2       HT       0.417000       1.00800           0
     59185 W2       19729    TIP3     OH2      OT      -0.834000       15.9994           0
     59186 W2       19729    TIP3     H1       HT       0.417000       1.00800           0
     59187 W2       19729    TIP3     H2       HT       0.417000       1.00800           0
     59188 W2       19730    TIP3     OH2      OT      -0.834000       15.9994           0
     59189 W2       19730    TIP3     H1       HT       0.417000       1.00800           0
     59190 W2       19730    TIP3     H2       HT       0.417000       1.00800           0
     59191 W2       19731    TIP3     OH2      OT      -0.834000       15.9994           0
     59192 W2       19731    TIP3     H1       HT       0.417000       1.00800           0
     59193 W2       19731    TIP3     H2       HT       0.417000       1.00800           0
     59194 W2       19732    TIP3     OH2      OT      -0.834000       15.9994           0
     59195 W2       19732    TIP3     H1       HT       0.417000       1.00800           0
     59196 W2       19732    TIP3     H2       HT       0.417000       1.00800           0
     59197 W2       19733    TIP3     OH2      OT      -0.834000       15.9994           0
     59198 W2       19733    TIP3     H1       HT       0.417000       1.00800           0
     59199 W2       19733    TIP3     H2       HT       0.417000       1.00800           0
     59200 W2       19734    TIP3     OH2      OT      -0.834000       15.9994           0
     59201 W2       19734    TIP3     H1       HT       0.417000       1.00800           0
     59202 W2       19734    TIP3     H2       HT       0.417000       1.00800           0
     59203 W2       19735    TIP3     OH2      OT      -0.834000       15.9994           0
     59204 W2       19735    TIP3     H1       HT       0.417000       1.00800           0
     59205 W2       19735    TIP3     H2       HT       0.417000       1.00800           0
     59206 W2       19736    TIP3     OH2      OT      -0.834000       15.9994           0
     59207 W2       19736    TIP3     H1       HT       0.417000       1.00800           0
     59208 W2       19736    TIP3     H2       HT       0.417000       1.00800           0
     59209 W2       19737    TIP3     OH2      OT      -0.834000       15.9994           0
     59210 W2       19737    TIP3     H1       HT       0.417000       1.00800           0
     59211 W2       19737    TIP3     H2       HT       0.417000       1.00800           0
     59212 W2       19738    TIP3     OH2      OT      -0.834000       15.9994           0
     59213 W2       19738    TIP3     H1       HT       0.417000       1.00800           0
     59214 W2       19738    TIP3     H2       HT       0.417000       1.00800           0
     59215 W2       19739    TIP3     OH2      OT      -0.834000       15.9994           0
     59216 W2       19739    TIP3     H1       HT       0.417000       1.00800           0
     59217 W2       19739    TIP3     H2       HT       0.417000       1.00800           0
     59218 W2       19740    TIP3     OH2      OT      -0.834000       15.9994           0
     59219 W2       19740    TIP3     H1       HT       0.417000       1.00800           0
     59220 W2       19740    TIP3     H2       HT       0.417000       1.00800           0
     59221 W2       19741    TIP3     OH2      OT      -0.834000       15.9994           0
     59222 W2       19741    TIP3     H1       HT       0.417000       1.00800           0
     59223 W2       19741    TIP3     H2       HT       0.417000       1.00800           0
     59224 W2       19742    TIP3     OH2      OT      -0.834000       15.9994           0
     59225 W2       19742    TIP3     H1       HT       0.417000       1.00800           0
     59226 W2       19742    TIP3     H2       HT       0.417000       1.00800           0
     59227 W2       19743    TIP3     OH2      OT      -0.834000       15.9994           0
     59228 W2       19743    TIP3     H1       HT       0.417000       1.00800           0
     59229 W2       19743    TIP3     H2       HT       0.417000       1.00800           0
     59230 W2       19744    TIP3     OH2      OT      -0.834000       15.9994           0
     59231 W2       19744    TIP3     H1       HT       0.417000       1.00800           0
     59232 W2       19744    TIP3     H2       HT       0.417000       1.00800           0
     59233 W2       19745    TIP3     OH2      OT      -0.834000       15.9994           0
     59234 W2       19745    TIP3     H1       HT       0.417000       1.00800           0
     59235 W2       19745    TIP3     H2       HT       0.417000       1.00800           0
     59236 W2       19746    TIP3     OH2      OT      -0.834000       15.9994           0
     59237 W2       19746    TIP3     H1       HT       0.417000       1.00800           0
     59238 W2       19746    TIP3     H2       HT       0.417000       1.00800           0
     59239 W2       19747    TIP3     OH2      OT      -0.834000       15.9994           0
     59240 W2       19747    TIP3     H1       HT       0.417000       1.00800           0
     59241 W2       19747    TIP3     H2       HT       0.417000       1.00800           0
     59242 W2       19748    TIP3     OH2      OT      -0.834000       15.9994           0
     59243 W2       19748    TIP3     H1       HT       0.417000       1.00800           0
     59244 W2       19748    TIP3     H2       HT       0.417000       1.00800           0
     59245 W2       19749    TIP3     OH2      OT      -0.834000       15.9994           0
     59246 W2       19749    TIP3     H1       HT       0.417000       1.00800           0
     59247 W2       19749    TIP3     H2       HT       0.417000       1.00800           0
     59248 W2       19750    TIP3     OH2      OT      -0.834000       15.9994           0
     59249 W2       19750    TIP3     H1       HT       0.417000       1.00800           0
     59250 W2       19750    TIP3     H2       HT       0.417000       1.00800           0
     59251 W2       19751    TIP3     OH2      OT      -0.834000       15.9994           0
     59252 W2       19751    TIP3     H1       HT       0.417000       1.00800           0
     59253 W2       19751    TIP3     H2       HT       0.417000       1.00800           0
     59254 W2       19752    TIP3     OH2      OT      -0.834000       15.9994           0
     59255 W2       19752    TIP3     H1       HT       0.417000       1.00800           0
     59256 W2       19752    TIP3     H2       HT       0.417000       1.00800           0
     59257 W2       19753    TIP3     OH2      OT      -0.834000       15.9994           0
     59258 W2       19753    TIP3     H1       HT       0.417000       1.00800           0
     59259 W2       19753    TIP3     H2       HT       0.417000       1.00800           0
     59260 W2       19754    TIP3     OH2      OT      -0.834000       15.9994           0
     59261 W2       19754    TIP3     H1       HT       0.417000       1.00800           0
     59262 W2       19754    TIP3     H2       HT       0.417000       1.00800           0
     59263 W2       19755    TIP3     OH2      OT      -0.834000       15.9994           0
     59264 W2       19755    TIP3     H1       HT       0.417000       1.00800           0
     59265 W2       19755    TIP3     H2       HT       0.417000       1.00800           0
     59266 W2       19756    TIP3     OH2      OT      -0.834000       15.9994           0
     59267 W2       19756    TIP3     H1       HT       0.417000       1.00800           0
     59268 W2       19756    TIP3     H2       HT       0.417000       1.00800           0
     59269 W2       19757    TIP3     OH2      OT      -0.834000       15.9994           0
     59270 W2       19757    TIP3     H1       HT       0.417000       1.00800           0
     59271 W2       19757    TIP3     H2       HT       0.417000       1.00800           0
     59272 W2       19758    TIP3     OH2      OT      -0.834000       15.9994           0
     59273 W2       19758    TIP3     H1       HT       0.417000       1.00800           0
     59274 W2       19758    TIP3     H2       HT       0.417000       1.00800           0
     59275 W2       19759    TIP3     OH2      OT      -0.834000       15.9994           0
     59276 W2       19759    TIP3     H1       HT       0.417000       1.00800           0
     59277 W2       19759    TIP3     H2       HT       0.417000       1.00800           0
     59278 W2       19760    TIP3     OH2      OT      -0.834000       15.9994           0
     59279 W2       19760    TIP3     H1       HT       0.417000       1.00800           0
     59280 W2       19760    TIP3     H2       HT       0.417000       1.00800           0
     59281 W2       19761    TIP3     OH2      OT      -0.834000       15.9994           0
     59282 W2       19761    TIP3     H1       HT       0.417000       1.00800           0
     59283 W2       19761    TIP3     H2       HT       0.417000       1.00800           0
     59284 W2       19762    TIP3     OH2      OT      -0.834000       15.9994           0
     59285 W2       19762    TIP3     H1       HT       0.417000       1.00800           0
     59286 W2       19762    TIP3     H2       HT       0.417000       1.00800           0
     59287 W2       19763    TIP3     OH2      OT      -0.834000       15.9994           0
     59288 W2       19763    TIP3     H1       HT       0.417000       1.00800           0
     59289 W2       19763    TIP3     H2       HT       0.417000       1.00800           0
     59290 W2       19764    TIP3     OH2      OT      -0.834000       15.9994           0
     59291 W2       19764    TIP3     H1       HT       0.417000       1.00800           0
     59292 W2       19764    TIP3     H2       HT       0.417000       1.00800           0
     59293 W2       19765    TIP3     OH2      OT      -0.834000       15.9994           0
     59294 W2       19765    TIP3     H1       HT       0.417000       1.00800           0
     59295 W2       19765    TIP3     H2       HT       0.417000       1.00800           0
     59296 W2       19766    TIP3     OH2      OT      -0.834000       15.9994           0
     59297 W2       19766    TIP3     H1       HT       0.417000       1.00800           0
     59298 W2       19766    TIP3     H2       HT       0.417000       1.00800           0
     59299 W2       19767    TIP3     OH2      OT      -0.834000       15.9994           0
     59300 W2       19767    TIP3     H1       HT       0.417000       1.00800           0
     59301 W2       19767    TIP3     H2       HT       0.417000       1.00800           0
     59302 W2       19768    TIP3     OH2      OT      -0.834000       15.9994           0
     59303 W2       19768    TIP3     H1       HT       0.417000       1.00800           0
     59304 W2       19768    TIP3     H2       HT       0.417000       1.00800           0
     59305 W2       19769    TIP3     OH2      OT      -0.834000       15.9994           0
     59306 W2       19769    TIP3     H1       HT       0.417000       1.00800           0
     59307 W2       19769    TIP3     H2       HT       0.417000       1.00800           0
     59308 W2       19770    TIP3     OH2      OT      -0.834000       15.9994           0
     59309 W2       19770    TIP3     H1       HT       0.417000       1.00800           0
     59310 W2       19770    TIP3     H2       HT       0.417000       1.00800           0
     59311 W2       19771    TIP3     OH2      OT      -0.834000       15.9994           0
     59312 W2       19771    TIP3     H1       HT       0.417000       1.00800           0
     59313 W2       19771    TIP3     H2       HT       0.417000       1.00800           0
     59314 W2       19772    TIP3     OH2      OT      -0.834000       15.9994           0
     59315 W2       19772    TIP3     H1       HT       0.417000       1.00800           0
     59316 W2       19772    TIP3     H2       HT       0.417000       1.00800           0
     59317 W2       19773    TIP3     OH2      OT      -0.834000       15.9994           0
     59318 W2       19773    TIP3     H1       HT       0.417000       1.00800           0
     59319 W2       19773    TIP3     H2       HT       0.417000       1.00800           0
     59320 W2       19774    TIP3     OH2      OT      -0.834000       15.9994           0
     59321 W2       19774    TIP3     H1       HT       0.417000       1.00800           0
     59322 W2       19774    TIP3     H2       HT       0.417000       1.00800           0
     59323 W2       19775    TIP3     OH2      OT      -0.834000       15.9994           0
     59324 W2       19775    TIP3     H1       HT       0.417000       1.00800           0
     59325 W2       19775    TIP3     H2       HT       0.417000       1.00800           0
     59326 W2       19776    TIP3     OH2      OT      -0.834000       15.9994           0
     59327 W2       19776    TIP3     H1       HT       0.417000       1.00800           0
     59328 W2       19776    TIP3     H2       HT       0.417000       1.00800           0
     59329 W2       19777    TIP3     OH2      OT      -0.834000       15.9994           0
     59330 W2       19777    TIP3     H1       HT       0.417000       1.00800           0
     59331 W2       19777    TIP3     H2       HT       0.417000       1.00800           0
     59332 W2       19778    TIP3     OH2      OT      -0.834000       15.9994           0
     59333 W2       19778    TIP3     H1       HT       0.417000       1.00800           0
     59334 W2       19778    TIP3     H2       HT       0.417000       1.00800           0
     59335 W2       19779    TIP3     OH2      OT      -0.834000       15.9994           0
     59336 W2       19779    TIP3     H1       HT       0.417000       1.00800           0
     59337 W2       19779    TIP3     H2       HT       0.417000       1.00800           0
     59338 W2       19780    TIP3     OH2      OT      -0.834000       15.9994           0
     59339 W2       19780    TIP3     H1       HT       0.417000       1.00800           0
     59340 W2       19780    TIP3     H2       HT       0.417000       1.00800           0
     59341 W2       19781    TIP3     OH2      OT      -0.834000       15.9994           0
     59342 W2       19781    TIP3     H1       HT       0.417000       1.00800           0
     59343 W2       19781    TIP3     H2       HT       0.417000       1.00800           0
     59344 W2       19782    TIP3     OH2      OT      -0.834000       15.9994           0
     59345 W2       19782    TIP3     H1       HT       0.417000       1.00800           0
     59346 W2       19782    TIP3     H2       HT       0.417000       1.00800           0
     59347 W2       19783    TIP3     OH2      OT      -0.834000       15.9994           0
     59348 W2       19783    TIP3     H1       HT       0.417000       1.00800           0
     59349 W2       19783    TIP3     H2       HT       0.417000       1.00800           0
     59350 W2       19784    TIP3     OH2      OT      -0.834000       15.9994           0
     59351 W2       19784    TIP3     H1       HT       0.417000       1.00800           0
     59352 W2       19784    TIP3     H2       HT       0.417000       1.00800           0
     59353 W2       19785    TIP3     OH2      OT      -0.834000       15.9994           0
     59354 W2       19785    TIP3     H1       HT       0.417000       1.00800           0
     59355 W2       19785    TIP3     H2       HT       0.417000       1.00800           0
     59356 W2       19786    TIP3     OH2      OT      -0.834000       15.9994           0
     59357 W2       19786    TIP3     H1       HT       0.417000       1.00800           0
     59358 W2       19786    TIP3     H2       HT       0.417000       1.00800           0
     59359 W2       19787    TIP3     OH2      OT      -0.834000       15.9994           0
     59360 W2       19787    TIP3     H1       HT       0.417000       1.00800           0
     59361 W2       19787    TIP3     H2       HT       0.417000       1.00800           0
     59362 W2       19788    TIP3     OH2      OT      -0.834000       15.9994           0
     59363 W2       19788    TIP3     H1       HT       0.417000       1.00800           0
     59364 W2       19788    TIP3     H2       HT       0.417000       1.00800           0
     59365 W2       19789    TIP3     OH2      OT      -0.834000       15.9994           0
     59366 W2       19789    TIP3     H1       HT       0.417000       1.00800           0
     59367 W2       19789    TIP3     H2       HT       0.417000       1.00800           0
     59368 W2       19790    TIP3     OH2      OT      -0.834000       15.9994           0
     59369 W2       19790    TIP3     H1       HT       0.417000       1.00800           0
     59370 W2       19790    TIP3     H2       HT       0.417000       1.00800           0
     59371 W2       19791    TIP3     OH2      OT      -0.834000       15.9994           0
     59372 W2       19791    TIP3     H1       HT       0.417000       1.00800           0
     59373 W2       19791    TIP3     H2       HT       0.417000       1.00800           0
     59374 W2       19792    TIP3     OH2      OT      -0.834000       15.9994           0
     59375 W2       19792    TIP3     H1       HT       0.417000       1.00800           0
     59376 W2       19792    TIP3     H2       HT       0.417000       1.00800           0
     59377 W2       19793    TIP3     OH2      OT      -0.834000       15.9994           0
     59378 W2       19793    TIP3     H1       HT       0.417000       1.00800           0
     59379 W2       19793    TIP3     H2       HT       0.417000       1.00800           0
     59380 W2       19794    TIP3     OH2      OT      -0.834000       15.9994           0
     59381 W2       19794    TIP3     H1       HT       0.417000       1.00800           0
     59382 W2       19794    TIP3     H2       HT       0.417000       1.00800           0
     59383 W2       19795    TIP3     OH2      OT      -0.834000       15.9994           0
     59384 W2       19795    TIP3     H1       HT       0.417000       1.00800           0
     59385 W2       19795    TIP3     H2       HT       0.417000       1.00800           0
     59386 W2       19796    TIP3     OH2      OT      -0.834000       15.9994           0
     59387 W2       19796    TIP3     H1       HT       0.417000       1.00800           0
     59388 W2       19796    TIP3     H2       HT       0.417000       1.00800           0
     59389 W2       19797    TIP3     OH2      OT      -0.834000       15.9994           0
     59390 W2       19797    TIP3     H1       HT       0.417000       1.00800           0
     59391 W2       19797    TIP3     H2       HT       0.417000       1.00800           0
     59392 W2       19798    TIP3     OH2      OT      -0.834000       15.9994           0
     59393 W2       19798    TIP3     H1       HT       0.417000       1.00800           0
     59394 W2       19798    TIP3     H2       HT       0.417000       1.00800           0
     59395 W2       19799    TIP3     OH2      OT      -0.834000       15.9994           0
     59396 W2       19799    TIP3     H1       HT       0.417000       1.00800           0
     59397 W2       19799    TIP3     H2       HT       0.417000       1.00800           0
     59398 W2       19800    TIP3     OH2      OT      -0.834000       15.9994           0
     59399 W2       19800    TIP3     H1       HT       0.417000       1.00800           0
     59400 W2       19800    TIP3     H2       HT       0.417000       1.00800           0
     59401 W2       19801    TIP3     OH2      OT      -0.834000       15.9994           0
     59402 W2       19801    TIP3     H1       HT       0.417000       1.00800           0
     59403 W2       19801    TIP3     H2       HT       0.417000       1.00800           0
     59404 W2       19802    TIP3     OH2      OT      -0.834000       15.9994           0
     59405 W2       19802    TIP3     H1       HT       0.417000       1.00800           0
     59406 W2       19802    TIP3     H2       HT       0.417000       1.00800           0
     59407 W2       19803    TIP3     OH2      OT      -0.834000       15.9994           0
     59408 W2       19803    TIP3     H1       HT       0.417000       1.00800           0
     59409 W2       19803    TIP3     H2       HT       0.417000       1.00800           0
     59410 W2       19804    TIP3     OH2      OT      -0.834000       15.9994           0
     59411 W2       19804    TIP3     H1       HT       0.417000       1.00800           0
     59412 W2       19804    TIP3     H2       HT       0.417000       1.00800           0
     59413 W2       19805    TIP3     OH2      OT      -0.834000       15.9994           0
     59414 W2       19805    TIP3     H1       HT       0.417000       1.00800           0
     59415 W2       19805    TIP3     H2       HT       0.417000       1.00800           0
     59416 W2       19806    TIP3     OH2      OT      -0.834000       15.9994           0
     59417 W2       19806    TIP3     H1       HT       0.417000       1.00800           0
     59418 W2       19806    TIP3     H2       HT       0.417000       1.00800           0
     59419 W2       19807    TIP3     OH2      OT      -0.834000       15.9994           0
     59420 W2       19807    TIP3     H1       HT       0.417000       1.00800           0
     59421 W2       19807    TIP3     H2       HT       0.417000       1.00800           0
     59422 W2       19808    TIP3     OH2      OT      -0.834000       15.9994           0
     59423 W2       19808    TIP3     H1       HT       0.417000       1.00800           0
     59424 W2       19808    TIP3     H2       HT       0.417000       1.00800           0
     59425 W2       19809    TIP3     OH2      OT      -0.834000       15.9994           0
     59426 W2       19809    TIP3     H1       HT       0.417000       1.00800           0
     59427 W2       19809    TIP3     H2       HT       0.417000       1.00800           0
     59428 W2       19810    TIP3     OH2      OT      -0.834000       15.9994           0
     59429 W2       19810    TIP3     H1       HT       0.417000       1.00800           0
     59430 W2       19810    TIP3     H2       HT       0.417000       1.00800           0
     59431 W2       19811    TIP3     OH2      OT      -0.834000       15.9994           0
     59432 W2       19811    TIP3     H1       HT       0.417000       1.00800           0
     59433 W2       19811    TIP3     H2       HT       0.417000       1.00800           0
     59434 W2       19812    TIP3     OH2      OT      -0.834000       15.9994           0
     59435 W2       19812    TIP3     H1       HT       0.417000       1.00800           0
     59436 W2       19812    TIP3     H2       HT       0.417000       1.00800           0
     59437 W2       19813    TIP3     OH2      OT      -0.834000       15.9994           0
     59438 W2       19813    TIP3     H1       HT       0.417000       1.00800           0
     59439 W2       19813    TIP3     H2       HT       0.417000       1.00800           0
     59440 W2       19814    TIP3     OH2      OT      -0.834000       15.9994           0
     59441 W2       19814    TIP3     H1       HT       0.417000       1.00800           0
     59442 W2       19814    TIP3     H2       HT       0.417000       1.00800           0
     59443 W2       19815    TIP3     OH2      OT      -0.834000       15.9994           0
     59444 W2       19815    TIP3     H1       HT       0.417000       1.00800           0
     59445 W2       19815    TIP3     H2       HT       0.417000       1.00800           0
     59446 W2       19816    TIP3     OH2      OT      -0.834000       15.9994           0
     59447 W2       19816    TIP3     H1       HT       0.417000       1.00800           0
     59448 W2       19816    TIP3     H2       HT       0.417000       1.00800           0
     59449 W2       19817    TIP3     OH2      OT      -0.834000       15.9994           0
     59450 W2       19817    TIP3     H1       HT       0.417000       1.00800           0
     59451 W2       19817    TIP3     H2       HT       0.417000       1.00800           0
     59452 W2       19818    TIP3     OH2      OT      -0.834000       15.9994           0
     59453 W2       19818    TIP3     H1       HT       0.417000       1.00800           0
     59454 W2       19818    TIP3     H2       HT       0.417000       1.00800           0
     59455 W2       19819    TIP3     OH2      OT      -0.834000       15.9994           0
     59456 W2       19819    TIP3     H1       HT       0.417000       1.00800           0
     59457 W2       19819    TIP3     H2       HT       0.417000       1.00800           0
     59458 W2       19820    TIP3     OH2      OT      -0.834000       15.9994           0
     59459 W2       19820    TIP3     H1       HT       0.417000       1.00800           0
     59460 W2       19820    TIP3     H2       HT       0.417000       1.00800           0
     59461 W2       19821    TIP3     OH2      OT      -0.834000       15.9994           0
     59462 W2       19821    TIP3     H1       HT       0.417000       1.00800           0
     59463 W2       19821    TIP3     H2       HT       0.417000       1.00800           0
     59464 W2       19822    TIP3     OH2      OT      -0.834000       15.9994           0
     59465 W2       19822    TIP3     H1       HT       0.417000       1.00800           0
     59466 W2       19822    TIP3     H2       HT       0.417000       1.00800           0
     59467 W2       19823    TIP3     OH2      OT      -0.834000       15.9994           0
     59468 W2       19823    TIP3     H1       HT       0.417000       1.00800           0
     59469 W2       19823    TIP3     H2       HT       0.417000       1.00800           0
     59470 W2       19824    TIP3     OH2      OT      -0.834000       15.9994           0
     59471 W2       19824    TIP3     H1       HT       0.417000       1.00800           0
     59472 W2       19824    TIP3     H2       HT       0.417000       1.00800           0
     59473 W2       19825    TIP3     OH2      OT      -0.834000       15.9994           0
     59474 W2       19825    TIP3     H1       HT       0.417000       1.00800           0
     59475 W2       19825    TIP3     H2       HT       0.417000       1.00800           0
     59476 W2       19826    TIP3     OH2      OT      -0.834000       15.9994           0
     59477 W2       19826    TIP3     H1       HT       0.417000       1.00800           0
     59478 W2       19826    TIP3     H2       HT       0.417000       1.00800           0
     59479 W2       19827    TIP3     OH2      OT      -0.834000       15.9994           0
     59480 W2       19827    TIP3     H1       HT       0.417000       1.00800           0
     59481 W2       19827    TIP3     H2       HT       0.417000       1.00800           0
     59482 W2       19828    TIP3     OH2      OT      -0.834000       15.9994           0
     59483 W2       19828    TIP3     H1       HT       0.417000       1.00800           0
     59484 W2       19828    TIP3     H2       HT       0.417000       1.00800           0
     59485 W2       19829    TIP3     OH2      OT      -0.834000       15.9994           0
     59486 W2       19829    TIP3     H1       HT       0.417000       1.00800           0
     59487 W2       19829    TIP3     H2       HT       0.417000       1.00800           0
     59488 W2       19830    TIP3     OH2      OT      -0.834000       15.9994           0
     59489 W2       19830    TIP3     H1       HT       0.417000       1.00800           0
     59490 W2       19830    TIP3     H2       HT       0.417000       1.00800           0
     59491 W2       19831    TIP3     OH2      OT      -0.834000       15.9994           0
     59492 W2       19831    TIP3     H1       HT       0.417000       1.00800           0
     59493 W2       19831    TIP3     H2       HT       0.417000       1.00800           0
     59494 W2       19832    TIP3     OH2      OT      -0.834000       15.9994           0
     59495 W2       19832    TIP3     H1       HT       0.417000       1.00800           0
     59496 W2       19832    TIP3     H2       HT       0.417000       1.00800           0
     59497 W2       19833    TIP3     OH2      OT      -0.834000       15.9994           0
     59498 W2       19833    TIP3     H1       HT       0.417000       1.00800           0
     59499 W2       19833    TIP3     H2       HT       0.417000       1.00800           0
     59500 W2       19834    TIP3     OH2      OT      -0.834000       15.9994           0
     59501 W2       19834    TIP3     H1       HT       0.417000       1.00800           0
     59502 W2       19834    TIP3     H2       HT       0.417000       1.00800           0
     59503 W2       19835    TIP3     OH2      OT      -0.834000       15.9994           0
     59504 W2       19835    TIP3     H1       HT       0.417000       1.00800           0
     59505 W2       19835    TIP3     H2       HT       0.417000       1.00800           0
     59506 W2       19836    TIP3     OH2      OT      -0.834000       15.9994           0
     59507 W2       19836    TIP3     H1       HT       0.417000       1.00800           0
     59508 W2       19836    TIP3     H2       HT       0.417000       1.00800           0
     59509 W2       19837    TIP3     OH2      OT      -0.834000       15.9994           0
     59510 W2       19837    TIP3     H1       HT       0.417000       1.00800           0
     59511 W2       19837    TIP3     H2       HT       0.417000       1.00800           0
     59512 W2       19838    TIP3     OH2      OT      -0.834000       15.9994           0
     59513 W2       19838    TIP3     H1       HT       0.417000       1.00800           0
     59514 W2       19838    TIP3     H2       HT       0.417000       1.00800           0
     59515 W2       19839    TIP3     OH2      OT      -0.834000       15.9994           0
     59516 W2       19839    TIP3     H1       HT       0.417000       1.00800           0
     59517 W2       19839    TIP3     H2       HT       0.417000       1.00800           0
     59518 W2       19840    TIP3     OH2      OT      -0.834000       15.9994           0
     59519 W2       19840    TIP3     H1       HT       0.417000       1.00800           0
     59520 W2       19840    TIP3     H2       HT       0.417000       1.00800           0
     59521 W2       19841    TIP3     OH2      OT      -0.834000       15.9994           0
     59522 W2       19841    TIP3     H1       HT       0.417000       1.00800           0
     59523 W2       19841    TIP3     H2       HT       0.417000       1.00800           0
     59524 W2       19842    TIP3     OH2      OT      -0.834000       15.9994           0
     59525 W2       19842    TIP3     H1       HT       0.417000       1.00800           0
     59526 W2       19842    TIP3     H2       HT       0.417000       1.00800           0
     59527 W2       19843    TIP3     OH2      OT      -0.834000       15.9994           0
     59528 W2       19843    TIP3     H1       HT       0.417000       1.00800           0
     59529 W2       19843    TIP3     H2       HT       0.417000       1.00800           0
     59530 W2       19844    TIP3     OH2      OT      -0.834000       15.9994           0
     59531 W2       19844    TIP3     H1       HT       0.417000       1.00800           0
     59532 W2       19844    TIP3     H2       HT       0.417000       1.00800           0
     59533 W2       19845    TIP3     OH2      OT      -0.834000       15.9994           0
     59534 W2       19845    TIP3     H1       HT       0.417000       1.00800           0
     59535 W2       19845    TIP3     H2       HT       0.417000       1.00800           0
     59536 W2       19846    TIP3     OH2      OT      -0.834000       15.9994           0
     59537 W2       19846    TIP3     H1       HT       0.417000       1.00800           0
     59538 W2       19846    TIP3     H2       HT       0.417000       1.00800           0
     59539 W2       19847    TIP3     OH2      OT      -0.834000       15.9994           0
     59540 W2       19847    TIP3     H1       HT       0.417000       1.00800           0
     59541 W2       19847    TIP3     H2       HT       0.417000       1.00800           0
     59542 W2       19848    TIP3     OH2      OT      -0.834000       15.9994           0
     59543 W2       19848    TIP3     H1       HT       0.417000       1.00800           0
     59544 W2       19848    TIP3     H2       HT       0.417000       1.00800           0
     59545 W2       19849    TIP3     OH2      OT      -0.834000       15.9994           0
     59546 W2       19849    TIP3     H1       HT       0.417000       1.00800           0
     59547 W2       19849    TIP3     H2       HT       0.417000       1.00800           0
     59548 W2       19850    TIP3     OH2      OT      -0.834000       15.9994           0
     59549 W2       19850    TIP3     H1       HT       0.417000       1.00800           0
     59550 W2       19850    TIP3     H2       HT       0.417000       1.00800           0
     59551 W2       19851    TIP3     OH2      OT      -0.834000       15.9994           0
     59552 W2       19851    TIP3     H1       HT       0.417000       1.00800           0
     59553 W2       19851    TIP3     H2       HT       0.417000       1.00800           0
     59554 W2       19852    TIP3     OH2      OT      -0.834000       15.9994           0
     59555 W2       19852    TIP3     H1       HT       0.417000       1.00800           0
     59556 W2       19852    TIP3     H2       HT       0.417000       1.00800           0
     59557 W2       19853    TIP3     OH2      OT      -0.834000       15.9994           0
     59558 W2       19853    TIP3     H1       HT       0.417000       1.00800           0
     59559 W2       19853    TIP3     H2       HT       0.417000       1.00800           0
     59560 W2       19854    TIP3     OH2      OT      -0.834000       15.9994           0
     59561 W2       19854    TIP3     H1       HT       0.417000       1.00800           0
     59562 W2       19854    TIP3     H2       HT       0.417000       1.00800           0
     59563 W2       19855    TIP3     OH2      OT      -0.834000       15.9994           0
     59564 W2       19855    TIP3     H1       HT       0.417000       1.00800           0
     59565 W2       19855    TIP3     H2       HT       0.417000       1.00800           0
     59566 W2       19856    TIP3     OH2      OT      -0.834000       15.9994           0
     59567 W2       19856    TIP3     H1       HT       0.417000       1.00800           0
     59568 W2       19856    TIP3     H2       HT       0.417000       1.00800           0
     59569 W2       19857    TIP3     OH2      OT      -0.834000       15.9994           0
     59570 W2       19857    TIP3     H1       HT       0.417000       1.00800           0
     59571 W2       19857    TIP3     H2       HT       0.417000       1.00800           0
     59572 W2       19858    TIP3     OH2      OT      -0.834000       15.9994           0
     59573 W2       19858    TIP3     H1       HT       0.417000       1.00800           0
     59574 W2       19858    TIP3     H2       HT       0.417000       1.00800           0
     59575 W2       19859    TIP3     OH2      OT      -0.834000       15.9994           0
     59576 W2       19859    TIP3     H1       HT       0.417000       1.00800           0
     59577 W2       19859    TIP3     H2       HT       0.417000       1.00800           0
     59578 W2       19860    TIP3     OH2      OT      -0.834000       15.9994           0
     59579 W2       19860    TIP3     H1       HT       0.417000       1.00800           0
     59580 W2       19860    TIP3     H2       HT       0.417000       1.00800           0
     59581 W2       19861    TIP3     OH2      OT      -0.834000       15.9994           0
     59582 W2       19861    TIP3     H1       HT       0.417000       1.00800           0
     59583 W2       19861    TIP3     H2       HT       0.417000       1.00800           0
     59584 W2       19862    TIP3     OH2      OT      -0.834000       15.9994           0
     59585 W2       19862    TIP3     H1       HT       0.417000       1.00800           0
     59586 W2       19862    TIP3     H2       HT       0.417000       1.00800           0
     59587 W2       19863    TIP3     OH2      OT      -0.834000       15.9994           0
     59588 W2       19863    TIP3     H1       HT       0.417000       1.00800           0
     59589 W2       19863    TIP3     H2       HT       0.417000       1.00800           0
     59590 W2       19864    TIP3     OH2      OT      -0.834000       15.9994           0
     59591 W2       19864    TIP3     H1       HT       0.417000       1.00800           0
     59592 W2       19864    TIP3     H2       HT       0.417000       1.00800           0
     59593 W2       19865    TIP3     OH2      OT      -0.834000       15.9994           0
     59594 W2       19865    TIP3     H1       HT       0.417000       1.00800           0
     59595 W2       19865    TIP3     H2       HT       0.417000       1.00800           0
     59596 W2       19866    TIP3     OH2      OT      -0.834000       15.9994           0
     59597 W2       19866    TIP3     H1       HT       0.417000       1.00800           0
     59598 W2       19866    TIP3     H2       HT       0.417000       1.00800           0
     59599 W2       19867    TIP3     OH2      OT      -0.834000       15.9994           0
     59600 W2       19867    TIP3     H1       HT       0.417000       1.00800           0
     59601 W2       19867    TIP3     H2       HT       0.417000       1.00800           0
     59602 W2       19868    TIP3     OH2      OT      -0.834000       15.9994           0
     59603 W2       19868    TIP3     H1       HT       0.417000       1.00800           0
     59604 W2       19868    TIP3     H2       HT       0.417000       1.00800           0
     59605 W2       19869    TIP3     OH2      OT      -0.834000       15.9994           0
     59606 W2       19869    TIP3     H1       HT       0.417000       1.00800           0
     59607 W2       19869    TIP3     H2       HT       0.417000       1.00800           0
     59608 W2       19870    TIP3     OH2      OT      -0.834000       15.9994           0
     59609 W2       19870    TIP3     H1       HT       0.417000       1.00800           0
     59610 W2       19870    TIP3     H2       HT       0.417000       1.00800           0
     59611 W2       19871    TIP3     OH2      OT      -0.834000       15.9994           0
     59612 W2       19871    TIP3     H1       HT       0.417000       1.00800           0
     59613 W2       19871    TIP3     H2       HT       0.417000       1.00800           0
     59614 W2       19872    TIP3     OH2      OT      -0.834000       15.9994           0
     59615 W2       19872    TIP3     H1       HT       0.417000       1.00800           0
     59616 W2       19872    TIP3     H2       HT       0.417000       1.00800           0
     59617 W2       19873    TIP3     OH2      OT      -0.834000       15.9994           0
     59618 W2       19873    TIP3     H1       HT       0.417000       1.00800           0
     59619 W2       19873    TIP3     H2       HT       0.417000       1.00800           0
     59620 W2       19874    TIP3     OH2      OT      -0.834000       15.9994           0
     59621 W2       19874    TIP3     H1       HT       0.417000       1.00800           0
     59622 W2       19874    TIP3     H2       HT       0.417000       1.00800           0
     59623 W2       19875    TIP3     OH2      OT      -0.834000       15.9994           0
     59624 W2       19875    TIP3     H1       HT       0.417000       1.00800           0
     59625 W2       19875    TIP3     H2       HT       0.417000       1.00800           0
     59626 W2       19876    TIP3     OH2      OT      -0.834000       15.9994           0
     59627 W2       19876    TIP3     H1       HT       0.417000       1.00800           0
     59628 W2       19876    TIP3     H2       HT       0.417000       1.00800           0
     59629 W2       19877    TIP3     OH2      OT      -0.834000       15.9994           0
     59630 W2       19877    TIP3     H1       HT       0.417000       1.00800           0
     59631 W2       19877    TIP3     H2       HT       0.417000       1.00800           0
     59632 W2       19878    TIP3     OH2      OT      -0.834000       15.9994           0
     59633 W2       19878    TIP3     H1       HT       0.417000       1.00800           0
     59634 W2       19878    TIP3     H2       HT       0.417000       1.00800           0
     59635 W2       19879    TIP3     OH2      OT      -0.834000       15.9994           0
     59636 W2       19879    TIP3     H1       HT       0.417000       1.00800           0
     59637 W2       19879    TIP3     H2       HT       0.417000       1.00800           0
     59638 W2       19880    TIP3     OH2      OT      -0.834000       15.9994           0
     59639 W2       19880    TIP3     H1       HT       0.417000       1.00800           0
     59640 W2       19880    TIP3     H2       HT       0.417000       1.00800           0
     59641 W2       19881    TIP3     OH2      OT      -0.834000       15.9994           0
     59642 W2       19881    TIP3     H1       HT       0.417000       1.00800           0
     59643 W2       19881    TIP3     H2       HT       0.417000       1.00800           0
     59644 W2       19882    TIP3     OH2      OT      -0.834000       15.9994           0
     59645 W2       19882    TIP3     H1       HT       0.417000       1.00800           0
     59646 W2       19882    TIP3     H2       HT       0.417000       1.00800           0
     59647 W2       19883    TIP3     OH2      OT      -0.834000       15.9994           0
     59648 W2       19883    TIP3     H1       HT       0.417000       1.00800           0
     59649 W2       19883    TIP3     H2       HT       0.417000       1.00800           0
     59650 W2       19884    TIP3     OH2      OT      -0.834000       15.9994           0
     59651 W2       19884    TIP3     H1       HT       0.417000       1.00800           0
     59652 W2       19884    TIP3     H2       HT       0.417000       1.00800           0
     59653 W2       19885    TIP3     OH2      OT      -0.834000       15.9994           0
     59654 W2       19885    TIP3     H1       HT       0.417000       1.00800           0
     59655 W2       19885    TIP3     H2       HT       0.417000       1.00800           0
     59656 W2       19886    TIP3     OH2      OT      -0.834000       15.9994           0
     59657 W2       19886    TIP3     H1       HT       0.417000       1.00800           0
     59658 W2       19886    TIP3     H2       HT       0.417000       1.00800           0
     59659 W2       19887    TIP3     OH2      OT      -0.834000       15.9994           0
     59660 W2       19887    TIP3     H1       HT       0.417000       1.00800           0
     59661 W2       19887    TIP3     H2       HT       0.417000       1.00800           0
     59662 W2       19888    TIP3     OH2      OT      -0.834000       15.9994           0
     59663 W2       19888    TIP3     H1       HT       0.417000       1.00800           0
     59664 W2       19888    TIP3     H2       HT       0.417000       1.00800           0
     59665 W2       19889    TIP3     OH2      OT      -0.834000       15.9994           0
     59666 W2       19889    TIP3     H1       HT       0.417000       1.00800           0
     59667 W2       19889    TIP3     H2       HT       0.417000       1.00800           0
     59668 W2       19890    TIP3     OH2      OT      -0.834000       15.9994           0
     59669 W2       19890    TIP3     H1       HT       0.417000       1.00800           0
     59670 W2       19890    TIP3     H2       HT       0.417000       1.00800           0
     59671 W2       19891    TIP3     OH2      OT      -0.834000       15.9994           0
     59672 W2       19891    TIP3     H1       HT       0.417000       1.00800           0
     59673 W2       19891    TIP3     H2       HT       0.417000       1.00800           0
     59674 W2       19892    TIP3     OH2      OT      -0.834000       15.9994           0
     59675 W2       19892    TIP3     H1       HT       0.417000       1.00800           0
     59676 W2       19892    TIP3     H2       HT       0.417000       1.00800           0
     59677 W2       19893    TIP3     OH2      OT      -0.834000       15.9994           0
     59678 W2       19893    TIP3     H1       HT       0.417000       1.00800           0
     59679 W2       19893    TIP3     H2       HT       0.417000       1.00800           0
     59680 W2       19894    TIP3     OH2      OT      -0.834000       15.9994           0
     59681 W2       19894    TIP3     H1       HT       0.417000       1.00800           0
     59682 W2       19894    TIP3     H2       HT       0.417000       1.00800           0
     59683 W2       19895    TIP3     OH2      OT      -0.834000       15.9994           0
     59684 W2       19895    TIP3     H1       HT       0.417000       1.00800           0
     59685 W2       19895    TIP3     H2       HT       0.417000       1.00800           0
     59686 W2       19896    TIP3     OH2      OT      -0.834000       15.9994           0
     59687 W2       19896    TIP3     H1       HT       0.417000       1.00800           0
     59688 W2       19896    TIP3     H2       HT       0.417000       1.00800           0
     59689 W2       19897    TIP3     OH2      OT      -0.834000       15.9994           0
     59690 W2       19897    TIP3     H1       HT       0.417000       1.00800           0
     59691 W2       19897    TIP3     H2       HT       0.417000       1.00800           0
     59692 W2       19898    TIP3     OH2      OT      -0.834000       15.9994           0
     59693 W2       19898    TIP3     H1       HT       0.417000       1.00800           0
     59694 W2       19898    TIP3     H2       HT       0.417000       1.00800           0
     59695 W2       19899    TIP3     OH2      OT      -0.834000       15.9994           0
     59696 W2       19899    TIP3     H1       HT       0.417000       1.00800           0
     59697 W2       19899    TIP3     H2       HT       0.417000       1.00800           0
     59698 W2       19900    TIP3     OH2      OT      -0.834000       15.9994           0
     59699 W2       19900    TIP3     H1       HT       0.417000       1.00800           0
     59700 W2       19900    TIP3     H2       HT       0.417000       1.00800           0
     59701 W2       19901    TIP3     OH2      OT      -0.834000       15.9994           0
     59702 W2       19901    TIP3     H1       HT       0.417000       1.00800           0
     59703 W2       19901    TIP3     H2       HT       0.417000       1.00800           0
     59704 W2       19902    TIP3     OH2      OT      -0.834000       15.9994           0
     59705 W2       19902    TIP3     H1       HT       0.417000       1.00800           0
     59706 W2       19902    TIP3     H2       HT       0.417000       1.00800           0
     59707 W2       19903    TIP3     OH2      OT      -0.834000       15.9994           0
     59708 W2       19903    TIP3     H1       HT       0.417000       1.00800           0
     59709 W2       19903    TIP3     H2       HT       0.417000       1.00800           0
     59710 W2       19904    TIP3     OH2      OT      -0.834000       15.9994           0
     59711 W2       19904    TIP3     H1       HT       0.417000       1.00800           0
     59712 W2       19904    TIP3     H2       HT       0.417000       1.00800           0
     59713 W2       19905    TIP3     OH2      OT      -0.834000       15.9994           0
     59714 W2       19905    TIP3     H1       HT       0.417000       1.00800           0
     59715 W2       19905    TIP3     H2       HT       0.417000       1.00800           0
     59716 W2       19906    TIP3     OH2      OT      -0.834000       15.9994           0
     59717 W2       19906    TIP3     H1       HT       0.417000       1.00800           0
     59718 W2       19906    TIP3     H2       HT       0.417000       1.00800           0
     59719 W2       19907    TIP3     OH2      OT      -0.834000       15.9994           0
     59720 W2       19907    TIP3     H1       HT       0.417000       1.00800           0
     59721 W2       19907    TIP3     H2       HT       0.417000       1.00800           0
     59722 W2       19908    TIP3     OH2      OT      -0.834000       15.9994           0
     59723 W2       19908    TIP3     H1       HT       0.417000       1.00800           0
     59724 W2       19908    TIP3     H2       HT       0.417000       1.00800           0
     59725 W2       19909    TIP3     OH2      OT      -0.834000       15.9994           0
     59726 W2       19909    TIP3     H1       HT       0.417000       1.00800           0
     59727 W2       19909    TIP3     H2       HT       0.417000       1.00800           0
     59728 W2       19910    TIP3     OH2      OT      -0.834000       15.9994           0
     59729 W2       19910    TIP3     H1       HT       0.417000       1.00800           0
     59730 W2       19910    TIP3     H2       HT       0.417000       1.00800           0
     59731 W2       19911    TIP3     OH2      OT      -0.834000       15.9994           0
     59732 W2       19911    TIP3     H1       HT       0.417000       1.00800           0
     59733 W2       19911    TIP3     H2       HT       0.417000       1.00800           0
     59734 W2       19912    TIP3     OH2      OT      -0.834000       15.9994           0
     59735 W2       19912    TIP3     H1       HT       0.417000       1.00800           0
     59736 W2       19912    TIP3     H2       HT       0.417000       1.00800           0
     59737 W2       19913    TIP3     OH2      OT      -0.834000       15.9994           0
     59738 W2       19913    TIP3     H1       HT       0.417000       1.00800           0
     59739 W2       19913    TIP3     H2       HT       0.417000       1.00800           0
     59740 W2       19914    TIP3     OH2      OT      -0.834000       15.9994           0
     59741 W2       19914    TIP3     H1       HT       0.417000       1.00800           0
     59742 W2       19914    TIP3     H2       HT       0.417000       1.00800           0
     59743 W2       19915    TIP3     OH2      OT      -0.834000       15.9994           0
     59744 W2       19915    TIP3     H1       HT       0.417000       1.00800           0
     59745 W2       19915    TIP3     H2       HT       0.417000       1.00800           0
     59746 W2       19916    TIP3     OH2      OT      -0.834000       15.9994           0
     59747 W2       19916    TIP3     H1       HT       0.417000       1.00800           0
     59748 W2       19916    TIP3     H2       HT       0.417000       1.00800           0
     59749 W2       19917    TIP3     OH2      OT      -0.834000       15.9994           0
     59750 W2       19917    TIP3     H1       HT       0.417000       1.00800           0
     59751 W2       19917    TIP3     H2       HT       0.417000       1.00800           0
     59752 W2       19918    TIP3     OH2      OT      -0.834000       15.9994           0
     59753 W2       19918    TIP3     H1       HT       0.417000       1.00800           0
     59754 W2       19918    TIP3     H2       HT       0.417000       1.00800           0
     59755 W2       19919    TIP3     OH2      OT      -0.834000       15.9994           0
     59756 W2       19919    TIP3     H1       HT       0.417000       1.00800           0
     59757 W2       19919    TIP3     H2       HT       0.417000       1.00800           0
     59758 W2       19920    TIP3     OH2      OT      -0.834000       15.9994           0
     59759 W2       19920    TIP3     H1       HT       0.417000       1.00800           0
     59760 W2       19920    TIP3     H2       HT       0.417000       1.00800           0
     59761 W2       19921    TIP3     OH2      OT      -0.834000       15.9994           0
     59762 W2       19921    TIP3     H1       HT       0.417000       1.00800           0
     59763 W2       19921    TIP3     H2       HT       0.417000       1.00800           0
     59764 W2       19922    TIP3     OH2      OT      -0.834000       15.9994           0
     59765 W2       19922    TIP3     H1       HT       0.417000       1.00800           0
     59766 W2       19922    TIP3     H2       HT       0.417000       1.00800           0
     59767 W2       19923    TIP3     OH2      OT      -0.834000       15.9994           0
     59768 W2       19923    TIP3     H1       HT       0.417000       1.00800           0
     59769 W2       19923    TIP3     H2       HT       0.417000       1.00800           0
     59770 W2       19924    TIP3     OH2      OT      -0.834000       15.9994           0
     59771 W2       19924    TIP3     H1       HT       0.417000       1.00800           0
     59772 W2       19924    TIP3     H2       HT       0.417000       1.00800           0
     59773 W2       19925    TIP3     OH2      OT      -0.834000       15.9994           0
     59774 W2       19925    TIP3     H1       HT       0.417000       1.00800           0
     59775 W2       19925    TIP3     H2       HT       0.417000       1.00800           0
     59776 W2       19926    TIP3     OH2      OT      -0.834000       15.9994           0
     59777 W2       19926    TIP3     H1       HT       0.417000       1.00800           0
     59778 W2       19926    TIP3     H2       HT       0.417000       1.00800           0
     59779 W2       19927    TIP3     OH2      OT      -0.834000       15.9994           0
     59780 W2       19927    TIP3     H1       HT       0.417000       1.00800           0
     59781 W2       19927    TIP3     H2       HT       0.417000       1.00800           0
     59782 W2       19928    TIP3     OH2      OT      -0.834000       15.9994           0
     59783 W2       19928    TIP3     H1       HT       0.417000       1.00800           0
     59784 W2       19928    TIP3     H2       HT       0.417000       1.00800           0
     59785 W2       19929    TIP3     OH2      OT      -0.834000       15.9994           0
     59786 W2       19929    TIP3     H1       HT       0.417000       1.00800           0
     59787 W2       19929    TIP3     H2       HT       0.417000       1.00800           0
     59788 W2       19930    TIP3     OH2      OT      -0.834000       15.9994           0
     59789 W2       19930    TIP3     H1       HT       0.417000       1.00800           0
     59790 W2       19930    TIP3     H2       HT       0.417000       1.00800           0
     59791 W2       19931    TIP3     OH2      OT      -0.834000       15.9994           0
     59792 W2       19931    TIP3     H1       HT       0.417000       1.00800           0
     59793 W2       19931    TIP3     H2       HT       0.417000       1.00800           0
     59794 W2       19932    TIP3     OH2      OT      -0.834000       15.9994           0
     59795 W2       19932    TIP3     H1       HT       0.417000       1.00800           0
     59796 W2       19932    TIP3     H2       HT       0.417000       1.00800           0
     59797 W2       19933    TIP3     OH2      OT      -0.834000       15.9994           0
     59798 W2       19933    TIP3     H1       HT       0.417000       1.00800           0
     59799 W2       19933    TIP3     H2       HT       0.417000       1.00800           0
     59800 W2       19934    TIP3     OH2      OT      -0.834000       15.9994           0
     59801 W2       19934    TIP3     H1       HT       0.417000       1.00800           0
     59802 W2       19934    TIP3     H2       HT       0.417000       1.00800           0
     59803 W2       19935    TIP3     OH2      OT      -0.834000       15.9994           0
     59804 W2       19935    TIP3     H1       HT       0.417000       1.00800           0
     59805 W2       19935    TIP3     H2       HT       0.417000       1.00800           0
     59806 W2       19936    TIP3     OH2      OT      -0.834000       15.9994           0
     59807 W2       19936    TIP3     H1       HT       0.417000       1.00800           0
     59808 W2       19936    TIP3     H2       HT       0.417000       1.00800           0
     59809 W2       19937    TIP3     OH2      OT      -0.834000       15.9994           0
     59810 W2       19937    TIP3     H1       HT       0.417000       1.00800           0
     59811 W2       19937    TIP3     H2       HT       0.417000       1.00800           0
     59812 W2       19938    TIP3     OH2      OT      -0.834000       15.9994           0
     59813 W2       19938    TIP3     H1       HT       0.417000       1.00800           0
     59814 W2       19938    TIP3     H2       HT       0.417000       1.00800           0
     59815 W2       19939    TIP3     OH2      OT      -0.834000       15.9994           0
     59816 W2       19939    TIP3     H1       HT       0.417000       1.00800           0
     59817 W2       19939    TIP3     H2       HT       0.417000       1.00800           0
     59818 W2       19940    TIP3     OH2      OT      -0.834000       15.9994           0
     59819 W2       19940    TIP3     H1       HT       0.417000       1.00800           0
     59820 W2       19940    TIP3     H2       HT       0.417000       1.00800           0
     59821 W2       19941    TIP3     OH2      OT      -0.834000       15.9994           0
     59822 W2       19941    TIP3     H1       HT       0.417000       1.00800           0
     59823 W2       19941    TIP3     H2       HT       0.417000       1.00800           0
     59824 W2       19942    TIP3     OH2      OT      -0.834000       15.9994           0
     59825 W2       19942    TIP3     H1       HT       0.417000       1.00800           0
     59826 W2       19942    TIP3     H2       HT       0.417000       1.00800           0
     59827 W2       19943    TIP3     OH2      OT      -0.834000       15.9994           0
     59828 W2       19943    TIP3     H1       HT       0.417000       1.00800           0
     59829 W2       19943    TIP3     H2       HT       0.417000       1.00800           0
     59830 W2       19944    TIP3     OH2      OT      -0.834000       15.9994           0
     59831 W2       19944    TIP3     H1       HT       0.417000       1.00800           0
     59832 W2       19944    TIP3     H2       HT       0.417000       1.00800           0
     59833 W2       19945    TIP3     OH2      OT      -0.834000       15.9994           0
     59834 W2       19945    TIP3     H1       HT       0.417000       1.00800           0
     59835 W2       19945    TIP3     H2       HT       0.417000       1.00800           0
     59836 W2       19946    TIP3     OH2      OT      -0.834000       15.9994           0
     59837 W2       19946    TIP3     H1       HT       0.417000       1.00800           0
     59838 W2       19946    TIP3     H2       HT       0.417000       1.00800           0
     59839 W2       19947    TIP3     OH2      OT      -0.834000       15.9994           0
     59840 W2       19947    TIP3     H1       HT       0.417000       1.00800           0
     59841 W2       19947    TIP3     H2       HT       0.417000       1.00800           0
     59842 W2       19948    TIP3     OH2      OT      -0.834000       15.9994           0
     59843 W2       19948    TIP3     H1       HT       0.417000       1.00800           0
     59844 W2       19948    TIP3     H2       HT       0.417000       1.00800           0
     59845 W2       19949    TIP3     OH2      OT      -0.834000       15.9994           0
     59846 W2       19949    TIP3     H1       HT       0.417000       1.00800           0
     59847 W2       19949    TIP3     H2       HT       0.417000       1.00800           0
     59848 W2       19950    TIP3     OH2      OT      -0.834000       15.9994           0
     59849 W2       19950    TIP3     H1       HT       0.417000       1.00800           0
     59850 W2       19950    TIP3     H2       HT       0.417000       1.00800           0
     59851 W2       19951    TIP3     OH2      OT      -0.834000       15.9994           0
     59852 W2       19951    TIP3     H1       HT       0.417000       1.00800           0
     59853 W2       19951    TIP3     H2       HT       0.417000       1.00800           0
     59854 W2       19952    TIP3     OH2      OT      -0.834000       15.9994           0
     59855 W2       19952    TIP3     H1       HT       0.417000       1.00800           0
     59856 W2       19952    TIP3     H2       HT       0.417000       1.00800           0
     59857 W2       19953    TIP3     OH2      OT      -0.834000       15.9994           0
     59858 W2       19953    TIP3     H1       HT       0.417000       1.00800           0
     59859 W2       19953    TIP3     H2       HT       0.417000       1.00800           0
     59860 W2       19954    TIP3     OH2      OT      -0.834000       15.9994           0
     59861 W2       19954    TIP3     H1       HT       0.417000       1.00800           0
     59862 W2       19954    TIP3     H2       HT       0.417000       1.00800           0
     59863 W2       19955    TIP3     OH2      OT      -0.834000       15.9994           0
     59864 W2       19955    TIP3     H1       HT       0.417000       1.00800           0
     59865 W2       19955    TIP3     H2       HT       0.417000       1.00800           0
     59866 W2       19956    TIP3     OH2      OT      -0.834000       15.9994           0
     59867 W2       19956    TIP3     H1       HT       0.417000       1.00800           0
     59868 W2       19956    TIP3     H2       HT       0.417000       1.00800           0
     59869 W2       19957    TIP3     OH2      OT      -0.834000       15.9994           0
     59870 W2       19957    TIP3     H1       HT       0.417000       1.00800           0
     59871 W2       19957    TIP3     H2       HT       0.417000       1.00800           0
     59872 W2       19958    TIP3     OH2      OT      -0.834000       15.9994           0
     59873 W2       19958    TIP3     H1       HT       0.417000       1.00800           0
     59874 W2       19958    TIP3     H2       HT       0.417000       1.00800           0
     59875 W2       19959    TIP3     OH2      OT      -0.834000       15.9994           0
     59876 W2       19959    TIP3     H1       HT       0.417000       1.00800           0
     59877 W2       19959    TIP3     H2       HT       0.417000       1.00800           0
     59878 W2       19960    TIP3     OH2      OT      -0.834000       15.9994           0
     59879 W2       19960    TIP3     H1       HT       0.417000       1.00800           0
     59880 W2       19960    TIP3     H2       HT       0.417000       1.00800           0
     59881 W2       19961    TIP3     OH2      OT      -0.834000       15.9994           0
     59882 W2       19961    TIP3     H1       HT       0.417000       1.00800           0
     59883 W2       19961    TIP3     H2       HT       0.417000       1.00800           0
     59884 W2       19962    TIP3     OH2      OT      -0.834000       15.9994           0
     59885 W2       19962    TIP3     H1       HT       0.417000       1.00800           0
     59886 W2       19962    TIP3     H2       HT       0.417000       1.00800           0
     59887 W2       19963    TIP3     OH2      OT      -0.834000       15.9994           0
     59888 W2       19963    TIP3     H1       HT       0.417000       1.00800           0
     59889 W2       19963    TIP3     H2       HT       0.417000       1.00800           0
     59890 W2       19964    TIP3     OH2      OT      -0.834000       15.9994           0
     59891 W2       19964    TIP3     H1       HT       0.417000       1.00800           0
     59892 W2       19964    TIP3     H2       HT       0.417000       1.00800           0
     59893 W2       19965    TIP3     OH2      OT      -0.834000       15.9994           0
     59894 W2       19965    TIP3     H1       HT       0.417000       1.00800           0
     59895 W2       19965    TIP3     H2       HT       0.417000       1.00800           0
     59896 W2       19966    TIP3     OH2      OT      -0.834000       15.9994           0
     59897 W2       19966    TIP3     H1       HT       0.417000       1.00800           0
     59898 W2       19966    TIP3     H2       HT       0.417000       1.00800           0
     59899 W2       19967    TIP3     OH2      OT      -0.834000       15.9994           0
     59900 W2       19967    TIP3     H1       HT       0.417000       1.00800           0
     59901 W2       19967    TIP3     H2       HT       0.417000       1.00800           0
     59902 W2       19968    TIP3     OH2      OT      -0.834000       15.9994           0
     59903 W2       19968    TIP3     H1       HT       0.417000       1.00800           0
     59904 W2       19968    TIP3     H2       HT       0.417000       1.00800           0
     59905 W2       19969    TIP3     OH2      OT      -0.834000       15.9994           0
     59906 W2       19969    TIP3     H1       HT       0.417000       1.00800           0
     59907 W2       19969    TIP3     H2       HT       0.417000       1.00800           0
     59908 W2       19970    TIP3     OH2      OT      -0.834000       15.9994           0
     59909 W2       19970    TIP3     H1       HT       0.417000       1.00800           0
     59910 W2       19970    TIP3     H2       HT       0.417000       1.00800           0
     59911 W2       19971    TIP3     OH2      OT      -0.834000       15.9994           0
     59912 W2       19971    TIP3     H1       HT       0.417000       1.00800           0
     59913 W2       19971    TIP3     H2       HT       0.417000       1.00800           0
     59914 W2       19972    TIP3     OH2      OT      -0.834000       15.9994           0
     59915 W2       19972    TIP3     H1       HT       0.417000       1.00800           0
     59916 W2       19972    TIP3     H2       HT       0.417000       1.00800           0
     59917 W2       19973    TIP3     OH2      OT      -0.834000       15.9994           0
     59918 W2       19973    TIP3     H1       HT       0.417000       1.00800           0
     59919 W2       19973    TIP3     H2       HT       0.417000       1.00800           0
     59920 W2       19974    TIP3     OH2      OT      -0.834000       15.9994           0
     59921 W2       19974    TIP3     H1       HT       0.417000       1.00800           0
     59922 W2       19974    TIP3     H2       HT       0.417000       1.00800           0
     59923 W2       19975    TIP3     OH2      OT      -0.834000       15.9994           0
     59924 W2       19975    TIP3     H1       HT       0.417000       1.00800           0
     59925 W2       19975    TIP3     H2       HT       0.417000       1.00800           0
     59926 W2       19976    TIP3     OH2      OT      -0.834000       15.9994           0
     59927 W2       19976    TIP3     H1       HT       0.417000       1.00800           0
     59928 W2       19976    TIP3     H2       HT       0.417000       1.00800           0
     59929 W2       19977    TIP3     OH2      OT      -0.834000       15.9994           0
     59930 W2       19977    TIP3     H1       HT       0.417000       1.00800           0
     59931 W2       19977    TIP3     H2       HT       0.417000       1.00800           0
     59932 W2       19978    TIP3     OH2      OT      -0.834000       15.9994           0
     59933 W2       19978    TIP3     H1       HT       0.417000       1.00800           0
     59934 W2       19978    TIP3     H2       HT       0.417000       1.00800           0
     59935 W2       19979    TIP3     OH2      OT      -0.834000       15.9994           0
     59936 W2       19979    TIP3     H1       HT       0.417000       1.00800           0
     59937 W2       19979    TIP3     H2       HT       0.417000       1.00800           0
     59938 W2       19980    TIP3     OH2      OT      -0.834000       15.9994           0
     59939 W2       19980    TIP3     H1       HT       0.417000       1.00800           0
     59940 W2       19980    TIP3     H2       HT       0.417000       1.00800           0
     59941 W2       19981    TIP3     OH2      OT      -0.834000       15.9994           0
     59942 W2       19981    TIP3     H1       HT       0.417000       1.00800           0
     59943 W2       19981    TIP3     H2       HT       0.417000       1.00800           0
     59944 W2       19982    TIP3     OH2      OT      -0.834000       15.9994           0
     59945 W2       19982    TIP3     H1       HT       0.417000       1.00800           0
     59946 W2       19982    TIP3     H2       HT       0.417000       1.00800           0
     59947 W2       19983    TIP3     OH2      OT      -0.834000       15.9994           0
     59948 W2       19983    TIP3     H1       HT       0.417000       1.00800           0
     59949 W2       19983    TIP3     H2       HT       0.417000       1.00800           0
     59950 W2       19984    TIP3     OH2      OT      -0.834000       15.9994           0
     59951 W2       19984    TIP3     H1       HT       0.417000       1.00800           0
     59952 W2       19984    TIP3     H2       HT       0.417000       1.00800           0
     59953 W2       19985    TIP3     OH2      OT      -0.834000       15.9994           0
     59954 W2       19985    TIP3     H1       HT       0.417000       1.00800           0
     59955 W2       19985    TIP3     H2       HT       0.417000       1.00800           0
     59956 W2       19986    TIP3     OH2      OT      -0.834000       15.9994           0
     59957 W2       19986    TIP3     H1       HT       0.417000       1.00800           0
     59958 W2       19986    TIP3     H2       HT       0.417000       1.00800           0
     59959 W2       19987    TIP3     OH2      OT      -0.834000       15.9994           0
     59960 W2       19987    TIP3     H1       HT       0.417000       1.00800           0
     59961 W2       19987    TIP3     H2       HT       0.417000       1.00800           0
     59962 W2       19988    TIP3     OH2      OT      -0.834000       15.9994           0
     59963 W2       19988    TIP3     H1       HT       0.417000       1.00800           0
     59964 W2       19988    TIP3     H2       HT       0.417000       1.00800           0
     59965 W2       19989    TIP3     OH2      OT      -0.834000       15.9994           0
     59966 W2       19989    TIP3     H1       HT       0.417000       1.00800           0
     59967 W2       19989    TIP3     H2       HT       0.417000       1.00800           0
     59968 W2       19990    TIP3     OH2      OT      -0.834000       15.9994           0
     59969 W2       19990    TIP3     H1       HT       0.417000       1.00800           0
     59970 W2       19990    TIP3     H2       HT       0.417000       1.00800           0
     59971 W2       19991    TIP3     OH2      OT      -0.834000       15.9994           0
     59972 W2       19991    TIP3     H1       HT       0.417000       1.00800           0
     59973 W2       19991    TIP3     H2       HT       0.417000       1.00800           0
     59974 W2       19992    TIP3     OH2      OT      -0.834000       15.9994           0
     59975 W2       19992    TIP3     H1       HT       0.417000       1.00800           0
     59976 W2       19992    TIP3     H2       HT       0.417000       1.00800           0
     59977 W2       19993    TIP3     OH2      OT      -0.834000       15.9994           0
     59978 W2       19993    TIP3     H1       HT       0.417000       1.00800           0
     59979 W2       19993    TIP3     H2       HT       0.417000       1.00800           0
     59980 W2       19994    TIP3     OH2      OT      -0.834000       15.9994           0
     59981 W2       19994    TIP3     H1       HT       0.417000       1.00800           0
     59982 W2       19994    TIP3     H2       HT       0.417000       1.00800           0
     59983 W2       19995    TIP3     OH2      OT      -0.834000       15.9994           0
     59984 W2       19995    TIP3     H1       HT       0.417000       1.00800           0
     59985 W2       19995    TIP3     H2       HT       0.417000       1.00800           0
     59986 W2       19996    TIP3     OH2      OT      -0.834000       15.9994           0
     59987 W2       19996    TIP3     H1       HT       0.417000       1.00800           0
     59988 W2       19996    TIP3     H2       HT       0.417000       1.00800           0
     59989 W2       19997    TIP3     OH2      OT      -0.834000       15.9994           0
     59990 W2       19997    TIP3     H1       HT       0.417000       1.00800           0
     59991 W2       19997    TIP3     H2       HT       0.417000       1.00800           0
     59992 W2       19998    TIP3     OH2      OT      -0.834000       15.9994           0
     59993 W2       19998    TIP3     H1       HT       0.417000       1.00800           0
     59994 W2       19998    TIP3     H2       HT       0.417000       1.00800           0
     59995 W2       19999    TIP3     OH2      OT      -0.834000       15.9994           0
     59996 W2       19999    TIP3     H1       HT       0.417000       1.00800           0
     59997 W2       19999    TIP3     H2       HT       0.417000       1.00800           0
     59998 W2       20000    TIP3     OH2      OT      -0.834000       15.9994           0
     59999 W2       20000    TIP3     H1       HT       0.417000       1.00800           0
     60000 W2       20000    TIP3     H2       HT       0.417000       1.00800           0
     60001 W2       20001    TIP3     OH2      OT      -0.834000       15.9994           0
     60002 W2       20001    TIP3     H1       HT       0.417000       1.00800           0
     60003 W2       20001    TIP3     H2       HT       0.417000       1.00800           0
     60004 W2       20002    TIP3     OH2      OT      -0.834000       15.9994           0
     60005 W2       20002    TIP3     H1       HT       0.417000       1.00800           0
     60006 W2       20002    TIP3     H2       HT       0.417000       1.00800           0
     60007 W2       20003    TIP3     OH2      OT      -0.834000       15.9994           0
     60008 W2       20003    TIP3     H1       HT       0.417000       1.00800           0
     60009 W2       20003    TIP3     H2       HT       0.417000       1.00800           0
     60010 W2       20004    TIP3     OH2      OT      -0.834000       15.9994           0
     60011 W2       20004    TIP3     H1       HT       0.417000       1.00800           0
     60012 W2       20004    TIP3     H2       HT       0.417000       1.00800           0
     60013 W2       20005    TIP3     OH2      OT      -0.834000       15.9994           0
     60014 W2       20005    TIP3     H1       HT       0.417000       1.00800           0
     60015 W2       20005    TIP3     H2       HT       0.417000       1.00800           0
     60016 W2       20006    TIP3     OH2      OT      -0.834000       15.9994           0
     60017 W2       20006    TIP3     H1       HT       0.417000       1.00800           0
     60018 W2       20006    TIP3     H2       HT       0.417000       1.00800           0
     60019 W2       20007    TIP3     OH2      OT      -0.834000       15.9994           0
     60020 W2       20007    TIP3     H1       HT       0.417000       1.00800           0
     60021 W2       20007    TIP3     H2       HT       0.417000       1.00800           0
     60022 W2       20008    TIP3     OH2      OT      -0.834000       15.9994           0
     60023 W2       20008    TIP3     H1       HT       0.417000       1.00800           0
     60024 W2       20008    TIP3     H2       HT       0.417000       1.00800           0
     60025 W2       20009    TIP3     OH2      OT      -0.834000       15.9994           0
     60026 W2       20009    TIP3     H1       HT       0.417000       1.00800           0
     60027 W2       20009    TIP3     H2       HT       0.417000       1.00800           0
     60028 W2       20010    TIP3     OH2      OT      -0.834000       15.9994           0
     60029 W2       20010    TIP3     H1       HT       0.417000       1.00800           0
     60030 W2       20010    TIP3     H2       HT       0.417000       1.00800           0
     60031 W2       20011    TIP3     OH2      OT      -0.834000       15.9994           0
     60032 W2       20011    TIP3     H1       HT       0.417000       1.00800           0
     60033 W2       20011    TIP3     H2       HT       0.417000       1.00800           0
     60034 W2       20012    TIP3     OH2      OT      -0.834000       15.9994           0
     60035 W2       20012    TIP3     H1       HT       0.417000       1.00800           0
     60036 W2       20012    TIP3     H2       HT       0.417000       1.00800           0
     60037 W2       20013    TIP3     OH2      OT      -0.834000       15.9994           0
     60038 W2       20013    TIP3     H1       HT       0.417000       1.00800           0
     60039 W2       20013    TIP3     H2       HT       0.417000       1.00800           0
     60040 W2       20014    TIP3     OH2      OT      -0.834000       15.9994           0
     60041 W2       20014    TIP3     H1       HT       0.417000       1.00800           0
     60042 W2       20014    TIP3     H2       HT       0.417000       1.00800           0
     60043 W2       20015    TIP3     OH2      OT      -0.834000       15.9994           0
     60044 W2       20015    TIP3     H1       HT       0.417000       1.00800           0
     60045 W2       20015    TIP3     H2       HT       0.417000       1.00800           0
     60046 W2       20016    TIP3     OH2      OT      -0.834000       15.9994           0
     60047 W2       20016    TIP3     H1       HT       0.417000       1.00800           0
     60048 W2       20016    TIP3     H2       HT       0.417000       1.00800           0
     60049 W2       20017    TIP3     OH2      OT      -0.834000       15.9994           0
     60050 W2       20017    TIP3     H1       HT       0.417000       1.00800           0
     60051 W2       20017    TIP3     H2       HT       0.417000       1.00800           0
     60052 W2       20018    TIP3     OH2      OT      -0.834000       15.9994           0
     60053 W2       20018    TIP3     H1       HT       0.417000       1.00800           0
     60054 W2       20018    TIP3     H2       HT       0.417000       1.00800           0
     60055 W2       20019    TIP3     OH2      OT      -0.834000       15.9994           0
     60056 W2       20019    TIP3     H1       HT       0.417000       1.00800           0
     60057 W2       20019    TIP3     H2       HT       0.417000       1.00800           0
     60058 W2       20020    TIP3     OH2      OT      -0.834000       15.9994           0
     60059 W2       20020    TIP3     H1       HT       0.417000       1.00800           0
     60060 W2       20020    TIP3     H2       HT       0.417000       1.00800           0
     60061 W2       20021    TIP3     OH2      OT      -0.834000       15.9994           0
     60062 W2       20021    TIP3     H1       HT       0.417000       1.00800           0
     60063 W2       20021    TIP3     H2       HT       0.417000       1.00800           0
     60064 W2       20022    TIP3     OH2      OT      -0.834000       15.9994           0
     60065 W2       20022    TIP3     H1       HT       0.417000       1.00800           0
     60066 W2       20022    TIP3     H2       HT       0.417000       1.00800           0
     60067 W2       20023    TIP3     OH2      OT      -0.834000       15.9994           0
     60068 W2       20023    TIP3     H1       HT       0.417000       1.00800           0
     60069 W2       20023    TIP3     H2       HT       0.417000       1.00800           0
     60070 W2       20024    TIP3     OH2      OT      -0.834000       15.9994           0
     60071 W2       20024    TIP3     H1       HT       0.417000       1.00800           0
     60072 W2       20024    TIP3     H2       HT       0.417000       1.00800           0
     60073 W2       20025    TIP3     OH2      OT      -0.834000       15.9994           0
     60074 W2       20025    TIP3     H1       HT       0.417000       1.00800           0
     60075 W2       20025    TIP3     H2       HT       0.417000       1.00800           0
     60076 W2       20026    TIP3     OH2      OT      -0.834000       15.9994           0
     60077 W2       20026    TIP3     H1       HT       0.417000       1.00800           0
     60078 W2       20026    TIP3     H2       HT       0.417000       1.00800           0
     60079 W2       20027    TIP3     OH2      OT      -0.834000       15.9994           0
     60080 W2       20027    TIP3     H1       HT       0.417000       1.00800           0
     60081 W2       20027    TIP3     H2       HT       0.417000       1.00800           0
     60082 W2       20028    TIP3     OH2      OT      -0.834000       15.9994           0
     60083 W2       20028    TIP3     H1       HT       0.417000       1.00800           0
     60084 W2       20028    TIP3     H2       HT       0.417000       1.00800           0
     60085 W2       20029    TIP3     OH2      OT      -0.834000       15.9994           0
     60086 W2       20029    TIP3     H1       HT       0.417000       1.00800           0
     60087 W2       20029    TIP3     H2       HT       0.417000       1.00800           0
     60088 W2       20030    TIP3     OH2      OT      -0.834000       15.9994           0
     60089 W2       20030    TIP3     H1       HT       0.417000       1.00800           0
     60090 W2       20030    TIP3     H2       HT       0.417000       1.00800           0
     60091 W2       20031    TIP3     OH2      OT      -0.834000       15.9994           0
     60092 W2       20031    TIP3     H1       HT       0.417000       1.00800           0
     60093 W2       20031    TIP3     H2       HT       0.417000       1.00800           0
     60094 W2       20032    TIP3     OH2      OT      -0.834000       15.9994           0
     60095 W2       20032    TIP3     H1       HT       0.417000       1.00800           0
     60096 W2       20032    TIP3     H2       HT       0.417000       1.00800           0
     60097 W2       20033    TIP3     OH2      OT      -0.834000       15.9994           0
     60098 W2       20033    TIP3     H1       HT       0.417000       1.00800           0
     60099 W2       20033    TIP3     H2       HT       0.417000       1.00800           0
     60100 W2       20034    TIP3     OH2      OT      -0.834000       15.9994           0
     60101 W2       20034    TIP3     H1       HT       0.417000       1.00800           0
     60102 W2       20034    TIP3     H2       HT       0.417000       1.00800           0
     60103 W2       20035    TIP3     OH2      OT      -0.834000       15.9994           0
     60104 W2       20035    TIP3     H1       HT       0.417000       1.00800           0
     60105 W2       20035    TIP3     H2       HT       0.417000       1.00800           0
     60106 W2       20036    TIP3     OH2      OT      -0.834000       15.9994           0
     60107 W2       20036    TIP3     H1       HT       0.417000       1.00800           0
     60108 W2       20036    TIP3     H2       HT       0.417000       1.00800           0
     60109 W2       20037    TIP3     OH2      OT      -0.834000       15.9994           0
     60110 W2       20037    TIP3     H1       HT       0.417000       1.00800           0
     60111 W2       20037    TIP3     H2       HT       0.417000       1.00800           0
     60112 W2       20038    TIP3     OH2      OT      -0.834000       15.9994           0
     60113 W2       20038    TIP3     H1       HT       0.417000       1.00800           0
     60114 W2       20038    TIP3     H2       HT       0.417000       1.00800           0
     60115 W2       20039    TIP3     OH2      OT      -0.834000       15.9994           0
     60116 W2       20039    TIP3     H1       HT       0.417000       1.00800           0
     60117 W2       20039    TIP3     H2       HT       0.417000       1.00800           0
     60118 W2       20040    TIP3     OH2      OT      -0.834000       15.9994           0
     60119 W2       20040    TIP3     H1       HT       0.417000       1.00800           0
     60120 W2       20040    TIP3     H2       HT       0.417000       1.00800           0
     60121 W2       20041    TIP3     OH2      OT      -0.834000       15.9994           0
     60122 W2       20041    TIP3     H1       HT       0.417000       1.00800           0
     60123 W2       20041    TIP3     H2       HT       0.417000       1.00800           0
     60124 W2       20042    TIP3     OH2      OT      -0.834000       15.9994           0
     60125 W2       20042    TIP3     H1       HT       0.417000       1.00800           0
     60126 W2       20042    TIP3     H2       HT       0.417000       1.00800           0
     60127 W2       20043    TIP3     OH2      OT      -0.834000       15.9994           0
     60128 W2       20043    TIP3     H1       HT       0.417000       1.00800           0
     60129 W2       20043    TIP3     H2       HT       0.417000       1.00800           0
     60130 W2       20044    TIP3     OH2      OT      -0.834000       15.9994           0
     60131 W2       20044    TIP3     H1       HT       0.417000       1.00800           0
     60132 W2       20044    TIP3     H2       HT       0.417000       1.00800           0
     60133 W2       20045    TIP3     OH2      OT      -0.834000       15.9994           0
     60134 W2       20045    TIP3     H1       HT       0.417000       1.00800           0
     60135 W2       20045    TIP3     H2       HT       0.417000       1.00800           0
     60136 W2       20046    TIP3     OH2      OT      -0.834000       15.9994           0
     60137 W2       20046    TIP3     H1       HT       0.417000       1.00800           0
     60138 W2       20046    TIP3     H2       HT       0.417000       1.00800           0
     60139 W2       20047    TIP3     OH2      OT      -0.834000       15.9994           0
     60140 W2       20047    TIP3     H1       HT       0.417000       1.00800           0
     60141 W2       20047    TIP3     H2       HT       0.417000       1.00800           0
     60142 W2       20048    TIP3     OH2      OT      -0.834000       15.9994           0
     60143 W2       20048    TIP3     H1       HT       0.417000       1.00800           0
     60144 W2       20048    TIP3     H2       HT       0.417000       1.00800           0
     60145 W2       20049    TIP3     OH2      OT      -0.834000       15.9994           0
     60146 W2       20049    TIP3     H1       HT       0.417000       1.00800           0
     60147 W2       20049    TIP3     H2       HT       0.417000       1.00800           0
     60148 W2       20050    TIP3     OH2      OT      -0.834000       15.9994           0
     60149 W2       20050    TIP3     H1       HT       0.417000       1.00800           0
     60150 W2       20050    TIP3     H2       HT       0.417000       1.00800           0
     60151 W2       20051    TIP3     OH2      OT      -0.834000       15.9994           0
     60152 W2       20051    TIP3     H1       HT       0.417000       1.00800           0
     60153 W2       20051    TIP3     H2       HT       0.417000       1.00800           0
     60154 W2       20052    TIP3     OH2      OT      -0.834000       15.9994           0
     60155 W2       20052    TIP3     H1       HT       0.417000       1.00800           0
     60156 W2       20052    TIP3     H2       HT       0.417000       1.00800           0
     60157 W2       20053    TIP3     OH2      OT      -0.834000       15.9994           0
     60158 W2       20053    TIP3     H1       HT       0.417000       1.00800           0
     60159 W2       20053    TIP3     H2       HT       0.417000       1.00800           0
     60160 W2       20054    TIP3     OH2      OT      -0.834000       15.9994           0
     60161 W2       20054    TIP3     H1       HT       0.417000       1.00800           0
     60162 W2       20054    TIP3     H2       HT       0.417000       1.00800           0
     60163 W2       20055    TIP3     OH2      OT      -0.834000       15.9994           0
     60164 W2       20055    TIP3     H1       HT       0.417000       1.00800           0
     60165 W2       20055    TIP3     H2       HT       0.417000       1.00800           0
     60166 W2       20056    TIP3     OH2      OT      -0.834000       15.9994           0
     60167 W2       20056    TIP3     H1       HT       0.417000       1.00800           0
     60168 W2       20056    TIP3     H2       HT       0.417000       1.00800           0
     60169 W2       20057    TIP3     OH2      OT      -0.834000       15.9994           0
     60170 W2       20057    TIP3     H1       HT       0.417000       1.00800           0
     60171 W2       20057    TIP3     H2       HT       0.417000       1.00800           0
     60172 W2       20058    TIP3     OH2      OT      -0.834000       15.9994           0
     60173 W2       20058    TIP3     H1       HT       0.417000       1.00800           0
     60174 W2       20058    TIP3     H2       HT       0.417000       1.00800           0
     60175 W2       20059    TIP3     OH2      OT      -0.834000       15.9994           0
     60176 W2       20059    TIP3     H1       HT       0.417000       1.00800           0
     60177 W2       20059    TIP3     H2       HT       0.417000       1.00800           0
     60178 W2       20060    TIP3     OH2      OT      -0.834000       15.9994           0
     60179 W2       20060    TIP3     H1       HT       0.417000       1.00800           0
     60180 W2       20060    TIP3     H2       HT       0.417000       1.00800           0
     60181 W2       20061    TIP3     OH2      OT      -0.834000       15.9994           0
     60182 W2       20061    TIP3     H1       HT       0.417000       1.00800           0
     60183 W2       20061    TIP3     H2       HT       0.417000       1.00800           0
     60184 W2       20062    TIP3     OH2      OT      -0.834000       15.9994           0
     60185 W2       20062    TIP3     H1       HT       0.417000       1.00800           0
     60186 W2       20062    TIP3     H2       HT       0.417000       1.00800           0
     60187 W2       20063    TIP3     OH2      OT      -0.834000       15.9994           0
     60188 W2       20063    TIP3     H1       HT       0.417000       1.00800           0
     60189 W2       20063    TIP3     H2       HT       0.417000       1.00800           0
     60190 W2       20064    TIP3     OH2      OT      -0.834000       15.9994           0
     60191 W2       20064    TIP3     H1       HT       0.417000       1.00800           0
     60192 W2       20064    TIP3     H2       HT       0.417000       1.00800           0
     60193 W2       20065    TIP3     OH2      OT      -0.834000       15.9994           0
     60194 W2       20065    TIP3     H1       HT       0.417000       1.00800           0
     60195 W2       20065    TIP3     H2       HT       0.417000       1.00800           0
     60196 W2       20066    TIP3     OH2      OT      -0.834000       15.9994           0
     60197 W2       20066    TIP3     H1       HT       0.417000       1.00800           0
     60198 W2       20066    TIP3     H2       HT       0.417000       1.00800           0
     60199 W2       20067    TIP3     OH2      OT      -0.834000       15.9994           0
     60200 W2       20067    TIP3     H1       HT       0.417000       1.00800           0
     60201 W2       20067    TIP3     H2       HT       0.417000       1.00800           0
     60202 W2       20068    TIP3     OH2      OT      -0.834000       15.9994           0
     60203 W2       20068    TIP3     H1       HT       0.417000       1.00800           0
     60204 W2       20068    TIP3     H2       HT       0.417000       1.00800           0
     60205 W2       20069    TIP3     OH2      OT      -0.834000       15.9994           0
     60206 W2       20069    TIP3     H1       HT       0.417000       1.00800           0
     60207 W2       20069    TIP3     H2       HT       0.417000       1.00800           0
     60208 W2       20070    TIP3     OH2      OT      -0.834000       15.9994           0
     60209 W2       20070    TIP3     H1       HT       0.417000       1.00800           0
     60210 W2       20070    TIP3     H2       HT       0.417000       1.00800           0
     60211 W2       20071    TIP3     OH2      OT      -0.834000       15.9994           0
     60212 W2       20071    TIP3     H1       HT       0.417000       1.00800           0
     60213 W2       20071    TIP3     H2       HT       0.417000       1.00800           0
     60214 W2       20072    TIP3     OH2      OT      -0.834000       15.9994           0
     60215 W2       20072    TIP3     H1       HT       0.417000       1.00800           0
     60216 W2       20072    TIP3     H2       HT       0.417000       1.00800           0
     60217 W2       20073    TIP3     OH2      OT      -0.834000       15.9994           0
     60218 W2       20073    TIP3     H1       HT       0.417000       1.00800           0
     60219 W2       20073    TIP3     H2       HT       0.417000       1.00800           0
     60220 W2       20074    TIP3     OH2      OT      -0.834000       15.9994           0
     60221 W2       20074    TIP3     H1       HT       0.417000       1.00800           0
     60222 W2       20074    TIP3     H2       HT       0.417000       1.00800           0
     60223 W2       20075    TIP3     OH2      OT      -0.834000       15.9994           0
     60224 W2       20075    TIP3     H1       HT       0.417000       1.00800           0
     60225 W2       20075    TIP3     H2       HT       0.417000       1.00800           0
     60226 W2       20076    TIP3     OH2      OT      -0.834000       15.9994           0
     60227 W2       20076    TIP3     H1       HT       0.417000       1.00800           0
     60228 W2       20076    TIP3     H2       HT       0.417000       1.00800           0
     60229 W2       20077    TIP3     OH2      OT      -0.834000       15.9994           0
     60230 W2       20077    TIP3     H1       HT       0.417000       1.00800           0
     60231 W2       20077    TIP3     H2       HT       0.417000       1.00800           0
     60232 W2       20078    TIP3     OH2      OT      -0.834000       15.9994           0
     60233 W2       20078    TIP3     H1       HT       0.417000       1.00800           0
     60234 W2       20078    TIP3     H2       HT       0.417000       1.00800           0
     60235 W2       20079    TIP3     OH2      OT      -0.834000       15.9994           0
     60236 W2       20079    TIP3     H1       HT       0.417000       1.00800           0
     60237 W2       20079    TIP3     H2       HT       0.417000       1.00800           0
     60238 W2       20080    TIP3     OH2      OT      -0.834000       15.9994           0
     60239 W2       20080    TIP3     H1       HT       0.417000       1.00800           0
     60240 W2       20080    TIP3     H2       HT       0.417000       1.00800           0
     60241 W2       20081    TIP3     OH2      OT      -0.834000       15.9994           0
     60242 W2       20081    TIP3     H1       HT       0.417000       1.00800           0
     60243 W2       20081    TIP3     H2       HT       0.417000       1.00800           0
     60244 W2       20082    TIP3     OH2      OT      -0.834000       15.9994           0
     60245 W2       20082    TIP3     H1       HT       0.417000       1.00800           0
     60246 W2       20082    TIP3     H2       HT       0.417000       1.00800           0
     60247 W2       20083    TIP3     OH2      OT      -0.834000       15.9994           0
     60248 W2       20083    TIP3     H1       HT       0.417000       1.00800           0
     60249 W2       20083    TIP3     H2       HT       0.417000       1.00800           0
     60250 W2       20084    TIP3     OH2      OT      -0.834000       15.9994           0
     60251 W2       20084    TIP3     H1       HT       0.417000       1.00800           0
     60252 W2       20084    TIP3     H2       HT       0.417000       1.00800           0
     60253 W2       20085    TIP3     OH2      OT      -0.834000       15.9994           0
     60254 W2       20085    TIP3     H1       HT       0.417000       1.00800           0
     60255 W2       20085    TIP3     H2       HT       0.417000       1.00800           0
     60256 W2       20086    TIP3     OH2      OT      -0.834000       15.9994           0
     60257 W2       20086    TIP3     H1       HT       0.417000       1.00800           0
     60258 W2       20086    TIP3     H2       HT       0.417000       1.00800           0
     60259 W2       20087    TIP3     OH2      OT      -0.834000       15.9994           0
     60260 W2       20087    TIP3     H1       HT       0.417000       1.00800           0
     60261 W2       20087    TIP3     H2       HT       0.417000       1.00800           0
     60262 W2       20088    TIP3     OH2      OT      -0.834000       15.9994           0
     60263 W2       20088    TIP3     H1       HT       0.417000       1.00800           0
     60264 W2       20088    TIP3     H2       HT       0.417000       1.00800           0
     60265 W2       20089    TIP3     OH2      OT      -0.834000       15.9994           0
     60266 W2       20089    TIP3     H1       HT       0.417000       1.00800           0
     60267 W2       20089    TIP3     H2       HT       0.417000       1.00800           0
     60268 W2       20090    TIP3     OH2      OT      -0.834000       15.9994           0
     60269 W2       20090    TIP3     H1       HT       0.417000       1.00800           0
     60270 W2       20090    TIP3     H2       HT       0.417000       1.00800           0
     60271 W2       20091    TIP3     OH2      OT      -0.834000       15.9994           0
     60272 W2       20091    TIP3     H1       HT       0.417000       1.00800           0
     60273 W2       20091    TIP3     H2       HT       0.417000       1.00800           0
     60274 W2       20092    TIP3     OH2      OT      -0.834000       15.9994           0
     60275 W2       20092    TIP3     H1       HT       0.417000       1.00800           0
     60276 W2       20092    TIP3     H2       HT       0.417000       1.00800           0
     60277 W2       20093    TIP3     OH2      OT      -0.834000       15.9994           0
     60278 W2       20093    TIP3     H1       HT       0.417000       1.00800           0
     60279 W2       20093    TIP3     H2       HT       0.417000       1.00800           0
     60280 W2       20094    TIP3     OH2      OT      -0.834000       15.9994           0
     60281 W2       20094    TIP3     H1       HT       0.417000       1.00800           0
     60282 W2       20094    TIP3     H2       HT       0.417000       1.00800           0
     60283 W2       20095    TIP3     OH2      OT      -0.834000       15.9994           0
     60284 W2       20095    TIP3     H1       HT       0.417000       1.00800           0
     60285 W2       20095    TIP3     H2       HT       0.417000       1.00800           0
     60286 W2       20096    TIP3     OH2      OT      -0.834000       15.9994           0
     60287 W2       20096    TIP3     H1       HT       0.417000       1.00800           0
     60288 W2       20096    TIP3     H2       HT       0.417000       1.00800           0
     60289 W2       20097    TIP3     OH2      OT      -0.834000       15.9994           0
     60290 W2       20097    TIP3     H1       HT       0.417000       1.00800           0
     60291 W2       20097    TIP3     H2       HT       0.417000       1.00800           0
     60292 W2       20098    TIP3     OH2      OT      -0.834000       15.9994           0
     60293 W2       20098    TIP3     H1       HT       0.417000       1.00800           0
     60294 W2       20098    TIP3     H2       HT       0.417000       1.00800           0
     60295 W2       20099    TIP3     OH2      OT      -0.834000       15.9994           0
     60296 W2       20099    TIP3     H1       HT       0.417000       1.00800           0
     60297 W2       20099    TIP3     H2       HT       0.417000       1.00800           0
     60298 W2       20100    TIP3     OH2      OT      -0.834000       15.9994           0
     60299 W2       20100    TIP3     H1       HT       0.417000       1.00800           0
     60300 W2       20100    TIP3     H2       HT       0.417000       1.00800           0
     60301 W2       20101    TIP3     OH2      OT      -0.834000       15.9994           0
     60302 W2       20101    TIP3     H1       HT       0.417000       1.00800           0
     60303 W2       20101    TIP3     H2       HT       0.417000       1.00800           0
     60304 W2       20102    TIP3     OH2      OT      -0.834000       15.9994           0
     60305 W2       20102    TIP3     H1       HT       0.417000       1.00800           0
     60306 W2       20102    TIP3     H2       HT       0.417000       1.00800           0
     60307 W2       20103    TIP3     OH2      OT      -0.834000       15.9994           0
     60308 W2       20103    TIP3     H1       HT       0.417000       1.00800           0
     60309 W2       20103    TIP3     H2       HT       0.417000       1.00800           0
     60310 W2       20104    TIP3     OH2      OT      -0.834000       15.9994           0
     60311 W2       20104    TIP3     H1       HT       0.417000       1.00800           0
     60312 W2       20104    TIP3     H2       HT       0.417000       1.00800           0
     60313 W2       20105    TIP3     OH2      OT      -0.834000       15.9994           0
     60314 W2       20105    TIP3     H1       HT       0.417000       1.00800           0
     60315 W2       20105    TIP3     H2       HT       0.417000       1.00800           0
     60316 W2       20106    TIP3     OH2      OT      -0.834000       15.9994           0
     60317 W2       20106    TIP3     H1       HT       0.417000       1.00800           0
     60318 W2       20106    TIP3     H2       HT       0.417000       1.00800           0
     60319 W2       20107    TIP3     OH2      OT      -0.834000       15.9994           0
     60320 W2       20107    TIP3     H1       HT       0.417000       1.00800           0
     60321 W2       20107    TIP3     H2       HT       0.417000       1.00800           0
     60322 W2       20108    TIP3     OH2      OT      -0.834000       15.9994           0
     60323 W2       20108    TIP3     H1       HT       0.417000       1.00800           0
     60324 W2       20108    TIP3     H2       HT       0.417000       1.00800           0
     60325 W2       20109    TIP3     OH2      OT      -0.834000       15.9994           0
     60326 W2       20109    TIP3     H1       HT       0.417000       1.00800           0
     60327 W2       20109    TIP3     H2       HT       0.417000       1.00800           0
     60328 W2       20110    TIP3     OH2      OT      -0.834000       15.9994           0
     60329 W2       20110    TIP3     H1       HT       0.417000       1.00800           0
     60330 W2       20110    TIP3     H2       HT       0.417000       1.00800           0
     60331 W2       20111    TIP3     OH2      OT      -0.834000       15.9994           0
     60332 W2       20111    TIP3     H1       HT       0.417000       1.00800           0
     60333 W2       20111    TIP3     H2       HT       0.417000       1.00800           0
     60334 W2       20112    TIP3     OH2      OT      -0.834000       15.9994           0
     60335 W2       20112    TIP3     H1       HT       0.417000       1.00800           0
     60336 W2       20112    TIP3     H2       HT       0.417000       1.00800           0
     60337 W2       20113    TIP3     OH2      OT      -0.834000       15.9994           0
     60338 W2       20113    TIP3     H1       HT       0.417000       1.00800           0
     60339 W2       20113    TIP3     H2       HT       0.417000       1.00800           0
     60340 W2       20114    TIP3     OH2      OT      -0.834000       15.9994           0
     60341 W2       20114    TIP3     H1       HT       0.417000       1.00800           0
     60342 W2       20114    TIP3     H2       HT       0.417000       1.00800           0
     60343 W2       20115    TIP3     OH2      OT      -0.834000       15.9994           0
     60344 W2       20115    TIP3     H1       HT       0.417000       1.00800           0
     60345 W2       20115    TIP3     H2       HT       0.417000       1.00800           0
     60346 W2       20116    TIP3     OH2      OT      -0.834000       15.9994           0
     60347 W2       20116    TIP3     H1       HT       0.417000       1.00800           0
     60348 W2       20116    TIP3     H2       HT       0.417000       1.00800           0
     60349 W2       20117    TIP3     OH2      OT      -0.834000       15.9994           0
     60350 W2       20117    TIP3     H1       HT       0.417000       1.00800           0
     60351 W2       20117    TIP3     H2       HT       0.417000       1.00800           0
     60352 W2       20118    TIP3     OH2      OT      -0.834000       15.9994           0
     60353 W2       20118    TIP3     H1       HT       0.417000       1.00800           0
     60354 W2       20118    TIP3     H2       HT       0.417000       1.00800           0
     60355 W2       20119    TIP3     OH2      OT      -0.834000       15.9994           0
     60356 W2       20119    TIP3     H1       HT       0.417000       1.00800           0
     60357 W2       20119    TIP3     H2       HT       0.417000       1.00800           0
     60358 W2       20120    TIP3     OH2      OT      -0.834000       15.9994           0
     60359 W2       20120    TIP3     H1       HT       0.417000       1.00800           0
     60360 W2       20120    TIP3     H2       HT       0.417000       1.00800           0
     60361 W2       20121    TIP3     OH2      OT      -0.834000       15.9994           0
     60362 W2       20121    TIP3     H1       HT       0.417000       1.00800           0
     60363 W2       20121    TIP3     H2       HT       0.417000       1.00800           0
     60364 W2       20122    TIP3     OH2      OT      -0.834000       15.9994           0
     60365 W2       20122    TIP3     H1       HT       0.417000       1.00800           0
     60366 W2       20122    TIP3     H2       HT       0.417000       1.00800           0
     60367 W2       20123    TIP3     OH2      OT      -0.834000       15.9994           0
     60368 W2       20123    TIP3     H1       HT       0.417000       1.00800           0
     60369 W2       20123    TIP3     H2       HT       0.417000       1.00800           0
     60370 W2       20124    TIP3     OH2      OT      -0.834000       15.9994           0
     60371 W2       20124    TIP3     H1       HT       0.417000       1.00800           0
     60372 W2       20124    TIP3     H2       HT       0.417000       1.00800           0
     60373 W2       20125    TIP3     OH2      OT      -0.834000       15.9994           0
     60374 W2       20125    TIP3     H1       HT       0.417000       1.00800           0
     60375 W2       20125    TIP3     H2       HT       0.417000       1.00800           0
     60376 W2       20126    TIP3     OH2      OT      -0.834000       15.9994           0
     60377 W2       20126    TIP3     H1       HT       0.417000       1.00800           0
     60378 W2       20126    TIP3     H2       HT       0.417000       1.00800           0
     60379 W2       20127    TIP3     OH2      OT      -0.834000       15.9994           0
     60380 W2       20127    TIP3     H1       HT       0.417000       1.00800           0
     60381 W2       20127    TIP3     H2       HT       0.417000       1.00800           0
     60382 W2       20128    TIP3     OH2      OT      -0.834000       15.9994           0
     60383 W2       20128    TIP3     H1       HT       0.417000       1.00800           0
     60384 W2       20128    TIP3     H2       HT       0.417000       1.00800           0
     60385 W2       20129    TIP3     OH2      OT      -0.834000       15.9994           0
     60386 W2       20129    TIP3     H1       HT       0.417000       1.00800           0
     60387 W2       20129    TIP3     H2       HT       0.417000       1.00800           0
     60388 W2       20130    TIP3     OH2      OT      -0.834000       15.9994           0
     60389 W2       20130    TIP3     H1       HT       0.417000       1.00800           0
     60390 W2       20130    TIP3     H2       HT       0.417000       1.00800           0
     60391 W2       20131    TIP3     OH2      OT      -0.834000       15.9994           0
     60392 W2       20131    TIP3     H1       HT       0.417000       1.00800           0
     60393 W2       20131    TIP3     H2       HT       0.417000       1.00800           0
     60394 W2       20132    TIP3     OH2      OT      -0.834000       15.9994           0
     60395 W2       20132    TIP3     H1       HT       0.417000       1.00800           0
     60396 W2       20132    TIP3     H2       HT       0.417000       1.00800           0
     60397 W2       20133    TIP3     OH2      OT      -0.834000       15.9994           0
     60398 W2       20133    TIP3     H1       HT       0.417000       1.00800           0
     60399 W2       20133    TIP3     H2       HT       0.417000       1.00800           0
     60400 W2       20134    TIP3     OH2      OT      -0.834000       15.9994           0
     60401 W2       20134    TIP3     H1       HT       0.417000       1.00800           0
     60402 W2       20134    TIP3     H2       HT       0.417000       1.00800           0
     60403 W2       20135    TIP3     OH2      OT      -0.834000       15.9994           0
     60404 W2       20135    TIP3     H1       HT       0.417000       1.00800           0
     60405 W2       20135    TIP3     H2       HT       0.417000       1.00800           0
     60406 W2       20136    TIP3     OH2      OT      -0.834000       15.9994           0
     60407 W2       20136    TIP3     H1       HT       0.417000       1.00800           0
     60408 W2       20136    TIP3     H2       HT       0.417000       1.00800           0
     60409 W2       20137    TIP3     OH2      OT      -0.834000       15.9994           0
     60410 W2       20137    TIP3     H1       HT       0.417000       1.00800           0
     60411 W2       20137    TIP3     H2       HT       0.417000       1.00800           0
     60412 W2       20138    TIP3     OH2      OT      -0.834000       15.9994           0
     60413 W2       20138    TIP3     H1       HT       0.417000       1.00800           0
     60414 W2       20138    TIP3     H2       HT       0.417000       1.00800           0
     60415 W2       20139    TIP3     OH2      OT      -0.834000       15.9994           0
     60416 W2       20139    TIP3     H1       HT       0.417000       1.00800           0
     60417 W2       20139    TIP3     H2       HT       0.417000       1.00800           0
     60418 W2       20140    TIP3     OH2      OT      -0.834000       15.9994           0
     60419 W2       20140    TIP3     H1       HT       0.417000       1.00800           0
     60420 W2       20140    TIP3     H2       HT       0.417000       1.00800           0
     60421 W2       20141    TIP3     OH2      OT      -0.834000       15.9994           0
     60422 W2       20141    TIP3     H1       HT       0.417000       1.00800           0
     60423 W2       20141    TIP3     H2       HT       0.417000       1.00800           0
     60424 W2       20142    TIP3     OH2      OT      -0.834000       15.9994           0
     60425 W2       20142    TIP3     H1       HT       0.417000       1.00800           0
     60426 W2       20142    TIP3     H2       HT       0.417000       1.00800           0
     60427 W2       20143    TIP3     OH2      OT      -0.834000       15.9994           0
     60428 W2       20143    TIP3     H1       HT       0.417000       1.00800           0
     60429 W2       20143    TIP3     H2       HT       0.417000       1.00800           0
     60430 W2       20144    TIP3     OH2      OT      -0.834000       15.9994           0
     60431 W2       20144    TIP3     H1       HT       0.417000       1.00800           0
     60432 W2       20144    TIP3     H2       HT       0.417000       1.00800           0
     60433 W2       20145    TIP3     OH2      OT      -0.834000       15.9994           0
     60434 W2       20145    TIP3     H1       HT       0.417000       1.00800           0
     60435 W2       20145    TIP3     H2       HT       0.417000       1.00800           0
     60436 W2       20146    TIP3     OH2      OT      -0.834000       15.9994           0
     60437 W2       20146    TIP3     H1       HT       0.417000       1.00800           0
     60438 W2       20146    TIP3     H2       HT       0.417000       1.00800           0
     60439 W2       20147    TIP3     OH2      OT      -0.834000       15.9994           0
     60440 W2       20147    TIP3     H1       HT       0.417000       1.00800           0
     60441 W2       20147    TIP3     H2       HT       0.417000       1.00800           0
     60442 W2       20148    TIP3     OH2      OT      -0.834000       15.9994           0
     60443 W2       20148    TIP3     H1       HT       0.417000       1.00800           0
     60444 W2       20148    TIP3     H2       HT       0.417000       1.00800           0
     60445 W2       20149    TIP3     OH2      OT      -0.834000       15.9994           0
     60446 W2       20149    TIP3     H1       HT       0.417000       1.00800           0
     60447 W2       20149    TIP3     H2       HT       0.417000       1.00800           0
     60448 W2       20150    TIP3     OH2      OT      -0.834000       15.9994           0
     60449 W2       20150    TIP3     H1       HT       0.417000       1.00800           0
     60450 W2       20150    TIP3     H2       HT       0.417000       1.00800           0
     60451 W2       20151    TIP3     OH2      OT      -0.834000       15.9994           0
     60452 W2       20151    TIP3     H1       HT       0.417000       1.00800           0
     60453 W2       20151    TIP3     H2       HT       0.417000       1.00800           0
     60454 W2       20152    TIP3     OH2      OT      -0.834000       15.9994           0
     60455 W2       20152    TIP3     H1       HT       0.417000       1.00800           0
     60456 W2       20152    TIP3     H2       HT       0.417000       1.00800           0
     60457 W2       20153    TIP3     OH2      OT      -0.834000       15.9994           0
     60458 W2       20153    TIP3     H1       HT       0.417000       1.00800           0
     60459 W2       20153    TIP3     H2       HT       0.417000       1.00800           0
     60460 W2       20154    TIP3     OH2      OT      -0.834000       15.9994           0
     60461 W2       20154    TIP3     H1       HT       0.417000       1.00800           0
     60462 W2       20154    TIP3     H2       HT       0.417000       1.00800           0
     60463 W2       20155    TIP3     OH2      OT      -0.834000       15.9994           0
     60464 W2       20155    TIP3     H1       HT       0.417000       1.00800           0
     60465 W2       20155    TIP3     H2       HT       0.417000       1.00800           0
     60466 W2       20156    TIP3     OH2      OT      -0.834000       15.9994           0
     60467 W2       20156    TIP3     H1       HT       0.417000       1.00800           0
     60468 W2       20156    TIP3     H2       HT       0.417000       1.00800           0
     60469 W2       20157    TIP3     OH2      OT      -0.834000       15.9994           0
     60470 W2       20157    TIP3     H1       HT       0.417000       1.00800           0
     60471 W2       20157    TIP3     H2       HT       0.417000       1.00800           0
     60472 W2       20158    TIP3     OH2      OT      -0.834000       15.9994           0
     60473 W2       20158    TIP3     H1       HT       0.417000       1.00800           0
     60474 W2       20158    TIP3     H2       HT       0.417000       1.00800           0
     60475 W2       20159    TIP3     OH2      OT      -0.834000       15.9994           0
     60476 W2       20159    TIP3     H1       HT       0.417000       1.00800           0
     60477 W2       20159    TIP3     H2       HT       0.417000       1.00800           0
     60478 W2       20160    TIP3     OH2      OT      -0.834000       15.9994           0
     60479 W2       20160    TIP3     H1       HT       0.417000       1.00800           0
     60480 W2       20160    TIP3     H2       HT       0.417000       1.00800           0
     60481 W2       20161    TIP3     OH2      OT      -0.834000       15.9994           0
     60482 W2       20161    TIP3     H1       HT       0.417000       1.00800           0
     60483 W2       20161    TIP3     H2       HT       0.417000       1.00800           0
     60484 W2       20162    TIP3     OH2      OT      -0.834000       15.9994           0
     60485 W2       20162    TIP3     H1       HT       0.417000       1.00800           0
     60486 W2       20162    TIP3     H2       HT       0.417000       1.00800           0
     60487 W2       20163    TIP3     OH2      OT      -0.834000       15.9994           0
     60488 W2       20163    TIP3     H1       HT       0.417000       1.00800           0
     60489 W2       20163    TIP3     H2       HT       0.417000       1.00800           0
     60490 W2       20164    TIP3     OH2      OT      -0.834000       15.9994           0
     60491 W2       20164    TIP3     H1       HT       0.417000       1.00800           0
     60492 W2       20164    TIP3     H2       HT       0.417000       1.00800           0
     60493 W2       20165    TIP3     OH2      OT      -0.834000       15.9994           0
     60494 W2       20165    TIP3     H1       HT       0.417000       1.00800           0
     60495 W2       20165    TIP3     H2       HT       0.417000       1.00800           0
     60496 W2       20166    TIP3     OH2      OT      -0.834000       15.9994           0
     60497 W2       20166    TIP3     H1       HT       0.417000       1.00800           0
     60498 W2       20166    TIP3     H2       HT       0.417000       1.00800           0
     60499 W2       20167    TIP3     OH2      OT      -0.834000       15.9994           0
     60500 W2       20167    TIP3     H1       HT       0.417000       1.00800           0
     60501 W2       20167    TIP3     H2       HT       0.417000       1.00800           0
     60502 W2       20168    TIP3     OH2      OT      -0.834000       15.9994           0
     60503 W2       20168    TIP3     H1       HT       0.417000       1.00800           0
     60504 W2       20168    TIP3     H2       HT       0.417000       1.00800           0
     60505 W2       20169    TIP3     OH2      OT      -0.834000       15.9994           0
     60506 W2       20169    TIP3     H1       HT       0.417000       1.00800           0
     60507 W2       20169    TIP3     H2       HT       0.417000       1.00800           0
     60508 W2       20170    TIP3     OH2      OT      -0.834000       15.9994           0
     60509 W2       20170    TIP3     H1       HT       0.417000       1.00800           0
     60510 W2       20170    TIP3     H2       HT       0.417000       1.00800           0
     60511 W2       20171    TIP3     OH2      OT      -0.834000       15.9994           0
     60512 W2       20171    TIP3     H1       HT       0.417000       1.00800           0
     60513 W2       20171    TIP3     H2       HT       0.417000       1.00800           0
     60514 W2       20172    TIP3     OH2      OT      -0.834000       15.9994           0
     60515 W2       20172    TIP3     H1       HT       0.417000       1.00800           0
     60516 W2       20172    TIP3     H2       HT       0.417000       1.00800           0
     60517 W2       20173    TIP3     OH2      OT      -0.834000       15.9994           0
     60518 W2       20173    TIP3     H1       HT       0.417000       1.00800           0
     60519 W2       20173    TIP3     H2       HT       0.417000       1.00800           0
     60520 W2       20174    TIP3     OH2      OT      -0.834000       15.9994           0
     60521 W2       20174    TIP3     H1       HT       0.417000       1.00800           0
     60522 W2       20174    TIP3     H2       HT       0.417000       1.00800           0
     60523 W2       20175    TIP3     OH2      OT      -0.834000       15.9994           0
     60524 W2       20175    TIP3     H1       HT       0.417000       1.00800           0
     60525 W2       20175    TIP3     H2       HT       0.417000       1.00800           0
     60526 W2       20176    TIP3     OH2      OT      -0.834000       15.9994           0
     60527 W2       20176    TIP3     H1       HT       0.417000       1.00800           0
     60528 W2       20176    TIP3     H2       HT       0.417000       1.00800           0
     60529 W2       20177    TIP3     OH2      OT      -0.834000       15.9994           0
     60530 W2       20177    TIP3     H1       HT       0.417000       1.00800           0
     60531 W2       20177    TIP3     H2       HT       0.417000       1.00800           0
     60532 W2       20178    TIP3     OH2      OT      -0.834000       15.9994           0
     60533 W2       20178    TIP3     H1       HT       0.417000       1.00800           0
     60534 W2       20178    TIP3     H2       HT       0.417000       1.00800           0
     60535 W2       20179    TIP3     OH2      OT      -0.834000       15.9994           0
     60536 W2       20179    TIP3     H1       HT       0.417000       1.00800           0
     60537 W2       20179    TIP3     H2       HT       0.417000       1.00800           0
     60538 W2       20180    TIP3     OH2      OT      -0.834000       15.9994           0
     60539 W2       20180    TIP3     H1       HT       0.417000       1.00800           0
     60540 W2       20180    TIP3     H2       HT       0.417000       1.00800           0
     60541 W2       20181    TIP3     OH2      OT      -0.834000       15.9994           0
     60542 W2       20181    TIP3     H1       HT       0.417000       1.00800           0
     60543 W2       20181    TIP3     H2       HT       0.417000       1.00800           0
     60544 W2       20182    TIP3     OH2      OT      -0.834000       15.9994           0
     60545 W2       20182    TIP3     H1       HT       0.417000       1.00800           0
     60546 W2       20182    TIP3     H2       HT       0.417000       1.00800           0
     60547 W2       20183    TIP3     OH2      OT      -0.834000       15.9994           0
     60548 W2       20183    TIP3     H1       HT       0.417000       1.00800           0
     60549 W2       20183    TIP3     H2       HT       0.417000       1.00800           0
     60550 W2       20184    TIP3     OH2      OT      -0.834000       15.9994           0
     60551 W2       20184    TIP3     H1       HT       0.417000       1.00800           0
     60552 W2       20184    TIP3     H2       HT       0.417000       1.00800           0
     60553 W2       20185    TIP3     OH2      OT      -0.834000       15.9994           0
     60554 W2       20185    TIP3     H1       HT       0.417000       1.00800           0
     60555 W2       20185    TIP3     H2       HT       0.417000       1.00800           0
     60556 W2       20186    TIP3     OH2      OT      -0.834000       15.9994           0
     60557 W2       20186    TIP3     H1       HT       0.417000       1.00800           0
     60558 W2       20186    TIP3     H2       HT       0.417000       1.00800           0
     60559 W2       20187    TIP3     OH2      OT      -0.834000       15.9994           0
     60560 W2       20187    TIP3     H1       HT       0.417000       1.00800           0
     60561 W2       20187    TIP3     H2       HT       0.417000       1.00800           0
     60562 W2       20188    TIP3     OH2      OT      -0.834000       15.9994           0
     60563 W2       20188    TIP3     H1       HT       0.417000       1.00800           0
     60564 W2       20188    TIP3     H2       HT       0.417000       1.00800           0
     60565 W2       20189    TIP3     OH2      OT      -0.834000       15.9994           0
     60566 W2       20189    TIP3     H1       HT       0.417000       1.00800           0
     60567 W2       20189    TIP3     H2       HT       0.417000       1.00800           0
     60568 W2       20190    TIP3     OH2      OT      -0.834000       15.9994           0
     60569 W2       20190    TIP3     H1       HT       0.417000       1.00800           0
     60570 W2       20190    TIP3     H2       HT       0.417000       1.00800           0
     60571 W2       20191    TIP3     OH2      OT      -0.834000       15.9994           0
     60572 W2       20191    TIP3     H1       HT       0.417000       1.00800           0
     60573 W2       20191    TIP3     H2       HT       0.417000       1.00800           0
     60574 W2       20192    TIP3     OH2      OT      -0.834000       15.9994           0
     60575 W2       20192    TIP3     H1       HT       0.417000       1.00800           0
     60576 W2       20192    TIP3     H2       HT       0.417000       1.00800           0
     60577 W2       20193    TIP3     OH2      OT      -0.834000       15.9994           0
     60578 W2       20193    TIP3     H1       HT       0.417000       1.00800           0
     60579 W2       20193    TIP3     H2       HT       0.417000       1.00800           0
     60580 W2       20194    TIP3     OH2      OT      -0.834000       15.9994           0
     60581 W2       20194    TIP3     H1       HT       0.417000       1.00800           0
     60582 W2       20194    TIP3     H2       HT       0.417000       1.00800           0
     60583 W2       20195    TIP3     OH2      OT      -0.834000       15.9994           0
     60584 W2       20195    TIP3     H1       HT       0.417000       1.00800           0
     60585 W2       20195    TIP3     H2       HT       0.417000       1.00800           0
     60586 W2       20196    TIP3     OH2      OT      -0.834000       15.9994           0
     60587 W2       20196    TIP3     H1       HT       0.417000       1.00800           0
     60588 W2       20196    TIP3     H2       HT       0.417000       1.00800           0
     60589 W2       20197    TIP3     OH2      OT      -0.834000       15.9994           0
     60590 W2       20197    TIP3     H1       HT       0.417000       1.00800           0
     60591 W2       20197    TIP3     H2       HT       0.417000       1.00800           0
     60592 W2       20198    TIP3     OH2      OT      -0.834000       15.9994           0
     60593 W2       20198    TIP3     H1       HT       0.417000       1.00800           0
     60594 W2       20198    TIP3     H2       HT       0.417000       1.00800           0
     60595 W2       20199    TIP3     OH2      OT      -0.834000       15.9994           0
     60596 W2       20199    TIP3     H1       HT       0.417000       1.00800           0
     60597 W2       20199    TIP3     H2       HT       0.417000       1.00800           0
     60598 W2       20200    TIP3     OH2      OT      -0.834000       15.9994           0
     60599 W2       20200    TIP3     H1       HT       0.417000       1.00800           0
     60600 W2       20200    TIP3     H2       HT       0.417000       1.00800           0
     60601 W2       20201    TIP3     OH2      OT      -0.834000       15.9994           0
     60602 W2       20201    TIP3     H1       HT       0.417000       1.00800           0
     60603 W2       20201    TIP3     H2       HT       0.417000       1.00800           0
     60604 W2       20202    TIP3     OH2      OT      -0.834000       15.9994           0
     60605 W2       20202    TIP3     H1       HT       0.417000       1.00800           0
     60606 W2       20202    TIP3     H2       HT       0.417000       1.00800           0
     60607 W2       20203    TIP3     OH2      OT      -0.834000       15.9994           0
     60608 W2       20203    TIP3     H1       HT       0.417000       1.00800           0
     60609 W2       20203    TIP3     H2       HT       0.417000       1.00800           0
     60610 W2       20204    TIP3     OH2      OT      -0.834000       15.9994           0
     60611 W2       20204    TIP3     H1       HT       0.417000       1.00800           0
     60612 W2       20204    TIP3     H2       HT       0.417000       1.00800           0
     60613 W2       20205    TIP3     OH2      OT      -0.834000       15.9994           0
     60614 W2       20205    TIP3     H1       HT       0.417000       1.00800           0
     60615 W2       20205    TIP3     H2       HT       0.417000       1.00800           0
     60616 W2       20206    TIP3     OH2      OT      -0.834000       15.9994           0
     60617 W2       20206    TIP3     H1       HT       0.417000       1.00800           0
     60618 W2       20206    TIP3     H2       HT       0.417000       1.00800           0
     60619 W2       20207    TIP3     OH2      OT      -0.834000       15.9994           0
     60620 W2       20207    TIP3     H1       HT       0.417000       1.00800           0
     60621 W2       20207    TIP3     H2       HT       0.417000       1.00800           0
     60622 W2       20208    TIP3     OH2      OT      -0.834000       15.9994           0
     60623 W2       20208    TIP3     H1       HT       0.417000       1.00800           0
     60624 W2       20208    TIP3     H2       HT       0.417000       1.00800           0
     60625 W2       20209    TIP3     OH2      OT      -0.834000       15.9994           0
     60626 W2       20209    TIP3     H1       HT       0.417000       1.00800           0
     60627 W2       20209    TIP3     H2       HT       0.417000       1.00800           0
     60628 W2       20210    TIP3     OH2      OT      -0.834000       15.9994           0
     60629 W2       20210    TIP3     H1       HT       0.417000       1.00800           0
     60630 W2       20210    TIP3     H2       HT       0.417000       1.00800           0
     60631 W2       20211    TIP3     OH2      OT      -0.834000       15.9994           0
     60632 W2       20211    TIP3     H1       HT       0.417000       1.00800           0
     60633 W2       20211    TIP3     H2       HT       0.417000       1.00800           0
     60634 W2       20212    TIP3     OH2      OT      -0.834000       15.9994           0
     60635 W2       20212    TIP3     H1       HT       0.417000       1.00800           0
     60636 W2       20212    TIP3     H2       HT       0.417000       1.00800           0
     60637 W2       20213    TIP3     OH2      OT      -0.834000       15.9994           0
     60638 W2       20213    TIP3     H1       HT       0.417000       1.00800           0
     60639 W2       20213    TIP3     H2       HT       0.417000       1.00800           0
     60640 W2       20214    TIP3     OH2      OT      -0.834000       15.9994           0
     60641 W2       20214    TIP3     H1       HT       0.417000       1.00800           0
     60642 W2       20214    TIP3     H2       HT       0.417000       1.00800           0
     60643 W2       20215    TIP3     OH2      OT      -0.834000       15.9994           0
     60644 W2       20215    TIP3     H1       HT       0.417000       1.00800           0
     60645 W2       20215    TIP3     H2       HT       0.417000       1.00800           0
     60646 W2       20216    TIP3     OH2      OT      -0.834000       15.9994           0
     60647 W2       20216    TIP3     H1       HT       0.417000       1.00800           0
     60648 W2       20216    TIP3     H2       HT       0.417000       1.00800           0
     60649 W2       20217    TIP3     OH2      OT      -0.834000       15.9994           0
     60650 W2       20217    TIP3     H1       HT       0.417000       1.00800           0
     60651 W2       20217    TIP3     H2       HT       0.417000       1.00800           0
     60652 W2       20218    TIP3     OH2      OT      -0.834000       15.9994           0
     60653 W2       20218    TIP3     H1       HT       0.417000       1.00800           0
     60654 W2       20218    TIP3     H2       HT       0.417000       1.00800           0
     60655 W2       20219    TIP3     OH2      OT      -0.834000       15.9994           0
     60656 W2       20219    TIP3     H1       HT       0.417000       1.00800           0
     60657 W2       20219    TIP3     H2       HT       0.417000       1.00800           0
     60658 W2       20220    TIP3     OH2      OT      -0.834000       15.9994           0
     60659 W2       20220    TIP3     H1       HT       0.417000       1.00800           0
     60660 W2       20220    TIP3     H2       HT       0.417000       1.00800           0
     60661 W2       20221    TIP3     OH2      OT      -0.834000       15.9994           0
     60662 W2       20221    TIP3     H1       HT       0.417000       1.00800           0
     60663 W2       20221    TIP3     H2       HT       0.417000       1.00800           0
     60664 W2       20222    TIP3     OH2      OT      -0.834000       15.9994           0
     60665 W2       20222    TIP3     H1       HT       0.417000       1.00800           0
     60666 W2       20222    TIP3     H2       HT       0.417000       1.00800           0
     60667 W2       20223    TIP3     OH2      OT      -0.834000       15.9994           0
     60668 W2       20223    TIP3     H1       HT       0.417000       1.00800           0
     60669 W2       20223    TIP3     H2       HT       0.417000       1.00800           0
     60670 W2       20224    TIP3     OH2      OT      -0.834000       15.9994           0
     60671 W2       20224    TIP3     H1       HT       0.417000       1.00800           0
     60672 W2       20224    TIP3     H2       HT       0.417000       1.00800           0
     60673 W2       20225    TIP3     OH2      OT      -0.834000       15.9994           0
     60674 W2       20225    TIP3     H1       HT       0.417000       1.00800           0
     60675 W2       20225    TIP3     H2       HT       0.417000       1.00800           0
     60676 W2       20226    TIP3     OH2      OT      -0.834000       15.9994           0
     60677 W2       20226    TIP3     H1       HT       0.417000       1.00800           0
     60678 W2       20226    TIP3     H2       HT       0.417000       1.00800           0
     60679 W2       20227    TIP3     OH2      OT      -0.834000       15.9994           0
     60680 W2       20227    TIP3     H1       HT       0.417000       1.00800           0
     60681 W2       20227    TIP3     H2       HT       0.417000       1.00800           0
     60682 W2       20228    TIP3     OH2      OT      -0.834000       15.9994           0
     60683 W2       20228    TIP3     H1       HT       0.417000       1.00800           0
     60684 W2       20228    TIP3     H2       HT       0.417000       1.00800           0
     60685 W2       20229    TIP3     OH2      OT      -0.834000       15.9994           0
     60686 W2       20229    TIP3     H1       HT       0.417000       1.00800           0
     60687 W2       20229    TIP3     H2       HT       0.417000       1.00800           0
     60688 W2       20230    TIP3     OH2      OT      -0.834000       15.9994           0
     60689 W2       20230    TIP3     H1       HT       0.417000       1.00800           0
     60690 W2       20230    TIP3     H2       HT       0.417000       1.00800           0
     60691 W2       20231    TIP3     OH2      OT      -0.834000       15.9994           0
     60692 W2       20231    TIP3     H1       HT       0.417000       1.00800           0
     60693 W2       20231    TIP3     H2       HT       0.417000       1.00800           0
     60694 W2       20232    TIP3     OH2      OT      -0.834000       15.9994           0
     60695 W2       20232    TIP3     H1       HT       0.417000       1.00800           0
     60696 W2       20232    TIP3     H2       HT       0.417000       1.00800           0
     60697 W2       20233    TIP3     OH2      OT      -0.834000       15.9994           0
     60698 W2       20233    TIP3     H1       HT       0.417000       1.00800           0
     60699 W2       20233    TIP3     H2       HT       0.417000       1.00800           0
     60700 W2       20234    TIP3     OH2      OT      -0.834000       15.9994           0
     60701 W2       20234    TIP3     H1       HT       0.417000       1.00800           0
     60702 W2       20234    TIP3     H2       HT       0.417000       1.00800           0
     60703 W2       20235    TIP3     OH2      OT      -0.834000       15.9994           0
     60704 W2       20235    TIP3     H1       HT       0.417000       1.00800           0
     60705 W2       20235    TIP3     H2       HT       0.417000       1.00800           0
     60706 W2       20236    TIP3     OH2      OT      -0.834000       15.9994           0
     60707 W2       20236    TIP3     H1       HT       0.417000       1.00800           0
     60708 W2       20236    TIP3     H2       HT       0.417000       1.00800           0
     60709 W2       20237    TIP3     OH2      OT      -0.834000       15.9994           0
     60710 W2       20237    TIP3     H1       HT       0.417000       1.00800           0
     60711 W2       20237    TIP3     H2       HT       0.417000       1.00800           0
     60712 W2       20238    TIP3     OH2      OT      -0.834000       15.9994           0
     60713 W2       20238    TIP3     H1       HT       0.417000       1.00800           0
     60714 W2       20238    TIP3     H2       HT       0.417000       1.00800           0
     60715 W2       20239    TIP3     OH2      OT      -0.834000       15.9994           0
     60716 W2       20239    TIP3     H1       HT       0.417000       1.00800           0
     60717 W2       20239    TIP3     H2       HT       0.417000       1.00800           0
     60718 W2       20240    TIP3     OH2      OT      -0.834000       15.9994           0
     60719 W2       20240    TIP3     H1       HT       0.417000       1.00800           0
     60720 W2       20240    TIP3     H2       HT       0.417000       1.00800           0
     60721 W2       20241    TIP3     OH2      OT      -0.834000       15.9994           0
     60722 W2       20241    TIP3     H1       HT       0.417000       1.00800           0
     60723 W2       20241    TIP3     H2       HT       0.417000       1.00800           0
     60724 W2       20242    TIP3     OH2      OT      -0.834000       15.9994           0
     60725 W2       20242    TIP3     H1       HT       0.417000       1.00800           0
     60726 W2       20242    TIP3     H2       HT       0.417000       1.00800           0
     60727 W2       20243    TIP3     OH2      OT      -0.834000       15.9994           0
     60728 W2       20243    TIP3     H1       HT       0.417000       1.00800           0
     60729 W2       20243    TIP3     H2       HT       0.417000       1.00800           0
     60730 W2       20244    TIP3     OH2      OT      -0.834000       15.9994           0
     60731 W2       20244    TIP3     H1       HT       0.417000       1.00800           0
     60732 W2       20244    TIP3     H2       HT       0.417000       1.00800           0
     60733 W2       20245    TIP3     OH2      OT      -0.834000       15.9994           0
     60734 W2       20245    TIP3     H1       HT       0.417000       1.00800           0
     60735 W2       20245    TIP3     H2       HT       0.417000       1.00800           0
     60736 W2       20246    TIP3     OH2      OT      -0.834000       15.9994           0
     60737 W2       20246    TIP3     H1       HT       0.417000       1.00800           0
     60738 W2       20246    TIP3     H2       HT       0.417000       1.00800           0
     60739 W2       20247    TIP3     OH2      OT      -0.834000       15.9994           0
     60740 W2       20247    TIP3     H1       HT       0.417000       1.00800           0
     60741 W2       20247    TIP3     H2       HT       0.417000       1.00800           0
     60742 W2       20248    TIP3     OH2      OT      -0.834000       15.9994           0
     60743 W2       20248    TIP3     H1       HT       0.417000       1.00800           0
     60744 W2       20248    TIP3     H2       HT       0.417000       1.00800           0
     60745 W2       20249    TIP3     OH2      OT      -0.834000       15.9994           0
     60746 W2       20249    TIP3     H1       HT       0.417000       1.00800           0
     60747 W2       20249    TIP3     H2       HT       0.417000       1.00800           0
     60748 W2       20250    TIP3     OH2      OT      -0.834000       15.9994           0
     60749 W2       20250    TIP3     H1       HT       0.417000       1.00800           0
     60750 W2       20250    TIP3     H2       HT       0.417000       1.00800           0
     60751 W2       20251    TIP3     OH2      OT      -0.834000       15.9994           0
     60752 W2       20251    TIP3     H1       HT       0.417000       1.00800           0
     60753 W2       20251    TIP3     H2       HT       0.417000       1.00800           0
     60754 W2       20252    TIP3     OH2      OT      -0.834000       15.9994           0
     60755 W2       20252    TIP3     H1       HT       0.417000       1.00800           0
     60756 W2       20252    TIP3     H2       HT       0.417000       1.00800           0
     60757 W2       20253    TIP3     OH2      OT      -0.834000       15.9994           0
     60758 W2       20253    TIP3     H1       HT       0.417000       1.00800           0
     60759 W2       20253    TIP3     H2       HT       0.417000       1.00800           0
     60760 W2       20254    TIP3     OH2      OT      -0.834000       15.9994           0
     60761 W2       20254    TIP3     H1       HT       0.417000       1.00800           0
     60762 W2       20254    TIP3     H2       HT       0.417000       1.00800           0
     60763 W2       20255    TIP3     OH2      OT      -0.834000       15.9994           0
     60764 W2       20255    TIP3     H1       HT       0.417000       1.00800           0
     60765 W2       20255    TIP3     H2       HT       0.417000       1.00800           0
     60766 W2       20256    TIP3     OH2      OT      -0.834000       15.9994           0
     60767 W2       20256    TIP3     H1       HT       0.417000       1.00800           0
     60768 W2       20256    TIP3     H2       HT       0.417000       1.00800           0
     60769 W2       20257    TIP3     OH2      OT      -0.834000       15.9994           0
     60770 W2       20257    TIP3     H1       HT       0.417000       1.00800           0
     60771 W2       20257    TIP3     H2       HT       0.417000       1.00800           0
     60772 W2       20258    TIP3     OH2      OT      -0.834000       15.9994           0
     60773 W2       20258    TIP3     H1       HT       0.417000       1.00800           0
     60774 W2       20258    TIP3     H2       HT       0.417000       1.00800           0
     60775 W2       20259    TIP3     OH2      OT      -0.834000       15.9994           0
     60776 W2       20259    TIP3     H1       HT       0.417000       1.00800           0
     60777 W2       20259    TIP3     H2       HT       0.417000       1.00800           0
     60778 W2       20260    TIP3     OH2      OT      -0.834000       15.9994           0
     60779 W2       20260    TIP3     H1       HT       0.417000       1.00800           0
     60780 W2       20260    TIP3     H2       HT       0.417000       1.00800           0
     60781 W2       20261    TIP3     OH2      OT      -0.834000       15.9994           0
     60782 W2       20261    TIP3     H1       HT       0.417000       1.00800           0
     60783 W2       20261    TIP3     H2       HT       0.417000       1.00800           0
     60784 W2       20262    TIP3     OH2      OT      -0.834000       15.9994           0
     60785 W2       20262    TIP3     H1       HT       0.417000       1.00800           0
     60786 W2       20262    TIP3     H2       HT       0.417000       1.00800           0
     60787 W2       20263    TIP3     OH2      OT      -0.834000       15.9994           0
     60788 W2       20263    TIP3     H1       HT       0.417000       1.00800           0
     60789 W2       20263    TIP3     H2       HT       0.417000       1.00800           0
     60790 W2       20264    TIP3     OH2      OT      -0.834000       15.9994           0
     60791 W2       20264    TIP3     H1       HT       0.417000       1.00800           0
     60792 W2       20264    TIP3     H2       HT       0.417000       1.00800           0
     60793 W2       20265    TIP3     OH2      OT      -0.834000       15.9994           0
     60794 W2       20265    TIP3     H1       HT       0.417000       1.00800           0
     60795 W2       20265    TIP3     H2       HT       0.417000       1.00800           0
     60796 W2       20266    TIP3     OH2      OT      -0.834000       15.9994           0
     60797 W2       20266    TIP3     H1       HT       0.417000       1.00800           0
     60798 W2       20266    TIP3     H2       HT       0.417000       1.00800           0
     60799 W2       20267    TIP3     OH2      OT      -0.834000       15.9994           0
     60800 W2       20267    TIP3     H1       HT       0.417000       1.00800           0
     60801 W2       20267    TIP3     H2       HT       0.417000       1.00800           0
     60802 W2       20268    TIP3     OH2      OT      -0.834000       15.9994           0
     60803 W2       20268    TIP3     H1       HT       0.417000       1.00800           0
     60804 W2       20268    TIP3     H2       HT       0.417000       1.00800           0
     60805 W2       20269    TIP3     OH2      OT      -0.834000       15.9994           0
     60806 W2       20269    TIP3     H1       HT       0.417000       1.00800           0
     60807 W2       20269    TIP3     H2       HT       0.417000       1.00800           0
     60808 W2       20270    TIP3     OH2      OT      -0.834000       15.9994           0
     60809 W2       20270    TIP3     H1       HT       0.417000       1.00800           0
     60810 W2       20270    TIP3     H2       HT       0.417000       1.00800           0
     60811 W2       20271    TIP3     OH2      OT      -0.834000       15.9994           0
     60812 W2       20271    TIP3     H1       HT       0.417000       1.00800           0
     60813 W2       20271    TIP3     H2       HT       0.417000       1.00800           0
     60814 W2       20272    TIP3     OH2      OT      -0.834000       15.9994           0
     60815 W2       20272    TIP3     H1       HT       0.417000       1.00800           0
     60816 W2       20272    TIP3     H2       HT       0.417000       1.00800           0
     60817 W2       20273    TIP3     OH2      OT      -0.834000       15.9994           0
     60818 W2       20273    TIP3     H1       HT       0.417000       1.00800           0
     60819 W2       20273    TIP3     H2       HT       0.417000       1.00800           0
     60820 W2       20274    TIP3     OH2      OT      -0.834000       15.9994           0
     60821 W2       20274    TIP3     H1       HT       0.417000       1.00800           0
     60822 W2       20274    TIP3     H2       HT       0.417000       1.00800           0
     60823 W2       20275    TIP3     OH2      OT      -0.834000       15.9994           0
     60824 W2       20275    TIP3     H1       HT       0.417000       1.00800           0
     60825 W2       20275    TIP3     H2       HT       0.417000       1.00800           0
     60826 W2       20276    TIP3     OH2      OT      -0.834000       15.9994           0
     60827 W2       20276    TIP3     H1       HT       0.417000       1.00800           0
     60828 W2       20276    TIP3     H2       HT       0.417000       1.00800           0
     60829 W2       20277    TIP3     OH2      OT      -0.834000       15.9994           0
     60830 W2       20277    TIP3     H1       HT       0.417000       1.00800           0
     60831 W2       20277    TIP3     H2       HT       0.417000       1.00800           0
     60832 W2       20278    TIP3     OH2      OT      -0.834000       15.9994           0
     60833 W2       20278    TIP3     H1       HT       0.417000       1.00800           0
     60834 W2       20278    TIP3     H2       HT       0.417000       1.00800           0
     60835 W2       20279    TIP3     OH2      OT      -0.834000       15.9994           0
     60836 W2       20279    TIP3     H1       HT       0.417000       1.00800           0
     60837 W2       20279    TIP3     H2       HT       0.417000       1.00800           0
     60838 W2       20280    TIP3     OH2      OT      -0.834000       15.9994           0
     60839 W2       20280    TIP3     H1       HT       0.417000       1.00800           0
     60840 W2       20280    TIP3     H2       HT       0.417000       1.00800           0
     60841 W2       20281    TIP3     OH2      OT      -0.834000       15.9994           0
     60842 W2       20281    TIP3     H1       HT       0.417000       1.00800           0
     60843 W2       20281    TIP3     H2       HT       0.417000       1.00800           0
     60844 W2       20282    TIP3     OH2      OT      -0.834000       15.9994           0
     60845 W2       20282    TIP3     H1       HT       0.417000       1.00800           0
     60846 W2       20282    TIP3     H2       HT       0.417000       1.00800           0
     60847 W2       20283    TIP3     OH2      OT      -0.834000       15.9994           0
     60848 W2       20283    TIP3     H1       HT       0.417000       1.00800           0
     60849 W2       20283    TIP3     H2       HT       0.417000       1.00800           0
     60850 W2       20284    TIP3     OH2      OT      -0.834000       15.9994           0
     60851 W2       20284    TIP3     H1       HT       0.417000       1.00800           0
     60852 W2       20284    TIP3     H2       HT       0.417000       1.00800           0
     60853 W2       20285    TIP3     OH2      OT      -0.834000       15.9994           0
     60854 W2       20285    TIP3     H1       HT       0.417000       1.00800           0
     60855 W2       20285    TIP3     H2       HT       0.417000       1.00800           0
     60856 W2       20286    TIP3     OH2      OT      -0.834000       15.9994           0
     60857 W2       20286    TIP3     H1       HT       0.417000       1.00800           0
     60858 W2       20286    TIP3     H2       HT       0.417000       1.00800           0
     60859 W2       20287    TIP3     OH2      OT      -0.834000       15.9994           0
     60860 W2       20287    TIP3     H1       HT       0.417000       1.00800           0
     60861 W2       20287    TIP3     H2       HT       0.417000       1.00800           0
     60862 W2       20288    TIP3     OH2      OT      -0.834000       15.9994           0
     60863 W2       20288    TIP3     H1       HT       0.417000       1.00800           0
     60864 W2       20288    TIP3     H2       HT       0.417000       1.00800           0
     60865 W2       20289    TIP3     OH2      OT      -0.834000       15.9994           0
     60866 W2       20289    TIP3     H1       HT       0.417000       1.00800           0
     60867 W2       20289    TIP3     H2       HT       0.417000       1.00800           0
     60868 W2       20290    TIP3     OH2      OT      -0.834000       15.9994           0
     60869 W2       20290    TIP3     H1       HT       0.417000       1.00800           0
     60870 W2       20290    TIP3     H2       HT       0.417000       1.00800           0
     60871 W2       20291    TIP3     OH2      OT      -0.834000       15.9994           0
     60872 W2       20291    TIP3     H1       HT       0.417000       1.00800           0
     60873 W2       20291    TIP3     H2       HT       0.417000       1.00800           0
     60874 W2       20292    TIP3     OH2      OT      -0.834000       15.9994           0
     60875 W2       20292    TIP3     H1       HT       0.417000       1.00800           0
     60876 W2       20292    TIP3     H2       HT       0.417000       1.00800           0
     60877 W2       20293    TIP3     OH2      OT      -0.834000       15.9994           0
     60878 W2       20293    TIP3     H1       HT       0.417000       1.00800           0
     60879 W2       20293    TIP3     H2       HT       0.417000       1.00800           0
     60880 W2       20294    TIP3     OH2      OT      -0.834000       15.9994           0
     60881 W2       20294    TIP3     H1       HT       0.417000       1.00800           0
     60882 W2       20294    TIP3     H2       HT       0.417000       1.00800           0
     60883 W2       20295    TIP3     OH2      OT      -0.834000       15.9994           0
     60884 W2       20295    TIP3     H1       HT       0.417000       1.00800           0
     60885 W2       20295    TIP3     H2       HT       0.417000       1.00800           0
     60886 W2       20296    TIP3     OH2      OT      -0.834000       15.9994           0
     60887 W2       20296    TIP3     H1       HT       0.417000       1.00800           0
     60888 W2       20296    TIP3     H2       HT       0.417000       1.00800           0
     60889 W2       20297    TIP3     OH2      OT      -0.834000       15.9994           0
     60890 W2       20297    TIP3     H1       HT       0.417000       1.00800           0
     60891 W2       20297    TIP3     H2       HT       0.417000       1.00800           0
     60892 W2       20298    TIP3     OH2      OT      -0.834000       15.9994           0
     60893 W2       20298    TIP3     H1       HT       0.417000       1.00800           0
     60894 W2       20298    TIP3     H2       HT       0.417000       1.00800           0
     60895 W2       20299    TIP3     OH2      OT      -0.834000       15.9994           0
     60896 W2       20299    TIP3     H1       HT       0.417000       1.00800           0
     60897 W2       20299    TIP3     H2       HT       0.417000       1.00800           0
     60898 W2       20300    TIP3     OH2      OT      -0.834000       15.9994           0
     60899 W2       20300    TIP3     H1       HT       0.417000       1.00800           0
     60900 W2       20300    TIP3     H2       HT       0.417000       1.00800           0
     60901 W2       20301    TIP3     OH2      OT      -0.834000       15.9994           0
     60902 W2       20301    TIP3     H1       HT       0.417000       1.00800           0
     60903 W2       20301    TIP3     H2       HT       0.417000       1.00800           0
     60904 W2       20302    TIP3     OH2      OT      -0.834000       15.9994           0
     60905 W2       20302    TIP3     H1       HT       0.417000       1.00800           0
     60906 W2       20302    TIP3     H2       HT       0.417000       1.00800           0
     60907 W2       20303    TIP3     OH2      OT      -0.834000       15.9994           0
     60908 W2       20303    TIP3     H1       HT       0.417000       1.00800           0
     60909 W2       20303    TIP3     H2       HT       0.417000       1.00800           0
     60910 W2       20304    TIP3     OH2      OT      -0.834000       15.9994           0
     60911 W2       20304    TIP3     H1       HT       0.417000       1.00800           0
     60912 W2       20304    TIP3     H2       HT       0.417000       1.00800           0
     60913 W2       20305    TIP3     OH2      OT      -0.834000       15.9994           0
     60914 W2       20305    TIP3     H1       HT       0.417000       1.00800           0
     60915 W2       20305    TIP3     H2       HT       0.417000       1.00800           0
     60916 W2       20306    TIP3     OH2      OT      -0.834000       15.9994           0
     60917 W2       20306    TIP3     H1       HT       0.417000       1.00800           0
     60918 W2       20306    TIP3     H2       HT       0.417000       1.00800           0
     60919 W2       20307    TIP3     OH2      OT      -0.834000       15.9994           0
     60920 W2       20307    TIP3     H1       HT       0.417000       1.00800           0
     60921 W2       20307    TIP3     H2       HT       0.417000       1.00800           0
     60922 W2       20308    TIP3     OH2      OT      -0.834000       15.9994           0
     60923 W2       20308    TIP3     H1       HT       0.417000       1.00800           0
     60924 W2       20308    TIP3     H2       HT       0.417000       1.00800           0
     60925 W2       20309    TIP3     OH2      OT      -0.834000       15.9994           0
     60926 W2       20309    TIP3     H1       HT       0.417000       1.00800           0
     60927 W2       20309    TIP3     H2       HT       0.417000       1.00800           0
     60928 W2       20310    TIP3     OH2      OT      -0.834000       15.9994           0
     60929 W2       20310    TIP3     H1       HT       0.417000       1.00800           0
     60930 W2       20310    TIP3     H2       HT       0.417000       1.00800           0
     60931 W2       20311    TIP3     OH2      OT      -0.834000       15.9994           0
     60932 W2       20311    TIP3     H1       HT       0.417000       1.00800           0
     60933 W2       20311    TIP3     H2       HT       0.417000       1.00800           0
     60934 W2       20312    TIP3     OH2      OT      -0.834000       15.9994           0
     60935 W2       20312    TIP3     H1       HT       0.417000       1.00800           0
     60936 W2       20312    TIP3     H2       HT       0.417000       1.00800           0
     60937 W2       20313    TIP3     OH2      OT      -0.834000       15.9994           0
     60938 W2       20313    TIP3     H1       HT       0.417000       1.00800           0
     60939 W2       20313    TIP3     H2       HT       0.417000       1.00800           0
     60940 W2       20314    TIP3     OH2      OT      -0.834000       15.9994           0
     60941 W2       20314    TIP3     H1       HT       0.417000       1.00800           0
     60942 W2       20314    TIP3     H2       HT       0.417000       1.00800           0
     60943 W2       20315    TIP3     OH2      OT      -0.834000       15.9994           0
     60944 W2       20315    TIP3     H1       HT       0.417000       1.00800           0
     60945 W2       20315    TIP3     H2       HT       0.417000       1.00800           0
     60946 W2       20316    TIP3     OH2      OT      -0.834000       15.9994           0
     60947 W2       20316    TIP3     H1       HT       0.417000       1.00800           0
     60948 W2       20316    TIP3     H2       HT       0.417000       1.00800           0
     60949 W2       20317    TIP3     OH2      OT      -0.834000       15.9994           0
     60950 W2       20317    TIP3     H1       HT       0.417000       1.00800           0
     60951 W2       20317    TIP3     H2       HT       0.417000       1.00800           0
     60952 W2       20318    TIP3     OH2      OT      -0.834000       15.9994           0
     60953 W2       20318    TIP3     H1       HT       0.417000       1.00800           0
     60954 W2       20318    TIP3     H2       HT       0.417000       1.00800           0
     60955 W2       20319    TIP3     OH2      OT      -0.834000       15.9994           0
     60956 W2       20319    TIP3     H1       HT       0.417000       1.00800           0
     60957 W2       20319    TIP3     H2       HT       0.417000       1.00800           0
     60958 W2       20320    TIP3     OH2      OT      -0.834000       15.9994           0
     60959 W2       20320    TIP3     H1       HT       0.417000       1.00800           0
     60960 W2       20320    TIP3     H2       HT       0.417000       1.00800           0
     60961 W2       20321    TIP3     OH2      OT      -0.834000       15.9994           0
     60962 W2       20321    TIP3     H1       HT       0.417000       1.00800           0
     60963 W2       20321    TIP3     H2       HT       0.417000       1.00800           0
     60964 W2       20322    TIP3     OH2      OT      -0.834000       15.9994           0
     60965 W2       20322    TIP3     H1       HT       0.417000       1.00800           0
     60966 W2       20322    TIP3     H2       HT       0.417000       1.00800           0
     60967 W2       20323    TIP3     OH2      OT      -0.834000       15.9994           0
     60968 W2       20323    TIP3     H1       HT       0.417000       1.00800           0
     60969 W2       20323    TIP3     H2       HT       0.417000       1.00800           0
     60970 W2       20324    TIP3     OH2      OT      -0.834000       15.9994           0
     60971 W2       20324    TIP3     H1       HT       0.417000       1.00800           0
     60972 W2       20324    TIP3     H2       HT       0.417000       1.00800           0
     60973 W2       20325    TIP3     OH2      OT      -0.834000       15.9994           0
     60974 W2       20325    TIP3     H1       HT       0.417000       1.00800           0
     60975 W2       20325    TIP3     H2       HT       0.417000       1.00800           0
     60976 W2       20326    TIP3     OH2      OT      -0.834000       15.9994           0
     60977 W2       20326    TIP3     H1       HT       0.417000       1.00800           0
     60978 W2       20326    TIP3     H2       HT       0.417000       1.00800           0
     60979 W2       20327    TIP3     OH2      OT      -0.834000       15.9994           0
     60980 W2       20327    TIP3     H1       HT       0.417000       1.00800           0
     60981 W2       20327    TIP3     H2       HT       0.417000       1.00800           0
     60982 W2       20328    TIP3     OH2      OT      -0.834000       15.9994           0
     60983 W2       20328    TIP3     H1       HT       0.417000       1.00800           0
     60984 W2       20328    TIP3     H2       HT       0.417000       1.00800           0
     60985 W2       20329    TIP3     OH2      OT      -0.834000       15.9994           0
     60986 W2       20329    TIP3     H1       HT       0.417000       1.00800           0
     60987 W2       20329    TIP3     H2       HT       0.417000       1.00800           0
     60988 W2       20330    TIP3     OH2      OT      -0.834000       15.9994           0
     60989 W2       20330    TIP3     H1       HT       0.417000       1.00800           0
     60990 W2       20330    TIP3     H2       HT       0.417000       1.00800           0
     60991 W2       20331    TIP3     OH2      OT      -0.834000       15.9994           0
     60992 W2       20331    TIP3     H1       HT       0.417000       1.00800           0
     60993 W2       20331    TIP3     H2       HT       0.417000       1.00800           0
     60994 W2       20332    TIP3     OH2      OT      -0.834000       15.9994           0
     60995 W2       20332    TIP3     H1       HT       0.417000       1.00800           0
     60996 W2       20332    TIP3     H2       HT       0.417000       1.00800           0
     60997 W2       20333    TIP3     OH2      OT      -0.834000       15.9994           0
     60998 W2       20333    TIP3     H1       HT       0.417000       1.00800           0
     60999 W2       20333    TIP3     H2       HT       0.417000       1.00800           0
     61000 W2       20334    TIP3     OH2      OT      -0.834000       15.9994           0
     61001 W2       20334    TIP3     H1       HT       0.417000       1.00800           0
     61002 W2       20334    TIP3     H2       HT       0.417000       1.00800           0
     61003 W2       20335    TIP3     OH2      OT      -0.834000       15.9994           0
     61004 W2       20335    TIP3     H1       HT       0.417000       1.00800           0
     61005 W2       20335    TIP3     H2       HT       0.417000       1.00800           0
     61006 W2       20336    TIP3     OH2      OT      -0.834000       15.9994           0
     61007 W2       20336    TIP3     H1       HT       0.417000       1.00800           0
     61008 W2       20336    TIP3     H2       HT       0.417000       1.00800           0
     61009 W2       20337    TIP3     OH2      OT      -0.834000       15.9994           0
     61010 W2       20337    TIP3     H1       HT       0.417000       1.00800           0
     61011 W2       20337    TIP3     H2       HT       0.417000       1.00800           0
     61012 W2       20338    TIP3     OH2      OT      -0.834000       15.9994           0
     61013 W2       20338    TIP3     H1       HT       0.417000       1.00800           0
     61014 W2       20338    TIP3     H2       HT       0.417000       1.00800           0
     61015 W2       20339    TIP3     OH2      OT      -0.834000       15.9994           0
     61016 W2       20339    TIP3     H1       HT       0.417000       1.00800           0
     61017 W2       20339    TIP3     H2       HT       0.417000       1.00800           0
     61018 W2       20340    TIP3     OH2      OT      -0.834000       15.9994           0
     61019 W2       20340    TIP3     H1       HT       0.417000       1.00800           0
     61020 W2       20340    TIP3     H2       HT       0.417000       1.00800           0
     61021 W2       20341    TIP3     OH2      OT      -0.834000       15.9994           0
     61022 W2       20341    TIP3     H1       HT       0.417000       1.00800           0
     61023 W2       20341    TIP3     H2       HT       0.417000       1.00800           0
     61024 W2       20342    TIP3     OH2      OT      -0.834000       15.9994           0
     61025 W2       20342    TIP3     H1       HT       0.417000       1.00800           0
     61026 W2       20342    TIP3     H2       HT       0.417000       1.00800           0
     61027 W2       20343    TIP3     OH2      OT      -0.834000       15.9994           0
     61028 W2       20343    TIP3     H1       HT       0.417000       1.00800           0
     61029 W2       20343    TIP3     H2       HT       0.417000       1.00800           0
     61030 W2       20344    TIP3     OH2      OT      -0.834000       15.9994           0
     61031 W2       20344    TIP3     H1       HT       0.417000       1.00800           0
     61032 W2       20344    TIP3     H2       HT       0.417000       1.00800           0
     61033 W2       20345    TIP3     OH2      OT      -0.834000       15.9994           0
     61034 W2       20345    TIP3     H1       HT       0.417000       1.00800           0
     61035 W2       20345    TIP3     H2       HT       0.417000       1.00800           0
     61036 W2       20346    TIP3     OH2      OT      -0.834000       15.9994           0
     61037 W2       20346    TIP3     H1       HT       0.417000       1.00800           0
     61038 W2       20346    TIP3     H2       HT       0.417000       1.00800           0
     61039 W2       20347    TIP3     OH2      OT      -0.834000       15.9994           0
     61040 W2       20347    TIP3     H1       HT       0.417000       1.00800           0
     61041 W2       20347    TIP3     H2       HT       0.417000       1.00800           0
     61042 W2       20348    TIP3     OH2      OT      -0.834000       15.9994           0
     61043 W2       20348    TIP3     H1       HT       0.417000       1.00800           0
     61044 W2       20348    TIP3     H2       HT       0.417000       1.00800           0
     61045 W2       20349    TIP3     OH2      OT      -0.834000       15.9994           0
     61046 W2       20349    TIP3     H1       HT       0.417000       1.00800           0
     61047 W2       20349    TIP3     H2       HT       0.417000       1.00800           0
     61048 W2       20350    TIP3     OH2      OT      -0.834000       15.9994           0
     61049 W2       20350    TIP3     H1       HT       0.417000       1.00800           0
     61050 W2       20350    TIP3     H2       HT       0.417000       1.00800           0
     61051 W2       20351    TIP3     OH2      OT      -0.834000       15.9994           0
     61052 W2       20351    TIP3     H1       HT       0.417000       1.00800           0
     61053 W2       20351    TIP3     H2       HT       0.417000       1.00800           0
     61054 W2       20352    TIP3     OH2      OT      -0.834000       15.9994           0
     61055 W2       20352    TIP3     H1       HT       0.417000       1.00800           0
     61056 W2       20352    TIP3     H2       HT       0.417000       1.00800           0
     61057 W2       20353    TIP3     OH2      OT      -0.834000       15.9994           0
     61058 W2       20353    TIP3     H1       HT       0.417000       1.00800           0
     61059 W2       20353    TIP3     H2       HT       0.417000       1.00800           0
     61060 W2       20354    TIP3     OH2      OT      -0.834000       15.9994           0
     61061 W2       20354    TIP3     H1       HT       0.417000       1.00800           0
     61062 W2       20354    TIP3     H2       HT       0.417000       1.00800           0
     61063 W2       20355    TIP3     OH2      OT      -0.834000       15.9994           0
     61064 W2       20355    TIP3     H1       HT       0.417000       1.00800           0
     61065 W2       20355    TIP3     H2       HT       0.417000       1.00800           0
     61066 W2       20356    TIP3     OH2      OT      -0.834000       15.9994           0
     61067 W2       20356    TIP3     H1       HT       0.417000       1.00800           0
     61068 W2       20356    TIP3     H2       HT       0.417000       1.00800           0
     61069 W2       20357    TIP3     OH2      OT      -0.834000       15.9994           0
     61070 W2       20357    TIP3     H1       HT       0.417000       1.00800           0
     61071 W2       20357    TIP3     H2       HT       0.417000       1.00800           0
     61072 W2       20358    TIP3     OH2      OT      -0.834000       15.9994           0
     61073 W2       20358    TIP3     H1       HT       0.417000       1.00800           0
     61074 W2       20358    TIP3     H2       HT       0.417000       1.00800           0
     61075 W2       20359    TIP3     OH2      OT      -0.834000       15.9994           0
     61076 W2       20359    TIP3     H1       HT       0.417000       1.00800           0
     61077 W2       20359    TIP3     H2       HT       0.417000       1.00800           0
     61078 W2       20360    TIP3     OH2      OT      -0.834000       15.9994           0
     61079 W2       20360    TIP3     H1       HT       0.417000       1.00800           0
     61080 W2       20360    TIP3     H2       HT       0.417000       1.00800           0
     61081 W2       20361    TIP3     OH2      OT      -0.834000       15.9994           0
     61082 W2       20361    TIP3     H1       HT       0.417000       1.00800           0
     61083 W2       20361    TIP3     H2       HT       0.417000       1.00800           0
     61084 W2       20362    TIP3     OH2      OT      -0.834000       15.9994           0
     61085 W2       20362    TIP3     H1       HT       0.417000       1.00800           0
     61086 W2       20362    TIP3     H2       HT       0.417000       1.00800           0
     61087 W2       20363    TIP3     OH2      OT      -0.834000       15.9994           0
     61088 W2       20363    TIP3     H1       HT       0.417000       1.00800           0
     61089 W2       20363    TIP3     H2       HT       0.417000       1.00800           0
     61090 W2       20364    TIP3     OH2      OT      -0.834000       15.9994           0
     61091 W2       20364    TIP3     H1       HT       0.417000       1.00800           0
     61092 W2       20364    TIP3     H2       HT       0.417000       1.00800           0
     61093 W2       20365    TIP3     OH2      OT      -0.834000       15.9994           0
     61094 W2       20365    TIP3     H1       HT       0.417000       1.00800           0
     61095 W2       20365    TIP3     H2       HT       0.417000       1.00800           0
     61096 W2       20366    TIP3     OH2      OT      -0.834000       15.9994           0
     61097 W2       20366    TIP3     H1       HT       0.417000       1.00800           0
     61098 W2       20366    TIP3     H2       HT       0.417000       1.00800           0
     61099 W2       20367    TIP3     OH2      OT      -0.834000       15.9994           0
     61100 W2       20367    TIP3     H1       HT       0.417000       1.00800           0
     61101 W2       20367    TIP3     H2       HT       0.417000       1.00800           0
     61102 W2       20368    TIP3     OH2      OT      -0.834000       15.9994           0
     61103 W2       20368    TIP3     H1       HT       0.417000       1.00800           0
     61104 W2       20368    TIP3     H2       HT       0.417000       1.00800           0
     61105 W2       20369    TIP3     OH2      OT      -0.834000       15.9994           0
     61106 W2       20369    TIP3     H1       HT       0.417000       1.00800           0
     61107 W2       20369    TIP3     H2       HT       0.417000       1.00800           0
     61108 W2       20370    TIP3     OH2      OT      -0.834000       15.9994           0
     61109 W2       20370    TIP3     H1       HT       0.417000       1.00800           0
     61110 W2       20370    TIP3     H2       HT       0.417000       1.00800           0
     61111 W2       20371    TIP3     OH2      OT      -0.834000       15.9994           0
     61112 W2       20371    TIP3     H1       HT       0.417000       1.00800           0
     61113 W2       20371    TIP3     H2       HT       0.417000       1.00800           0
     61114 W2       20372    TIP3     OH2      OT      -0.834000       15.9994           0
     61115 W2       20372    TIP3     H1       HT       0.417000       1.00800           0
     61116 W2       20372    TIP3     H2       HT       0.417000       1.00800           0
     61117 W2       20373    TIP3     OH2      OT      -0.834000       15.9994           0
     61118 W2       20373    TIP3     H1       HT       0.417000       1.00800           0
     61119 W2       20373    TIP3     H2       HT       0.417000       1.00800           0
     61120 W2       20374    TIP3     OH2      OT      -0.834000       15.9994           0
     61121 W2       20374    TIP3     H1       HT       0.417000       1.00800           0
     61122 W2       20374    TIP3     H2       HT       0.417000       1.00800           0
     61123 W2       20375    TIP3     OH2      OT      -0.834000       15.9994           0
     61124 W2       20375    TIP3     H1       HT       0.417000       1.00800           0
     61125 W2       20375    TIP3     H2       HT       0.417000       1.00800           0
     61126 W2       20376    TIP3     OH2      OT      -0.834000       15.9994           0
     61127 W2       20376    TIP3     H1       HT       0.417000       1.00800           0
     61128 W2       20376    TIP3     H2       HT       0.417000       1.00800           0
     61129 W2       20377    TIP3     OH2      OT      -0.834000       15.9994           0
     61130 W2       20377    TIP3     H1       HT       0.417000       1.00800           0
     61131 W2       20377    TIP3     H2       HT       0.417000       1.00800           0
     61132 W2       20378    TIP3     OH2      OT      -0.834000       15.9994           0
     61133 W2       20378    TIP3     H1       HT       0.417000       1.00800           0
     61134 W2       20378    TIP3     H2       HT       0.417000       1.00800           0
     61135 W2       20379    TIP3     OH2      OT      -0.834000       15.9994           0
     61136 W2       20379    TIP3     H1       HT       0.417000       1.00800           0
     61137 W2       20379    TIP3     H2       HT       0.417000       1.00800           0
     61138 W2       20380    TIP3     OH2      OT      -0.834000       15.9994           0
     61139 W2       20380    TIP3     H1       HT       0.417000       1.00800           0
     61140 W2       20380    TIP3     H2       HT       0.417000       1.00800           0
     61141 W2       20381    TIP3     OH2      OT      -0.834000       15.9994           0
     61142 W2       20381    TIP3     H1       HT       0.417000       1.00800           0
     61143 W2       20381    TIP3     H2       HT       0.417000       1.00800           0
     61144 W2       20382    TIP3     OH2      OT      -0.834000       15.9994           0
     61145 W2       20382    TIP3     H1       HT       0.417000       1.00800           0
     61146 W2       20382    TIP3     H2       HT       0.417000       1.00800           0
     61147 W2       20383    TIP3     OH2      OT      -0.834000       15.9994           0
     61148 W2       20383    TIP3     H1       HT       0.417000       1.00800           0
     61149 W2       20383    TIP3     H2       HT       0.417000       1.00800           0
     61150 W2       20384    TIP3     OH2      OT      -0.834000       15.9994           0
     61151 W2       20384    TIP3     H1       HT       0.417000       1.00800           0
     61152 W2       20384    TIP3     H2       HT       0.417000       1.00800           0
     61153 W2       20385    TIP3     OH2      OT      -0.834000       15.9994           0
     61154 W2       20385    TIP3     H1       HT       0.417000       1.00800           0
     61155 W2       20385    TIP3     H2       HT       0.417000       1.00800           0
     61156 W2       20386    TIP3     OH2      OT      -0.834000       15.9994           0
     61157 W2       20386    TIP3     H1       HT       0.417000       1.00800           0
     61158 W2       20386    TIP3     H2       HT       0.417000       1.00800           0
     61159 W2       20387    TIP3     OH2      OT      -0.834000       15.9994           0
     61160 W2       20387    TIP3     H1       HT       0.417000       1.00800           0
     61161 W2       20387    TIP3     H2       HT       0.417000       1.00800           0
     61162 W2       20388    TIP3     OH2      OT      -0.834000       15.9994           0
     61163 W2       20388    TIP3     H1       HT       0.417000       1.00800           0
     61164 W2       20388    TIP3     H2       HT       0.417000       1.00800           0
     61165 W2       20389    TIP3     OH2      OT      -0.834000       15.9994           0
     61166 W2       20389    TIP3     H1       HT       0.417000       1.00800           0
     61167 W2       20389    TIP3     H2       HT       0.417000       1.00800           0
     61168 W2       20390    TIP3     OH2      OT      -0.834000       15.9994           0
     61169 W2       20390    TIP3     H1       HT       0.417000       1.00800           0
     61170 W2       20390    TIP3     H2       HT       0.417000       1.00800           0
     61171 W2       20391    TIP3     OH2      OT      -0.834000       15.9994           0
     61172 W2       20391    TIP3     H1       HT       0.417000       1.00800           0
     61173 W2       20391    TIP3     H2       HT       0.417000       1.00800           0
     61174 W2       20392    TIP3     OH2      OT      -0.834000       15.9994           0
     61175 W2       20392    TIP3     H1       HT       0.417000       1.00800           0
     61176 W2       20392    TIP3     H2       HT       0.417000       1.00800           0
     61177 W2       20393    TIP3     OH2      OT      -0.834000       15.9994           0
     61178 W2       20393    TIP3     H1       HT       0.417000       1.00800           0
     61179 W2       20393    TIP3     H2       HT       0.417000       1.00800           0
     61180 W2       20394    TIP3     OH2      OT      -0.834000       15.9994           0
     61181 W2       20394    TIP3     H1       HT       0.417000       1.00800           0
     61182 W2       20394    TIP3     H2       HT       0.417000       1.00800           0
     61183 W2       20395    TIP3     OH2      OT      -0.834000       15.9994           0
     61184 W2       20395    TIP3     H1       HT       0.417000       1.00800           0
     61185 W2       20395    TIP3     H2       HT       0.417000       1.00800           0
     61186 W2       20396    TIP3     OH2      OT      -0.834000       15.9994           0
     61187 W2       20396    TIP3     H1       HT       0.417000       1.00800           0
     61188 W2       20396    TIP3     H2       HT       0.417000       1.00800           0
     61189 W2       20397    TIP3     OH2      OT      -0.834000       15.9994           0
     61190 W2       20397    TIP3     H1       HT       0.417000       1.00800           0
     61191 W2       20397    TIP3     H2       HT       0.417000       1.00800           0
     61192 W2       20398    TIP3     OH2      OT      -0.834000       15.9994           0
     61193 W2       20398    TIP3     H1       HT       0.417000       1.00800           0
     61194 W2       20398    TIP3     H2       HT       0.417000       1.00800           0
     61195 W2       20399    TIP3     OH2      OT      -0.834000       15.9994           0
     61196 W2       20399    TIP3     H1       HT       0.417000       1.00800           0
     61197 W2       20399    TIP3     H2       HT       0.417000       1.00800           0
     61198 W2       20400    TIP3     OH2      OT      -0.834000       15.9994           0
     61199 W2       20400    TIP3     H1       HT       0.417000       1.00800           0
     61200 W2       20400    TIP3     H2       HT       0.417000       1.00800           0
     61201 W2       20401    TIP3     OH2      OT      -0.834000       15.9994           0
     61202 W2       20401    TIP3     H1       HT       0.417000       1.00800           0
     61203 W2       20401    TIP3     H2       HT       0.417000       1.00800           0
     61204 W2       20402    TIP3     OH2      OT      -0.834000       15.9994           0
     61205 W2       20402    TIP3     H1       HT       0.417000       1.00800           0
     61206 W2       20402    TIP3     H2       HT       0.417000       1.00800           0
     61207 W2       20403    TIP3     OH2      OT      -0.834000       15.9994           0
     61208 W2       20403    TIP3     H1       HT       0.417000       1.00800           0
     61209 W2       20403    TIP3     H2       HT       0.417000       1.00800           0
     61210 W2       20404    TIP3     OH2      OT      -0.834000       15.9994           0
     61211 W2       20404    TIP3     H1       HT       0.417000       1.00800           0
     61212 W2       20404    TIP3     H2       HT       0.417000       1.00800           0
     61213 W2       20405    TIP3     OH2      OT      -0.834000       15.9994           0
     61214 W2       20405    TIP3     H1       HT       0.417000       1.00800           0
     61215 W2       20405    TIP3     H2       HT       0.417000       1.00800           0
     61216 W2       20406    TIP3     OH2      OT      -0.834000       15.9994           0
     61217 W2       20406    TIP3     H1       HT       0.417000       1.00800           0
     61218 W2       20406    TIP3     H2       HT       0.417000       1.00800           0
     61219 W2       20407    TIP3     OH2      OT      -0.834000       15.9994           0
     61220 W2       20407    TIP3     H1       HT       0.417000       1.00800           0
     61221 W2       20407    TIP3     H2       HT       0.417000       1.00800           0
     61222 W2       20408    TIP3     OH2      OT      -0.834000       15.9994           0
     61223 W2       20408    TIP3     H1       HT       0.417000       1.00800           0
     61224 W2       20408    TIP3     H2       HT       0.417000       1.00800           0
     61225 W2       20409    TIP3     OH2      OT      -0.834000       15.9994           0
     61226 W2       20409    TIP3     H1       HT       0.417000       1.00800           0
     61227 W2       20409    TIP3     H2       HT       0.417000       1.00800           0
     61228 W2       20410    TIP3     OH2      OT      -0.834000       15.9994           0
     61229 W2       20410    TIP3     H1       HT       0.417000       1.00800           0
     61230 W2       20410    TIP3     H2       HT       0.417000       1.00800           0
     61231 W2       20411    TIP3     OH2      OT      -0.834000       15.9994           0
     61232 W2       20411    TIP3     H1       HT       0.417000       1.00800           0
     61233 W2       20411    TIP3     H2       HT       0.417000       1.00800           0
     61234 W2       20412    TIP3     OH2      OT      -0.834000       15.9994           0
     61235 W2       20412    TIP3     H1       HT       0.417000       1.00800           0
     61236 W2       20412    TIP3     H2       HT       0.417000       1.00800           0
     61237 W2       20413    TIP3     OH2      OT      -0.834000       15.9994           0
     61238 W2       20413    TIP3     H1       HT       0.417000       1.00800           0
     61239 W2       20413    TIP3     H2       HT       0.417000       1.00800           0
     61240 W2       20414    TIP3     OH2      OT      -0.834000       15.9994           0
     61241 W2       20414    TIP3     H1       HT       0.417000       1.00800           0
     61242 W2       20414    TIP3     H2       HT       0.417000       1.00800           0
     61243 W2       20415    TIP3     OH2      OT      -0.834000       15.9994           0
     61244 W2       20415    TIP3     H1       HT       0.417000       1.00800           0
     61245 W2       20415    TIP3     H2       HT       0.417000       1.00800           0
     61246 W2       20416    TIP3     OH2      OT      -0.834000       15.9994           0
     61247 W2       20416    TIP3     H1       HT       0.417000       1.00800           0
     61248 W2       20416    TIP3     H2       HT       0.417000       1.00800           0
     61249 W2       20417    TIP3     OH2      OT      -0.834000       15.9994           0
     61250 W2       20417    TIP3     H1       HT       0.417000       1.00800           0
     61251 W2       20417    TIP3     H2       HT       0.417000       1.00800           0
     61252 W2       20418    TIP3     OH2      OT      -0.834000       15.9994           0
     61253 W2       20418    TIP3     H1       HT       0.417000       1.00800           0
     61254 W2       20418    TIP3     H2       HT       0.417000       1.00800           0
     61255 W2       20419    TIP3     OH2      OT      -0.834000       15.9994           0
     61256 W2       20419    TIP3     H1       HT       0.417000       1.00800           0
     61257 W2       20419    TIP3     H2       HT       0.417000       1.00800           0
     61258 W2       20420    TIP3     OH2      OT      -0.834000       15.9994           0
     61259 W2       20420    TIP3     H1       HT       0.417000       1.00800           0
     61260 W2       20420    TIP3     H2       HT       0.417000       1.00800           0
     61261 W2       20421    TIP3     OH2      OT      -0.834000       15.9994           0
     61262 W2       20421    TIP3     H1       HT       0.417000       1.00800           0
     61263 W2       20421    TIP3     H2       HT       0.417000       1.00800           0
     61264 W2       20422    TIP3     OH2      OT      -0.834000       15.9994           0
     61265 W2       20422    TIP3     H1       HT       0.417000       1.00800           0
     61266 W2       20422    TIP3     H2       HT       0.417000       1.00800           0
     61267 W2       20423    TIP3     OH2      OT      -0.834000       15.9994           0
     61268 W2       20423    TIP3     H1       HT       0.417000       1.00800           0
     61269 W2       20423    TIP3     H2       HT       0.417000       1.00800           0
     61270 W2       20424    TIP3     OH2      OT      -0.834000       15.9994           0
     61271 W2       20424    TIP3     H1       HT       0.417000       1.00800           0
     61272 W2       20424    TIP3     H2       HT       0.417000       1.00800           0
     61273 W2       20425    TIP3     OH2      OT      -0.834000       15.9994           0
     61274 W2       20425    TIP3     H1       HT       0.417000       1.00800           0
     61275 W2       20425    TIP3     H2       HT       0.417000       1.00800           0
     61276 W2       20426    TIP3     OH2      OT      -0.834000       15.9994           0
     61277 W2       20426    TIP3     H1       HT       0.417000       1.00800           0
     61278 W2       20426    TIP3     H2       HT       0.417000       1.00800           0
     61279 W2       20427    TIP3     OH2      OT      -0.834000       15.9994           0
     61280 W2       20427    TIP3     H1       HT       0.417000       1.00800           0
     61281 W2       20427    TIP3     H2       HT       0.417000       1.00800           0
     61282 W2       20428    TIP3     OH2      OT      -0.834000       15.9994           0
     61283 W2       20428    TIP3     H1       HT       0.417000       1.00800           0
     61284 W2       20428    TIP3     H2       HT       0.417000       1.00800           0
     61285 W2       20429    TIP3     OH2      OT      -0.834000       15.9994           0
     61286 W2       20429    TIP3     H1       HT       0.417000       1.00800           0
     61287 W2       20429    TIP3     H2       HT       0.417000       1.00800           0
     61288 W2       20430    TIP3     OH2      OT      -0.834000       15.9994           0
     61289 W2       20430    TIP3     H1       HT       0.417000       1.00800           0
     61290 W2       20430    TIP3     H2       HT       0.417000       1.00800           0
     61291 W2       20431    TIP3     OH2      OT      -0.834000       15.9994           0
     61292 W2       20431    TIP3     H1       HT       0.417000       1.00800           0
     61293 W2       20431    TIP3     H2       HT       0.417000       1.00800           0
     61294 W2       20432    TIP3     OH2      OT      -0.834000       15.9994           0
     61295 W2       20432    TIP3     H1       HT       0.417000       1.00800           0
     61296 W2       20432    TIP3     H2       HT       0.417000       1.00800           0
     61297 W2       20433    TIP3     OH2      OT      -0.834000       15.9994           0
     61298 W2       20433    TIP3     H1       HT       0.417000       1.00800           0
     61299 W2       20433    TIP3     H2       HT       0.417000       1.00800           0
     61300 W2       20434    TIP3     OH2      OT      -0.834000       15.9994           0
     61301 W2       20434    TIP3     H1       HT       0.417000       1.00800           0
     61302 W2       20434    TIP3     H2       HT       0.417000       1.00800           0
     61303 W2       20435    TIP3     OH2      OT      -0.834000       15.9994           0
     61304 W2       20435    TIP3     H1       HT       0.417000       1.00800           0
     61305 W2       20435    TIP3     H2       HT       0.417000       1.00800           0
     61306 W2       20436    TIP3     OH2      OT      -0.834000       15.9994           0
     61307 W2       20436    TIP3     H1       HT       0.417000       1.00800           0
     61308 W2       20436    TIP3     H2       HT       0.417000       1.00800           0
     61309 W2       20437    TIP3     OH2      OT      -0.834000       15.9994           0
     61310 W2       20437    TIP3     H1       HT       0.417000       1.00800           0
     61311 W2       20437    TIP3     H2       HT       0.417000       1.00800           0
     61312 W2       20438    TIP3     OH2      OT      -0.834000       15.9994           0
     61313 W2       20438    TIP3     H1       HT       0.417000       1.00800           0
     61314 W2       20438    TIP3     H2       HT       0.417000       1.00800           0
     61315 W2       20439    TIP3     OH2      OT      -0.834000       15.9994           0
     61316 W2       20439    TIP3     H1       HT       0.417000       1.00800           0
     61317 W2       20439    TIP3     H2       HT       0.417000       1.00800           0
     61318 W2       20440    TIP3     OH2      OT      -0.834000       15.9994           0
     61319 W2       20440    TIP3     H1       HT       0.417000       1.00800           0
     61320 W2       20440    TIP3     H2       HT       0.417000       1.00800           0
     61321 W2       20441    TIP3     OH2      OT      -0.834000       15.9994           0
     61322 W2       20441    TIP3     H1       HT       0.417000       1.00800           0
     61323 W2       20441    TIP3     H2       HT       0.417000       1.00800           0
     61324 W2       20442    TIP3     OH2      OT      -0.834000       15.9994           0
     61325 W2       20442    TIP3     H1       HT       0.417000       1.00800           0
     61326 W2       20442    TIP3     H2       HT       0.417000       1.00800           0
     61327 W2       20443    TIP3     OH2      OT      -0.834000       15.9994           0
     61328 W2       20443    TIP3     H1       HT       0.417000       1.00800           0
     61329 W2       20443    TIP3     H2       HT       0.417000       1.00800           0
     61330 W2       20444    TIP3     OH2      OT      -0.834000       15.9994           0
     61331 W2       20444    TIP3     H1       HT       0.417000       1.00800           0
     61332 W2       20444    TIP3     H2       HT       0.417000       1.00800           0
     61333 W2       20445    TIP3     OH2      OT      -0.834000       15.9994           0
     61334 W2       20445    TIP3     H1       HT       0.417000       1.00800           0
     61335 W2       20445    TIP3     H2       HT       0.417000       1.00800           0
     61336 W2       20446    TIP3     OH2      OT      -0.834000       15.9994           0
     61337 W2       20446    TIP3     H1       HT       0.417000       1.00800           0
     61338 W2       20446    TIP3     H2       HT       0.417000       1.00800           0
     61339 W2       20447    TIP3     OH2      OT      -0.834000       15.9994           0
     61340 W2       20447    TIP3     H1       HT       0.417000       1.00800           0
     61341 W2       20447    TIP3     H2       HT       0.417000       1.00800           0
     61342 W2       20448    TIP3     OH2      OT      -0.834000       15.9994           0
     61343 W2       20448    TIP3     H1       HT       0.417000       1.00800           0
     61344 W2       20448    TIP3     H2       HT       0.417000       1.00800           0
     61345 W2       20449    TIP3     OH2      OT      -0.834000       15.9994           0
     61346 W2       20449    TIP3     H1       HT       0.417000       1.00800           0
     61347 W2       20449    TIP3     H2       HT       0.417000       1.00800           0
     61348 W2       20450    TIP3     OH2      OT      -0.834000       15.9994           0
     61349 W2       20450    TIP3     H1       HT       0.417000       1.00800           0
     61350 W2       20450    TIP3     H2       HT       0.417000       1.00800           0
     61351 W2       20451    TIP3     OH2      OT      -0.834000       15.9994           0
     61352 W2       20451    TIP3     H1       HT       0.417000       1.00800           0
     61353 W2       20451    TIP3     H2       HT       0.417000       1.00800           0
     61354 W2       20452    TIP3     OH2      OT      -0.834000       15.9994           0
     61355 W2       20452    TIP3     H1       HT       0.417000       1.00800           0
     61356 W2       20452    TIP3     H2       HT       0.417000       1.00800           0
     61357 W2       20453    TIP3     OH2      OT      -0.834000       15.9994           0
     61358 W2       20453    TIP3     H1       HT       0.417000       1.00800           0
     61359 W2       20453    TIP3     H2       HT       0.417000       1.00800           0
     61360 W2       20454    TIP3     OH2      OT      -0.834000       15.9994           0
     61361 W2       20454    TIP3     H1       HT       0.417000       1.00800           0
     61362 W2       20454    TIP3     H2       HT       0.417000       1.00800           0
     61363 W2       20455    TIP3     OH2      OT      -0.834000       15.9994           0
     61364 W2       20455    TIP3     H1       HT       0.417000       1.00800           0
     61365 W2       20455    TIP3     H2       HT       0.417000       1.00800           0
     61366 W2       20456    TIP3     OH2      OT      -0.834000       15.9994           0
     61367 W2       20456    TIP3     H1       HT       0.417000       1.00800           0
     61368 W2       20456    TIP3     H2       HT       0.417000       1.00800           0
     61369 W2       20457    TIP3     OH2      OT      -0.834000       15.9994           0
     61370 W2       20457    TIP3     H1       HT       0.417000       1.00800           0
     61371 W2       20457    TIP3     H2       HT       0.417000       1.00800           0
     61372 W2       20458    TIP3     OH2      OT      -0.834000       15.9994           0
     61373 W2       20458    TIP3     H1       HT       0.417000       1.00800           0
     61374 W2       20458    TIP3     H2       HT       0.417000       1.00800           0
     61375 W2       20459    TIP3     OH2      OT      -0.834000       15.9994           0
     61376 W2       20459    TIP3     H1       HT       0.417000       1.00800           0
     61377 W2       20459    TIP3     H2       HT       0.417000       1.00800           0
     61378 W2       20460    TIP3     OH2      OT      -0.834000       15.9994           0
     61379 W2       20460    TIP3     H1       HT       0.417000       1.00800           0
     61380 W2       20460    TIP3     H2       HT       0.417000       1.00800           0
     61381 W2       20461    TIP3     OH2      OT      -0.834000       15.9994           0
     61382 W2       20461    TIP3     H1       HT       0.417000       1.00800           0
     61383 W2       20461    TIP3     H2       HT       0.417000       1.00800           0
     61384 W2       20462    TIP3     OH2      OT      -0.834000       15.9994           0
     61385 W2       20462    TIP3     H1       HT       0.417000       1.00800           0
     61386 W2       20462    TIP3     H2       HT       0.417000       1.00800           0
     61387 W2       20463    TIP3     OH2      OT      -0.834000       15.9994           0
     61388 W2       20463    TIP3     H1       HT       0.417000       1.00800           0
     61389 W2       20463    TIP3     H2       HT       0.417000       1.00800           0
     61390 W2       20464    TIP3     OH2      OT      -0.834000       15.9994           0
     61391 W2       20464    TIP3     H1       HT       0.417000       1.00800           0
     61392 W2       20464    TIP3     H2       HT       0.417000       1.00800           0
     61393 W2       20465    TIP3     OH2      OT      -0.834000       15.9994           0
     61394 W2       20465    TIP3     H1       HT       0.417000       1.00800           0
     61395 W2       20465    TIP3     H2       HT       0.417000       1.00800           0
     61396 W2       20466    TIP3     OH2      OT      -0.834000       15.9994           0
     61397 W2       20466    TIP3     H1       HT       0.417000       1.00800           0
     61398 W2       20466    TIP3     H2       HT       0.417000       1.00800           0
     61399 W2       20467    TIP3     OH2      OT      -0.834000       15.9994           0
     61400 W2       20467    TIP3     H1       HT       0.417000       1.00800           0
     61401 W2       20467    TIP3     H2       HT       0.417000       1.00800           0
     61402 W2       20468    TIP3     OH2      OT      -0.834000       15.9994           0
     61403 W2       20468    TIP3     H1       HT       0.417000       1.00800           0
     61404 W2       20468    TIP3     H2       HT       0.417000       1.00800           0
     61405 W2       20469    TIP3     OH2      OT      -0.834000       15.9994           0
     61406 W2       20469    TIP3     H1       HT       0.417000       1.00800           0
     61407 W2       20469    TIP3     H2       HT       0.417000       1.00800           0
     61408 W2       20470    TIP3     OH2      OT      -0.834000       15.9994           0
     61409 W2       20470    TIP3     H1       HT       0.417000       1.00800           0
     61410 W2       20470    TIP3     H2       HT       0.417000       1.00800           0
     61411 W2       20471    TIP3     OH2      OT      -0.834000       15.9994           0
     61412 W2       20471    TIP3     H1       HT       0.417000       1.00800           0
     61413 W2       20471    TIP3     H2       HT       0.417000       1.00800           0
     61414 W2       20472    TIP3     OH2      OT      -0.834000       15.9994           0
     61415 W2       20472    TIP3     H1       HT       0.417000       1.00800           0
     61416 W2       20472    TIP3     H2       HT       0.417000       1.00800           0
     61417 W2       20473    TIP3     OH2      OT      -0.834000       15.9994           0
     61418 W2       20473    TIP3     H1       HT       0.417000       1.00800           0
     61419 W2       20473    TIP3     H2       HT       0.417000       1.00800           0
     61420 W2       20474    TIP3     OH2      OT      -0.834000       15.9994           0
     61421 W2       20474    TIP3     H1       HT       0.417000       1.00800           0
     61422 W2       20474    TIP3     H2       HT       0.417000       1.00800           0
     61423 W2       20475    TIP3     OH2      OT      -0.834000       15.9994           0
     61424 W2       20475    TIP3     H1       HT       0.417000       1.00800           0
     61425 W2       20475    TIP3     H2       HT       0.417000       1.00800           0
     61426 W2       20476    TIP3     OH2      OT      -0.834000       15.9994           0
     61427 W2       20476    TIP3     H1       HT       0.417000       1.00800           0
     61428 W2       20476    TIP3     H2       HT       0.417000       1.00800           0
     61429 W2       20477    TIP3     OH2      OT      -0.834000       15.9994           0
     61430 W2       20477    TIP3     H1       HT       0.417000       1.00800           0
     61431 W2       20477    TIP3     H2       HT       0.417000       1.00800           0
     61432 W2       20478    TIP3     OH2      OT      -0.834000       15.9994           0
     61433 W2       20478    TIP3     H1       HT       0.417000       1.00800           0
     61434 W2       20478    TIP3     H2       HT       0.417000       1.00800           0
     61435 W2       20479    TIP3     OH2      OT      -0.834000       15.9994           0
     61436 W2       20479    TIP3     H1       HT       0.417000       1.00800           0
     61437 W2       20479    TIP3     H2       HT       0.417000       1.00800           0
     61438 W2       20480    TIP3     OH2      OT      -0.834000       15.9994           0
     61439 W2       20480    TIP3     H1       HT       0.417000       1.00800           0
     61440 W2       20480    TIP3     H2       HT       0.417000       1.00800           0
     61441 W2       20481    TIP3     OH2      OT      -0.834000       15.9994           0
     61442 W2       20481    TIP3     H1       HT       0.417000       1.00800           0
     61443 W2       20481    TIP3     H2       HT       0.417000       1.00800           0
     61444 W2       20482    TIP3     OH2      OT      -0.834000       15.9994           0
     61445 W2       20482    TIP3     H1       HT       0.417000       1.00800           0
     61446 W2       20482    TIP3     H2       HT       0.417000       1.00800           0
     61447 W2       20483    TIP3     OH2      OT      -0.834000       15.9994           0
     61448 W2       20483    TIP3     H1       HT       0.417000       1.00800           0
     61449 W2       20483    TIP3     H2       HT       0.417000       1.00800           0
     61450 W2       20484    TIP3     OH2      OT      -0.834000       15.9994           0
     61451 W2       20484    TIP3     H1       HT       0.417000       1.00800           0
     61452 W2       20484    TIP3     H2       HT       0.417000       1.00800           0
     61453 W2       20485    TIP3     OH2      OT      -0.834000       15.9994           0
     61454 W2       20485    TIP3     H1       HT       0.417000       1.00800           0
     61455 W2       20485    TIP3     H2       HT       0.417000       1.00800           0
     61456 W2       20486    TIP3     OH2      OT      -0.834000       15.9994           0
     61457 W2       20486    TIP3     H1       HT       0.417000       1.00800           0
     61458 W2       20486    TIP3     H2       HT       0.417000       1.00800           0
     61459 W2       20487    TIP3     OH2      OT      -0.834000       15.9994           0
     61460 W2       20487    TIP3     H1       HT       0.417000       1.00800           0
     61461 W2       20487    TIP3     H2       HT       0.417000       1.00800           0
     61462 W2       20488    TIP3     OH2      OT      -0.834000       15.9994           0
     61463 W2       20488    TIP3     H1       HT       0.417000       1.00800           0
     61464 W2       20488    TIP3     H2       HT       0.417000       1.00800           0
     61465 W2       20489    TIP3     OH2      OT      -0.834000       15.9994           0
     61466 W2       20489    TIP3     H1       HT       0.417000       1.00800           0
     61467 W2       20489    TIP3     H2       HT       0.417000       1.00800           0
     61468 W2       20490    TIP3     OH2      OT      -0.834000       15.9994           0
     61469 W2       20490    TIP3     H1       HT       0.417000       1.00800           0
     61470 W2       20490    TIP3     H2       HT       0.417000       1.00800           0
     61471 W2       20491    TIP3     OH2      OT      -0.834000       15.9994           0
     61472 W2       20491    TIP3     H1       HT       0.417000       1.00800           0
     61473 W2       20491    TIP3     H2       HT       0.417000       1.00800           0
     61474 W2       20492    TIP3     OH2      OT      -0.834000       15.9994           0
     61475 W2       20492    TIP3     H1       HT       0.417000       1.00800           0
     61476 W2       20492    TIP3     H2       HT       0.417000       1.00800           0
     61477 W2       20493    TIP3     OH2      OT      -0.834000       15.9994           0
     61478 W2       20493    TIP3     H1       HT       0.417000       1.00800           0
     61479 W2       20493    TIP3     H2       HT       0.417000       1.00800           0
     61480 W2       20494    TIP3     OH2      OT      -0.834000       15.9994           0
     61481 W2       20494    TIP3     H1       HT       0.417000       1.00800           0
     61482 W2       20494    TIP3     H2       HT       0.417000       1.00800           0
     61483 W2       20495    TIP3     OH2      OT      -0.834000       15.9994           0
     61484 W2       20495    TIP3     H1       HT       0.417000       1.00800           0
     61485 W2       20495    TIP3     H2       HT       0.417000       1.00800           0
     61486 W2       20496    TIP3     OH2      OT      -0.834000       15.9994           0
     61487 W2       20496    TIP3     H1       HT       0.417000       1.00800           0
     61488 W2       20496    TIP3     H2       HT       0.417000       1.00800           0
     61489 W2       20497    TIP3     OH2      OT      -0.834000       15.9994           0
     61490 W2       20497    TIP3     H1       HT       0.417000       1.00800           0
     61491 W2       20497    TIP3     H2       HT       0.417000       1.00800           0
     61492 W2       20498    TIP3     OH2      OT      -0.834000       15.9994           0
     61493 W2       20498    TIP3     H1       HT       0.417000       1.00800           0
     61494 W2       20498    TIP3     H2       HT       0.417000       1.00800           0
     61495 W2       20499    TIP3     OH2      OT      -0.834000       15.9994           0
     61496 W2       20499    TIP3     H1       HT       0.417000       1.00800           0
     61497 W2       20499    TIP3     H2       HT       0.417000       1.00800           0
     61498 W2       20500    TIP3     OH2      OT      -0.834000       15.9994           0
     61499 W2       20500    TIP3     H1       HT       0.417000       1.00800           0
     61500 W2       20500    TIP3     H2       HT       0.417000       1.00800           0
     61501 W2       20501    TIP3     OH2      OT      -0.834000       15.9994           0
     61502 W2       20501    TIP3     H1       HT       0.417000       1.00800           0
     61503 W2       20501    TIP3     H2       HT       0.417000       1.00800           0
     61504 W2       20502    TIP3     OH2      OT      -0.834000       15.9994           0
     61505 W2       20502    TIP3     H1       HT       0.417000       1.00800           0
     61506 W2       20502    TIP3     H2       HT       0.417000       1.00800           0
     61507 W2       20503    TIP3     OH2      OT      -0.834000       15.9994           0
     61508 W2       20503    TIP3     H1       HT       0.417000       1.00800           0
     61509 W2       20503    TIP3     H2       HT       0.417000       1.00800           0
     61510 W2       20504    TIP3     OH2      OT      -0.834000       15.9994           0
     61511 W2       20504    TIP3     H1       HT       0.417000       1.00800           0
     61512 W2       20504    TIP3     H2       HT       0.417000       1.00800           0
     61513 W2       20505    TIP3     OH2      OT      -0.834000       15.9994           0
     61514 W2       20505    TIP3     H1       HT       0.417000       1.00800           0
     61515 W2       20505    TIP3     H2       HT       0.417000       1.00800           0
     61516 W2       20506    TIP3     OH2      OT      -0.834000       15.9994           0
     61517 W2       20506    TIP3     H1       HT       0.417000       1.00800           0
     61518 W2       20506    TIP3     H2       HT       0.417000       1.00800           0
     61519 W2       20507    TIP3     OH2      OT      -0.834000       15.9994           0
     61520 W2       20507    TIP3     H1       HT       0.417000       1.00800           0
     61521 W2       20507    TIP3     H2       HT       0.417000       1.00800           0
     61522 W2       20508    TIP3     OH2      OT      -0.834000       15.9994           0
     61523 W2       20508    TIP3     H1       HT       0.417000       1.00800           0
     61524 W2       20508    TIP3     H2       HT       0.417000       1.00800           0
     61525 W2       20509    TIP3     OH2      OT      -0.834000       15.9994           0
     61526 W2       20509    TIP3     H1       HT       0.417000       1.00800           0
     61527 W2       20509    TIP3     H2       HT       0.417000       1.00800           0
     61528 W2       20510    TIP3     OH2      OT      -0.834000       15.9994           0
     61529 W2       20510    TIP3     H1       HT       0.417000       1.00800           0
     61530 W2       20510    TIP3     H2       HT       0.417000       1.00800           0
     61531 W2       20511    TIP3     OH2      OT      -0.834000       15.9994           0
     61532 W2       20511    TIP3     H1       HT       0.417000       1.00800           0
     61533 W2       20511    TIP3     H2       HT       0.417000       1.00800           0
     61534 W2       20512    TIP3     OH2      OT      -0.834000       15.9994           0
     61535 W2       20512    TIP3     H1       HT       0.417000       1.00800           0
     61536 W2       20512    TIP3     H2       HT       0.417000       1.00800           0
     61537 W2       20513    TIP3     OH2      OT      -0.834000       15.9994           0
     61538 W2       20513    TIP3     H1       HT       0.417000       1.00800           0
     61539 W2       20513    TIP3     H2       HT       0.417000       1.00800           0
     61540 W2       20514    TIP3     OH2      OT      -0.834000       15.9994           0
     61541 W2       20514    TIP3     H1       HT       0.417000       1.00800           0
     61542 W2       20514    TIP3     H2       HT       0.417000       1.00800           0
     61543 W2       20515    TIP3     OH2      OT      -0.834000       15.9994           0
     61544 W2       20515    TIP3     H1       HT       0.417000       1.00800           0
     61545 W2       20515    TIP3     H2       HT       0.417000       1.00800           0
     61546 W2       20516    TIP3     OH2      OT      -0.834000       15.9994           0
     61547 W2       20516    TIP3     H1       HT       0.417000       1.00800           0
     61548 W2       20516    TIP3     H2       HT       0.417000       1.00800           0
     61549 W2       20517    TIP3     OH2      OT      -0.834000       15.9994           0
     61550 W2       20517    TIP3     H1       HT       0.417000       1.00800           0
     61551 W2       20517    TIP3     H2       HT       0.417000       1.00800           0
     61552 W2       20518    TIP3     OH2      OT      -0.834000       15.9994           0
     61553 W2       20518    TIP3     H1       HT       0.417000       1.00800           0
     61554 W2       20518    TIP3     H2       HT       0.417000       1.00800           0
     61555 W2       20519    TIP3     OH2      OT      -0.834000       15.9994           0
     61556 W2       20519    TIP3     H1       HT       0.417000       1.00800           0
     61557 W2       20519    TIP3     H2       HT       0.417000       1.00800           0
     61558 W2       20520    TIP3     OH2      OT      -0.834000       15.9994           0
     61559 W2       20520    TIP3     H1       HT       0.417000       1.00800           0
     61560 W2       20520    TIP3     H2       HT       0.417000       1.00800           0
     61561 W2       20521    TIP3     OH2      OT      -0.834000       15.9994           0
     61562 W2       20521    TIP3     H1       HT       0.417000       1.00800           0
     61563 W2       20521    TIP3     H2       HT       0.417000       1.00800           0
     61564 W2       20522    TIP3     OH2      OT      -0.834000       15.9994           0
     61565 W2       20522    TIP3     H1       HT       0.417000       1.00800           0
     61566 W2       20522    TIP3     H2       HT       0.417000       1.00800           0
     61567 W2       20523    TIP3     OH2      OT      -0.834000       15.9994           0
     61568 W2       20523    TIP3     H1       HT       0.417000       1.00800           0
     61569 W2       20523    TIP3     H2       HT       0.417000       1.00800           0
     61570 W2       20524    TIP3     OH2      OT      -0.834000       15.9994           0
     61571 W2       20524    TIP3     H1       HT       0.417000       1.00800           0
     61572 W2       20524    TIP3     H2       HT       0.417000       1.00800           0
     61573 W2       20525    TIP3     OH2      OT      -0.834000       15.9994           0
     61574 W2       20525    TIP3     H1       HT       0.417000       1.00800           0
     61575 W2       20525    TIP3     H2       HT       0.417000       1.00800           0
     61576 W2       20526    TIP3     OH2      OT      -0.834000       15.9994           0
     61577 W2       20526    TIP3     H1       HT       0.417000       1.00800           0
     61578 W2       20526    TIP3     H2       HT       0.417000       1.00800           0
     61579 W2       20527    TIP3     OH2      OT      -0.834000       15.9994           0
     61580 W2       20527    TIP3     H1       HT       0.417000       1.00800           0
     61581 W2       20527    TIP3     H2       HT       0.417000       1.00800           0
     61582 W2       20528    TIP3     OH2      OT      -0.834000       15.9994           0
     61583 W2       20528    TIP3     H1       HT       0.417000       1.00800           0
     61584 W2       20528    TIP3     H2       HT       0.417000       1.00800           0
     61585 W2       20529    TIP3     OH2      OT      -0.834000       15.9994           0
     61586 W2       20529    TIP3     H1       HT       0.417000       1.00800           0
     61587 W2       20529    TIP3     H2       HT       0.417000       1.00800           0
     61588 W2       20530    TIP3     OH2      OT      -0.834000       15.9994           0
     61589 W2       20530    TIP3     H1       HT       0.417000       1.00800           0
     61590 W2       20530    TIP3     H2       HT       0.417000       1.00800           0
     61591 W2       20531    TIP3     OH2      OT      -0.834000       15.9994           0
     61592 W2       20531    TIP3     H1       HT       0.417000       1.00800           0
     61593 W2       20531    TIP3     H2       HT       0.417000       1.00800           0
     61594 W2       20532    TIP3     OH2      OT      -0.834000       15.9994           0
     61595 W2       20532    TIP3     H1       HT       0.417000       1.00800           0
     61596 W2       20532    TIP3     H2       HT       0.417000       1.00800           0
     61597 W2       20533    TIP3     OH2      OT      -0.834000       15.9994           0
     61598 W2       20533    TIP3     H1       HT       0.417000       1.00800           0
     61599 W2       20533    TIP3     H2       HT       0.417000       1.00800           0
     61600 W2       20534    TIP3     OH2      OT      -0.834000       15.9994           0
     61601 W2       20534    TIP3     H1       HT       0.417000       1.00800           0
     61602 W2       20534    TIP3     H2       HT       0.417000       1.00800           0
     61603 W2       20535    TIP3     OH2      OT      -0.834000       15.9994           0
     61604 W2       20535    TIP3     H1       HT       0.417000       1.00800           0
     61605 W2       20535    TIP3     H2       HT       0.417000       1.00800           0
     61606 W2       20536    TIP3     OH2      OT      -0.834000       15.9994           0
     61607 W2       20536    TIP3     H1       HT       0.417000       1.00800           0
     61608 W2       20536    TIP3     H2       HT       0.417000       1.00800           0
     61609 W2       20537    TIP3     OH2      OT      -0.834000       15.9994           0
     61610 W2       20537    TIP3     H1       HT       0.417000       1.00800           0
     61611 W2       20537    TIP3     H2       HT       0.417000       1.00800           0
     61612 W2       20538    TIP3     OH2      OT      -0.834000       15.9994           0
     61613 W2       20538    TIP3     H1       HT       0.417000       1.00800           0
     61614 W2       20538    TIP3     H2       HT       0.417000       1.00800           0
     61615 W2       20539    TIP3     OH2      OT      -0.834000       15.9994           0
     61616 W2       20539    TIP3     H1       HT       0.417000       1.00800           0
     61617 W2       20539    TIP3     H2       HT       0.417000       1.00800           0
     61618 W2       20540    TIP3     OH2      OT      -0.834000       15.9994           0
     61619 W2       20540    TIP3     H1       HT       0.417000       1.00800           0
     61620 W2       20540    TIP3     H2       HT       0.417000       1.00800           0
     61621 W2       20541    TIP3     OH2      OT      -0.834000       15.9994           0
     61622 W2       20541    TIP3     H1       HT       0.417000       1.00800           0
     61623 W2       20541    TIP3     H2       HT       0.417000       1.00800           0
     61624 W2       20542    TIP3     OH2      OT      -0.834000       15.9994           0
     61625 W2       20542    TIP3     H1       HT       0.417000       1.00800           0
     61626 W2       20542    TIP3     H2       HT       0.417000       1.00800           0
     61627 W2       20543    TIP3     OH2      OT      -0.834000       15.9994           0
     61628 W2       20543    TIP3     H1       HT       0.417000       1.00800           0
     61629 W2       20543    TIP3     H2       HT       0.417000       1.00800           0
     61630 W2       20544    TIP3     OH2      OT      -0.834000       15.9994           0
     61631 W2       20544    TIP3     H1       HT       0.417000       1.00800           0
     61632 W2       20544    TIP3     H2       HT       0.417000       1.00800           0
     61633 W2       20545    TIP3     OH2      OT      -0.834000       15.9994           0
     61634 W2       20545    TIP3     H1       HT       0.417000       1.00800           0
     61635 W2       20545    TIP3     H2       HT       0.417000       1.00800           0
     61636 W2       20546    TIP3     OH2      OT      -0.834000       15.9994           0
     61637 W2       20546    TIP3     H1       HT       0.417000       1.00800           0
     61638 W2       20546    TIP3     H2       HT       0.417000       1.00800           0
     61639 W2       20547    TIP3     OH2      OT      -0.834000       15.9994           0
     61640 W2       20547    TIP3     H1       HT       0.417000       1.00800           0
     61641 W2       20547    TIP3     H2       HT       0.417000       1.00800           0
     61642 W2       20548    TIP3     OH2      OT      -0.834000       15.9994           0
     61643 W2       20548    TIP3     H1       HT       0.417000       1.00800           0
     61644 W2       20548    TIP3     H2       HT       0.417000       1.00800           0
     61645 W2       20549    TIP3     OH2      OT      -0.834000       15.9994           0
     61646 W2       20549    TIP3     H1       HT       0.417000       1.00800           0
     61647 W2       20549    TIP3     H2       HT       0.417000       1.00800           0
     61648 W2       20550    TIP3     OH2      OT      -0.834000       15.9994           0
     61649 W2       20550    TIP3     H1       HT       0.417000       1.00800           0
     61650 W2       20550    TIP3     H2       HT       0.417000       1.00800           0
     61651 W2       20551    TIP3     OH2      OT      -0.834000       15.9994           0
     61652 W2       20551    TIP3     H1       HT       0.417000       1.00800           0
     61653 W2       20551    TIP3     H2       HT       0.417000       1.00800           0
     61654 W2       20552    TIP3     OH2      OT      -0.834000       15.9994           0
     61655 W2       20552    TIP3     H1       HT       0.417000       1.00800           0
     61656 W2       20552    TIP3     H2       HT       0.417000       1.00800           0
     61657 W2       20553    TIP3     OH2      OT      -0.834000       15.9994           0
     61658 W2       20553    TIP3     H1       HT       0.417000       1.00800           0
     61659 W2       20553    TIP3     H2       HT       0.417000       1.00800           0
     61660 W2       20554    TIP3     OH2      OT      -0.834000       15.9994           0
     61661 W2       20554    TIP3     H1       HT       0.417000       1.00800           0
     61662 W2       20554    TIP3     H2       HT       0.417000       1.00800           0
     61663 W2       20555    TIP3     OH2      OT      -0.834000       15.9994           0
     61664 W2       20555    TIP3     H1       HT       0.417000       1.00800           0
     61665 W2       20555    TIP3     H2       HT       0.417000       1.00800           0
     61666 W2       20556    TIP3     OH2      OT      -0.834000       15.9994           0
     61667 W2       20556    TIP3     H1       HT       0.417000       1.00800           0
     61668 W2       20556    TIP3     H2       HT       0.417000       1.00800           0
     61669 W2       20557    TIP3     OH2      OT      -0.834000       15.9994           0
     61670 W2       20557    TIP3     H1       HT       0.417000       1.00800           0
     61671 W2       20557    TIP3     H2       HT       0.417000       1.00800           0
     61672 W2       20558    TIP3     OH2      OT      -0.834000       15.9994           0
     61673 W2       20558    TIP3     H1       HT       0.417000       1.00800           0
     61674 W2       20558    TIP3     H2       HT       0.417000       1.00800           0
     61675 W2       20559    TIP3     OH2      OT      -0.834000       15.9994           0
     61676 W2       20559    TIP3     H1       HT       0.417000       1.00800           0
     61677 W2       20559    TIP3     H2       HT       0.417000       1.00800           0
     61678 W2       20560    TIP3     OH2      OT      -0.834000       15.9994           0
     61679 W2       20560    TIP3     H1       HT       0.417000       1.00800           0
     61680 W2       20560    TIP3     H2       HT       0.417000       1.00800           0
     61681 W2       20561    TIP3     OH2      OT      -0.834000       15.9994           0
     61682 W2       20561    TIP3     H1       HT       0.417000       1.00800           0
     61683 W2       20561    TIP3     H2       HT       0.417000       1.00800           0
     61684 W2       20562    TIP3     OH2      OT      -0.834000       15.9994           0
     61685 W2       20562    TIP3     H1       HT       0.417000       1.00800           0
     61686 W2       20562    TIP3     H2       HT       0.417000       1.00800           0
     61687 W2       20563    TIP3     OH2      OT      -0.834000       15.9994           0
     61688 W2       20563    TIP3     H1       HT       0.417000       1.00800           0
     61689 W2       20563    TIP3     H2       HT       0.417000       1.00800           0
     61690 W2       20564    TIP3     OH2      OT      -0.834000       15.9994           0
     61691 W2       20564    TIP3     H1       HT       0.417000       1.00800           0
     61692 W2       20564    TIP3     H2       HT       0.417000       1.00800           0
     61693 W2       20565    TIP3     OH2      OT      -0.834000       15.9994           0
     61694 W2       20565    TIP3     H1       HT       0.417000       1.00800           0
     61695 W2       20565    TIP3     H2       HT       0.417000       1.00800           0
     61696 W2       20566    TIP3     OH2      OT      -0.834000       15.9994           0
     61697 W2       20566    TIP3     H1       HT       0.417000       1.00800           0
     61698 W2       20566    TIP3     H2       HT       0.417000       1.00800           0
     61699 W2       20567    TIP3     OH2      OT      -0.834000       15.9994           0
     61700 W2       20567    TIP3     H1       HT       0.417000       1.00800           0
     61701 W2       20567    TIP3     H2       HT       0.417000       1.00800           0
     61702 W2       20568    TIP3     OH2      OT      -0.834000       15.9994           0
     61703 W2       20568    TIP3     H1       HT       0.417000       1.00800           0
     61704 W2       20568    TIP3     H2       HT       0.417000       1.00800           0
     61705 W2       20569    TIP3     OH2      OT      -0.834000       15.9994           0
     61706 W2       20569    TIP3     H1       HT       0.417000       1.00800           0
     61707 W2       20569    TIP3     H2       HT       0.417000       1.00800           0
     61708 W2       20570    TIP3     OH2      OT      -0.834000       15.9994           0
     61709 W2       20570    TIP3     H1       HT       0.417000       1.00800           0
     61710 W2       20570    TIP3     H2       HT       0.417000       1.00800           0
     61711 W2       20571    TIP3     OH2      OT      -0.834000       15.9994           0
     61712 W2       20571    TIP3     H1       HT       0.417000       1.00800           0
     61713 W2       20571    TIP3     H2       HT       0.417000       1.00800           0
     61714 W2       20572    TIP3     OH2      OT      -0.834000       15.9994           0
     61715 W2       20572    TIP3     H1       HT       0.417000       1.00800           0
     61716 W2       20572    TIP3     H2       HT       0.417000       1.00800           0
     61717 W2       20573    TIP3     OH2      OT      -0.834000       15.9994           0
     61718 W2       20573    TIP3     H1       HT       0.417000       1.00800           0
     61719 W2       20573    TIP3     H2       HT       0.417000       1.00800           0
     61720 W2       20574    TIP3     OH2      OT      -0.834000       15.9994           0
     61721 W2       20574    TIP3     H1       HT       0.417000       1.00800           0
     61722 W2       20574    TIP3     H2       HT       0.417000       1.00800           0
     61723 W2       20575    TIP3     OH2      OT      -0.834000       15.9994           0
     61724 W2       20575    TIP3     H1       HT       0.417000       1.00800           0
     61725 W2       20575    TIP3     H2       HT       0.417000       1.00800           0
     61726 W2       20576    TIP3     OH2      OT      -0.834000       15.9994           0
     61727 W2       20576    TIP3     H1       HT       0.417000       1.00800           0
     61728 W2       20576    TIP3     H2       HT       0.417000       1.00800           0
     61729 W2       20577    TIP3     OH2      OT      -0.834000       15.9994           0
     61730 W2       20577    TIP3     H1       HT       0.417000       1.00800           0
     61731 W2       20577    TIP3     H2       HT       0.417000       1.00800           0
     61732 W2       20578    TIP3     OH2      OT      -0.834000       15.9994           0
     61733 W2       20578    TIP3     H1       HT       0.417000       1.00800           0
     61734 W2       20578    TIP3     H2       HT       0.417000       1.00800           0
     61735 W2       20579    TIP3     OH2      OT      -0.834000       15.9994           0
     61736 W2       20579    TIP3     H1       HT       0.417000       1.00800           0
     61737 W2       20579    TIP3     H2       HT       0.417000       1.00800           0
     61738 W2       20580    TIP3     OH2      OT      -0.834000       15.9994           0
     61739 W2       20580    TIP3     H1       HT       0.417000       1.00800           0
     61740 W2       20580    TIP3     H2       HT       0.417000       1.00800           0
     61741 W2       20581    TIP3     OH2      OT      -0.834000       15.9994           0
     61742 W2       20581    TIP3     H1       HT       0.417000       1.00800           0
     61743 W2       20581    TIP3     H2       HT       0.417000       1.00800           0
     61744 W2       20582    TIP3     OH2      OT      -0.834000       15.9994           0
     61745 W2       20582    TIP3     H1       HT       0.417000       1.00800           0
     61746 W2       20582    TIP3     H2       HT       0.417000       1.00800           0
     61747 W2       20583    TIP3     OH2      OT      -0.834000       15.9994           0
     61748 W2       20583    TIP3     H1       HT       0.417000       1.00800           0
     61749 W2       20583    TIP3     H2       HT       0.417000       1.00800           0
     61750 W2       20584    TIP3     OH2      OT      -0.834000       15.9994           0
     61751 W2       20584    TIP3     H1       HT       0.417000       1.00800           0
     61752 W2       20584    TIP3     H2       HT       0.417000       1.00800           0
     61753 W2       20585    TIP3     OH2      OT      -0.834000       15.9994           0
     61754 W2       20585    TIP3     H1       HT       0.417000       1.00800           0
     61755 W2       20585    TIP3     H2       HT       0.417000       1.00800           0
     61756 W2       20586    TIP3     OH2      OT      -0.834000       15.9994           0
     61757 W2       20586    TIP3     H1       HT       0.417000       1.00800           0
     61758 W2       20586    TIP3     H2       HT       0.417000       1.00800           0
     61759 W2       20587    TIP3     OH2      OT      -0.834000       15.9994           0
     61760 W2       20587    TIP3     H1       HT       0.417000       1.00800           0
     61761 W2       20587    TIP3     H2       HT       0.417000       1.00800           0
     61762 W2       20588    TIP3     OH2      OT      -0.834000       15.9994           0
     61763 W2       20588    TIP3     H1       HT       0.417000       1.00800           0
     61764 W2       20588    TIP3     H2       HT       0.417000       1.00800           0
     61765 W2       20589    TIP3     OH2      OT      -0.834000       15.9994           0
     61766 W2       20589    TIP3     H1       HT       0.417000       1.00800           0
     61767 W2       20589    TIP3     H2       HT       0.417000       1.00800           0
     61768 W2       20590    TIP3     OH2      OT      -0.834000       15.9994           0
     61769 W2       20590    TIP3     H1       HT       0.417000       1.00800           0
     61770 W2       20590    TIP3     H2       HT       0.417000       1.00800           0
     61771 W2       20591    TIP3     OH2      OT      -0.834000       15.9994           0
     61772 W2       20591    TIP3     H1       HT       0.417000       1.00800           0
     61773 W2       20591    TIP3     H2       HT       0.417000       1.00800           0
     61774 W2       20592    TIP3     OH2      OT      -0.834000       15.9994           0
     61775 W2       20592    TIP3     H1       HT       0.417000       1.00800           0
     61776 W2       20592    TIP3     H2       HT       0.417000       1.00800           0
     61777 W2       20593    TIP3     OH2      OT      -0.834000       15.9994           0
     61778 W2       20593    TIP3     H1       HT       0.417000       1.00800           0
     61779 W2       20593    TIP3     H2       HT       0.417000       1.00800           0
     61780 W2       20594    TIP3     OH2      OT      -0.834000       15.9994           0
     61781 W2       20594    TIP3     H1       HT       0.417000       1.00800           0
     61782 W2       20594    TIP3     H2       HT       0.417000       1.00800           0
     61783 W2       20595    TIP3     OH2      OT      -0.834000       15.9994           0
     61784 W2       20595    TIP3     H1       HT       0.417000       1.00800           0
     61785 W2       20595    TIP3     H2       HT       0.417000       1.00800           0
     61786 W2       20596    TIP3     OH2      OT      -0.834000       15.9994           0
     61787 W2       20596    TIP3     H1       HT       0.417000       1.00800           0
     61788 W2       20596    TIP3     H2       HT       0.417000       1.00800           0
     61789 W2       20597    TIP3     OH2      OT      -0.834000       15.9994           0
     61790 W2       20597    TIP3     H1       HT       0.417000       1.00800           0
     61791 W2       20597    TIP3     H2       HT       0.417000       1.00800           0
     61792 W2       20598    TIP3     OH2      OT      -0.834000       15.9994           0
     61793 W2       20598    TIP3     H1       HT       0.417000       1.00800           0
     61794 W2       20598    TIP3     H2       HT       0.417000       1.00800           0
     61795 W2       20599    TIP3     OH2      OT      -0.834000       15.9994           0
     61796 W2       20599    TIP3     H1       HT       0.417000       1.00800           0
     61797 W2       20599    TIP3     H2       HT       0.417000       1.00800           0
     61798 W2       20600    TIP3     OH2      OT      -0.834000       15.9994           0
     61799 W2       20600    TIP3     H1       HT       0.417000       1.00800           0
     61800 W2       20600    TIP3     H2       HT       0.417000       1.00800           0
     61801 W2       20601    TIP3     OH2      OT      -0.834000       15.9994           0
     61802 W2       20601    TIP3     H1       HT       0.417000       1.00800           0
     61803 W2       20601    TIP3     H2       HT       0.417000       1.00800           0
     61804 W2       20602    TIP3     OH2      OT      -0.834000       15.9994           0
     61805 W2       20602    TIP3     H1       HT       0.417000       1.00800           0
     61806 W2       20602    TIP3     H2       HT       0.417000       1.00800           0
     61807 W2       20603    TIP3     OH2      OT      -0.834000       15.9994           0
     61808 W2       20603    TIP3     H1       HT       0.417000       1.00800           0
     61809 W2       20603    TIP3     H2       HT       0.417000       1.00800           0
     61810 W2       20604    TIP3     OH2      OT      -0.834000       15.9994           0
     61811 W2       20604    TIP3     H1       HT       0.417000       1.00800           0
     61812 W2       20604    TIP3     H2       HT       0.417000       1.00800           0
     61813 W2       20605    TIP3     OH2      OT      -0.834000       15.9994           0
     61814 W2       20605    TIP3     H1       HT       0.417000       1.00800           0
     61815 W2       20605    TIP3     H2       HT       0.417000       1.00800           0
     61816 W2       20606    TIP3     OH2      OT      -0.834000       15.9994           0
     61817 W2       20606    TIP3     H1       HT       0.417000       1.00800           0
     61818 W2       20606    TIP3     H2       HT       0.417000       1.00800           0
     61819 W2       20607    TIP3     OH2      OT      -0.834000       15.9994           0
     61820 W2       20607    TIP3     H1       HT       0.417000       1.00800           0
     61821 W2       20607    TIP3     H2       HT       0.417000       1.00800           0
     61822 W2       20608    TIP3     OH2      OT      -0.834000       15.9994           0
     61823 W2       20608    TIP3     H1       HT       0.417000       1.00800           0
     61824 W2       20608    TIP3     H2       HT       0.417000       1.00800           0
     61825 W2       20609    TIP3     OH2      OT      -0.834000       15.9994           0
     61826 W2       20609    TIP3     H1       HT       0.417000       1.00800           0
     61827 W2       20609    TIP3     H2       HT       0.417000       1.00800           0
     61828 W2       20610    TIP3     OH2      OT      -0.834000       15.9994           0
     61829 W2       20610    TIP3     H1       HT       0.417000       1.00800           0
     61830 W2       20610    TIP3     H2       HT       0.417000       1.00800           0
     61831 W2       20611    TIP3     OH2      OT      -0.834000       15.9994           0
     61832 W2       20611    TIP3     H1       HT       0.417000       1.00800           0
     61833 W2       20611    TIP3     H2       HT       0.417000       1.00800           0
     61834 W2       20612    TIP3     OH2      OT      -0.834000       15.9994           0
     61835 W2       20612    TIP3     H1       HT       0.417000       1.00800           0
     61836 W2       20612    TIP3     H2       HT       0.417000       1.00800           0
     61837 W2       20613    TIP3     OH2      OT      -0.834000       15.9994           0
     61838 W2       20613    TIP3     H1       HT       0.417000       1.00800           0
     61839 W2       20613    TIP3     H2       HT       0.417000       1.00800           0
     61840 W2       20614    TIP3     OH2      OT      -0.834000       15.9994           0
     61841 W2       20614    TIP3     H1       HT       0.417000       1.00800           0
     61842 W2       20614    TIP3     H2       HT       0.417000       1.00800           0
     61843 W2       20615    TIP3     OH2      OT      -0.834000       15.9994           0
     61844 W2       20615    TIP3     H1       HT       0.417000       1.00800           0
     61845 W2       20615    TIP3     H2       HT       0.417000       1.00800           0
     61846 W2       20616    TIP3     OH2      OT      -0.834000       15.9994           0
     61847 W2       20616    TIP3     H1       HT       0.417000       1.00800           0
     61848 W2       20616    TIP3     H2       HT       0.417000       1.00800           0
     61849 W2       20617    TIP3     OH2      OT      -0.834000       15.9994           0
     61850 W2       20617    TIP3     H1       HT       0.417000       1.00800           0
     61851 W2       20617    TIP3     H2       HT       0.417000       1.00800           0
     61852 W2       20618    TIP3     OH2      OT      -0.834000       15.9994           0
     61853 W2       20618    TIP3     H1       HT       0.417000       1.00800           0
     61854 W2       20618    TIP3     H2       HT       0.417000       1.00800           0
     61855 W2       20619    TIP3     OH2      OT      -0.834000       15.9994           0
     61856 W2       20619    TIP3     H1       HT       0.417000       1.00800           0
     61857 W2       20619    TIP3     H2       HT       0.417000       1.00800           0
     61858 W2       20620    TIP3     OH2      OT      -0.834000       15.9994           0
     61859 W2       20620    TIP3     H1       HT       0.417000       1.00800           0
     61860 W2       20620    TIP3     H2       HT       0.417000       1.00800           0
     61861 W2       20621    TIP3     OH2      OT      -0.834000       15.9994           0
     61862 W2       20621    TIP3     H1       HT       0.417000       1.00800           0
     61863 W2       20621    TIP3     H2       HT       0.417000       1.00800           0
     61864 W2       20622    TIP3     OH2      OT      -0.834000       15.9994           0
     61865 W2       20622    TIP3     H1       HT       0.417000       1.00800           0
     61866 W2       20622    TIP3     H2       HT       0.417000       1.00800           0
     61867 W2       20623    TIP3     OH2      OT      -0.834000       15.9994           0
     61868 W2       20623    TIP3     H1       HT       0.417000       1.00800           0
     61869 W2       20623    TIP3     H2       HT       0.417000       1.00800           0
     61870 W2       20624    TIP3     OH2      OT      -0.834000       15.9994           0
     61871 W2       20624    TIP3     H1       HT       0.417000       1.00800           0
     61872 W2       20624    TIP3     H2       HT       0.417000       1.00800           0
     61873 W2       20625    TIP3     OH2      OT      -0.834000       15.9994           0
     61874 W2       20625    TIP3     H1       HT       0.417000       1.00800           0
     61875 W2       20625    TIP3     H2       HT       0.417000       1.00800           0
     61876 W2       20626    TIP3     OH2      OT      -0.834000       15.9994           0
     61877 W2       20626    TIP3     H1       HT       0.417000       1.00800           0
     61878 W2       20626    TIP3     H2       HT       0.417000       1.00800           0
     61879 W2       20627    TIP3     OH2      OT      -0.834000       15.9994           0
     61880 W2       20627    TIP3     H1       HT       0.417000       1.00800           0
     61881 W2       20627    TIP3     H2       HT       0.417000       1.00800           0
     61882 W2       20628    TIP3     OH2      OT      -0.834000       15.9994           0
     61883 W2       20628    TIP3     H1       HT       0.417000       1.00800           0
     61884 W2       20628    TIP3     H2       HT       0.417000       1.00800           0
     61885 W2       20629    TIP3     OH2      OT      -0.834000       15.9994           0
     61886 W2       20629    TIP3     H1       HT       0.417000       1.00800           0
     61887 W2       20629    TIP3     H2       HT       0.417000       1.00800           0
     61888 W2       20630    TIP3     OH2      OT      -0.834000       15.9994           0
     61889 W2       20630    TIP3     H1       HT       0.417000       1.00800           0
     61890 W2       20630    TIP3     H2       HT       0.417000       1.00800           0
     61891 W2       20631    TIP3     OH2      OT      -0.834000       15.9994           0
     61892 W2       20631    TIP3     H1       HT       0.417000       1.00800           0
     61893 W2       20631    TIP3     H2       HT       0.417000       1.00800           0
     61894 W2       20632    TIP3     OH2      OT      -0.834000       15.9994           0
     61895 W2       20632    TIP3     H1       HT       0.417000       1.00800           0
     61896 W2       20632    TIP3     H2       HT       0.417000       1.00800           0
     61897 W2       20633    TIP3     OH2      OT      -0.834000       15.9994           0
     61898 W2       20633    TIP3     H1       HT       0.417000       1.00800           0
     61899 W2       20633    TIP3     H2       HT       0.417000       1.00800           0
     61900 W2       20634    TIP3     OH2      OT      -0.834000       15.9994           0
     61901 W2       20634    TIP3     H1       HT       0.417000       1.00800           0
     61902 W2       20634    TIP3     H2       HT       0.417000       1.00800           0
     61903 W2       20635    TIP3     OH2      OT      -0.834000       15.9994           0
     61904 W2       20635    TIP3     H1       HT       0.417000       1.00800           0
     61905 W2       20635    TIP3     H2       HT       0.417000       1.00800           0
     61906 W2       20636    TIP3     OH2      OT      -0.834000       15.9994           0
     61907 W2       20636    TIP3     H1       HT       0.417000       1.00800           0
     61908 W2       20636    TIP3     H2       HT       0.417000       1.00800           0
     61909 W2       20637    TIP3     OH2      OT      -0.834000       15.9994           0
     61910 W2       20637    TIP3     H1       HT       0.417000       1.00800           0
     61911 W2       20637    TIP3     H2       HT       0.417000       1.00800           0
     61912 W2       20638    TIP3     OH2      OT      -0.834000       15.9994           0
     61913 W2       20638    TIP3     H1       HT       0.417000       1.00800           0
     61914 W2       20638    TIP3     H2       HT       0.417000       1.00800           0
     61915 W2       20639    TIP3     OH2      OT      -0.834000       15.9994           0
     61916 W2       20639    TIP3     H1       HT       0.417000       1.00800           0
     61917 W2       20639    TIP3     H2       HT       0.417000       1.00800           0
     61918 W2       20640    TIP3     OH2      OT      -0.834000       15.9994           0
     61919 W2       20640    TIP3     H1       HT       0.417000       1.00800           0
     61920 W2       20640    TIP3     H2       HT       0.417000       1.00800           0
     61921 W2       20641    TIP3     OH2      OT      -0.834000       15.9994           0
     61922 W2       20641    TIP3     H1       HT       0.417000       1.00800           0
     61923 W2       20641    TIP3     H2       HT       0.417000       1.00800           0
     61924 W2       20642    TIP3     OH2      OT      -0.834000       15.9994           0
     61925 W2       20642    TIP3     H1       HT       0.417000       1.00800           0
     61926 W2       20642    TIP3     H2       HT       0.417000       1.00800           0
     61927 W2       20643    TIP3     OH2      OT      -0.834000       15.9994           0
     61928 W2       20643    TIP3     H1       HT       0.417000       1.00800           0
     61929 W2       20643    TIP3     H2       HT       0.417000       1.00800           0
     61930 W2       20644    TIP3     OH2      OT      -0.834000       15.9994           0
     61931 W2       20644    TIP3     H1       HT       0.417000       1.00800           0
     61932 W2       20644    TIP3     H2       HT       0.417000       1.00800           0
     61933 W2       20645    TIP3     OH2      OT      -0.834000       15.9994           0
     61934 W2       20645    TIP3     H1       HT       0.417000       1.00800           0
     61935 W2       20645    TIP3     H2       HT       0.417000       1.00800           0
     61936 W2       20646    TIP3     OH2      OT      -0.834000       15.9994           0
     61937 W2       20646    TIP3     H1       HT       0.417000       1.00800           0
     61938 W2       20646    TIP3     H2       HT       0.417000       1.00800           0
     61939 W2       20647    TIP3     OH2      OT      -0.834000       15.9994           0
     61940 W2       20647    TIP3     H1       HT       0.417000       1.00800           0
     61941 W2       20647    TIP3     H2       HT       0.417000       1.00800           0
     61942 W2       20648    TIP3     OH2      OT      -0.834000       15.9994           0
     61943 W2       20648    TIP3     H1       HT       0.417000       1.00800           0
     61944 W2       20648    TIP3     H2       HT       0.417000       1.00800           0
     61945 W2       20649    TIP3     OH2      OT      -0.834000       15.9994           0
     61946 W2       20649    TIP3     H1       HT       0.417000       1.00800           0
     61947 W2       20649    TIP3     H2       HT       0.417000       1.00800           0
     61948 W2       20650    TIP3     OH2      OT      -0.834000       15.9994           0
     61949 W2       20650    TIP3     H1       HT       0.417000       1.00800           0
     61950 W2       20650    TIP3     H2       HT       0.417000       1.00800           0
     61951 W2       20651    TIP3     OH2      OT      -0.834000       15.9994           0
     61952 W2       20651    TIP3     H1       HT       0.417000       1.00800           0
     61953 W2       20651    TIP3     H2       HT       0.417000       1.00800           0
     61954 W2       20652    TIP3     OH2      OT      -0.834000       15.9994           0
     61955 W2       20652    TIP3     H1       HT       0.417000       1.00800           0
     61956 W2       20652    TIP3     H2       HT       0.417000       1.00800           0
     61957 W2       20653    TIP3     OH2      OT      -0.834000       15.9994           0
     61958 W2       20653    TIP3     H1       HT       0.417000       1.00800           0
     61959 W2       20653    TIP3     H2       HT       0.417000       1.00800           0
     61960 W2       20654    TIP3     OH2      OT      -0.834000       15.9994           0
     61961 W2       20654    TIP3     H1       HT       0.417000       1.00800           0
     61962 W2       20654    TIP3     H2       HT       0.417000       1.00800           0
     61963 W2       20655    TIP3     OH2      OT      -0.834000       15.9994           0
     61964 W2       20655    TIP3     H1       HT       0.417000       1.00800           0
     61965 W2       20655    TIP3     H2       HT       0.417000       1.00800           0
     61966 W2       20656    TIP3     OH2      OT      -0.834000       15.9994           0
     61967 W2       20656    TIP3     H1       HT       0.417000       1.00800           0
     61968 W2       20656    TIP3     H2       HT       0.417000       1.00800           0
     61969 W2       20657    TIP3     OH2      OT      -0.834000       15.9994           0
     61970 W2       20657    TIP3     H1       HT       0.417000       1.00800           0
     61971 W2       20657    TIP3     H2       HT       0.417000       1.00800           0
     61972 W2       20658    TIP3     OH2      OT      -0.834000       15.9994           0
     61973 W2       20658    TIP3     H1       HT       0.417000       1.00800           0
     61974 W2       20658    TIP3     H2       HT       0.417000       1.00800           0
     61975 W2       20659    TIP3     OH2      OT      -0.834000       15.9994           0
     61976 W2       20659    TIP3     H1       HT       0.417000       1.00800           0
     61977 W2       20659    TIP3     H2       HT       0.417000       1.00800           0
     61978 W2       20660    TIP3     OH2      OT      -0.834000       15.9994           0
     61979 W2       20660    TIP3     H1       HT       0.417000       1.00800           0
     61980 W2       20660    TIP3     H2       HT       0.417000       1.00800           0
     61981 W2       20661    TIP3     OH2      OT      -0.834000       15.9994           0
     61982 W2       20661    TIP3     H1       HT       0.417000       1.00800           0
     61983 W2       20661    TIP3     H2       HT       0.417000       1.00800           0
     61984 W2       20662    TIP3     OH2      OT      -0.834000       15.9994           0
     61985 W2       20662    TIP3     H1       HT       0.417000       1.00800           0
     61986 W2       20662    TIP3     H2       HT       0.417000       1.00800           0
     61987 W2       20663    TIP3     OH2      OT      -0.834000       15.9994           0
     61988 W2       20663    TIP3     H1       HT       0.417000       1.00800           0
     61989 W2       20663    TIP3     H2       HT       0.417000       1.00800           0
     61990 W2       20664    TIP3     OH2      OT      -0.834000       15.9994           0
     61991 W2       20664    TIP3     H1       HT       0.417000       1.00800           0
     61992 W2       20664    TIP3     H2       HT       0.417000       1.00800           0
     61993 W2       20665    TIP3     OH2      OT      -0.834000       15.9994           0
     61994 W2       20665    TIP3     H1       HT       0.417000       1.00800           0
     61995 W2       20665    TIP3     H2       HT       0.417000       1.00800           0
     61996 W2       20666    TIP3     OH2      OT      -0.834000       15.9994           0
     61997 W2       20666    TIP3     H1       HT       0.417000       1.00800           0
     61998 W2       20666    TIP3     H2       HT       0.417000       1.00800           0
     61999 W2       20667    TIP3     OH2      OT      -0.834000       15.9994           0
     62000 W2       20667    TIP3     H1       HT       0.417000       1.00800           0
     62001 W2       20667    TIP3     H2       HT       0.417000       1.00800           0
     62002 W2       20668    TIP3     OH2      OT      -0.834000       15.9994           0
     62003 W2       20668    TIP3     H1       HT       0.417000       1.00800           0
     62004 W2       20668    TIP3     H2       HT       0.417000       1.00800           0
     62005 W2       20669    TIP3     OH2      OT      -0.834000       15.9994           0
     62006 W2       20669    TIP3     H1       HT       0.417000       1.00800           0
     62007 W2       20669    TIP3     H2       HT       0.417000       1.00800           0
     62008 W2       20670    TIP3     OH2      OT      -0.834000       15.9994           0
     62009 W2       20670    TIP3     H1       HT       0.417000       1.00800           0
     62010 W2       20670    TIP3     H2       HT       0.417000       1.00800           0
     62011 W2       20671    TIP3     OH2      OT      -0.834000       15.9994           0
     62012 W2       20671    TIP3     H1       HT       0.417000       1.00800           0
     62013 W2       20671    TIP3     H2       HT       0.417000       1.00800           0
     62014 W2       20672    TIP3     OH2      OT      -0.834000       15.9994           0
     62015 W2       20672    TIP3     H1       HT       0.417000       1.00800           0
     62016 W2       20672    TIP3     H2       HT       0.417000       1.00800           0
     62017 W2       20673    TIP3     OH2      OT      -0.834000       15.9994           0
     62018 W2       20673    TIP3     H1       HT       0.417000       1.00800           0
     62019 W2       20673    TIP3     H2       HT       0.417000       1.00800           0
     62020 W2       20674    TIP3     OH2      OT      -0.834000       15.9994           0
     62021 W2       20674    TIP3     H1       HT       0.417000       1.00800           0
     62022 W2       20674    TIP3     H2       HT       0.417000       1.00800           0
     62023 W2       20675    TIP3     OH2      OT      -0.834000       15.9994           0
     62024 W2       20675    TIP3     H1       HT       0.417000       1.00800           0
     62025 W2       20675    TIP3     H2       HT       0.417000       1.00800           0
     62026 W2       20676    TIP3     OH2      OT      -0.834000       15.9994           0
     62027 W2       20676    TIP3     H1       HT       0.417000       1.00800           0
     62028 W2       20676    TIP3     H2       HT       0.417000       1.00800           0
     62029 W2       20677    TIP3     OH2      OT      -0.834000       15.9994           0
     62030 W2       20677    TIP3     H1       HT       0.417000       1.00800           0
     62031 W2       20677    TIP3     H2       HT       0.417000       1.00800           0
     62032 W2       20678    TIP3     OH2      OT      -0.834000       15.9994           0
     62033 W2       20678    TIP3     H1       HT       0.417000       1.00800           0
     62034 W2       20678    TIP3     H2       HT       0.417000       1.00800           0
     62035 W2       20679    TIP3     OH2      OT      -0.834000       15.9994           0
     62036 W2       20679    TIP3     H1       HT       0.417000       1.00800           0
     62037 W2       20679    TIP3     H2       HT       0.417000       1.00800           0
     62038 W2       20680    TIP3     OH2      OT      -0.834000       15.9994           0
     62039 W2       20680    TIP3     H1       HT       0.417000       1.00800           0
     62040 W2       20680    TIP3     H2       HT       0.417000       1.00800           0
     62041 W2       20681    TIP3     OH2      OT      -0.834000       15.9994           0
     62042 W2       20681    TIP3     H1       HT       0.417000       1.00800           0
     62043 W2       20681    TIP3     H2       HT       0.417000       1.00800           0
     62044 W2       20682    TIP3     OH2      OT      -0.834000       15.9994           0
     62045 W2       20682    TIP3     H1       HT       0.417000       1.00800           0
     62046 W2       20682    TIP3     H2       HT       0.417000       1.00800           0
     62047 W2       20683    TIP3     OH2      OT      -0.834000       15.9994           0
     62048 W2       20683    TIP3     H1       HT       0.417000       1.00800           0
     62049 W2       20683    TIP3     H2       HT       0.417000       1.00800           0
     62050 W2       20684    TIP3     OH2      OT      -0.834000       15.9994           0
     62051 W2       20684    TIP3     H1       HT       0.417000       1.00800           0
     62052 W2       20684    TIP3     H2       HT       0.417000       1.00800           0
     62053 W2       20685    TIP3     OH2      OT      -0.834000       15.9994           0
     62054 W2       20685    TIP3     H1       HT       0.417000       1.00800           0
     62055 W2       20685    TIP3     H2       HT       0.417000       1.00800           0
     62056 W2       20686    TIP3     OH2      OT      -0.834000       15.9994           0
     62057 W2       20686    TIP3     H1       HT       0.417000       1.00800           0
     62058 W2       20686    TIP3     H2       HT       0.417000       1.00800           0
     62059 W2       20687    TIP3     OH2      OT      -0.834000       15.9994           0
     62060 W2       20687    TIP3     H1       HT       0.417000       1.00800           0
     62061 W2       20687    TIP3     H2       HT       0.417000       1.00800           0
     62062 W2       20688    TIP3     OH2      OT      -0.834000       15.9994           0
     62063 W2       20688    TIP3     H1       HT       0.417000       1.00800           0
     62064 W2       20688    TIP3     H2       HT       0.417000       1.00800           0
     62065 W2       20689    TIP3     OH2      OT      -0.834000       15.9994           0
     62066 W2       20689    TIP3     H1       HT       0.417000       1.00800           0
     62067 W2       20689    TIP3     H2       HT       0.417000       1.00800           0
     62068 W2       20690    TIP3     OH2      OT      -0.834000       15.9994           0
     62069 W2       20690    TIP3     H1       HT       0.417000       1.00800           0
     62070 W2       20690    TIP3     H2       HT       0.417000       1.00800           0
     62071 W2       20691    TIP3     OH2      OT      -0.834000       15.9994           0
     62072 W2       20691    TIP3     H1       HT       0.417000       1.00800           0
     62073 W2       20691    TIP3     H2       HT       0.417000       1.00800           0
     62074 W2       20692    TIP3     OH2      OT      -0.834000       15.9994           0
     62075 W2       20692    TIP3     H1       HT       0.417000       1.00800           0
     62076 W2       20692    TIP3     H2       HT       0.417000       1.00800           0
     62077 W2       20693    TIP3     OH2      OT      -0.834000       15.9994           0
     62078 W2       20693    TIP3     H1       HT       0.417000       1.00800           0
     62079 W2       20693    TIP3     H2       HT       0.417000       1.00800           0
     62080 W2       20694    TIP3     OH2      OT      -0.834000       15.9994           0
     62081 W2       20694    TIP3     H1       HT       0.417000       1.00800           0
     62082 W2       20694    TIP3     H2       HT       0.417000       1.00800           0
     62083 W2       20695    TIP3     OH2      OT      -0.834000       15.9994           0
     62084 W2       20695    TIP3     H1       HT       0.417000       1.00800           0
     62085 W2       20695    TIP3     H2       HT       0.417000       1.00800           0
     62086 W2       20696    TIP3     OH2      OT      -0.834000       15.9994           0
     62087 W2       20696    TIP3     H1       HT       0.417000       1.00800           0
     62088 W2       20696    TIP3     H2       HT       0.417000       1.00800           0
     62089 W2       20697    TIP3     OH2      OT      -0.834000       15.9994           0
     62090 W2       20697    TIP3     H1       HT       0.417000       1.00800           0
     62091 W2       20697    TIP3     H2       HT       0.417000       1.00800           0
     62092 W2       20698    TIP3     OH2      OT      -0.834000       15.9994           0
     62093 W2       20698    TIP3     H1       HT       0.417000       1.00800           0
     62094 W2       20698    TIP3     H2       HT       0.417000       1.00800           0
     62095 W2       20699    TIP3     OH2      OT      -0.834000       15.9994           0
     62096 W2       20699    TIP3     H1       HT       0.417000       1.00800           0
     62097 W2       20699    TIP3     H2       HT       0.417000       1.00800           0
     62098 W2       20700    TIP3     OH2      OT      -0.834000       15.9994           0
     62099 W2       20700    TIP3     H1       HT       0.417000       1.00800           0
     62100 W2       20700    TIP3     H2       HT       0.417000       1.00800           0
     62101 W2       20701    TIP3     OH2      OT      -0.834000       15.9994           0
     62102 W2       20701    TIP3     H1       HT       0.417000       1.00800           0
     62103 W2       20701    TIP3     H2       HT       0.417000       1.00800           0
     62104 W2       20702    TIP3     OH2      OT      -0.834000       15.9994           0
     62105 W2       20702    TIP3     H1       HT       0.417000       1.00800           0
     62106 W2       20702    TIP3     H2       HT       0.417000       1.00800           0
     62107 W2       20703    TIP3     OH2      OT      -0.834000       15.9994           0
     62108 W2       20703    TIP3     H1       HT       0.417000       1.00800           0
     62109 W2       20703    TIP3     H2       HT       0.417000       1.00800           0
     62110 W2       20704    TIP3     OH2      OT      -0.834000       15.9994           0
     62111 W2       20704    TIP3     H1       HT       0.417000       1.00800           0
     62112 W2       20704    TIP3     H2       HT       0.417000       1.00800           0
     62113 W2       20705    TIP3     OH2      OT      -0.834000       15.9994           0
     62114 W2       20705    TIP3     H1       HT       0.417000       1.00800           0
     62115 W2       20705    TIP3     H2       HT       0.417000       1.00800           0
     62116 W2       20706    TIP3     OH2      OT      -0.834000       15.9994           0
     62117 W2       20706    TIP3     H1       HT       0.417000       1.00800           0
     62118 W2       20706    TIP3     H2       HT       0.417000       1.00800           0
     62119 W2       20707    TIP3     OH2      OT      -0.834000       15.9994           0
     62120 W2       20707    TIP3     H1       HT       0.417000       1.00800           0
     62121 W2       20707    TIP3     H2       HT       0.417000       1.00800           0
     62122 W2       20708    TIP3     OH2      OT      -0.834000       15.9994           0
     62123 W2       20708    TIP3     H1       HT       0.417000       1.00800           0
     62124 W2       20708    TIP3     H2       HT       0.417000       1.00800           0
     62125 W2       20709    TIP3     OH2      OT      -0.834000       15.9994           0
     62126 W2       20709    TIP3     H1       HT       0.417000       1.00800           0
     62127 W2       20709    TIP3     H2       HT       0.417000       1.00800           0
     62128 W2       20710    TIP3     OH2      OT      -0.834000       15.9994           0
     62129 W2       20710    TIP3     H1       HT       0.417000       1.00800           0
     62130 W2       20710    TIP3     H2       HT       0.417000       1.00800           0
     62131 W2       20711    TIP3     OH2      OT      -0.834000       15.9994           0
     62132 W2       20711    TIP3     H1       HT       0.417000       1.00800           0
     62133 W2       20711    TIP3     H2       HT       0.417000       1.00800           0
     62134 W2       20712    TIP3     OH2      OT      -0.834000       15.9994           0
     62135 W2       20712    TIP3     H1       HT       0.417000       1.00800           0
     62136 W2       20712    TIP3     H2       HT       0.417000       1.00800           0
     62137 W2       20713    TIP3     OH2      OT      -0.834000       15.9994           0
     62138 W2       20713    TIP3     H1       HT       0.417000       1.00800           0
     62139 W2       20713    TIP3     H2       HT       0.417000       1.00800           0
     62140 W2       20714    TIP3     OH2      OT      -0.834000       15.9994           0
     62141 W2       20714    TIP3     H1       HT       0.417000       1.00800           0
     62142 W2       20714    TIP3     H2       HT       0.417000       1.00800           0
     62143 W2       20715    TIP3     OH2      OT      -0.834000       15.9994           0
     62144 W2       20715    TIP3     H1       HT       0.417000       1.00800           0
     62145 W2       20715    TIP3     H2       HT       0.417000       1.00800           0
     62146 W2       20716    TIP3     OH2      OT      -0.834000       15.9994           0
     62147 W2       20716    TIP3     H1       HT       0.417000       1.00800           0
     62148 W2       20716    TIP3     H2       HT       0.417000       1.00800           0
     62149 W2       20717    TIP3     OH2      OT      -0.834000       15.9994           0
     62150 W2       20717    TIP3     H1       HT       0.417000       1.00800           0
     62151 W2       20717    TIP3     H2       HT       0.417000       1.00800           0
     62152 W2       20718    TIP3     OH2      OT      -0.834000       15.9994           0
     62153 W2       20718    TIP3     H1       HT       0.417000       1.00800           0
     62154 W2       20718    TIP3     H2       HT       0.417000       1.00800           0
     62155 W2       20719    TIP3     OH2      OT      -0.834000       15.9994           0
     62156 W2       20719    TIP3     H1       HT       0.417000       1.00800           0
     62157 W2       20719    TIP3     H2       HT       0.417000       1.00800           0
     62158 W2       20720    TIP3     OH2      OT      -0.834000       15.9994           0
     62159 W2       20720    TIP3     H1       HT       0.417000       1.00800           0
     62160 W2       20720    TIP3     H2       HT       0.417000       1.00800           0
     62161 W2       20721    TIP3     OH2      OT      -0.834000       15.9994           0
     62162 W2       20721    TIP3     H1       HT       0.417000       1.00800           0
     62163 W2       20721    TIP3     H2       HT       0.417000       1.00800           0
     62164 W2       20722    TIP3     OH2      OT      -0.834000       15.9994           0
     62165 W2       20722    TIP3     H1       HT       0.417000       1.00800           0
     62166 W2       20722    TIP3     H2       HT       0.417000       1.00800           0
     62167 W2       20723    TIP3     OH2      OT      -0.834000       15.9994           0
     62168 W2       20723    TIP3     H1       HT       0.417000       1.00800           0
     62169 W2       20723    TIP3     H2       HT       0.417000       1.00800           0
     62170 W2       20724    TIP3     OH2      OT      -0.834000       15.9994           0
     62171 W2       20724    TIP3     H1       HT       0.417000       1.00800           0
     62172 W2       20724    TIP3     H2       HT       0.417000       1.00800           0
     62173 W2       20725    TIP3     OH2      OT      -0.834000       15.9994           0
     62174 W2       20725    TIP3     H1       HT       0.417000       1.00800           0
     62175 W2       20725    TIP3     H2       HT       0.417000       1.00800           0
     62176 W2       20726    TIP3     OH2      OT      -0.834000       15.9994           0
     62177 W2       20726    TIP3     H1       HT       0.417000       1.00800           0
     62178 W2       20726    TIP3     H2       HT       0.417000       1.00800           0
     62179 W2       20727    TIP3     OH2      OT      -0.834000       15.9994           0
     62180 W2       20727    TIP3     H1       HT       0.417000       1.00800           0
     62181 W2       20727    TIP3     H2       HT       0.417000       1.00800           0
     62182 W2       20728    TIP3     OH2      OT      -0.834000       15.9994           0
     62183 W2       20728    TIP3     H1       HT       0.417000       1.00800           0
     62184 W2       20728    TIP3     H2       HT       0.417000       1.00800           0
     62185 W2       20729    TIP3     OH2      OT      -0.834000       15.9994           0
     62186 W2       20729    TIP3     H1       HT       0.417000       1.00800           0
     62187 W2       20729    TIP3     H2       HT       0.417000       1.00800           0
     62188 W2       20730    TIP3     OH2      OT      -0.834000       15.9994           0
     62189 W2       20730    TIP3     H1       HT       0.417000       1.00800           0
     62190 W2       20730    TIP3     H2       HT       0.417000       1.00800           0
     62191 W2       20731    TIP3     OH2      OT      -0.834000       15.9994           0
     62192 W2       20731    TIP3     H1       HT       0.417000       1.00800           0
     62193 W2       20731    TIP3     H2       HT       0.417000       1.00800           0
     62194 W2       20732    TIP3     OH2      OT      -0.834000       15.9994           0
     62195 W2       20732    TIP3     H1       HT       0.417000       1.00800           0
     62196 W2       20732    TIP3     H2       HT       0.417000       1.00800           0
     62197 W2       20733    TIP3     OH2      OT      -0.834000       15.9994           0
     62198 W2       20733    TIP3     H1       HT       0.417000       1.00800           0
     62199 W2       20733    TIP3     H2       HT       0.417000       1.00800           0
     62200 W2       20734    TIP3     OH2      OT      -0.834000       15.9994           0
     62201 W2       20734    TIP3     H1       HT       0.417000       1.00800           0
     62202 W2       20734    TIP3     H2       HT       0.417000       1.00800           0
     62203 W2       20735    TIP3     OH2      OT      -0.834000       15.9994           0
     62204 W2       20735    TIP3     H1       HT       0.417000       1.00800           0
     62205 W2       20735    TIP3     H2       HT       0.417000       1.00800           0
     62206 W2       20736    TIP3     OH2      OT      -0.834000       15.9994           0
     62207 W2       20736    TIP3     H1       HT       0.417000       1.00800           0
     62208 W2       20736    TIP3     H2       HT       0.417000       1.00800           0
     62209 W2       20737    TIP3     OH2      OT      -0.834000       15.9994           0
     62210 W2       20737    TIP3     H1       HT       0.417000       1.00800           0
     62211 W2       20737    TIP3     H2       HT       0.417000       1.00800           0
     62212 W2       20738    TIP3     OH2      OT      -0.834000       15.9994           0
     62213 W2       20738    TIP3     H1       HT       0.417000       1.00800           0
     62214 W2       20738    TIP3     H2       HT       0.417000       1.00800           0
     62215 W2       20739    TIP3     OH2      OT      -0.834000       15.9994           0
     62216 W2       20739    TIP3     H1       HT       0.417000       1.00800           0
     62217 W2       20739    TIP3     H2       HT       0.417000       1.00800           0
     62218 W2       20740    TIP3     OH2      OT      -0.834000       15.9994           0
     62219 W2       20740    TIP3     H1       HT       0.417000       1.00800           0
     62220 W2       20740    TIP3     H2       HT       0.417000       1.00800           0
     62221 W2       20741    TIP3     OH2      OT      -0.834000       15.9994           0
     62222 W2       20741    TIP3     H1       HT       0.417000       1.00800           0
     62223 W2       20741    TIP3     H2       HT       0.417000       1.00800           0
     62224 W2       20742    TIP3     OH2      OT      -0.834000       15.9994           0
     62225 W2       20742    TIP3     H1       HT       0.417000       1.00800           0
     62226 W2       20742    TIP3     H2       HT       0.417000       1.00800           0
     62227 W2       20743    TIP3     OH2      OT      -0.834000       15.9994           0
     62228 W2       20743    TIP3     H1       HT       0.417000       1.00800           0
     62229 W2       20743    TIP3     H2       HT       0.417000       1.00800           0
     62230 W2       20744    TIP3     OH2      OT      -0.834000       15.9994           0
     62231 W2       20744    TIP3     H1       HT       0.417000       1.00800           0
     62232 W2       20744    TIP3     H2       HT       0.417000       1.00800           0
     62233 W2       20745    TIP3     OH2      OT      -0.834000       15.9994           0
     62234 W2       20745    TIP3     H1       HT       0.417000       1.00800           0
     62235 W2       20745    TIP3     H2       HT       0.417000       1.00800           0
     62236 W2       20746    TIP3     OH2      OT      -0.834000       15.9994           0
     62237 W2       20746    TIP3     H1       HT       0.417000       1.00800           0
     62238 W2       20746    TIP3     H2       HT       0.417000       1.00800           0
     62239 W2       20747    TIP3     OH2      OT      -0.834000       15.9994           0
     62240 W2       20747    TIP3     H1       HT       0.417000       1.00800           0
     62241 W2       20747    TIP3     H2       HT       0.417000       1.00800           0
     62242 W2       20748    TIP3     OH2      OT      -0.834000       15.9994           0
     62243 W2       20748    TIP3     H1       HT       0.417000       1.00800           0
     62244 W2       20748    TIP3     H2       HT       0.417000       1.00800           0
     62245 W2       20749    TIP3     OH2      OT      -0.834000       15.9994           0
     62246 W2       20749    TIP3     H1       HT       0.417000       1.00800           0
     62247 W2       20749    TIP3     H2       HT       0.417000       1.00800           0
     62248 W2       20750    TIP3     OH2      OT      -0.834000       15.9994           0
     62249 W2       20750    TIP3     H1       HT       0.417000       1.00800           0
     62250 W2       20750    TIP3     H2       HT       0.417000       1.00800           0
     62251 W2       20751    TIP3     OH2      OT      -0.834000       15.9994           0
     62252 W2       20751    TIP3     H1       HT       0.417000       1.00800           0
     62253 W2       20751    TIP3     H2       HT       0.417000       1.00800           0
     62254 W2       20752    TIP3     OH2      OT      -0.834000       15.9994           0
     62255 W2       20752    TIP3     H1       HT       0.417000       1.00800           0
     62256 W2       20752    TIP3     H2       HT       0.417000       1.00800           0
     62257 W2       20753    TIP3     OH2      OT      -0.834000       15.9994           0
     62258 W2       20753    TIP3     H1       HT       0.417000       1.00800           0
     62259 W2       20753    TIP3     H2       HT       0.417000       1.00800           0
     62260 W2       20754    TIP3     OH2      OT      -0.834000       15.9994           0
     62261 W2       20754    TIP3     H1       HT       0.417000       1.00800           0
     62262 W2       20754    TIP3     H2       HT       0.417000       1.00800           0
     62263 W2       20755    TIP3     OH2      OT      -0.834000       15.9994           0
     62264 W2       20755    TIP3     H1       HT       0.417000       1.00800           0
     62265 W2       20755    TIP3     H2       HT       0.417000       1.00800           0
     62266 W2       20756    TIP3     OH2      OT      -0.834000       15.9994           0
     62267 W2       20756    TIP3     H1       HT       0.417000       1.00800           0
     62268 W2       20756    TIP3     H2       HT       0.417000       1.00800           0
     62269 W2       20757    TIP3     OH2      OT      -0.834000       15.9994           0
     62270 W2       20757    TIP3     H1       HT       0.417000       1.00800           0
     62271 W2       20757    TIP3     H2       HT       0.417000       1.00800           0
     62272 W2       20758    TIP3     OH2      OT      -0.834000       15.9994           0
     62273 W2       20758    TIP3     H1       HT       0.417000       1.00800           0
     62274 W2       20758    TIP3     H2       HT       0.417000       1.00800           0
     62275 W2       20759    TIP3     OH2      OT      -0.834000       15.9994           0
     62276 W2       20759    TIP3     H1       HT       0.417000       1.00800           0
     62277 W2       20759    TIP3     H2       HT       0.417000       1.00800           0
     62278 W2       20760    TIP3     OH2      OT      -0.834000       15.9994           0
     62279 W2       20760    TIP3     H1       HT       0.417000       1.00800           0
     62280 W2       20760    TIP3     H2       HT       0.417000       1.00800           0
     62281 W2       20761    TIP3     OH2      OT      -0.834000       15.9994           0
     62282 W2       20761    TIP3     H1       HT       0.417000       1.00800           0
     62283 W2       20761    TIP3     H2       HT       0.417000       1.00800           0
     62284 W2       20762    TIP3     OH2      OT      -0.834000       15.9994           0
     62285 W2       20762    TIP3     H1       HT       0.417000       1.00800           0
     62286 W2       20762    TIP3     H2       HT       0.417000       1.00800           0
     62287 W2       20763    TIP3     OH2      OT      -0.834000       15.9994           0
     62288 W2       20763    TIP3     H1       HT       0.417000       1.00800           0
     62289 W2       20763    TIP3     H2       HT       0.417000       1.00800           0
     62290 W2       20764    TIP3     OH2      OT      -0.834000       15.9994           0
     62291 W2       20764    TIP3     H1       HT       0.417000       1.00800           0
     62292 W2       20764    TIP3     H2       HT       0.417000       1.00800           0
     62293 W2       20765    TIP3     OH2      OT      -0.834000       15.9994           0
     62294 W2       20765    TIP3     H1       HT       0.417000       1.00800           0
     62295 W2       20765    TIP3     H2       HT       0.417000       1.00800           0
     62296 W2       20766    TIP3     OH2      OT      -0.834000       15.9994           0
     62297 W2       20766    TIP3     H1       HT       0.417000       1.00800           0
     62298 W2       20766    TIP3     H2       HT       0.417000       1.00800           0
     62299 W2       20767    TIP3     OH2      OT      -0.834000       15.9994           0
     62300 W2       20767    TIP3     H1       HT       0.417000       1.00800           0
     62301 W2       20767    TIP3     H2       HT       0.417000       1.00800           0
     62302 W2       20768    TIP3     OH2      OT      -0.834000       15.9994           0
     62303 W2       20768    TIP3     H1       HT       0.417000       1.00800           0
     62304 W2       20768    TIP3     H2       HT       0.417000       1.00800           0
     62305 W2       20769    TIP3     OH2      OT      -0.834000       15.9994           0
     62306 W2       20769    TIP3     H1       HT       0.417000       1.00800           0
     62307 W2       20769    TIP3     H2       HT       0.417000       1.00800           0
     62308 W2       20770    TIP3     OH2      OT      -0.834000       15.9994           0
     62309 W2       20770    TIP3     H1       HT       0.417000       1.00800           0
     62310 W2       20770    TIP3     H2       HT       0.417000       1.00800           0
     62311 W2       20771    TIP3     OH2      OT      -0.834000       15.9994           0
     62312 W2       20771    TIP3     H1       HT       0.417000       1.00800           0
     62313 W2       20771    TIP3     H2       HT       0.417000       1.00800           0
     62314 W2       20772    TIP3     OH2      OT      -0.834000       15.9994           0
     62315 W2       20772    TIP3     H1       HT       0.417000       1.00800           0
     62316 W2       20772    TIP3     H2       HT       0.417000       1.00800           0
     62317 W2       20773    TIP3     OH2      OT      -0.834000       15.9994           0
     62318 W2       20773    TIP3     H1       HT       0.417000       1.00800           0
     62319 W2       20773    TIP3     H2       HT       0.417000       1.00800           0
     62320 W2       20774    TIP3     OH2      OT      -0.834000       15.9994           0
     62321 W2       20774    TIP3     H1       HT       0.417000       1.00800           0
     62322 W2       20774    TIP3     H2       HT       0.417000       1.00800           0
     62323 W2       20775    TIP3     OH2      OT      -0.834000       15.9994           0
     62324 W2       20775    TIP3     H1       HT       0.417000       1.00800           0
     62325 W2       20775    TIP3     H2       HT       0.417000       1.00800           0
     62326 W2       20776    TIP3     OH2      OT      -0.834000       15.9994           0
     62327 W2       20776    TIP3     H1       HT       0.417000       1.00800           0
     62328 W2       20776    TIP3     H2       HT       0.417000       1.00800           0
     62329 W2       20777    TIP3     OH2      OT      -0.834000       15.9994           0
     62330 W2       20777    TIP3     H1       HT       0.417000       1.00800           0
     62331 W2       20777    TIP3     H2       HT       0.417000       1.00800           0
     62332 W2       20778    TIP3     OH2      OT      -0.834000       15.9994           0
     62333 W2       20778    TIP3     H1       HT       0.417000       1.00800           0
     62334 W2       20778    TIP3     H2       HT       0.417000       1.00800           0
     62335 W2       20779    TIP3     OH2      OT      -0.834000       15.9994           0
     62336 W2       20779    TIP3     H1       HT       0.417000       1.00800           0
     62337 W2       20779    TIP3     H2       HT       0.417000       1.00800           0
     62338 W2       20780    TIP3     OH2      OT      -0.834000       15.9994           0
     62339 W2       20780    TIP3     H1       HT       0.417000       1.00800           0
     62340 W2       20780    TIP3     H2       HT       0.417000       1.00800           0
     62341 W2       20781    TIP3     OH2      OT      -0.834000       15.9994           0
     62342 W2       20781    TIP3     H1       HT       0.417000       1.00800           0
     62343 W2       20781    TIP3     H2       HT       0.417000       1.00800           0
     62344 W2       20782    TIP3     OH2      OT      -0.834000       15.9994           0
     62345 W2       20782    TIP3     H1       HT       0.417000       1.00800           0
     62346 W2       20782    TIP3     H2       HT       0.417000       1.00800           0
     62347 W2       20783    TIP3     OH2      OT      -0.834000       15.9994           0
     62348 W2       20783    TIP3     H1       HT       0.417000       1.00800           0
     62349 W2       20783    TIP3     H2       HT       0.417000       1.00800           0
     62350 W2       20784    TIP3     OH2      OT      -0.834000       15.9994           0
     62351 W2       20784    TIP3     H1       HT       0.417000       1.00800           0
     62352 W2       20784    TIP3     H2       HT       0.417000       1.00800           0
     62353 W2       20785    TIP3     OH2      OT      -0.834000       15.9994           0
     62354 W2       20785    TIP3     H1       HT       0.417000       1.00800           0
     62355 W2       20785    TIP3     H2       HT       0.417000       1.00800           0
     62356 W2       20786    TIP3     OH2      OT      -0.834000       15.9994           0
     62357 W2       20786    TIP3     H1       HT       0.417000       1.00800           0
     62358 W2       20786    TIP3     H2       HT       0.417000       1.00800           0
     62359 W2       20787    TIP3     OH2      OT      -0.834000       15.9994           0
     62360 W2       20787    TIP3     H1       HT       0.417000       1.00800           0
     62361 W2       20787    TIP3     H2       HT       0.417000       1.00800           0
     62362 W2       20788    TIP3     OH2      OT      -0.834000       15.9994           0
     62363 W2       20788    TIP3     H1       HT       0.417000       1.00800           0
     62364 W2       20788    TIP3     H2       HT       0.417000       1.00800           0
     62365 W2       20789    TIP3     OH2      OT      -0.834000       15.9994           0
     62366 W2       20789    TIP3     H1       HT       0.417000       1.00800           0
     62367 W2       20789    TIP3     H2       HT       0.417000       1.00800           0
     62368 W2       20790    TIP3     OH2      OT      -0.834000       15.9994           0
     62369 W2       20790    TIP3     H1       HT       0.417000       1.00800           0
     62370 W2       20790    TIP3     H2       HT       0.417000       1.00800           0
     62371 W2       20791    TIP3     OH2      OT      -0.834000       15.9994           0
     62372 W2       20791    TIP3     H1       HT       0.417000       1.00800           0
     62373 W2       20791    TIP3     H2       HT       0.417000       1.00800           0
     62374 W2       20792    TIP3     OH2      OT      -0.834000       15.9994           0
     62375 W2       20792    TIP3     H1       HT       0.417000       1.00800           0
     62376 W2       20792    TIP3     H2       HT       0.417000       1.00800           0
     62377 W2       20793    TIP3     OH2      OT      -0.834000       15.9994           0
     62378 W2       20793    TIP3     H1       HT       0.417000       1.00800           0
     62379 W2       20793    TIP3     H2       HT       0.417000       1.00800           0
     62380 W2       20794    TIP3     OH2      OT      -0.834000       15.9994           0
     62381 W2       20794    TIP3     H1       HT       0.417000       1.00800           0
     62382 W2       20794    TIP3     H2       HT       0.417000       1.00800           0
     62383 W2       20795    TIP3     OH2      OT      -0.834000       15.9994           0
     62384 W2       20795    TIP3     H1       HT       0.417000       1.00800           0
     62385 W2       20795    TIP3     H2       HT       0.417000       1.00800           0
     62386 W2       20796    TIP3     OH2      OT      -0.834000       15.9994           0
     62387 W2       20796    TIP3     H1       HT       0.417000       1.00800           0
     62388 W2       20796    TIP3     H2       HT       0.417000       1.00800           0
     62389 W2       20797    TIP3     OH2      OT      -0.834000       15.9994           0
     62390 W2       20797    TIP3     H1       HT       0.417000       1.00800           0
     62391 W2       20797    TIP3     H2       HT       0.417000       1.00800           0
     62392 W2       20798    TIP3     OH2      OT      -0.834000       15.9994           0
     62393 W2       20798    TIP3     H1       HT       0.417000       1.00800           0
     62394 W2       20798    TIP3     H2       HT       0.417000       1.00800           0
     62395 W2       20799    TIP3     OH2      OT      -0.834000       15.9994           0
     62396 W2       20799    TIP3     H1       HT       0.417000       1.00800           0
     62397 W2       20799    TIP3     H2       HT       0.417000       1.00800           0
     62398 W2       20800    TIP3     OH2      OT      -0.834000       15.9994           0
     62399 W2       20800    TIP3     H1       HT       0.417000       1.00800           0
     62400 W2       20800    TIP3     H2       HT       0.417000       1.00800           0
     62401 W2       20801    TIP3     OH2      OT      -0.834000       15.9994           0
     62402 W2       20801    TIP3     H1       HT       0.417000       1.00800           0
     62403 W2       20801    TIP3     H2       HT       0.417000       1.00800           0
     62404 W2       20802    TIP3     OH2      OT      -0.834000       15.9994           0
     62405 W2       20802    TIP3     H1       HT       0.417000       1.00800           0
     62406 W2       20802    TIP3     H2       HT       0.417000       1.00800           0
     62407 W2       20803    TIP3     OH2      OT      -0.834000       15.9994           0
     62408 W2       20803    TIP3     H1       HT       0.417000       1.00800           0
     62409 W2       20803    TIP3     H2       HT       0.417000       1.00800           0
     62410 W2       20804    TIP3     OH2      OT      -0.834000       15.9994           0
     62411 W2       20804    TIP3     H1       HT       0.417000       1.00800           0
     62412 W2       20804    TIP3     H2       HT       0.417000       1.00800           0
     62413 W2       20805    TIP3     OH2      OT      -0.834000       15.9994           0
     62414 W2       20805    TIP3     H1       HT       0.417000       1.00800           0
     62415 W2       20805    TIP3     H2       HT       0.417000       1.00800           0
     62416 W2       20806    TIP3     OH2      OT      -0.834000       15.9994           0
     62417 W2       20806    TIP3     H1       HT       0.417000       1.00800           0
     62418 W2       20806    TIP3     H2       HT       0.417000       1.00800           0
     62419 W2       20807    TIP3     OH2      OT      -0.834000       15.9994           0
     62420 W2       20807    TIP3     H1       HT       0.417000       1.00800           0
     62421 W2       20807    TIP3     H2       HT       0.417000       1.00800           0
     62422 W2       20808    TIP3     OH2      OT      -0.834000       15.9994           0
     62423 W2       20808    TIP3     H1       HT       0.417000       1.00800           0
     62424 W2       20808    TIP3     H2       HT       0.417000       1.00800           0
     62425 W2       20809    TIP3     OH2      OT      -0.834000       15.9994           0
     62426 W2       20809    TIP3     H1       HT       0.417000       1.00800           0
     62427 W2       20809    TIP3     H2       HT       0.417000       1.00800           0
     62428 W2       20810    TIP3     OH2      OT      -0.834000       15.9994           0
     62429 W2       20810    TIP3     H1       HT       0.417000       1.00800           0
     62430 W2       20810    TIP3     H2       HT       0.417000       1.00800           0
     62431 W2       20811    TIP3     OH2      OT      -0.834000       15.9994           0
     62432 W2       20811    TIP3     H1       HT       0.417000       1.00800           0
     62433 W2       20811    TIP3     H2       HT       0.417000       1.00800           0
     62434 W2       20812    TIP3     OH2      OT      -0.834000       15.9994           0
     62435 W2       20812    TIP3     H1       HT       0.417000       1.00800           0
     62436 W2       20812    TIP3     H2       HT       0.417000       1.00800           0
     62437 W2       20813    TIP3     OH2      OT      -0.834000       15.9994           0
     62438 W2       20813    TIP3     H1       HT       0.417000       1.00800           0
     62439 W2       20813    TIP3     H2       HT       0.417000       1.00800           0
     62440 W2       20814    TIP3     OH2      OT      -0.834000       15.9994           0
     62441 W2       20814    TIP3     H1       HT       0.417000       1.00800           0
     62442 W2       20814    TIP3     H2       HT       0.417000       1.00800           0
     62443 W2       20815    TIP3     OH2      OT      -0.834000       15.9994           0
     62444 W2       20815    TIP3     H1       HT       0.417000       1.00800           0
     62445 W2       20815    TIP3     H2       HT       0.417000       1.00800           0
     62446 W2       20816    TIP3     OH2      OT      -0.834000       15.9994           0
     62447 W2       20816    TIP3     H1       HT       0.417000       1.00800           0
     62448 W2       20816    TIP3     H2       HT       0.417000       1.00800           0
     62449 W2       20817    TIP3     OH2      OT      -0.834000       15.9994           0
     62450 W2       20817    TIP3     H1       HT       0.417000       1.00800           0
     62451 W2       20817    TIP3     H2       HT       0.417000       1.00800           0
     62452 W2       20818    TIP3     OH2      OT      -0.834000       15.9994           0
     62453 W2       20818    TIP3     H1       HT       0.417000       1.00800           0
     62454 W2       20818    TIP3     H2       HT       0.417000       1.00800           0
     62455 W2       20819    TIP3     OH2      OT      -0.834000       15.9994           0
     62456 W2       20819    TIP3     H1       HT       0.417000       1.00800           0
     62457 W2       20819    TIP3     H2       HT       0.417000       1.00800           0
     62458 W2       20820    TIP3     OH2      OT      -0.834000       15.9994           0
     62459 W2       20820    TIP3     H1       HT       0.417000       1.00800           0
     62460 W2       20820    TIP3     H2       HT       0.417000       1.00800           0
     62461 W2       20821    TIP3     OH2      OT      -0.834000       15.9994           0
     62462 W2       20821    TIP3     H1       HT       0.417000       1.00800           0
     62463 W2       20821    TIP3     H2       HT       0.417000       1.00800           0
     62464 W2       20822    TIP3     OH2      OT      -0.834000       15.9994           0
     62465 W2       20822    TIP3     H1       HT       0.417000       1.00800           0
     62466 W2       20822    TIP3     H2       HT       0.417000       1.00800           0
     62467 W2       20823    TIP3     OH2      OT      -0.834000       15.9994           0
     62468 W2       20823    TIP3     H1       HT       0.417000       1.00800           0
     62469 W2       20823    TIP3     H2       HT       0.417000       1.00800           0
     62470 W2       20824    TIP3     OH2      OT      -0.834000       15.9994           0
     62471 W2       20824    TIP3     H1       HT       0.417000       1.00800           0
     62472 W2       20824    TIP3     H2       HT       0.417000       1.00800           0
     62473 W2       20825    TIP3     OH2      OT      -0.834000       15.9994           0
     62474 W2       20825    TIP3     H1       HT       0.417000       1.00800           0
     62475 W2       20825    TIP3     H2       HT       0.417000       1.00800           0
     62476 W2       20826    TIP3     OH2      OT      -0.834000       15.9994           0
     62477 W2       20826    TIP3     H1       HT       0.417000       1.00800           0
     62478 W2       20826    TIP3     H2       HT       0.417000       1.00800           0
     62479 W2       20827    TIP3     OH2      OT      -0.834000       15.9994           0
     62480 W2       20827    TIP3     H1       HT       0.417000       1.00800           0
     62481 W2       20827    TIP3     H2       HT       0.417000       1.00800           0
     62482 W2       20828    TIP3     OH2      OT      -0.834000       15.9994           0
     62483 W2       20828    TIP3     H1       HT       0.417000       1.00800           0
     62484 W2       20828    TIP3     H2       HT       0.417000       1.00800           0
     62485 W2       20829    TIP3     OH2      OT      -0.834000       15.9994           0
     62486 W2       20829    TIP3     H1       HT       0.417000       1.00800           0
     62487 W2       20829    TIP3     H2       HT       0.417000       1.00800           0
     62488 W2       20830    TIP3     OH2      OT      -0.834000       15.9994           0
     62489 W2       20830    TIP3     H1       HT       0.417000       1.00800           0
     62490 W2       20830    TIP3     H2       HT       0.417000       1.00800           0
     62491 W2       20831    TIP3     OH2      OT      -0.834000       15.9994           0
     62492 W2       20831    TIP3     H1       HT       0.417000       1.00800           0
     62493 W2       20831    TIP3     H2       HT       0.417000       1.00800           0
     62494 W2       20832    TIP3     OH2      OT      -0.834000       15.9994           0
     62495 W2       20832    TIP3     H1       HT       0.417000       1.00800           0
     62496 W2       20832    TIP3     H2       HT       0.417000       1.00800           0
     62497 W2       20833    TIP3     OH2      OT      -0.834000       15.9994           0
     62498 W2       20833    TIP3     H1       HT       0.417000       1.00800           0
     62499 W2       20833    TIP3     H2       HT       0.417000       1.00800           0
     62500 W2       20834    TIP3     OH2      OT      -0.834000       15.9994           0
     62501 W2       20834    TIP3     H1       HT       0.417000       1.00800           0
     62502 W2       20834    TIP3     H2       HT       0.417000       1.00800           0
     62503 W2       20835    TIP3     OH2      OT      -0.834000       15.9994           0
     62504 W2       20835    TIP3     H1       HT       0.417000       1.00800           0
     62505 W2       20835    TIP3     H2       HT       0.417000       1.00800           0
     62506 W2       20836    TIP3     OH2      OT      -0.834000       15.9994           0
     62507 W2       20836    TIP3     H1       HT       0.417000       1.00800           0
     62508 W2       20836    TIP3     H2       HT       0.417000       1.00800           0
     62509 W2       20837    TIP3     OH2      OT      -0.834000       15.9994           0
     62510 W2       20837    TIP3     H1       HT       0.417000       1.00800           0
     62511 W2       20837    TIP3     H2       HT       0.417000       1.00800           0
     62512 W2       20838    TIP3     OH2      OT      -0.834000       15.9994           0
     62513 W2       20838    TIP3     H1       HT       0.417000       1.00800           0
     62514 W2       20838    TIP3     H2       HT       0.417000       1.00800           0
     62515 W2       20839    TIP3     OH2      OT      -0.834000       15.9994           0
     62516 W2       20839    TIP3     H1       HT       0.417000       1.00800           0
     62517 W2       20839    TIP3     H2       HT       0.417000       1.00800           0
     62518 W2       20840    TIP3     OH2      OT      -0.834000       15.9994           0
     62519 W2       20840    TIP3     H1       HT       0.417000       1.00800           0
     62520 W2       20840    TIP3     H2       HT       0.417000       1.00800           0
     62521 W2       20841    TIP3     OH2      OT      -0.834000       15.9994           0
     62522 W2       20841    TIP3     H1       HT       0.417000       1.00800           0
     62523 W2       20841    TIP3     H2       HT       0.417000       1.00800           0
     62524 W2       20842    TIP3     OH2      OT      -0.834000       15.9994           0
     62525 W2       20842    TIP3     H1       HT       0.417000       1.00800           0
     62526 W2       20842    TIP3     H2       HT       0.417000       1.00800           0
     62527 W2       20843    TIP3     OH2      OT      -0.834000       15.9994           0
     62528 W2       20843    TIP3     H1       HT       0.417000       1.00800           0
     62529 W2       20843    TIP3     H2       HT       0.417000       1.00800           0
     62530 W2       20844    TIP3     OH2      OT      -0.834000       15.9994           0
     62531 W2       20844    TIP3     H1       HT       0.417000       1.00800           0
     62532 W2       20844    TIP3     H2       HT       0.417000       1.00800           0
     62533 W2       20845    TIP3     OH2      OT      -0.834000       15.9994           0
     62534 W2       20845    TIP3     H1       HT       0.417000       1.00800           0
     62535 W2       20845    TIP3     H2       HT       0.417000       1.00800           0
     62536 W2       20846    TIP3     OH2      OT      -0.834000       15.9994           0
     62537 W2       20846    TIP3     H1       HT       0.417000       1.00800           0
     62538 W2       20846    TIP3     H2       HT       0.417000       1.00800           0
     62539 W2       20847    TIP3     OH2      OT      -0.834000       15.9994           0
     62540 W2       20847    TIP3     H1       HT       0.417000       1.00800           0
     62541 W2       20847    TIP3     H2       HT       0.417000       1.00800           0
     62542 W2       20848    TIP3     OH2      OT      -0.834000       15.9994           0
     62543 W2       20848    TIP3     H1       HT       0.417000       1.00800           0
     62544 W2       20848    TIP3     H2       HT       0.417000       1.00800           0
     62545 W2       20849    TIP3     OH2      OT      -0.834000       15.9994           0
     62546 W2       20849    TIP3     H1       HT       0.417000       1.00800           0
     62547 W2       20849    TIP3     H2       HT       0.417000       1.00800           0
     62548 W2       20850    TIP3     OH2      OT      -0.834000       15.9994           0
     62549 W2       20850    TIP3     H1       HT       0.417000       1.00800           0
     62550 W2       20850    TIP3     H2       HT       0.417000       1.00800           0
     62551 W2       20851    TIP3     OH2      OT      -0.834000       15.9994           0
     62552 W2       20851    TIP3     H1       HT       0.417000       1.00800           0
     62553 W2       20851    TIP3     H2       HT       0.417000       1.00800           0
     62554 W2       20852    TIP3     OH2      OT      -0.834000       15.9994           0
     62555 W2       20852    TIP3     H1       HT       0.417000       1.00800           0
     62556 W2       20852    TIP3     H2       HT       0.417000       1.00800           0
     62557 W2       20853    TIP3     OH2      OT      -0.834000       15.9994           0
     62558 W2       20853    TIP3     H1       HT       0.417000       1.00800           0
     62559 W2       20853    TIP3     H2       HT       0.417000       1.00800           0
     62560 W2       20854    TIP3     OH2      OT      -0.834000       15.9994           0
     62561 W2       20854    TIP3     H1       HT       0.417000       1.00800           0
     62562 W2       20854    TIP3     H2       HT       0.417000       1.00800           0
     62563 W2       20855    TIP3     OH2      OT      -0.834000       15.9994           0
     62564 W2       20855    TIP3     H1       HT       0.417000       1.00800           0
     62565 W2       20855    TIP3     H2       HT       0.417000       1.00800           0
     62566 W2       20856    TIP3     OH2      OT      -0.834000       15.9994           0
     62567 W2       20856    TIP3     H1       HT       0.417000       1.00800           0
     62568 W2       20856    TIP3     H2       HT       0.417000       1.00800           0
     62569 W2       20857    TIP3     OH2      OT      -0.834000       15.9994           0
     62570 W2       20857    TIP3     H1       HT       0.417000       1.00800           0
     62571 W2       20857    TIP3     H2       HT       0.417000       1.00800           0
     62572 W2       20858    TIP3     OH2      OT      -0.834000       15.9994           0
     62573 W2       20858    TIP3     H1       HT       0.417000       1.00800           0
     62574 W2       20858    TIP3     H2       HT       0.417000       1.00800           0
     62575 W2       20859    TIP3     OH2      OT      -0.834000       15.9994           0
     62576 W2       20859    TIP3     H1       HT       0.417000       1.00800           0
     62577 W2       20859    TIP3     H2       HT       0.417000       1.00800           0
     62578 W2       20860    TIP3     OH2      OT      -0.834000       15.9994           0
     62579 W2       20860    TIP3     H1       HT       0.417000       1.00800           0
     62580 W2       20860    TIP3     H2       HT       0.417000       1.00800           0
     62581 W2       20861    TIP3     OH2      OT      -0.834000       15.9994           0
     62582 W2       20861    TIP3     H1       HT       0.417000       1.00800           0
     62583 W2       20861    TIP3     H2       HT       0.417000       1.00800           0
     62584 W2       20862    TIP3     OH2      OT      -0.834000       15.9994           0
     62585 W2       20862    TIP3     H1       HT       0.417000       1.00800           0
     62586 W2       20862    TIP3     H2       HT       0.417000       1.00800           0
     62587 W2       20863    TIP3     OH2      OT      -0.834000       15.9994           0
     62588 W2       20863    TIP3     H1       HT       0.417000       1.00800           0
     62589 W2       20863    TIP3     H2       HT       0.417000       1.00800           0
     62590 W2       20864    TIP3     OH2      OT      -0.834000       15.9994           0
     62591 W2       20864    TIP3     H1       HT       0.417000       1.00800           0
     62592 W2       20864    TIP3     H2       HT       0.417000       1.00800           0
     62593 W2       20865    TIP3     OH2      OT      -0.834000       15.9994           0
     62594 W2       20865    TIP3     H1       HT       0.417000       1.00800           0
     62595 W2       20865    TIP3     H2       HT       0.417000       1.00800           0
     62596 W2       20866    TIP3     OH2      OT      -0.834000       15.9994           0
     62597 W2       20866    TIP3     H1       HT       0.417000       1.00800           0
     62598 W2       20866    TIP3     H2       HT       0.417000       1.00800           0
     62599 W2       20867    TIP3     OH2      OT      -0.834000       15.9994           0
     62600 W2       20867    TIP3     H1       HT       0.417000       1.00800           0
     62601 W2       20867    TIP3     H2       HT       0.417000       1.00800           0
     62602 W2       20868    TIP3     OH2      OT      -0.834000       15.9994           0
     62603 W2       20868    TIP3     H1       HT       0.417000       1.00800           0
     62604 W2       20868    TIP3     H2       HT       0.417000       1.00800           0
     62605 W2       20869    TIP3     OH2      OT      -0.834000       15.9994           0
     62606 W2       20869    TIP3     H1       HT       0.417000       1.00800           0
     62607 W2       20869    TIP3     H2       HT       0.417000       1.00800           0
     62608 W2       20870    TIP3     OH2      OT      -0.834000       15.9994           0
     62609 W2       20870    TIP3     H1       HT       0.417000       1.00800           0
     62610 W2       20870    TIP3     H2       HT       0.417000       1.00800           0
     62611 W2       20871    TIP3     OH2      OT      -0.834000       15.9994           0
     62612 W2       20871    TIP3     H1       HT       0.417000       1.00800           0
     62613 W2       20871    TIP3     H2       HT       0.417000       1.00800           0
     62614 W2       20872    TIP3     OH2      OT      -0.834000       15.9994           0
     62615 W2       20872    TIP3     H1       HT       0.417000       1.00800           0
     62616 W2       20872    TIP3     H2       HT       0.417000       1.00800           0
     62617 W2       20873    TIP3     OH2      OT      -0.834000       15.9994           0
     62618 W2       20873    TIP3     H1       HT       0.417000       1.00800           0
     62619 W2       20873    TIP3     H2       HT       0.417000       1.00800           0
     62620 W2       20874    TIP3     OH2      OT      -0.834000       15.9994           0
     62621 W2       20874    TIP3     H1       HT       0.417000       1.00800           0
     62622 W2       20874    TIP3     H2       HT       0.417000       1.00800           0
     62623 W2       20875    TIP3     OH2      OT      -0.834000       15.9994           0
     62624 W2       20875    TIP3     H1       HT       0.417000       1.00800           0
     62625 W2       20875    TIP3     H2       HT       0.417000       1.00800           0
     62626 W2       20876    TIP3     OH2      OT      -0.834000       15.9994           0
     62627 W2       20876    TIP3     H1       HT       0.417000       1.00800           0
     62628 W2       20876    TIP3     H2       HT       0.417000       1.00800           0
     62629 W2       20877    TIP3     OH2      OT      -0.834000       15.9994           0
     62630 W2       20877    TIP3     H1       HT       0.417000       1.00800           0
     62631 W2       20877    TIP3     H2       HT       0.417000       1.00800           0
     62632 W2       20878    TIP3     OH2      OT      -0.834000       15.9994           0
     62633 W2       20878    TIP3     H1       HT       0.417000       1.00800           0
     62634 W2       20878    TIP3     H2       HT       0.417000       1.00800           0
     62635 W2       20879    TIP3     OH2      OT      -0.834000       15.9994           0
     62636 W2       20879    TIP3     H1       HT       0.417000       1.00800           0
     62637 W2       20879    TIP3     H2       HT       0.417000       1.00800           0
     62638 W2       20880    TIP3     OH2      OT      -0.834000       15.9994           0
     62639 W2       20880    TIP3     H1       HT       0.417000       1.00800           0
     62640 W2       20880    TIP3     H2       HT       0.417000       1.00800           0
     62641 W2       20881    TIP3     OH2      OT      -0.834000       15.9994           0
     62642 W2       20881    TIP3     H1       HT       0.417000       1.00800           0
     62643 W2       20881    TIP3     H2       HT       0.417000       1.00800           0
     62644 W2       20882    TIP3     OH2      OT      -0.834000       15.9994           0
     62645 W2       20882    TIP3     H1       HT       0.417000       1.00800           0
     62646 W2       20882    TIP3     H2       HT       0.417000       1.00800           0
     62647 W2       20883    TIP3     OH2      OT      -0.834000       15.9994           0
     62648 W2       20883    TIP3     H1       HT       0.417000       1.00800           0
     62649 W2       20883    TIP3     H2       HT       0.417000       1.00800           0
     62650 W2       20884    TIP3     OH2      OT      -0.834000       15.9994           0
     62651 W2       20884    TIP3     H1       HT       0.417000       1.00800           0
     62652 W2       20884    TIP3     H2       HT       0.417000       1.00800           0
     62653 W2       20885    TIP3     OH2      OT      -0.834000       15.9994           0
     62654 W2       20885    TIP3     H1       HT       0.417000       1.00800           0
     62655 W2       20885    TIP3     H2       HT       0.417000       1.00800           0
     62656 W2       20886    TIP3     OH2      OT      -0.834000       15.9994           0
     62657 W2       20886    TIP3     H1       HT       0.417000       1.00800           0
     62658 W2       20886    TIP3     H2       HT       0.417000       1.00800           0
     62659 W2       20887    TIP3     OH2      OT      -0.834000       15.9994           0
     62660 W2       20887    TIP3     H1       HT       0.417000       1.00800           0
     62661 W2       20887    TIP3     H2       HT       0.417000       1.00800           0
     62662 W2       20888    TIP3     OH2      OT      -0.834000       15.9994           0
     62663 W2       20888    TIP3     H1       HT       0.417000       1.00800           0
     62664 W2       20888    TIP3     H2       HT       0.417000       1.00800           0
     62665 W2       20889    TIP3     OH2      OT      -0.834000       15.9994           0
     62666 W2       20889    TIP3     H1       HT       0.417000       1.00800           0
     62667 W2       20889    TIP3     H2       HT       0.417000       1.00800           0
     62668 W2       20890    TIP3     OH2      OT      -0.834000       15.9994           0
     62669 W2       20890    TIP3     H1       HT       0.417000       1.00800           0
     62670 W2       20890    TIP3     H2       HT       0.417000       1.00800           0
     62671 W2       20891    TIP3     OH2      OT      -0.834000       15.9994           0
     62672 W2       20891    TIP3     H1       HT       0.417000       1.00800           0
     62673 W2       20891    TIP3     H2       HT       0.417000       1.00800           0
     62674 W2       20892    TIP3     OH2      OT      -0.834000       15.9994           0
     62675 W2       20892    TIP3     H1       HT       0.417000       1.00800           0
     62676 W2       20892    TIP3     H2       HT       0.417000       1.00800           0
     62677 W2       20893    TIP3     OH2      OT      -0.834000       15.9994           0
     62678 W2       20893    TIP3     H1       HT       0.417000       1.00800           0
     62679 W2       20893    TIP3     H2       HT       0.417000       1.00800           0
     62680 W2       20894    TIP3     OH2      OT      -0.834000       15.9994           0
     62681 W2       20894    TIP3     H1       HT       0.417000       1.00800           0
     62682 W2       20894    TIP3     H2       HT       0.417000       1.00800           0
     62683 W2       20895    TIP3     OH2      OT      -0.834000       15.9994           0
     62684 W2       20895    TIP3     H1       HT       0.417000       1.00800           0
     62685 W2       20895    TIP3     H2       HT       0.417000       1.00800           0
     62686 W2       20896    TIP3     OH2      OT      -0.834000       15.9994           0
     62687 W2       20896    TIP3     H1       HT       0.417000       1.00800           0
     62688 W2       20896    TIP3     H2       HT       0.417000       1.00800           0
     62689 W2       20897    TIP3     OH2      OT      -0.834000       15.9994           0
     62690 W2       20897    TIP3     H1       HT       0.417000       1.00800           0
     62691 W2       20897    TIP3     H2       HT       0.417000       1.00800           0
     62692 W2       20898    TIP3     OH2      OT      -0.834000       15.9994           0
     62693 W2       20898    TIP3     H1       HT       0.417000       1.00800           0
     62694 W2       20898    TIP3     H2       HT       0.417000       1.00800           0
     62695 W2       20899    TIP3     OH2      OT      -0.834000       15.9994           0
     62696 W2       20899    TIP3     H1       HT       0.417000       1.00800           0
     62697 W2       20899    TIP3     H2       HT       0.417000       1.00800           0
     62698 W2       20900    TIP3     OH2      OT      -0.834000       15.9994           0
     62699 W2       20900    TIP3     H1       HT       0.417000       1.00800           0
     62700 W2       20900    TIP3     H2       HT       0.417000       1.00800           0
     62701 W2       20901    TIP3     OH2      OT      -0.834000       15.9994           0
     62702 W2       20901    TIP3     H1       HT       0.417000       1.00800           0
     62703 W2       20901    TIP3     H2       HT       0.417000       1.00800           0
     62704 W2       20902    TIP3     OH2      OT      -0.834000       15.9994           0
     62705 W2       20902    TIP3     H1       HT       0.417000       1.00800           0
     62706 W2       20902    TIP3     H2       HT       0.417000       1.00800           0
     62707 W2       20903    TIP3     OH2      OT      -0.834000       15.9994           0
     62708 W2       20903    TIP3     H1       HT       0.417000       1.00800           0
     62709 W2       20903    TIP3     H2       HT       0.417000       1.00800           0
     62710 W2       20904    TIP3     OH2      OT      -0.834000       15.9994           0
     62711 W2       20904    TIP3     H1       HT       0.417000       1.00800           0
     62712 W2       20904    TIP3     H2       HT       0.417000       1.00800           0
     62713 W2       20905    TIP3     OH2      OT      -0.834000       15.9994           0
     62714 W2       20905    TIP3     H1       HT       0.417000       1.00800           0
     62715 W2       20905    TIP3     H2       HT       0.417000       1.00800           0
     62716 W2       20906    TIP3     OH2      OT      -0.834000       15.9994           0
     62717 W2       20906    TIP3     H1       HT       0.417000       1.00800           0
     62718 W2       20906    TIP3     H2       HT       0.417000       1.00800           0
     62719 W2       20907    TIP3     OH2      OT      -0.834000       15.9994           0
     62720 W2       20907    TIP3     H1       HT       0.417000       1.00800           0
     62721 W2       20907    TIP3     H2       HT       0.417000       1.00800           0
     62722 W2       20908    TIP3     OH2      OT      -0.834000       15.9994           0
     62723 W2       20908    TIP3     H1       HT       0.417000       1.00800           0
     62724 W2       20908    TIP3     H2       HT       0.417000       1.00800           0
     62725 W2       20909    TIP3     OH2      OT      -0.834000       15.9994           0
     62726 W2       20909    TIP3     H1       HT       0.417000       1.00800           0
     62727 W2       20909    TIP3     H2       HT       0.417000       1.00800           0
     62728 W2       20910    TIP3     OH2      OT      -0.834000       15.9994           0
     62729 W2       20910    TIP3     H1       HT       0.417000       1.00800           0
     62730 W2       20910    TIP3     H2       HT       0.417000       1.00800           0
     62731 W2       20911    TIP3     OH2      OT      -0.834000       15.9994           0
     62732 W2       20911    TIP3     H1       HT       0.417000       1.00800           0
     62733 W2       20911    TIP3     H2       HT       0.417000       1.00800           0
     62734 W2       20912    TIP3     OH2      OT      -0.834000       15.9994           0
     62735 W2       20912    TIP3     H1       HT       0.417000       1.00800           0
     62736 W2       20912    TIP3     H2       HT       0.417000       1.00800           0
     62737 W2       20913    TIP3     OH2      OT      -0.834000       15.9994           0
     62738 W2       20913    TIP3     H1       HT       0.417000       1.00800           0
     62739 W2       20913    TIP3     H2       HT       0.417000       1.00800           0
     62740 W2       20914    TIP3     OH2      OT      -0.834000       15.9994           0
     62741 W2       20914    TIP3     H1       HT       0.417000       1.00800           0
     62742 W2       20914    TIP3     H2       HT       0.417000       1.00800           0
     62743 W2       20915    TIP3     OH2      OT      -0.834000       15.9994           0
     62744 W2       20915    TIP3     H1       HT       0.417000       1.00800           0
     62745 W2       20915    TIP3     H2       HT       0.417000       1.00800           0
     62746 W2       20916    TIP3     OH2      OT      -0.834000       15.9994           0
     62747 W2       20916    TIP3     H1       HT       0.417000       1.00800           0
     62748 W2       20916    TIP3     H2       HT       0.417000       1.00800           0
     62749 W2       20917    TIP3     OH2      OT      -0.834000       15.9994           0
     62750 W2       20917    TIP3     H1       HT       0.417000       1.00800           0
     62751 W2       20917    TIP3     H2       HT       0.417000       1.00800           0
     62752 W2       20918    TIP3     OH2      OT      -0.834000       15.9994           0
     62753 W2       20918    TIP3     H1       HT       0.417000       1.00800           0
     62754 W2       20918    TIP3     H2       HT       0.417000       1.00800           0
     62755 W2       20919    TIP3     OH2      OT      -0.834000       15.9994           0
     62756 W2       20919    TIP3     H1       HT       0.417000       1.00800           0
     62757 W2       20919    TIP3     H2       HT       0.417000       1.00800           0
     62758 W2       20920    TIP3     OH2      OT      -0.834000       15.9994           0
     62759 W2       20920    TIP3     H1       HT       0.417000       1.00800           0
     62760 W2       20920    TIP3     H2       HT       0.417000       1.00800           0
     62761 W2       20921    TIP3     OH2      OT      -0.834000       15.9994           0
     62762 W2       20921    TIP3     H1       HT       0.417000       1.00800           0
     62763 W2       20921    TIP3     H2       HT       0.417000       1.00800           0
     62764 W2       20922    TIP3     OH2      OT      -0.834000       15.9994           0
     62765 W2       20922    TIP3     H1       HT       0.417000       1.00800           0
     62766 W2       20922    TIP3     H2       HT       0.417000       1.00800           0
     62767 W2       20923    TIP3     OH2      OT      -0.834000       15.9994           0
     62768 W2       20923    TIP3     H1       HT       0.417000       1.00800           0
     62769 W2       20923    TIP3     H2       HT       0.417000       1.00800           0
     62770 W2       20924    TIP3     OH2      OT      -0.834000       15.9994           0
     62771 W2       20924    TIP3     H1       HT       0.417000       1.00800           0
     62772 W2       20924    TIP3     H2       HT       0.417000       1.00800           0
     62773 W2       20925    TIP3     OH2      OT      -0.834000       15.9994           0
     62774 W2       20925    TIP3     H1       HT       0.417000       1.00800           0
     62775 W2       20925    TIP3     H2       HT       0.417000       1.00800           0
     62776 W2       20926    TIP3     OH2      OT      -0.834000       15.9994           0
     62777 W2       20926    TIP3     H1       HT       0.417000       1.00800           0
     62778 W2       20926    TIP3     H2       HT       0.417000       1.00800           0
     62779 W2       20927    TIP3     OH2      OT      -0.834000       15.9994           0
     62780 W2       20927    TIP3     H1       HT       0.417000       1.00800           0
     62781 W2       20927    TIP3     H2       HT       0.417000       1.00800           0
     62782 W2       20928    TIP3     OH2      OT      -0.834000       15.9994           0
     62783 W2       20928    TIP3     H1       HT       0.417000       1.00800           0
     62784 W2       20928    TIP3     H2       HT       0.417000       1.00800           0
     62785 W2       20929    TIP3     OH2      OT      -0.834000       15.9994           0
     62786 W2       20929    TIP3     H1       HT       0.417000       1.00800           0
     62787 W2       20929    TIP3     H2       HT       0.417000       1.00800           0
     62788 W2       20930    TIP3     OH2      OT      -0.834000       15.9994           0
     62789 W2       20930    TIP3     H1       HT       0.417000       1.00800           0
     62790 W2       20930    TIP3     H2       HT       0.417000       1.00800           0
     62791 W2       20931    TIP3     OH2      OT      -0.834000       15.9994           0
     62792 W2       20931    TIP3     H1       HT       0.417000       1.00800           0
     62793 W2       20931    TIP3     H2       HT       0.417000       1.00800           0
     62794 W2       20932    TIP3     OH2      OT      -0.834000       15.9994           0
     62795 W2       20932    TIP3     H1       HT       0.417000       1.00800           0
     62796 W2       20932    TIP3     H2       HT       0.417000       1.00800           0
     62797 W2       20933    TIP3     OH2      OT      -0.834000       15.9994           0
     62798 W2       20933    TIP3     H1       HT       0.417000       1.00800           0
     62799 W2       20933    TIP3     H2       HT       0.417000       1.00800           0
     62800 W2       20934    TIP3     OH2      OT      -0.834000       15.9994           0
     62801 W2       20934    TIP3     H1       HT       0.417000       1.00800           0
     62802 W2       20934    TIP3     H2       HT       0.417000       1.00800           0
     62803 W2       20935    TIP3     OH2      OT      -0.834000       15.9994           0
     62804 W2       20935    TIP3     H1       HT       0.417000       1.00800           0
     62805 W2       20935    TIP3     H2       HT       0.417000       1.00800           0
     62806 W2       20936    TIP3     OH2      OT      -0.834000       15.9994           0
     62807 W2       20936    TIP3     H1       HT       0.417000       1.00800           0
     62808 W2       20936    TIP3     H2       HT       0.417000       1.00800           0
     62809 W2       20937    TIP3     OH2      OT      -0.834000       15.9994           0
     62810 W2       20937    TIP3     H1       HT       0.417000       1.00800           0
     62811 W2       20937    TIP3     H2       HT       0.417000       1.00800           0
     62812 W2       20938    TIP3     OH2      OT      -0.834000       15.9994           0
     62813 W2       20938    TIP3     H1       HT       0.417000       1.00800           0
     62814 W2       20938    TIP3     H2       HT       0.417000       1.00800           0
     62815 W2       20939    TIP3     OH2      OT      -0.834000       15.9994           0
     62816 W2       20939    TIP3     H1       HT       0.417000       1.00800           0
     62817 W2       20939    TIP3     H2       HT       0.417000       1.00800           0
     62818 W2       20940    TIP3     OH2      OT      -0.834000       15.9994           0
     62819 W2       20940    TIP3     H1       HT       0.417000       1.00800           0
     62820 W2       20940    TIP3     H2       HT       0.417000       1.00800           0
     62821 W2       20941    TIP3     OH2      OT      -0.834000       15.9994           0
     62822 W2       20941    TIP3     H1       HT       0.417000       1.00800           0
     62823 W2       20941    TIP3     H2       HT       0.417000       1.00800           0
     62824 W2       20942    TIP3     OH2      OT      -0.834000       15.9994           0
     62825 W2       20942    TIP3     H1       HT       0.417000       1.00800           0
     62826 W2       20942    TIP3     H2       HT       0.417000       1.00800           0
     62827 W2       20943    TIP3     OH2      OT      -0.834000       15.9994           0
     62828 W2       20943    TIP3     H1       HT       0.417000       1.00800           0
     62829 W2       20943    TIP3     H2       HT       0.417000       1.00800           0
     62830 W2       20944    TIP3     OH2      OT      -0.834000       15.9994           0
     62831 W2       20944    TIP3     H1       HT       0.417000       1.00800           0
     62832 W2       20944    TIP3     H2       HT       0.417000       1.00800           0
     62833 W2       20945    TIP3     OH2      OT      -0.834000       15.9994           0
     62834 W2       20945    TIP3     H1       HT       0.417000       1.00800           0
     62835 W2       20945    TIP3     H2       HT       0.417000       1.00800           0
     62836 W2       20946    TIP3     OH2      OT      -0.834000       15.9994           0
     62837 W2       20946    TIP3     H1       HT       0.417000       1.00800           0
     62838 W2       20946    TIP3     H2       HT       0.417000       1.00800           0
     62839 W2       20947    TIP3     OH2      OT      -0.834000       15.9994           0
     62840 W2       20947    TIP3     H1       HT       0.417000       1.00800           0
     62841 W2       20947    TIP3     H2       HT       0.417000       1.00800           0
     62842 W2       20948    TIP3     OH2      OT      -0.834000       15.9994           0
     62843 W2       20948    TIP3     H1       HT       0.417000       1.00800           0
     62844 W2       20948    TIP3     H2       HT       0.417000       1.00800           0
     62845 W2       20949    TIP3     OH2      OT      -0.834000       15.9994           0
     62846 W2       20949    TIP3     H1       HT       0.417000       1.00800           0
     62847 W2       20949    TIP3     H2       HT       0.417000       1.00800           0
     62848 W2       20950    TIP3     OH2      OT      -0.834000       15.9994           0
     62849 W2       20950    TIP3     H1       HT       0.417000       1.00800           0
     62850 W2       20950    TIP3     H2       HT       0.417000       1.00800           0
     62851 W2       20951    TIP3     OH2      OT      -0.834000       15.9994           0
     62852 W2       20951    TIP3     H1       HT       0.417000       1.00800           0
     62853 W2       20951    TIP3     H2       HT       0.417000       1.00800           0
     62854 W2       20952    TIP3     OH2      OT      -0.834000       15.9994           0
     62855 W2       20952    TIP3     H1       HT       0.417000       1.00800           0
     62856 W2       20952    TIP3     H2       HT       0.417000       1.00800           0
     62857 W2       20953    TIP3     OH2      OT      -0.834000       15.9994           0
     62858 W2       20953    TIP3     H1       HT       0.417000       1.00800           0
     62859 W2       20953    TIP3     H2       HT       0.417000       1.00800           0
     62860 W2       20954    TIP3     OH2      OT      -0.834000       15.9994           0
     62861 W2       20954    TIP3     H1       HT       0.417000       1.00800           0
     62862 W2       20954    TIP3     H2       HT       0.417000       1.00800           0
     62863 W2       20955    TIP3     OH2      OT      -0.834000       15.9994           0
     62864 W2       20955    TIP3     H1       HT       0.417000       1.00800           0
     62865 W2       20955    TIP3     H2       HT       0.417000       1.00800           0
     62866 W2       20956    TIP3     OH2      OT      -0.834000       15.9994           0
     62867 W2       20956    TIP3     H1       HT       0.417000       1.00800           0
     62868 W2       20956    TIP3     H2       HT       0.417000       1.00800           0
     62869 W2       20957    TIP3     OH2      OT      -0.834000       15.9994           0
     62870 W2       20957    TIP3     H1       HT       0.417000       1.00800           0
     62871 W2       20957    TIP3     H2       HT       0.417000       1.00800           0
     62872 W2       20958    TIP3     OH2      OT      -0.834000       15.9994           0
     62873 W2       20958    TIP3     H1       HT       0.417000       1.00800           0
     62874 W2       20958    TIP3     H2       HT       0.417000       1.00800           0
     62875 W2       20959    TIP3     OH2      OT      -0.834000       15.9994           0
     62876 W2       20959    TIP3     H1       HT       0.417000       1.00800           0
     62877 W2       20959    TIP3     H2       HT       0.417000       1.00800           0
     62878 W2       20960    TIP3     OH2      OT      -0.834000       15.9994           0
     62879 W2       20960    TIP3     H1       HT       0.417000       1.00800           0
     62880 W2       20960    TIP3     H2       HT       0.417000       1.00800           0
     62881 W2       20961    TIP3     OH2      OT      -0.834000       15.9994           0
     62882 W2       20961    TIP3     H1       HT       0.417000       1.00800           0
     62883 W2       20961    TIP3     H2       HT       0.417000       1.00800           0
     62884 W2       20962    TIP3     OH2      OT      -0.834000       15.9994           0
     62885 W2       20962    TIP3     H1       HT       0.417000       1.00800           0
     62886 W2       20962    TIP3     H2       HT       0.417000       1.00800           0
     62887 W2       20963    TIP3     OH2      OT      -0.834000       15.9994           0
     62888 W2       20963    TIP3     H1       HT       0.417000       1.00800           0
     62889 W2       20963    TIP3     H2       HT       0.417000       1.00800           0
     62890 W2       20964    TIP3     OH2      OT      -0.834000       15.9994           0
     62891 W2       20964    TIP3     H1       HT       0.417000       1.00800           0
     62892 W2       20964    TIP3     H2       HT       0.417000       1.00800           0
     62893 W2       20965    TIP3     OH2      OT      -0.834000       15.9994           0
     62894 W2       20965    TIP3     H1       HT       0.417000       1.00800           0
     62895 W2       20965    TIP3     H2       HT       0.417000       1.00800           0
     62896 W2       20966    TIP3     OH2      OT      -0.834000       15.9994           0
     62897 W2       20966    TIP3     H1       HT       0.417000       1.00800           0
     62898 W2       20966    TIP3     H2       HT       0.417000       1.00800           0
     62899 W2       20967    TIP3     OH2      OT      -0.834000       15.9994           0
     62900 W2       20967    TIP3     H1       HT       0.417000       1.00800           0
     62901 W2       20967    TIP3     H2       HT       0.417000       1.00800           0
     62902 W2       20968    TIP3     OH2      OT      -0.834000       15.9994           0
     62903 W2       20968    TIP3     H1       HT       0.417000       1.00800           0
     62904 W2       20968    TIP3     H2       HT       0.417000       1.00800           0
     62905 W2       20969    TIP3     OH2      OT      -0.834000       15.9994           0
     62906 W2       20969    TIP3     H1       HT       0.417000       1.00800           0
     62907 W2       20969    TIP3     H2       HT       0.417000       1.00800           0
     62908 W2       20970    TIP3     OH2      OT      -0.834000       15.9994           0
     62909 W2       20970    TIP3     H1       HT       0.417000       1.00800           0
     62910 W2       20970    TIP3     H2       HT       0.417000       1.00800           0
     62911 W2       20971    TIP3     OH2      OT      -0.834000       15.9994           0
     62912 W2       20971    TIP3     H1       HT       0.417000       1.00800           0
     62913 W2       20971    TIP3     H2       HT       0.417000       1.00800           0
     62914 W2       20972    TIP3     OH2      OT      -0.834000       15.9994           0
     62915 W2       20972    TIP3     H1       HT       0.417000       1.00800           0
     62916 W2       20972    TIP3     H2       HT       0.417000       1.00800           0
     62917 W2       20973    TIP3     OH2      OT      -0.834000       15.9994           0
     62918 W2       20973    TIP3     H1       HT       0.417000       1.00800           0
     62919 W2       20973    TIP3     H2       HT       0.417000       1.00800           0
     62920 W2       20974    TIP3     OH2      OT      -0.834000       15.9994           0
     62921 W2       20974    TIP3     H1       HT       0.417000       1.00800           0
     62922 W2       20974    TIP3     H2       HT       0.417000       1.00800           0
     62923 W2       20975    TIP3     OH2      OT      -0.834000       15.9994           0
     62924 W2       20975    TIP3     H1       HT       0.417000       1.00800           0
     62925 W2       20975    TIP3     H2       HT       0.417000       1.00800           0
     62926 W2       20976    TIP3     OH2      OT      -0.834000       15.9994           0
     62927 W2       20976    TIP3     H1       HT       0.417000       1.00800           0
     62928 W2       20976    TIP3     H2       HT       0.417000       1.00800           0
     62929 W2       20977    TIP3     OH2      OT      -0.834000       15.9994           0
     62930 W2       20977    TIP3     H1       HT       0.417000       1.00800           0
     62931 W2       20977    TIP3     H2       HT       0.417000       1.00800           0
     62932 W2       20978    TIP3     OH2      OT      -0.834000       15.9994           0
     62933 W2       20978    TIP3     H1       HT       0.417000       1.00800           0
     62934 W2       20978    TIP3     H2       HT       0.417000       1.00800           0
     62935 W2       20979    TIP3     OH2      OT      -0.834000       15.9994           0
     62936 W2       20979    TIP3     H1       HT       0.417000       1.00800           0
     62937 W2       20979    TIP3     H2       HT       0.417000       1.00800           0
     62938 W2       20980    TIP3     OH2      OT      -0.834000       15.9994           0
     62939 W2       20980    TIP3     H1       HT       0.417000       1.00800           0
     62940 W2       20980    TIP3     H2       HT       0.417000       1.00800           0
     62941 W2       20981    TIP3     OH2      OT      -0.834000       15.9994           0
     62942 W2       20981    TIP3     H1       HT       0.417000       1.00800           0
     62943 W2       20981    TIP3     H2       HT       0.417000       1.00800           0
     62944 W2       20982    TIP3     OH2      OT      -0.834000       15.9994           0
     62945 W2       20982    TIP3     H1       HT       0.417000       1.00800           0
     62946 W2       20982    TIP3     H2       HT       0.417000       1.00800           0
     62947 W2       20983    TIP3     OH2      OT      -0.834000       15.9994           0
     62948 W2       20983    TIP3     H1       HT       0.417000       1.00800           0
     62949 W2       20983    TIP3     H2       HT       0.417000       1.00800           0
     62950 W2       20984    TIP3     OH2      OT      -0.834000       15.9994           0
     62951 W2       20984    TIP3     H1       HT       0.417000       1.00800           0
     62952 W2       20984    TIP3     H2       HT       0.417000       1.00800           0
     62953 W2       20985    TIP3     OH2      OT      -0.834000       15.9994           0
     62954 W2       20985    TIP3     H1       HT       0.417000       1.00800           0
     62955 W2       20985    TIP3     H2       HT       0.417000       1.00800           0
     62956 W2       20986    TIP3     OH2      OT      -0.834000       15.9994           0
     62957 W2       20986    TIP3     H1       HT       0.417000       1.00800           0
     62958 W2       20986    TIP3     H2       HT       0.417000       1.00800           0
     62959 W2       20987    TIP3     OH2      OT      -0.834000       15.9994           0
     62960 W2       20987    TIP3     H1       HT       0.417000       1.00800           0
     62961 W2       20987    TIP3     H2       HT       0.417000       1.00800           0
     62962 W2       20988    TIP3     OH2      OT      -0.834000       15.9994           0
     62963 W2       20988    TIP3     H1       HT       0.417000       1.00800           0
     62964 W2       20988    TIP3     H2       HT       0.417000       1.00800           0
     62965 W2       20989    TIP3     OH2      OT      -0.834000       15.9994           0
     62966 W2       20989    TIP3     H1       HT       0.417000       1.00800           0
     62967 W2       20989    TIP3     H2       HT       0.417000       1.00800           0
     62968 W2       20990    TIP3     OH2      OT      -0.834000       15.9994           0
     62969 W2       20990    TIP3     H1       HT       0.417000       1.00800           0
     62970 W2       20990    TIP3     H2       HT       0.417000       1.00800           0
     62971 W2       20991    TIP3     OH2      OT      -0.834000       15.9994           0
     62972 W2       20991    TIP3     H1       HT       0.417000       1.00800           0
     62973 W2       20991    TIP3     H2       HT       0.417000       1.00800           0
     62974 W2       20992    TIP3     OH2      OT      -0.834000       15.9994           0
     62975 W2       20992    TIP3     H1       HT       0.417000       1.00800           0
     62976 W2       20992    TIP3     H2       HT       0.417000       1.00800           0
     62977 W2       20993    TIP3     OH2      OT      -0.834000       15.9994           0
     62978 W2       20993    TIP3     H1       HT       0.417000       1.00800           0
     62979 W2       20993    TIP3     H2       HT       0.417000       1.00800           0
     62980 W2       20994    TIP3     OH2      OT      -0.834000       15.9994           0
     62981 W2       20994    TIP3     H1       HT       0.417000       1.00800           0
     62982 W2       20994    TIP3     H2       HT       0.417000       1.00800           0
     62983 W2       20995    TIP3     OH2      OT      -0.834000       15.9994           0
     62984 W2       20995    TIP3     H1       HT       0.417000       1.00800           0
     62985 W2       20995    TIP3     H2       HT       0.417000       1.00800           0
     62986 W2       20996    TIP3     OH2      OT      -0.834000       15.9994           0
     62987 W2       20996    TIP3     H1       HT       0.417000       1.00800           0
     62988 W2       20996    TIP3     H2       HT       0.417000       1.00800           0
     62989 W2       20997    TIP3     OH2      OT      -0.834000       15.9994           0
     62990 W2       20997    TIP3     H1       HT       0.417000       1.00800           0
     62991 W2       20997    TIP3     H2       HT       0.417000       1.00800           0
     62992 W2       20998    TIP3     OH2      OT      -0.834000       15.9994           0
     62993 W2       20998    TIP3     H1       HT       0.417000       1.00800           0
     62994 W2       20998    TIP3     H2       HT       0.417000       1.00800           0
     62995 W2       20999    TIP3     OH2      OT      -0.834000       15.9994           0
     62996 W2       20999    TIP3     H1       HT       0.417000       1.00800           0
     62997 W2       20999    TIP3     H2       HT       0.417000       1.00800           0
     62998 W2       21000    TIP3     OH2      OT      -0.834000       15.9994           0
     62999 W2       21000    TIP3     H1       HT       0.417000       1.00800           0
     63000 W2       21000    TIP3     H2       HT       0.417000       1.00800           0
     63001 W2       21001    TIP3     OH2      OT      -0.834000       15.9994           0
     63002 W2       21001    TIP3     H1       HT       0.417000       1.00800           0
     63003 W2       21001    TIP3     H2       HT       0.417000       1.00800           0
     63004 W2       21002    TIP3     OH2      OT      -0.834000       15.9994           0
     63005 W2       21002    TIP3     H1       HT       0.417000       1.00800           0
     63006 W2       21002    TIP3     H2       HT       0.417000       1.00800           0
     63007 W2       21003    TIP3     OH2      OT      -0.834000       15.9994           0
     63008 W2       21003    TIP3     H1       HT       0.417000       1.00800           0
     63009 W2       21003    TIP3     H2       HT       0.417000       1.00800           0
     63010 W2       21004    TIP3     OH2      OT      -0.834000       15.9994           0
     63011 W2       21004    TIP3     H1       HT       0.417000       1.00800           0
     63012 W2       21004    TIP3     H2       HT       0.417000       1.00800           0
     63013 W2       21005    TIP3     OH2      OT      -0.834000       15.9994           0
     63014 W2       21005    TIP3     H1       HT       0.417000       1.00800           0
     63015 W2       21005    TIP3     H2       HT       0.417000       1.00800           0
     63016 W2       21006    TIP3     OH2      OT      -0.834000       15.9994           0
     63017 W2       21006    TIP3     H1       HT       0.417000       1.00800           0
     63018 W2       21006    TIP3     H2       HT       0.417000       1.00800           0
     63019 W2       21007    TIP3     OH2      OT      -0.834000       15.9994           0
     63020 W2       21007    TIP3     H1       HT       0.417000       1.00800           0
     63021 W2       21007    TIP3     H2       HT       0.417000       1.00800           0
     63022 W2       21008    TIP3     OH2      OT      -0.834000       15.9994           0
     63023 W2       21008    TIP3     H1       HT       0.417000       1.00800           0
     63024 W2       21008    TIP3     H2       HT       0.417000       1.00800           0
     63025 W2       21009    TIP3     OH2      OT      -0.834000       15.9994           0
     63026 W2       21009    TIP3     H1       HT       0.417000       1.00800           0
     63027 W2       21009    TIP3     H2       HT       0.417000       1.00800           0
     63028 W2       21010    TIP3     OH2      OT      -0.834000       15.9994           0
     63029 W2       21010    TIP3     H1       HT       0.417000       1.00800           0
     63030 W2       21010    TIP3     H2       HT       0.417000       1.00800           0
     63031 W2       21011    TIP3     OH2      OT      -0.834000       15.9994           0
     63032 W2       21011    TIP3     H1       HT       0.417000       1.00800           0
     63033 W2       21011    TIP3     H2       HT       0.417000       1.00800           0
     63034 W2       21012    TIP3     OH2      OT      -0.834000       15.9994           0
     63035 W2       21012    TIP3     H1       HT       0.417000       1.00800           0
     63036 W2       21012    TIP3     H2       HT       0.417000       1.00800           0
     63037 W2       21013    TIP3     OH2      OT      -0.834000       15.9994           0
     63038 W2       21013    TIP3     H1       HT       0.417000       1.00800           0
     63039 W2       21013    TIP3     H2       HT       0.417000       1.00800           0
     63040 W2       21014    TIP3     OH2      OT      -0.834000       15.9994           0
     63041 W2       21014    TIP3     H1       HT       0.417000       1.00800           0
     63042 W2       21014    TIP3     H2       HT       0.417000       1.00800           0
     63043 W2       21015    TIP3     OH2      OT      -0.834000       15.9994           0
     63044 W2       21015    TIP3     H1       HT       0.417000       1.00800           0
     63045 W2       21015    TIP3     H2       HT       0.417000       1.00800           0
     63046 W2       21016    TIP3     OH2      OT      -0.834000       15.9994           0
     63047 W2       21016    TIP3     H1       HT       0.417000       1.00800           0
     63048 W2       21016    TIP3     H2       HT       0.417000       1.00800           0
     63049 W2       21017    TIP3     OH2      OT      -0.834000       15.9994           0
     63050 W2       21017    TIP3     H1       HT       0.417000       1.00800           0
     63051 W2       21017    TIP3     H2       HT       0.417000       1.00800           0
     63052 W2       21018    TIP3     OH2      OT      -0.834000       15.9994           0
     63053 W2       21018    TIP3     H1       HT       0.417000       1.00800           0
     63054 W2       21018    TIP3     H2       HT       0.417000       1.00800           0
     63055 W2       21019    TIP3     OH2      OT      -0.834000       15.9994           0
     63056 W2       21019    TIP3     H1       HT       0.417000       1.00800           0
     63057 W2       21019    TIP3     H2       HT       0.417000       1.00800           0
     63058 W2       21020    TIP3     OH2      OT      -0.834000       15.9994           0
     63059 W2       21020    TIP3     H1       HT       0.417000       1.00800           0
     63060 W2       21020    TIP3     H2       HT       0.417000       1.00800           0
     63061 W2       21021    TIP3     OH2      OT      -0.834000       15.9994           0
     63062 W2       21021    TIP3     H1       HT       0.417000       1.00800           0
     63063 W2       21021    TIP3     H2       HT       0.417000       1.00800           0
     63064 W2       21022    TIP3     OH2      OT      -0.834000       15.9994           0
     63065 W2       21022    TIP3     H1       HT       0.417000       1.00800           0
     63066 W2       21022    TIP3     H2       HT       0.417000       1.00800           0
     63067 W2       21023    TIP3     OH2      OT      -0.834000       15.9994           0
     63068 W2       21023    TIP3     H1       HT       0.417000       1.00800           0
     63069 W2       21023    TIP3     H2       HT       0.417000       1.00800           0
     63070 W2       21024    TIP3     OH2      OT      -0.834000       15.9994           0
     63071 W2       21024    TIP3     H1       HT       0.417000       1.00800           0
     63072 W2       21024    TIP3     H2       HT       0.417000       1.00800           0
     63073 W2       21025    TIP3     OH2      OT      -0.834000       15.9994           0
     63074 W2       21025    TIP3     H1       HT       0.417000       1.00800           0
     63075 W2       21025    TIP3     H2       HT       0.417000       1.00800           0
     63076 W2       21026    TIP3     OH2      OT      -0.834000       15.9994           0
     63077 W2       21026    TIP3     H1       HT       0.417000       1.00800           0
     63078 W2       21026    TIP3     H2       HT       0.417000       1.00800           0
     63079 W2       21027    TIP3     OH2      OT      -0.834000       15.9994           0
     63080 W2       21027    TIP3     H1       HT       0.417000       1.00800           0
     63081 W2       21027    TIP3     H2       HT       0.417000       1.00800           0
     63082 W2       21028    TIP3     OH2      OT      -0.834000       15.9994           0
     63083 W2       21028    TIP3     H1       HT       0.417000       1.00800           0
     63084 W2       21028    TIP3     H2       HT       0.417000       1.00800           0
     63085 W2       21029    TIP3     OH2      OT      -0.834000       15.9994           0
     63086 W2       21029    TIP3     H1       HT       0.417000       1.00800           0
     63087 W2       21029    TIP3     H2       HT       0.417000       1.00800           0
     63088 W2       21030    TIP3     OH2      OT      -0.834000       15.9994           0
     63089 W2       21030    TIP3     H1       HT       0.417000       1.00800           0
     63090 W2       21030    TIP3     H2       HT       0.417000       1.00800           0
     63091 W2       21031    TIP3     OH2      OT      -0.834000       15.9994           0
     63092 W2       21031    TIP3     H1       HT       0.417000       1.00800           0
     63093 W2       21031    TIP3     H2       HT       0.417000       1.00800           0
     63094 W2       21032    TIP3     OH2      OT      -0.834000       15.9994           0
     63095 W2       21032    TIP3     H1       HT       0.417000       1.00800           0
     63096 W2       21032    TIP3     H2       HT       0.417000       1.00800           0
     63097 W2       21033    TIP3     OH2      OT      -0.834000       15.9994           0
     63098 W2       21033    TIP3     H1       HT       0.417000       1.00800           0
     63099 W2       21033    TIP3     H2       HT       0.417000       1.00800           0
     63100 W2       21034    TIP3     OH2      OT      -0.834000       15.9994           0
     63101 W2       21034    TIP3     H1       HT       0.417000       1.00800           0
     63102 W2       21034    TIP3     H2       HT       0.417000       1.00800           0
     63103 W2       21035    TIP3     OH2      OT      -0.834000       15.9994           0
     63104 W2       21035    TIP3     H1       HT       0.417000       1.00800           0
     63105 W2       21035    TIP3     H2       HT       0.417000       1.00800           0
     63106 W2       21036    TIP3     OH2      OT      -0.834000       15.9994           0
     63107 W2       21036    TIP3     H1       HT       0.417000       1.00800           0
     63108 W2       21036    TIP3     H2       HT       0.417000       1.00800           0
     63109 W2       21037    TIP3     OH2      OT      -0.834000       15.9994           0
     63110 W2       21037    TIP3     H1       HT       0.417000       1.00800           0
     63111 W2       21037    TIP3     H2       HT       0.417000       1.00800           0
     63112 W2       21038    TIP3     OH2      OT      -0.834000       15.9994           0
     63113 W2       21038    TIP3     H1       HT       0.417000       1.00800           0
     63114 W2       21038    TIP3     H2       HT       0.417000       1.00800           0
     63115 W2       21039    TIP3     OH2      OT      -0.834000       15.9994           0
     63116 W2       21039    TIP3     H1       HT       0.417000       1.00800           0
     63117 W2       21039    TIP3     H2       HT       0.417000       1.00800           0
     63118 W2       21040    TIP3     OH2      OT      -0.834000       15.9994           0
     63119 W2       21040    TIP3     H1       HT       0.417000       1.00800           0
     63120 W2       21040    TIP3     H2       HT       0.417000       1.00800           0
     63121 W2       21041    TIP3     OH2      OT      -0.834000       15.9994           0
     63122 W2       21041    TIP3     H1       HT       0.417000       1.00800           0
     63123 W2       21041    TIP3     H2       HT       0.417000       1.00800           0
     63124 W2       21042    TIP3     OH2      OT      -0.834000       15.9994           0
     63125 W2       21042    TIP3     H1       HT       0.417000       1.00800           0
     63126 W2       21042    TIP3     H2       HT       0.417000       1.00800           0
     63127 W2       21043    TIP3     OH2      OT      -0.834000       15.9994           0
     63128 W2       21043    TIP3     H1       HT       0.417000       1.00800           0
     63129 W2       21043    TIP3     H2       HT       0.417000       1.00800           0
     63130 W2       21044    TIP3     OH2      OT      -0.834000       15.9994           0
     63131 W2       21044    TIP3     H1       HT       0.417000       1.00800           0
     63132 W2       21044    TIP3     H2       HT       0.417000       1.00800           0
     63133 W2       21045    TIP3     OH2      OT      -0.834000       15.9994           0
     63134 W2       21045    TIP3     H1       HT       0.417000       1.00800           0
     63135 W2       21045    TIP3     H2       HT       0.417000       1.00800           0
     63136 W2       21046    TIP3     OH2      OT      -0.834000       15.9994           0
     63137 W2       21046    TIP3     H1       HT       0.417000       1.00800           0
     63138 W2       21046    TIP3     H2       HT       0.417000       1.00800           0
     63139 W2       21047    TIP3     OH2      OT      -0.834000       15.9994           0
     63140 W2       21047    TIP3     H1       HT       0.417000       1.00800           0
     63141 W2       21047    TIP3     H2       HT       0.417000       1.00800           0
     63142 W2       21048    TIP3     OH2      OT      -0.834000       15.9994           0
     63143 W2       21048    TIP3     H1       HT       0.417000       1.00800           0
     63144 W2       21048    TIP3     H2       HT       0.417000       1.00800           0
     63145 W2       21049    TIP3     OH2      OT      -0.834000       15.9994           0
     63146 W2       21049    TIP3     H1       HT       0.417000       1.00800           0
     63147 W2       21049    TIP3     H2       HT       0.417000       1.00800           0
     63148 W2       21050    TIP3     OH2      OT      -0.834000       15.9994           0
     63149 W2       21050    TIP3     H1       HT       0.417000       1.00800           0
     63150 W2       21050    TIP3     H2       HT       0.417000       1.00800           0
     63151 W2       21051    TIP3     OH2      OT      -0.834000       15.9994           0
     63152 W2       21051    TIP3     H1       HT       0.417000       1.00800           0
     63153 W2       21051    TIP3     H2       HT       0.417000       1.00800           0
     63154 W2       21052    TIP3     OH2      OT      -0.834000       15.9994           0
     63155 W2       21052    TIP3     H1       HT       0.417000       1.00800           0
     63156 W2       21052    TIP3     H2       HT       0.417000       1.00800           0
     63157 W2       21053    TIP3     OH2      OT      -0.834000       15.9994           0
     63158 W2       21053    TIP3     H1       HT       0.417000       1.00800           0
     63159 W2       21053    TIP3     H2       HT       0.417000       1.00800           0
     63160 W2       21054    TIP3     OH2      OT      -0.834000       15.9994           0
     63161 W2       21054    TIP3     H1       HT       0.417000       1.00800           0
     63162 W2       21054    TIP3     H2       HT       0.417000       1.00800           0
     63163 W2       21055    TIP3     OH2      OT      -0.834000       15.9994           0
     63164 W2       21055    TIP3     H1       HT       0.417000       1.00800           0
     63165 W2       21055    TIP3     H2       HT       0.417000       1.00800           0
     63166 W2       21056    TIP3     OH2      OT      -0.834000       15.9994           0
     63167 W2       21056    TIP3     H1       HT       0.417000       1.00800           0
     63168 W2       21056    TIP3     H2       HT       0.417000       1.00800           0
     63169 W2       21057    TIP3     OH2      OT      -0.834000       15.9994           0
     63170 W2       21057    TIP3     H1       HT       0.417000       1.00800           0
     63171 W2       21057    TIP3     H2       HT       0.417000       1.00800           0
     63172 W2       21058    TIP3     OH2      OT      -0.834000       15.9994           0
     63173 W2       21058    TIP3     H1       HT       0.417000       1.00800           0
     63174 W2       21058    TIP3     H2       HT       0.417000       1.00800           0
     63175 W2       21059    TIP3     OH2      OT      -0.834000       15.9994           0
     63176 W2       21059    TIP3     H1       HT       0.417000       1.00800           0
     63177 W2       21059    TIP3     H2       HT       0.417000       1.00800           0
     63178 W2       21060    TIP3     OH2      OT      -0.834000       15.9994           0
     63179 W2       21060    TIP3     H1       HT       0.417000       1.00800           0
     63180 W2       21060    TIP3     H2       HT       0.417000       1.00800           0
     63181 W2       21061    TIP3     OH2      OT      -0.834000       15.9994           0
     63182 W2       21061    TIP3     H1       HT       0.417000       1.00800           0
     63183 W2       21061    TIP3     H2       HT       0.417000       1.00800           0
     63184 W2       21062    TIP3     OH2      OT      -0.834000       15.9994           0
     63185 W2       21062    TIP3     H1       HT       0.417000       1.00800           0
     63186 W2       21062    TIP3     H2       HT       0.417000       1.00800           0
     63187 W2       21063    TIP3     OH2      OT      -0.834000       15.9994           0
     63188 W2       21063    TIP3     H1       HT       0.417000       1.00800           0
     63189 W2       21063    TIP3     H2       HT       0.417000       1.00800           0
     63190 W2       21064    TIP3     OH2      OT      -0.834000       15.9994           0
     63191 W2       21064    TIP3     H1       HT       0.417000       1.00800           0
     63192 W2       21064    TIP3     H2       HT       0.417000       1.00800           0
     63193 W2       21065    TIP3     OH2      OT      -0.834000       15.9994           0
     63194 W2       21065    TIP3     H1       HT       0.417000       1.00800           0
     63195 W2       21065    TIP3     H2       HT       0.417000       1.00800           0
     63196 W2       21066    TIP3     OH2      OT      -0.834000       15.9994           0
     63197 W2       21066    TIP3     H1       HT       0.417000       1.00800           0
     63198 W2       21066    TIP3     H2       HT       0.417000       1.00800           0
     63199 W2       21067    TIP3     OH2      OT      -0.834000       15.9994           0
     63200 W2       21067    TIP3     H1       HT       0.417000       1.00800           0
     63201 W2       21067    TIP3     H2       HT       0.417000       1.00800           0
     63202 W2       21068    TIP3     OH2      OT      -0.834000       15.9994           0
     63203 W2       21068    TIP3     H1       HT       0.417000       1.00800           0
     63204 W2       21068    TIP3     H2       HT       0.417000       1.00800           0
     63205 W2       21069    TIP3     OH2      OT      -0.834000       15.9994           0
     63206 W2       21069    TIP3     H1       HT       0.417000       1.00800           0
     63207 W2       21069    TIP3     H2       HT       0.417000       1.00800           0
     63208 W2       21070    TIP3     OH2      OT      -0.834000       15.9994           0
     63209 W2       21070    TIP3     H1       HT       0.417000       1.00800           0
     63210 W2       21070    TIP3     H2       HT       0.417000       1.00800           0
     63211 W2       21071    TIP3     OH2      OT      -0.834000       15.9994           0
     63212 W2       21071    TIP3     H1       HT       0.417000       1.00800           0
     63213 W2       21071    TIP3     H2       HT       0.417000       1.00800           0
     63214 W2       21072    TIP3     OH2      OT      -0.834000       15.9994           0
     63215 W2       21072    TIP3     H1       HT       0.417000       1.00800           0
     63216 W2       21072    TIP3     H2       HT       0.417000       1.00800           0
     63217 W2       21073    TIP3     OH2      OT      -0.834000       15.9994           0
     63218 W2       21073    TIP3     H1       HT       0.417000       1.00800           0
     63219 W2       21073    TIP3     H2       HT       0.417000       1.00800           0
     63220 W2       21074    TIP3     OH2      OT      -0.834000       15.9994           0
     63221 W2       21074    TIP3     H1       HT       0.417000       1.00800           0
     63222 W2       21074    TIP3     H2       HT       0.417000       1.00800           0
     63223 W2       21075    TIP3     OH2      OT      -0.834000       15.9994           0
     63224 W2       21075    TIP3     H1       HT       0.417000       1.00800           0
     63225 W2       21075    TIP3     H2       HT       0.417000       1.00800           0
     63226 W2       21076    TIP3     OH2      OT      -0.834000       15.9994           0
     63227 W2       21076    TIP3     H1       HT       0.417000       1.00800           0
     63228 W2       21076    TIP3     H2       HT       0.417000       1.00800           0
     63229 W2       21077    TIP3     OH2      OT      -0.834000       15.9994           0
     63230 W2       21077    TIP3     H1       HT       0.417000       1.00800           0
     63231 W2       21077    TIP3     H2       HT       0.417000       1.00800           0
     63232 W2       21078    TIP3     OH2      OT      -0.834000       15.9994           0
     63233 W2       21078    TIP3     H1       HT       0.417000       1.00800           0
     63234 W2       21078    TIP3     H2       HT       0.417000       1.00800           0
     63235 W2       21079    TIP3     OH2      OT      -0.834000       15.9994           0
     63236 W2       21079    TIP3     H1       HT       0.417000       1.00800           0
     63237 W2       21079    TIP3     H2       HT       0.417000       1.00800           0
     63238 W2       21080    TIP3     OH2      OT      -0.834000       15.9994           0
     63239 W2       21080    TIP3     H1       HT       0.417000       1.00800           0
     63240 W2       21080    TIP3     H2       HT       0.417000       1.00800           0
     63241 W2       21081    TIP3     OH2      OT      -0.834000       15.9994           0
     63242 W2       21081    TIP3     H1       HT       0.417000       1.00800           0
     63243 W2       21081    TIP3     H2       HT       0.417000       1.00800           0
     63244 W2       21082    TIP3     OH2      OT      -0.834000       15.9994           0
     63245 W2       21082    TIP3     H1       HT       0.417000       1.00800           0
     63246 W2       21082    TIP3     H2       HT       0.417000       1.00800           0
     63247 W2       21083    TIP3     OH2      OT      -0.834000       15.9994           0
     63248 W2       21083    TIP3     H1       HT       0.417000       1.00800           0
     63249 W2       21083    TIP3     H2       HT       0.417000       1.00800           0
     63250 W2       21084    TIP3     OH2      OT      -0.834000       15.9994           0
     63251 W2       21084    TIP3     H1       HT       0.417000       1.00800           0
     63252 W2       21084    TIP3     H2       HT       0.417000       1.00800           0
     63253 W2       21085    TIP3     OH2      OT      -0.834000       15.9994           0
     63254 W2       21085    TIP3     H1       HT       0.417000       1.00800           0
     63255 W2       21085    TIP3     H2       HT       0.417000       1.00800           0
     63256 W2       21086    TIP3     OH2      OT      -0.834000       15.9994           0
     63257 W2       21086    TIP3     H1       HT       0.417000       1.00800           0
     63258 W2       21086    TIP3     H2       HT       0.417000       1.00800           0
     63259 W2       21087    TIP3     OH2      OT      -0.834000       15.9994           0
     63260 W2       21087    TIP3     H1       HT       0.417000       1.00800           0
     63261 W2       21087    TIP3     H2       HT       0.417000       1.00800           0
     63262 W2       21088    TIP3     OH2      OT      -0.834000       15.9994           0
     63263 W2       21088    TIP3     H1       HT       0.417000       1.00800           0
     63264 W2       21088    TIP3     H2       HT       0.417000       1.00800           0
     63265 W2       21089    TIP3     OH2      OT      -0.834000       15.9994           0
     63266 W2       21089    TIP3     H1       HT       0.417000       1.00800           0
     63267 W2       21089    TIP3     H2       HT       0.417000       1.00800           0
     63268 W2       21090    TIP3     OH2      OT      -0.834000       15.9994           0
     63269 W2       21090    TIP3     H1       HT       0.417000       1.00800           0
     63270 W2       21090    TIP3     H2       HT       0.417000       1.00800           0
     63271 W2       21091    TIP3     OH2      OT      -0.834000       15.9994           0
     63272 W2       21091    TIP3     H1       HT       0.417000       1.00800           0
     63273 W2       21091    TIP3     H2       HT       0.417000       1.00800           0
     63274 W2       21092    TIP3     OH2      OT      -0.834000       15.9994           0
     63275 W2       21092    TIP3     H1       HT       0.417000       1.00800           0
     63276 W2       21092    TIP3     H2       HT       0.417000       1.00800           0
     63277 W2       21093    TIP3     OH2      OT      -0.834000       15.9994           0
     63278 W2       21093    TIP3     H1       HT       0.417000       1.00800           0
     63279 W2       21093    TIP3     H2       HT       0.417000       1.00800           0
     63280 W2       21094    TIP3     OH2      OT      -0.834000       15.9994           0
     63281 W2       21094    TIP3     H1       HT       0.417000       1.00800           0
     63282 W2       21094    TIP3     H2       HT       0.417000       1.00800           0
     63283 W2       21095    TIP3     OH2      OT      -0.834000       15.9994           0
     63284 W2       21095    TIP3     H1       HT       0.417000       1.00800           0
     63285 W2       21095    TIP3     H2       HT       0.417000       1.00800           0
     63286 W2       21096    TIP3     OH2      OT      -0.834000       15.9994           0
     63287 W2       21096    TIP3     H1       HT       0.417000       1.00800           0
     63288 W2       21096    TIP3     H2       HT       0.417000       1.00800           0
     63289 W2       21097    TIP3     OH2      OT      -0.834000       15.9994           0
     63290 W2       21097    TIP3     H1       HT       0.417000       1.00800           0
     63291 W2       21097    TIP3     H2       HT       0.417000       1.00800           0
     63292 W2       21098    TIP3     OH2      OT      -0.834000       15.9994           0
     63293 W2       21098    TIP3     H1       HT       0.417000       1.00800           0
     63294 W2       21098    TIP3     H2       HT       0.417000       1.00800           0
     63295 W2       21099    TIP3     OH2      OT      -0.834000       15.9994           0
     63296 W2       21099    TIP3     H1       HT       0.417000       1.00800           0
     63297 W2       21099    TIP3     H2       HT       0.417000       1.00800           0
     63298 W2       21100    TIP3     OH2      OT      -0.834000       15.9994           0
     63299 W2       21100    TIP3     H1       HT       0.417000       1.00800           0
     63300 W2       21100    TIP3     H2       HT       0.417000       1.00800           0
     63301 W2       21101    TIP3     OH2      OT      -0.834000       15.9994           0
     63302 W2       21101    TIP3     H1       HT       0.417000       1.00800           0
     63303 W2       21101    TIP3     H2       HT       0.417000       1.00800           0
     63304 W2       21102    TIP3     OH2      OT      -0.834000       15.9994           0
     63305 W2       21102    TIP3     H1       HT       0.417000       1.00800           0
     63306 W2       21102    TIP3     H2       HT       0.417000       1.00800           0
     63307 W2       21103    TIP3     OH2      OT      -0.834000       15.9994           0
     63308 W2       21103    TIP3     H1       HT       0.417000       1.00800           0
     63309 W2       21103    TIP3     H2       HT       0.417000       1.00800           0
     63310 W2       21104    TIP3     OH2      OT      -0.834000       15.9994           0
     63311 W2       21104    TIP3     H1       HT       0.417000       1.00800           0
     63312 W2       21104    TIP3     H2       HT       0.417000       1.00800           0
     63313 W2       21105    TIP3     OH2      OT      -0.834000       15.9994           0
     63314 W2       21105    TIP3     H1       HT       0.417000       1.00800           0
     63315 W2       21105    TIP3     H2       HT       0.417000       1.00800           0
     63316 W2       21106    TIP3     OH2      OT      -0.834000       15.9994           0
     63317 W2       21106    TIP3     H1       HT       0.417000       1.00800           0
     63318 W2       21106    TIP3     H2       HT       0.417000       1.00800           0
     63319 W2       21107    TIP3     OH2      OT      -0.834000       15.9994           0
     63320 W2       21107    TIP3     H1       HT       0.417000       1.00800           0
     63321 W2       21107    TIP3     H2       HT       0.417000       1.00800           0
     63322 W2       21108    TIP3     OH2      OT      -0.834000       15.9994           0
     63323 W2       21108    TIP3     H1       HT       0.417000       1.00800           0
     63324 W2       21108    TIP3     H2       HT       0.417000       1.00800           0
     63325 W2       21109    TIP3     OH2      OT      -0.834000       15.9994           0
     63326 W2       21109    TIP3     H1       HT       0.417000       1.00800           0
     63327 W2       21109    TIP3     H2       HT       0.417000       1.00800           0
     63328 W2       21110    TIP3     OH2      OT      -0.834000       15.9994           0
     63329 W2       21110    TIP3     H1       HT       0.417000       1.00800           0
     63330 W2       21110    TIP3     H2       HT       0.417000       1.00800           0
     63331 W2       21111    TIP3     OH2      OT      -0.834000       15.9994           0
     63332 W2       21111    TIP3     H1       HT       0.417000       1.00800           0
     63333 W2       21111    TIP3     H2       HT       0.417000       1.00800           0
     63334 W2       21112    TIP3     OH2      OT      -0.834000       15.9994           0
     63335 W2       21112    TIP3     H1       HT       0.417000       1.00800           0
     63336 W2       21112    TIP3     H2       HT       0.417000       1.00800           0
     63337 W2       21113    TIP3     OH2      OT      -0.834000       15.9994           0
     63338 W2       21113    TIP3     H1       HT       0.417000       1.00800           0
     63339 W2       21113    TIP3     H2       HT       0.417000       1.00800           0
     63340 W2       21114    TIP3     OH2      OT      -0.834000       15.9994           0
     63341 W2       21114    TIP3     H1       HT       0.417000       1.00800           0
     63342 W2       21114    TIP3     H2       HT       0.417000       1.00800           0
     63343 W2       21115    TIP3     OH2      OT      -0.834000       15.9994           0
     63344 W2       21115    TIP3     H1       HT       0.417000       1.00800           0
     63345 W2       21115    TIP3     H2       HT       0.417000       1.00800           0
     63346 W2       21116    TIP3     OH2      OT      -0.834000       15.9994           0
     63347 W2       21116    TIP3     H1       HT       0.417000       1.00800           0
     63348 W2       21116    TIP3     H2       HT       0.417000       1.00800           0
     63349 W2       21117    TIP3     OH2      OT      -0.834000       15.9994           0
     63350 W2       21117    TIP3     H1       HT       0.417000       1.00800           0
     63351 W2       21117    TIP3     H2       HT       0.417000       1.00800           0
     63352 W2       21118    TIP3     OH2      OT      -0.834000       15.9994           0
     63353 W2       21118    TIP3     H1       HT       0.417000       1.00800           0
     63354 W2       21118    TIP3     H2       HT       0.417000       1.00800           0
     63355 W2       21119    TIP3     OH2      OT      -0.834000       15.9994           0
     63356 W2       21119    TIP3     H1       HT       0.417000       1.00800           0
     63357 W2       21119    TIP3     H2       HT       0.417000       1.00800           0
     63358 W2       21120    TIP3     OH2      OT      -0.834000       15.9994           0
     63359 W2       21120    TIP3     H1       HT       0.417000       1.00800           0
     63360 W2       21120    TIP3     H2       HT       0.417000       1.00800           0
     63361 W2       21121    TIP3     OH2      OT      -0.834000       15.9994           0
     63362 W2       21121    TIP3     H1       HT       0.417000       1.00800           0
     63363 W2       21121    TIP3     H2       HT       0.417000       1.00800           0
     63364 W2       21122    TIP3     OH2      OT      -0.834000       15.9994           0
     63365 W2       21122    TIP3     H1       HT       0.417000       1.00800           0
     63366 W2       21122    TIP3     H2       HT       0.417000       1.00800           0
     63367 W2       21123    TIP3     OH2      OT      -0.834000       15.9994           0
     63368 W2       21123    TIP3     H1       HT       0.417000       1.00800           0
     63369 W2       21123    TIP3     H2       HT       0.417000       1.00800           0
     63370 W2       21124    TIP3     OH2      OT      -0.834000       15.9994           0
     63371 W2       21124    TIP3     H1       HT       0.417000       1.00800           0
     63372 W2       21124    TIP3     H2       HT       0.417000       1.00800           0
     63373 W2       21125    TIP3     OH2      OT      -0.834000       15.9994           0
     63374 W2       21125    TIP3     H1       HT       0.417000       1.00800           0
     63375 W2       21125    TIP3     H2       HT       0.417000       1.00800           0
     63376 W2       21126    TIP3     OH2      OT      -0.834000       15.9994           0
     63377 W2       21126    TIP3     H1       HT       0.417000       1.00800           0
     63378 W2       21126    TIP3     H2       HT       0.417000       1.00800           0
     63379 W2       21127    TIP3     OH2      OT      -0.834000       15.9994           0
     63380 W2       21127    TIP3     H1       HT       0.417000       1.00800           0
     63381 W2       21127    TIP3     H2       HT       0.417000       1.00800           0
     63382 W2       21128    TIP3     OH2      OT      -0.834000       15.9994           0
     63383 W2       21128    TIP3     H1       HT       0.417000       1.00800           0
     63384 W2       21128    TIP3     H2       HT       0.417000       1.00800           0
     63385 W2       21129    TIP3     OH2      OT      -0.834000       15.9994           0
     63386 W2       21129    TIP3     H1       HT       0.417000       1.00800           0
     63387 W2       21129    TIP3     H2       HT       0.417000       1.00800           0
     63388 W2       21130    TIP3     OH2      OT      -0.834000       15.9994           0
     63389 W2       21130    TIP3     H1       HT       0.417000       1.00800           0
     63390 W2       21130    TIP3     H2       HT       0.417000       1.00800           0
     63391 W2       21131    TIP3     OH2      OT      -0.834000       15.9994           0
     63392 W2       21131    TIP3     H1       HT       0.417000       1.00800           0
     63393 W2       21131    TIP3     H2       HT       0.417000       1.00800           0
     63394 W2       21132    TIP3     OH2      OT      -0.834000       15.9994           0
     63395 W2       21132    TIP3     H1       HT       0.417000       1.00800           0
     63396 W2       21132    TIP3     H2       HT       0.417000       1.00800           0
     63397 W2       21133    TIP3     OH2      OT      -0.834000       15.9994           0
     63398 W2       21133    TIP3     H1       HT       0.417000       1.00800           0
     63399 W2       21133    TIP3     H2       HT       0.417000       1.00800           0
     63400 W2       21134    TIP3     OH2      OT      -0.834000       15.9994           0
     63401 W2       21134    TIP3     H1       HT       0.417000       1.00800           0
     63402 W2       21134    TIP3     H2       HT       0.417000       1.00800           0
     63403 W2       21135    TIP3     OH2      OT      -0.834000       15.9994           0
     63404 W2       21135    TIP3     H1       HT       0.417000       1.00800           0
     63405 W2       21135    TIP3     H2       HT       0.417000       1.00800           0
     63406 W2       21136    TIP3     OH2      OT      -0.834000       15.9994           0
     63407 W2       21136    TIP3     H1       HT       0.417000       1.00800           0
     63408 W2       21136    TIP3     H2       HT       0.417000       1.00800           0
     63409 W2       21137    TIP3     OH2      OT      -0.834000       15.9994           0
     63410 W2       21137    TIP3     H1       HT       0.417000       1.00800           0
     63411 W2       21137    TIP3     H2       HT       0.417000       1.00800           0
     63412 W2       21138    TIP3     OH2      OT      -0.834000       15.9994           0
     63413 W2       21138    TIP3     H1       HT       0.417000       1.00800           0
     63414 W2       21138    TIP3     H2       HT       0.417000       1.00800           0
     63415 W2       21139    TIP3     OH2      OT      -0.834000       15.9994           0
     63416 W2       21139    TIP3     H1       HT       0.417000       1.00800           0
     63417 W2       21139    TIP3     H2       HT       0.417000       1.00800           0
     63418 W2       21140    TIP3     OH2      OT      -0.834000       15.9994           0
     63419 W2       21140    TIP3     H1       HT       0.417000       1.00800           0
     63420 W2       21140    TIP3     H2       HT       0.417000       1.00800           0
     63421 W2       21141    TIP3     OH2      OT      -0.834000       15.9994           0
     63422 W2       21141    TIP3     H1       HT       0.417000       1.00800           0
     63423 W2       21141    TIP3     H2       HT       0.417000       1.00800           0
     63424 W2       21142    TIP3     OH2      OT      -0.834000       15.9994           0
     63425 W2       21142    TIP3     H1       HT       0.417000       1.00800           0
     63426 W2       21142    TIP3     H2       HT       0.417000       1.00800           0
     63427 W2       21143    TIP3     OH2      OT      -0.834000       15.9994           0
     63428 W2       21143    TIP3     H1       HT       0.417000       1.00800           0
     63429 W2       21143    TIP3     H2       HT       0.417000       1.00800           0
     63430 W2       21144    TIP3     OH2      OT      -0.834000       15.9994           0
     63431 W2       21144    TIP3     H1       HT       0.417000       1.00800           0
     63432 W2       21144    TIP3     H2       HT       0.417000       1.00800           0
     63433 W2       21145    TIP3     OH2      OT      -0.834000       15.9994           0
     63434 W2       21145    TIP3     H1       HT       0.417000       1.00800           0
     63435 W2       21145    TIP3     H2       HT       0.417000       1.00800           0
     63436 W2       21146    TIP3     OH2      OT      -0.834000       15.9994           0
     63437 W2       21146    TIP3     H1       HT       0.417000       1.00800           0
     63438 W2       21146    TIP3     H2       HT       0.417000       1.00800           0
     63439 W2       21147    TIP3     OH2      OT      -0.834000       15.9994           0
     63440 W2       21147    TIP3     H1       HT       0.417000       1.00800           0
     63441 W2       21147    TIP3     H2       HT       0.417000       1.00800           0
     63442 W2       21148    TIP3     OH2      OT      -0.834000       15.9994           0
     63443 W2       21148    TIP3     H1       HT       0.417000       1.00800           0
     63444 W2       21148    TIP3     H2       HT       0.417000       1.00800           0
     63445 W2       21149    TIP3     OH2      OT      -0.834000       15.9994           0
     63446 W2       21149    TIP3     H1       HT       0.417000       1.00800           0
     63447 W2       21149    TIP3     H2       HT       0.417000       1.00800           0
     63448 W2       21150    TIP3     OH2      OT      -0.834000       15.9994           0
     63449 W2       21150    TIP3     H1       HT       0.417000       1.00800           0
     63450 W2       21150    TIP3     H2       HT       0.417000       1.00800           0
     63451 W2       21151    TIP3     OH2      OT      -0.834000       15.9994           0
     63452 W2       21151    TIP3     H1       HT       0.417000       1.00800           0
     63453 W2       21151    TIP3     H2       HT       0.417000       1.00800           0
     63454 W2       21152    TIP3     OH2      OT      -0.834000       15.9994           0
     63455 W2       21152    TIP3     H1       HT       0.417000       1.00800           0
     63456 W2       21152    TIP3     H2       HT       0.417000       1.00800           0
     63457 W2       21153    TIP3     OH2      OT      -0.834000       15.9994           0
     63458 W2       21153    TIP3     H1       HT       0.417000       1.00800           0
     63459 W2       21153    TIP3     H2       HT       0.417000       1.00800           0
     63460 W2       21154    TIP3     OH2      OT      -0.834000       15.9994           0
     63461 W2       21154    TIP3     H1       HT       0.417000       1.00800           0
     63462 W2       21154    TIP3     H2       HT       0.417000       1.00800           0
     63463 W2       21155    TIP3     OH2      OT      -0.834000       15.9994           0
     63464 W2       21155    TIP3     H1       HT       0.417000       1.00800           0
     63465 W2       21155    TIP3     H2       HT       0.417000       1.00800           0
     63466 W2       21156    TIP3     OH2      OT      -0.834000       15.9994           0
     63467 W2       21156    TIP3     H1       HT       0.417000       1.00800           0
     63468 W2       21156    TIP3     H2       HT       0.417000       1.00800           0
     63469 W2       21157    TIP3     OH2      OT      -0.834000       15.9994           0
     63470 W2       21157    TIP3     H1       HT       0.417000       1.00800           0
     63471 W2       21157    TIP3     H2       HT       0.417000       1.00800           0
     63472 W2       21158    TIP3     OH2      OT      -0.834000       15.9994           0
     63473 W2       21158    TIP3     H1       HT       0.417000       1.00800           0
     63474 W2       21158    TIP3     H2       HT       0.417000       1.00800           0
     63475 W2       21159    TIP3     OH2      OT      -0.834000       15.9994           0
     63476 W2       21159    TIP3     H1       HT       0.417000       1.00800           0
     63477 W2       21159    TIP3     H2       HT       0.417000       1.00800           0
     63478 W2       21160    TIP3     OH2      OT      -0.834000       15.9994           0
     63479 W2       21160    TIP3     H1       HT       0.417000       1.00800           0
     63480 W2       21160    TIP3     H2       HT       0.417000       1.00800           0
     63481 W2       21161    TIP3     OH2      OT      -0.834000       15.9994           0
     63482 W2       21161    TIP3     H1       HT       0.417000       1.00800           0
     63483 W2       21161    TIP3     H2       HT       0.417000       1.00800           0
     63484 W2       21162    TIP3     OH2      OT      -0.834000       15.9994           0
     63485 W2       21162    TIP3     H1       HT       0.417000       1.00800           0
     63486 W2       21162    TIP3     H2       HT       0.417000       1.00800           0
     63487 W2       21163    TIP3     OH2      OT      -0.834000       15.9994           0
     63488 W2       21163    TIP3     H1       HT       0.417000       1.00800           0
     63489 W2       21163    TIP3     H2       HT       0.417000       1.00800           0
     63490 W2       21164    TIP3     OH2      OT      -0.834000       15.9994           0
     63491 W2       21164    TIP3     H1       HT       0.417000       1.00800           0
     63492 W2       21164    TIP3     H2       HT       0.417000       1.00800           0
     63493 W2       21165    TIP3     OH2      OT      -0.834000       15.9994           0
     63494 W2       21165    TIP3     H1       HT       0.417000       1.00800           0
     63495 W2       21165    TIP3     H2       HT       0.417000       1.00800           0
     63496 W2       21166    TIP3     OH2      OT      -0.834000       15.9994           0
     63497 W2       21166    TIP3     H1       HT       0.417000       1.00800           0
     63498 W2       21166    TIP3     H2       HT       0.417000       1.00800           0
     63499 W2       21167    TIP3     OH2      OT      -0.834000       15.9994           0
     63500 W2       21167    TIP3     H1       HT       0.417000       1.00800           0
     63501 W2       21167    TIP3     H2       HT       0.417000       1.00800           0
     63502 W2       21168    TIP3     OH2      OT      -0.834000       15.9994           0
     63503 W2       21168    TIP3     H1       HT       0.417000       1.00800           0
     63504 W2       21168    TIP3     H2       HT       0.417000       1.00800           0
     63505 W2       21169    TIP3     OH2      OT      -0.834000       15.9994           0
     63506 W2       21169    TIP3     H1       HT       0.417000       1.00800           0
     63507 W2       21169    TIP3     H2       HT       0.417000       1.00800           0
     63508 W2       21170    TIP3     OH2      OT      -0.834000       15.9994           0
     63509 W2       21170    TIP3     H1       HT       0.417000       1.00800           0
     63510 W2       21170    TIP3     H2       HT       0.417000       1.00800           0
     63511 W2       21171    TIP3     OH2      OT      -0.834000       15.9994           0
     63512 W2       21171    TIP3     H1       HT       0.417000       1.00800           0
     63513 W2       21171    TIP3     H2       HT       0.417000       1.00800           0
     63514 W2       21172    TIP3     OH2      OT      -0.834000       15.9994           0
     63515 W2       21172    TIP3     H1       HT       0.417000       1.00800           0
     63516 W2       21172    TIP3     H2       HT       0.417000       1.00800           0
     63517 W2       21173    TIP3     OH2      OT      -0.834000       15.9994           0
     63518 W2       21173    TIP3     H1       HT       0.417000       1.00800           0
     63519 W2       21173    TIP3     H2       HT       0.417000       1.00800           0
     63520 W2       21174    TIP3     OH2      OT      -0.834000       15.9994           0
     63521 W2       21174    TIP3     H1       HT       0.417000       1.00800           0
     63522 W2       21174    TIP3     H2       HT       0.417000       1.00800           0
     63523 W2       21175    TIP3     OH2      OT      -0.834000       15.9994           0
     63524 W2       21175    TIP3     H1       HT       0.417000       1.00800           0
     63525 W2       21175    TIP3     H2       HT       0.417000       1.00800           0
     63526 W2       21176    TIP3     OH2      OT      -0.834000       15.9994           0
     63527 W2       21176    TIP3     H1       HT       0.417000       1.00800           0
     63528 W2       21176    TIP3     H2       HT       0.417000       1.00800           0
     63529 W2       21177    TIP3     OH2      OT      -0.834000       15.9994           0
     63530 W2       21177    TIP3     H1       HT       0.417000       1.00800           0
     63531 W2       21177    TIP3     H2       HT       0.417000       1.00800           0
     63532 W2       21178    TIP3     OH2      OT      -0.834000       15.9994           0
     63533 W2       21178    TIP3     H1       HT       0.417000       1.00800           0
     63534 W2       21178    TIP3     H2       HT       0.417000       1.00800           0
     63535 W2       21179    TIP3     OH2      OT      -0.834000       15.9994           0
     63536 W2       21179    TIP3     H1       HT       0.417000       1.00800           0
     63537 W2       21179    TIP3     H2       HT       0.417000       1.00800           0
     63538 W2       21180    TIP3     OH2      OT      -0.834000       15.9994           0
     63539 W2       21180    TIP3     H1       HT       0.417000       1.00800           0
     63540 W2       21180    TIP3     H2       HT       0.417000       1.00800           0
     63541 W2       21181    TIP3     OH2      OT      -0.834000       15.9994           0
     63542 W2       21181    TIP3     H1       HT       0.417000       1.00800           0
     63543 W2       21181    TIP3     H2       HT       0.417000       1.00800           0
     63544 W2       21182    TIP3     OH2      OT      -0.834000       15.9994           0
     63545 W2       21182    TIP3     H1       HT       0.417000       1.00800           0
     63546 W2       21182    TIP3     H2       HT       0.417000       1.00800           0
     63547 W2       21183    TIP3     OH2      OT      -0.834000       15.9994           0
     63548 W2       21183    TIP3     H1       HT       0.417000       1.00800           0
     63549 W2       21183    TIP3     H2       HT       0.417000       1.00800           0
     63550 W2       21184    TIP3     OH2      OT      -0.834000       15.9994           0
     63551 W2       21184    TIP3     H1       HT       0.417000       1.00800           0
     63552 W2       21184    TIP3     H2       HT       0.417000       1.00800           0
     63553 W2       21185    TIP3     OH2      OT      -0.834000       15.9994           0
     63554 W2       21185    TIP3     H1       HT       0.417000       1.00800           0
     63555 W2       21185    TIP3     H2       HT       0.417000       1.00800           0
     63556 W2       21186    TIP3     OH2      OT      -0.834000       15.9994           0
     63557 W2       21186    TIP3     H1       HT       0.417000       1.00800           0
     63558 W2       21186    TIP3     H2       HT       0.417000       1.00800           0
     63559 W2       21187    TIP3     OH2      OT      -0.834000       15.9994           0
     63560 W2       21187    TIP3     H1       HT       0.417000       1.00800           0
     63561 W2       21187    TIP3     H2       HT       0.417000       1.00800           0
     63562 W2       21188    TIP3     OH2      OT      -0.834000       15.9994           0
     63563 W2       21188    TIP3     H1       HT       0.417000       1.00800           0
     63564 W2       21188    TIP3     H2       HT       0.417000       1.00800           0
     63565 W2       21189    TIP3     OH2      OT      -0.834000       15.9994           0
     63566 W2       21189    TIP3     H1       HT       0.417000       1.00800           0
     63567 W2       21189    TIP3     H2       HT       0.417000       1.00800           0
     63568 W2       21190    TIP3     OH2      OT      -0.834000       15.9994           0
     63569 W2       21190    TIP3     H1       HT       0.417000       1.00800           0
     63570 W2       21190    TIP3     H2       HT       0.417000       1.00800           0
     63571 W2       21191    TIP3     OH2      OT      -0.834000       15.9994           0
     63572 W2       21191    TIP3     H1       HT       0.417000       1.00800           0
     63573 W2       21191    TIP3     H2       HT       0.417000       1.00800           0
     63574 W2       21192    TIP3     OH2      OT      -0.834000       15.9994           0
     63575 W2       21192    TIP3     H1       HT       0.417000       1.00800           0
     63576 W2       21192    TIP3     H2       HT       0.417000       1.00800           0
     63577 W2       21193    TIP3     OH2      OT      -0.834000       15.9994           0
     63578 W2       21193    TIP3     H1       HT       0.417000       1.00800           0
     63579 W2       21193    TIP3     H2       HT       0.417000       1.00800           0
     63580 W2       21194    TIP3     OH2      OT      -0.834000       15.9994           0
     63581 W2       21194    TIP3     H1       HT       0.417000       1.00800           0
     63582 W2       21194    TIP3     H2       HT       0.417000       1.00800           0
     63583 W2       21195    TIP3     OH2      OT      -0.834000       15.9994           0
     63584 W2       21195    TIP3     H1       HT       0.417000       1.00800           0
     63585 W2       21195    TIP3     H2       HT       0.417000       1.00800           0
     63586 W2       21196    TIP3     OH2      OT      -0.834000       15.9994           0
     63587 W2       21196    TIP3     H1       HT       0.417000       1.00800           0
     63588 W2       21196    TIP3     H2       HT       0.417000       1.00800           0
     63589 W2       21197    TIP3     OH2      OT      -0.834000       15.9994           0
     63590 W2       21197    TIP3     H1       HT       0.417000       1.00800           0
     63591 W2       21197    TIP3     H2       HT       0.417000       1.00800           0
     63592 W2       21198    TIP3     OH2      OT      -0.834000       15.9994           0
     63593 W2       21198    TIP3     H1       HT       0.417000       1.00800           0
     63594 W2       21198    TIP3     H2       HT       0.417000       1.00800           0
     63595 W2       21199    TIP3     OH2      OT      -0.834000       15.9994           0
     63596 W2       21199    TIP3     H1       HT       0.417000       1.00800           0
     63597 W2       21199    TIP3     H2       HT       0.417000       1.00800           0
     63598 W2       21200    TIP3     OH2      OT      -0.834000       15.9994           0
     63599 W2       21200    TIP3     H1       HT       0.417000       1.00800           0
     63600 W2       21200    TIP3     H2       HT       0.417000       1.00800           0
     63601 W2       21201    TIP3     OH2      OT      -0.834000       15.9994           0
     63602 W2       21201    TIP3     H1       HT       0.417000       1.00800           0
     63603 W2       21201    TIP3     H2       HT       0.417000       1.00800           0
     63604 W2       21202    TIP3     OH2      OT      -0.834000       15.9994           0
     63605 W2       21202    TIP3     H1       HT       0.417000       1.00800           0
     63606 W2       21202    TIP3     H2       HT       0.417000       1.00800           0
     63607 W2       21203    TIP3     OH2      OT      -0.834000       15.9994           0
     63608 W2       21203    TIP3     H1       HT       0.417000       1.00800           0
     63609 W2       21203    TIP3     H2       HT       0.417000       1.00800           0
     63610 W2       21204    TIP3     OH2      OT      -0.834000       15.9994           0
     63611 W2       21204    TIP3     H1       HT       0.417000       1.00800           0
     63612 W2       21204    TIP3     H2       HT       0.417000       1.00800           0
     63613 W2       21205    TIP3     OH2      OT      -0.834000       15.9994           0
     63614 W2       21205    TIP3     H1       HT       0.417000       1.00800           0
     63615 W2       21205    TIP3     H2       HT       0.417000       1.00800           0
     63616 W2       21206    TIP3     OH2      OT      -0.834000       15.9994           0
     63617 W2       21206    TIP3     H1       HT       0.417000       1.00800           0
     63618 W2       21206    TIP3     H2       HT       0.417000       1.00800           0
     63619 W2       21207    TIP3     OH2      OT      -0.834000       15.9994           0
     63620 W2       21207    TIP3     H1       HT       0.417000       1.00800           0
     63621 W2       21207    TIP3     H2       HT       0.417000       1.00800           0
     63622 W2       21208    TIP3     OH2      OT      -0.834000       15.9994           0
     63623 W2       21208    TIP3     H1       HT       0.417000       1.00800           0
     63624 W2       21208    TIP3     H2       HT       0.417000       1.00800           0
     63625 W2       21209    TIP3     OH2      OT      -0.834000       15.9994           0
     63626 W2       21209    TIP3     H1       HT       0.417000       1.00800           0
     63627 W2       21209    TIP3     H2       HT       0.417000       1.00800           0
     63628 W2       21210    TIP3     OH2      OT      -0.834000       15.9994           0
     63629 W2       21210    TIP3     H1       HT       0.417000       1.00800           0
     63630 W2       21210    TIP3     H2       HT       0.417000       1.00800           0
     63631 W2       21211    TIP3     OH2      OT      -0.834000       15.9994           0
     63632 W2       21211    TIP3     H1       HT       0.417000       1.00800           0
     63633 W2       21211    TIP3     H2       HT       0.417000       1.00800           0
     63634 W2       21212    TIP3     OH2      OT      -0.834000       15.9994           0
     63635 W2       21212    TIP3     H1       HT       0.417000       1.00800           0
     63636 W2       21212    TIP3     H2       HT       0.417000       1.00800           0
     63637 W2       21213    TIP3     OH2      OT      -0.834000       15.9994           0
     63638 W2       21213    TIP3     H1       HT       0.417000       1.00800           0
     63639 W2       21213    TIP3     H2       HT       0.417000       1.00800           0
     63640 W2       21214    TIP3     OH2      OT      -0.834000       15.9994           0
     63641 W2       21214    TIP3     H1       HT       0.417000       1.00800           0
     63642 W2       21214    TIP3     H2       HT       0.417000       1.00800           0
     63643 W2       21215    TIP3     OH2      OT      -0.834000       15.9994           0
     63644 W2       21215    TIP3     H1       HT       0.417000       1.00800           0
     63645 W2       21215    TIP3     H2       HT       0.417000       1.00800           0
     63646 W2       21216    TIP3     OH2      OT      -0.834000       15.9994           0
     63647 W2       21216    TIP3     H1       HT       0.417000       1.00800           0
     63648 W2       21216    TIP3     H2       HT       0.417000       1.00800           0
     63649 W2       21217    TIP3     OH2      OT      -0.834000       15.9994           0
     63650 W2       21217    TIP3     H1       HT       0.417000       1.00800           0
     63651 W2       21217    TIP3     H2       HT       0.417000       1.00800           0
     63652 W2       21218    TIP3     OH2      OT      -0.834000       15.9994           0
     63653 W2       21218    TIP3     H1       HT       0.417000       1.00800           0
     63654 W2       21218    TIP3     H2       HT       0.417000       1.00800           0
     63655 W2       21219    TIP3     OH2      OT      -0.834000       15.9994           0
     63656 W2       21219    TIP3     H1       HT       0.417000       1.00800           0
     63657 W2       21219    TIP3     H2       HT       0.417000       1.00800           0
     63658 W2       21220    TIP3     OH2      OT      -0.834000       15.9994           0
     63659 W2       21220    TIP3     H1       HT       0.417000       1.00800           0
     63660 W2       21220    TIP3     H2       HT       0.417000       1.00800           0
     63661 W2       21221    TIP3     OH2      OT      -0.834000       15.9994           0
     63662 W2       21221    TIP3     H1       HT       0.417000       1.00800           0
     63663 W2       21221    TIP3     H2       HT       0.417000       1.00800           0
     63664 W2       21222    TIP3     OH2      OT      -0.834000       15.9994           0
     63665 W2       21222    TIP3     H1       HT       0.417000       1.00800           0
     63666 W2       21222    TIP3     H2       HT       0.417000       1.00800           0
     63667 W2       21223    TIP3     OH2      OT      -0.834000       15.9994           0
     63668 W2       21223    TIP3     H1       HT       0.417000       1.00800           0
     63669 W2       21223    TIP3     H2       HT       0.417000       1.00800           0
     63670 W2       21224    TIP3     OH2      OT      -0.834000       15.9994           0
     63671 W2       21224    TIP3     H1       HT       0.417000       1.00800           0
     63672 W2       21224    TIP3     H2       HT       0.417000       1.00800           0
     63673 W2       21225    TIP3     OH2      OT      -0.834000       15.9994           0
     63674 W2       21225    TIP3     H1       HT       0.417000       1.00800           0
     63675 W2       21225    TIP3     H2       HT       0.417000       1.00800           0
     63676 W2       21226    TIP3     OH2      OT      -0.834000       15.9994           0
     63677 W2       21226    TIP3     H1       HT       0.417000       1.00800           0
     63678 W2       21226    TIP3     H2       HT       0.417000       1.00800           0
     63679 W2       21227    TIP3     OH2      OT      -0.834000       15.9994           0
     63680 W2       21227    TIP3     H1       HT       0.417000       1.00800           0
     63681 W2       21227    TIP3     H2       HT       0.417000       1.00800           0
     63682 W2       21228    TIP3     OH2      OT      -0.834000       15.9994           0
     63683 W2       21228    TIP3     H1       HT       0.417000       1.00800           0
     63684 W2       21228    TIP3     H2       HT       0.417000       1.00800           0
     63685 W2       21229    TIP3     OH2      OT      -0.834000       15.9994           0
     63686 W2       21229    TIP3     H1       HT       0.417000       1.00800           0
     63687 W2       21229    TIP3     H2       HT       0.417000       1.00800           0
     63688 W2       21230    TIP3     OH2      OT      -0.834000       15.9994           0
     63689 W2       21230    TIP3     H1       HT       0.417000       1.00800           0
     63690 W2       21230    TIP3     H2       HT       0.417000       1.00800           0
     63691 W2       21231    TIP3     OH2      OT      -0.834000       15.9994           0
     63692 W2       21231    TIP3     H1       HT       0.417000       1.00800           0
     63693 W2       21231    TIP3     H2       HT       0.417000       1.00800           0
     63694 W2       21232    TIP3     OH2      OT      -0.834000       15.9994           0
     63695 W2       21232    TIP3     H1       HT       0.417000       1.00800           0
     63696 W2       21232    TIP3     H2       HT       0.417000       1.00800           0
     63697 W2       21233    TIP3     OH2      OT      -0.834000       15.9994           0
     63698 W2       21233    TIP3     H1       HT       0.417000       1.00800           0
     63699 W2       21233    TIP3     H2       HT       0.417000       1.00800           0
     63700 W2       21234    TIP3     OH2      OT      -0.834000       15.9994           0
     63701 W2       21234    TIP3     H1       HT       0.417000       1.00800           0
     63702 W2       21234    TIP3     H2       HT       0.417000       1.00800           0
     63703 W2       21235    TIP3     OH2      OT      -0.834000       15.9994           0
     63704 W2       21235    TIP3     H1       HT       0.417000       1.00800           0
     63705 W2       21235    TIP3     H2       HT       0.417000       1.00800           0
     63706 W2       21236    TIP3     OH2      OT      -0.834000       15.9994           0
     63707 W2       21236    TIP3     H1       HT       0.417000       1.00800           0
     63708 W2       21236    TIP3     H2       HT       0.417000       1.00800           0
     63709 W2       21237    TIP3     OH2      OT      -0.834000       15.9994           0
     63710 W2       21237    TIP3     H1       HT       0.417000       1.00800           0
     63711 W2       21237    TIP3     H2       HT       0.417000       1.00800           0
     63712 W2       21238    TIP3     OH2      OT      -0.834000       15.9994           0
     63713 W2       21238    TIP3     H1       HT       0.417000       1.00800           0
     63714 W2       21238    TIP3     H2       HT       0.417000       1.00800           0
     63715 W2       21239    TIP3     OH2      OT      -0.834000       15.9994           0
     63716 W2       21239    TIP3     H1       HT       0.417000       1.00800           0
     63717 W2       21239    TIP3     H2       HT       0.417000       1.00800           0
     63718 W2       21240    TIP3     OH2      OT      -0.834000       15.9994           0
     63719 W2       21240    TIP3     H1       HT       0.417000       1.00800           0
     63720 W2       21240    TIP3     H2       HT       0.417000       1.00800           0
     63721 W2       21241    TIP3     OH2      OT      -0.834000       15.9994           0
     63722 W2       21241    TIP3     H1       HT       0.417000       1.00800           0
     63723 W2       21241    TIP3     H2       HT       0.417000       1.00800           0
     63724 W2       21242    TIP3     OH2      OT      -0.834000       15.9994           0
     63725 W2       21242    TIP3     H1       HT       0.417000       1.00800           0
     63726 W2       21242    TIP3     H2       HT       0.417000       1.00800           0
     63727 W2       21243    TIP3     OH2      OT      -0.834000       15.9994           0
     63728 W2       21243    TIP3     H1       HT       0.417000       1.00800           0
     63729 W2       21243    TIP3     H2       HT       0.417000       1.00800           0
     63730 W2       21244    TIP3     OH2      OT      -0.834000       15.9994           0
     63731 W2       21244    TIP3     H1       HT       0.417000       1.00800           0
     63732 W2       21244    TIP3     H2       HT       0.417000       1.00800           0
     63733 W2       21245    TIP3     OH2      OT      -0.834000       15.9994           0
     63734 W2       21245    TIP3     H1       HT       0.417000       1.00800           0
     63735 W2       21245    TIP3     H2       HT       0.417000       1.00800           0
     63736 W2       21246    TIP3     OH2      OT      -0.834000       15.9994           0
     63737 W2       21246    TIP3     H1       HT       0.417000       1.00800           0
     63738 W2       21246    TIP3     H2       HT       0.417000       1.00800           0
     63739 W2       21247    TIP3     OH2      OT      -0.834000       15.9994           0
     63740 W2       21247    TIP3     H1       HT       0.417000       1.00800           0
     63741 W2       21247    TIP3     H2       HT       0.417000       1.00800           0
     63742 W2       21248    TIP3     OH2      OT      -0.834000       15.9994           0
     63743 W2       21248    TIP3     H1       HT       0.417000       1.00800           0
     63744 W2       21248    TIP3     H2       HT       0.417000       1.00800           0
     63745 W2       21249    TIP3     OH2      OT      -0.834000       15.9994           0
     63746 W2       21249    TIP3     H1       HT       0.417000       1.00800           0
     63747 W2       21249    TIP3     H2       HT       0.417000       1.00800           0
     63748 W2       21250    TIP3     OH2      OT      -0.834000       15.9994           0
     63749 W2       21250    TIP3     H1       HT       0.417000       1.00800           0
     63750 W2       21250    TIP3     H2       HT       0.417000       1.00800           0
     63751 W2       21251    TIP3     OH2      OT      -0.834000       15.9994           0
     63752 W2       21251    TIP3     H1       HT       0.417000       1.00800           0
     63753 W2       21251    TIP3     H2       HT       0.417000       1.00800           0
     63754 W2       21252    TIP3     OH2      OT      -0.834000       15.9994           0
     63755 W2       21252    TIP3     H1       HT       0.417000       1.00800           0
     63756 W2       21252    TIP3     H2       HT       0.417000       1.00800           0
     63757 W2       21253    TIP3     OH2      OT      -0.834000       15.9994           0
     63758 W2       21253    TIP3     H1       HT       0.417000       1.00800           0
     63759 W2       21253    TIP3     H2       HT       0.417000       1.00800           0
     63760 W2       21254    TIP3     OH2      OT      -0.834000       15.9994           0
     63761 W2       21254    TIP3     H1       HT       0.417000       1.00800           0
     63762 W2       21254    TIP3     H2       HT       0.417000       1.00800           0
     63763 W2       21255    TIP3     OH2      OT      -0.834000       15.9994           0
     63764 W2       21255    TIP3     H1       HT       0.417000       1.00800           0
     63765 W2       21255    TIP3     H2       HT       0.417000       1.00800           0
     63766 W2       21256    TIP3     OH2      OT      -0.834000       15.9994           0
     63767 W2       21256    TIP3     H1       HT       0.417000       1.00800           0
     63768 W2       21256    TIP3     H2       HT       0.417000       1.00800           0
     63769 W2       21257    TIP3     OH2      OT      -0.834000       15.9994           0
     63770 W2       21257    TIP3     H1       HT       0.417000       1.00800           0
     63771 W2       21257    TIP3     H2       HT       0.417000       1.00800           0
     63772 W2       21258    TIP3     OH2      OT      -0.834000       15.9994           0
     63773 W2       21258    TIP3     H1       HT       0.417000       1.00800           0
     63774 W2       21258    TIP3     H2       HT       0.417000       1.00800           0
     63775 W2       21259    TIP3     OH2      OT      -0.834000       15.9994           0
     63776 W2       21259    TIP3     H1       HT       0.417000       1.00800           0
     63777 W2       21259    TIP3     H2       HT       0.417000       1.00800           0
     63778 W2       21260    TIP3     OH2      OT      -0.834000       15.9994           0
     63779 W2       21260    TIP3     H1       HT       0.417000       1.00800           0
     63780 W2       21260    TIP3     H2       HT       0.417000       1.00800           0
     63781 W2       21261    TIP3     OH2      OT      -0.834000       15.9994           0
     63782 W2       21261    TIP3     H1       HT       0.417000       1.00800           0
     63783 W2       21261    TIP3     H2       HT       0.417000       1.00800           0
     63784 W2       21262    TIP3     OH2      OT      -0.834000       15.9994           0
     63785 W2       21262    TIP3     H1       HT       0.417000       1.00800           0
     63786 W2       21262    TIP3     H2       HT       0.417000       1.00800           0
     63787 W2       21263    TIP3     OH2      OT      -0.834000       15.9994           0
     63788 W2       21263    TIP3     H1       HT       0.417000       1.00800           0
     63789 W2       21263    TIP3     H2       HT       0.417000       1.00800           0
     63790 W2       21264    TIP3     OH2      OT      -0.834000       15.9994           0
     63791 W2       21264    TIP3     H1       HT       0.417000       1.00800           0
     63792 W2       21264    TIP3     H2       HT       0.417000       1.00800           0
     63793 W2       21265    TIP3     OH2      OT      -0.834000       15.9994           0
     63794 W2       21265    TIP3     H1       HT       0.417000       1.00800           0
     63795 W2       21265    TIP3     H2       HT       0.417000       1.00800           0
     63796 W2       21266    TIP3     OH2      OT      -0.834000       15.9994           0
     63797 W2       21266    TIP3     H1       HT       0.417000       1.00800           0
     63798 W2       21266    TIP3     H2       HT       0.417000       1.00800           0
     63799 W2       21267    TIP3     OH2      OT      -0.834000       15.9994           0
     63800 W2       21267    TIP3     H1       HT       0.417000       1.00800           0
     63801 W2       21267    TIP3     H2       HT       0.417000       1.00800           0
     63802 W2       21268    TIP3     OH2      OT      -0.834000       15.9994           0
     63803 W2       21268    TIP3     H1       HT       0.417000       1.00800           0
     63804 W2       21268    TIP3     H2       HT       0.417000       1.00800           0
     63805 W2       21269    TIP3     OH2      OT      -0.834000       15.9994           0
     63806 W2       21269    TIP3     H1       HT       0.417000       1.00800           0
     63807 W2       21269    TIP3     H2       HT       0.417000       1.00800           0
     63808 W2       21270    TIP3     OH2      OT      -0.834000       15.9994           0
     63809 W2       21270    TIP3     H1       HT       0.417000       1.00800           0
     63810 W2       21270    TIP3     H2       HT       0.417000       1.00800           0
     63811 W2       21271    TIP3     OH2      OT      -0.834000       15.9994           0
     63812 W2       21271    TIP3     H1       HT       0.417000       1.00800           0
     63813 W2       21271    TIP3     H2       HT       0.417000       1.00800           0
     63814 W2       21272    TIP3     OH2      OT      -0.834000       15.9994           0
     63815 W2       21272    TIP3     H1       HT       0.417000       1.00800           0
     63816 W2       21272    TIP3     H2       HT       0.417000       1.00800           0
     63817 W2       21273    TIP3     OH2      OT      -0.834000       15.9994           0
     63818 W2       21273    TIP3     H1       HT       0.417000       1.00800           0
     63819 W2       21273    TIP3     H2       HT       0.417000       1.00800           0
     63820 W2       21274    TIP3     OH2      OT      -0.834000       15.9994           0
     63821 W2       21274    TIP3     H1       HT       0.417000       1.00800           0
     63822 W2       21274    TIP3     H2       HT       0.417000       1.00800           0
     63823 W2       21275    TIP3     OH2      OT      -0.834000       15.9994           0
     63824 W2       21275    TIP3     H1       HT       0.417000       1.00800           0
     63825 W2       21275    TIP3     H2       HT       0.417000       1.00800           0
     63826 W2       21276    TIP3     OH2      OT      -0.834000       15.9994           0
     63827 W2       21276    TIP3     H1       HT       0.417000       1.00800           0
     63828 W2       21276    TIP3     H2       HT       0.417000       1.00800           0
     63829 W2       21277    TIP3     OH2      OT      -0.834000       15.9994           0
     63830 W2       21277    TIP3     H1       HT       0.417000       1.00800           0
     63831 W2       21277    TIP3     H2       HT       0.417000       1.00800           0
     63832 W2       21278    TIP3     OH2      OT      -0.834000       15.9994           0
     63833 W2       21278    TIP3     H1       HT       0.417000       1.00800           0
     63834 W2       21278    TIP3     H2       HT       0.417000       1.00800           0
     63835 W2       21279    TIP3     OH2      OT      -0.834000       15.9994           0
     63836 W2       21279    TIP3     H1       HT       0.417000       1.00800           0
     63837 W2       21279    TIP3     H2       HT       0.417000       1.00800           0
     63838 W2       21280    TIP3     OH2      OT      -0.834000       15.9994           0
     63839 W2       21280    TIP3     H1       HT       0.417000       1.00800           0
     63840 W2       21280    TIP3     H2       HT       0.417000       1.00800           0
     63841 W2       21281    TIP3     OH2      OT      -0.834000       15.9994           0
     63842 W2       21281    TIP3     H1       HT       0.417000       1.00800           0
     63843 W2       21281    TIP3     H2       HT       0.417000       1.00800           0
     63844 W2       21282    TIP3     OH2      OT      -0.834000       15.9994           0
     63845 W2       21282    TIP3     H1       HT       0.417000       1.00800           0
     63846 W2       21282    TIP3     H2       HT       0.417000       1.00800           0
     63847 W2       21283    TIP3     OH2      OT      -0.834000       15.9994           0
     63848 W2       21283    TIP3     H1       HT       0.417000       1.00800           0
     63849 W2       21283    TIP3     H2       HT       0.417000       1.00800           0
     63850 W2       21284    TIP3     OH2      OT      -0.834000       15.9994           0
     63851 W2       21284    TIP3     H1       HT       0.417000       1.00800           0
     63852 W2       21284    TIP3     H2       HT       0.417000       1.00800           0
     63853 W2       21285    TIP3     OH2      OT      -0.834000       15.9994           0
     63854 W2       21285    TIP3     H1       HT       0.417000       1.00800           0
     63855 W2       21285    TIP3     H2       HT       0.417000       1.00800           0
     63856 W2       21286    TIP3     OH2      OT      -0.834000       15.9994           0
     63857 W2       21286    TIP3     H1       HT       0.417000       1.00800           0
     63858 W2       21286    TIP3     H2       HT       0.417000       1.00800           0
     63859 W2       21287    TIP3     OH2      OT      -0.834000       15.9994           0
     63860 W2       21287    TIP3     H1       HT       0.417000       1.00800           0
     63861 W2       21287    TIP3     H2       HT       0.417000       1.00800           0
     63862 W2       21288    TIP3     OH2      OT      -0.834000       15.9994           0
     63863 W2       21288    TIP3     H1       HT       0.417000       1.00800           0
     63864 W2       21288    TIP3     H2       HT       0.417000       1.00800           0
     63865 W2       21289    TIP3     OH2      OT      -0.834000       15.9994           0
     63866 W2       21289    TIP3     H1       HT       0.417000       1.00800           0
     63867 W2       21289    TIP3     H2       HT       0.417000       1.00800           0
     63868 W2       21290    TIP3     OH2      OT      -0.834000       15.9994           0
     63869 W2       21290    TIP3     H1       HT       0.417000       1.00800           0
     63870 W2       21290    TIP3     H2       HT       0.417000       1.00800           0
     63871 W2       21291    TIP3     OH2      OT      -0.834000       15.9994           0
     63872 W2       21291    TIP3     H1       HT       0.417000       1.00800           0
     63873 W2       21291    TIP3     H2       HT       0.417000       1.00800           0
     63874 W2       21292    TIP3     OH2      OT      -0.834000       15.9994           0
     63875 W2       21292    TIP3     H1       HT       0.417000       1.00800           0
     63876 W2       21292    TIP3     H2       HT       0.417000       1.00800           0
     63877 W2       21293    TIP3     OH2      OT      -0.834000       15.9994           0
     63878 W2       21293    TIP3     H1       HT       0.417000       1.00800           0
     63879 W2       21293    TIP3     H2       HT       0.417000       1.00800           0
     63880 W2       21294    TIP3     OH2      OT      -0.834000       15.9994           0
     63881 W2       21294    TIP3     H1       HT       0.417000       1.00800           0
     63882 W2       21294    TIP3     H2       HT       0.417000       1.00800           0
     63883 W2       21295    TIP3     OH2      OT      -0.834000       15.9994           0
     63884 W2       21295    TIP3     H1       HT       0.417000       1.00800           0
     63885 W2       21295    TIP3     H2       HT       0.417000       1.00800           0
     63886 W2       21296    TIP3     OH2      OT      -0.834000       15.9994           0
     63887 W2       21296    TIP3     H1       HT       0.417000       1.00800           0
     63888 W2       21296    TIP3     H2       HT       0.417000       1.00800           0
     63889 W2       21297    TIP3     OH2      OT      -0.834000       15.9994           0
     63890 W2       21297    TIP3     H1       HT       0.417000       1.00800           0
     63891 W2       21297    TIP3     H2       HT       0.417000       1.00800           0
     63892 W2       21298    TIP3     OH2      OT      -0.834000       15.9994           0
     63893 W2       21298    TIP3     H1       HT       0.417000       1.00800           0
     63894 W2       21298    TIP3     H2       HT       0.417000       1.00800           0
     63895 W2       21299    TIP3     OH2      OT      -0.834000       15.9994           0
     63896 W2       21299    TIP3     H1       HT       0.417000       1.00800           0
     63897 W2       21299    TIP3     H2       HT       0.417000       1.00800           0
     63898 W2       21300    TIP3     OH2      OT      -0.834000       15.9994           0
     63899 W2       21300    TIP3     H1       HT       0.417000       1.00800           0
     63900 W2       21300    TIP3     H2       HT       0.417000       1.00800           0
     63901 W2       21301    TIP3     OH2      OT      -0.834000       15.9994           0
     63902 W2       21301    TIP3     H1       HT       0.417000       1.00800           0
     63903 W2       21301    TIP3     H2       HT       0.417000       1.00800           0
     63904 W2       21302    TIP3     OH2      OT      -0.834000       15.9994           0
     63905 W2       21302    TIP3     H1       HT       0.417000       1.00800           0
     63906 W2       21302    TIP3     H2       HT       0.417000       1.00800           0
     63907 W2       21303    TIP3     OH2      OT      -0.834000       15.9994           0
     63908 W2       21303    TIP3     H1       HT       0.417000       1.00800           0
     63909 W2       21303    TIP3     H2       HT       0.417000       1.00800           0
     63910 W2       21304    TIP3     OH2      OT      -0.834000       15.9994           0
     63911 W2       21304    TIP3     H1       HT       0.417000       1.00800           0
     63912 W2       21304    TIP3     H2       HT       0.417000       1.00800           0
     63913 W2       21305    TIP3     OH2      OT      -0.834000       15.9994           0
     63914 W2       21305    TIP3     H1       HT       0.417000       1.00800           0
     63915 W2       21305    TIP3     H2       HT       0.417000       1.00800           0
     63916 W2       21306    TIP3     OH2      OT      -0.834000       15.9994           0
     63917 W2       21306    TIP3     H1       HT       0.417000       1.00800           0
     63918 W2       21306    TIP3     H2       HT       0.417000       1.00800           0
     63919 W2       21307    TIP3     OH2      OT      -0.834000       15.9994           0
     63920 W2       21307    TIP3     H1       HT       0.417000       1.00800           0
     63921 W2       21307    TIP3     H2       HT       0.417000       1.00800           0
     63922 W2       21308    TIP3     OH2      OT      -0.834000       15.9994           0
     63923 W2       21308    TIP3     H1       HT       0.417000       1.00800           0
     63924 W2       21308    TIP3     H2       HT       0.417000       1.00800           0
     63925 W2       21309    TIP3     OH2      OT      -0.834000       15.9994           0
     63926 W2       21309    TIP3     H1       HT       0.417000       1.00800           0
     63927 W2       21309    TIP3     H2       HT       0.417000       1.00800           0
     63928 W2       21310    TIP3     OH2      OT      -0.834000       15.9994           0
     63929 W2       21310    TIP3     H1       HT       0.417000       1.00800           0
     63930 W2       21310    TIP3     H2       HT       0.417000       1.00800           0
     63931 W2       21311    TIP3     OH2      OT      -0.834000       15.9994           0
     63932 W2       21311    TIP3     H1       HT       0.417000       1.00800           0
     63933 W2       21311    TIP3     H2       HT       0.417000       1.00800           0
     63934 W2       21312    TIP3     OH2      OT      -0.834000       15.9994           0
     63935 W2       21312    TIP3     H1       HT       0.417000       1.00800           0
     63936 W2       21312    TIP3     H2       HT       0.417000       1.00800           0
     63937 W2       21313    TIP3     OH2      OT      -0.834000       15.9994           0
     63938 W2       21313    TIP3     H1       HT       0.417000       1.00800           0
     63939 W2       21313    TIP3     H2       HT       0.417000       1.00800           0
     63940 W2       21314    TIP3     OH2      OT      -0.834000       15.9994           0
     63941 W2       21314    TIP3     H1       HT       0.417000       1.00800           0
     63942 W2       21314    TIP3     H2       HT       0.417000       1.00800           0
     63943 W2       21315    TIP3     OH2      OT      -0.834000       15.9994           0
     63944 W2       21315    TIP3     H1       HT       0.417000       1.00800           0
     63945 W2       21315    TIP3     H2       HT       0.417000       1.00800           0
     63946 W2       21316    TIP3     OH2      OT      -0.834000       15.9994           0
     63947 W2       21316    TIP3     H1       HT       0.417000       1.00800           0
     63948 W2       21316    TIP3     H2       HT       0.417000       1.00800           0
     63949 W2       21317    TIP3     OH2      OT      -0.834000       15.9994           0
     63950 W2       21317    TIP3     H1       HT       0.417000       1.00800           0
     63951 W2       21317    TIP3     H2       HT       0.417000       1.00800           0
     63952 W2       21318    TIP3     OH2      OT      -0.834000       15.9994           0
     63953 W2       21318    TIP3     H1       HT       0.417000       1.00800           0
     63954 W2       21318    TIP3     H2       HT       0.417000       1.00800           0
     63955 W2       21319    TIP3     OH2      OT      -0.834000       15.9994           0
     63956 W2       21319    TIP3     H1       HT       0.417000       1.00800           0
     63957 W2       21319    TIP3     H2       HT       0.417000       1.00800           0
     63958 W2       21320    TIP3     OH2      OT      -0.834000       15.9994           0
     63959 W2       21320    TIP3     H1       HT       0.417000       1.00800           0
     63960 W2       21320    TIP3     H2       HT       0.417000       1.00800           0
     63961 W2       21321    TIP3     OH2      OT      -0.834000       15.9994           0
     63962 W2       21321    TIP3     H1       HT       0.417000       1.00800           0
     63963 W2       21321    TIP3     H2       HT       0.417000       1.00800           0
     63964 W2       21322    TIP3     OH2      OT      -0.834000       15.9994           0
     63965 W2       21322    TIP3     H1       HT       0.417000       1.00800           0
     63966 W2       21322    TIP3     H2       HT       0.417000       1.00800           0
     63967 W2       21323    TIP3     OH2      OT      -0.834000       15.9994           0
     63968 W2       21323    TIP3     H1       HT       0.417000       1.00800           0
     63969 W2       21323    TIP3     H2       HT       0.417000       1.00800           0
     63970 W2       21324    TIP3     OH2      OT      -0.834000       15.9994           0
     63971 W2       21324    TIP3     H1       HT       0.417000       1.00800           0
     63972 W2       21324    TIP3     H2       HT       0.417000       1.00800           0
     63973 W2       21325    TIP3     OH2      OT      -0.834000       15.9994           0
     63974 W2       21325    TIP3     H1       HT       0.417000       1.00800           0
     63975 W2       21325    TIP3     H2       HT       0.417000       1.00800           0
     63976 W2       21326    TIP3     OH2      OT      -0.834000       15.9994           0
     63977 W2       21326    TIP3     H1       HT       0.417000       1.00800           0
     63978 W2       21326    TIP3     H2       HT       0.417000       1.00800           0
     63979 W2       21327    TIP3     OH2      OT      -0.834000       15.9994           0
     63980 W2       21327    TIP3     H1       HT       0.417000       1.00800           0
     63981 W2       21327    TIP3     H2       HT       0.417000       1.00800           0
     63982 W2       21328    TIP3     OH2      OT      -0.834000       15.9994           0
     63983 W2       21328    TIP3     H1       HT       0.417000       1.00800           0
     63984 W2       21328    TIP3     H2       HT       0.417000       1.00800           0
     63985 W2       21329    TIP3     OH2      OT      -0.834000       15.9994           0
     63986 W2       21329    TIP3     H1       HT       0.417000       1.00800           0
     63987 W2       21329    TIP3     H2       HT       0.417000       1.00800           0
     63988 W2       21330    TIP3     OH2      OT      -0.834000       15.9994           0
     63989 W2       21330    TIP3     H1       HT       0.417000       1.00800           0
     63990 W2       21330    TIP3     H2       HT       0.417000       1.00800           0
     63991 W2       21331    TIP3     OH2      OT      -0.834000       15.9994           0
     63992 W2       21331    TIP3     H1       HT       0.417000       1.00800           0
     63993 W2       21331    TIP3     H2       HT       0.417000       1.00800           0
     63994 W2       21332    TIP3     OH2      OT      -0.834000       15.9994           0
     63995 W2       21332    TIP3     H1       HT       0.417000       1.00800           0
     63996 W2       21332    TIP3     H2       HT       0.417000       1.00800           0
     63997 W2       21333    TIP3     OH2      OT      -0.834000       15.9994           0
     63998 W2       21333    TIP3     H1       HT       0.417000       1.00800           0
     63999 W2       21333    TIP3     H2       HT       0.417000       1.00800           0
     64000 W2       21334    TIP3     OH2      OT      -0.834000       15.9994           0
     64001 W2       21334    TIP3     H1       HT       0.417000       1.00800           0
     64002 W2       21334    TIP3     H2       HT       0.417000       1.00800           0
     64003 W2       21335    TIP3     OH2      OT      -0.834000       15.9994           0
     64004 W2       21335    TIP3     H1       HT       0.417000       1.00800           0
     64005 W2       21335    TIP3     H2       HT       0.417000       1.00800           0
     64006 W2       21336    TIP3     OH2      OT      -0.834000       15.9994           0
     64007 W2       21336    TIP3     H1       HT       0.417000       1.00800           0
     64008 W2       21336    TIP3     H2       HT       0.417000       1.00800           0
     64009 W2       21337    TIP3     OH2      OT      -0.834000       15.9994           0
     64010 W2       21337    TIP3     H1       HT       0.417000       1.00800           0
     64011 W2       21337    TIP3     H2       HT       0.417000       1.00800           0
     64012 W2       21338    TIP3     OH2      OT      -0.834000       15.9994           0
     64013 W2       21338    TIP3     H1       HT       0.417000       1.00800           0
     64014 W2       21338    TIP3     H2       HT       0.417000       1.00800           0
     64015 W2       21339    TIP3     OH2      OT      -0.834000       15.9994           0
     64016 W2       21339    TIP3     H1       HT       0.417000       1.00800           0
     64017 W2       21339    TIP3     H2       HT       0.417000       1.00800           0
     64018 W2       21340    TIP3     OH2      OT      -0.834000       15.9994           0
     64019 W2       21340    TIP3     H1       HT       0.417000       1.00800           0
     64020 W2       21340    TIP3     H2       HT       0.417000       1.00800           0
     64021 W2       21341    TIP3     OH2      OT      -0.834000       15.9994           0
     64022 W2       21341    TIP3     H1       HT       0.417000       1.00800           0
     64023 W2       21341    TIP3     H2       HT       0.417000       1.00800           0
     64024 W2       21342    TIP3     OH2      OT      -0.834000       15.9994           0
     64025 W2       21342    TIP3     H1       HT       0.417000       1.00800           0
     64026 W2       21342    TIP3     H2       HT       0.417000       1.00800           0
     64027 W2       21343    TIP3     OH2      OT      -0.834000       15.9994           0
     64028 W2       21343    TIP3     H1       HT       0.417000       1.00800           0
     64029 W2       21343    TIP3     H2       HT       0.417000       1.00800           0
     64030 W2       21344    TIP3     OH2      OT      -0.834000       15.9994           0
     64031 W2       21344    TIP3     H1       HT       0.417000       1.00800           0
     64032 W2       21344    TIP3     H2       HT       0.417000       1.00800           0
     64033 W2       21345    TIP3     OH2      OT      -0.834000       15.9994           0
     64034 W2       21345    TIP3     H1       HT       0.417000       1.00800           0
     64035 W2       21345    TIP3     H2       HT       0.417000       1.00800           0
     64036 W2       21346    TIP3     OH2      OT      -0.834000       15.9994           0
     64037 W2       21346    TIP3     H1       HT       0.417000       1.00800           0
     64038 W2       21346    TIP3     H2       HT       0.417000       1.00800           0
     64039 W2       21347    TIP3     OH2      OT      -0.834000       15.9994           0
     64040 W2       21347    TIP3     H1       HT       0.417000       1.00800           0
     64041 W2       21347    TIP3     H2       HT       0.417000       1.00800           0
     64042 W2       21348    TIP3     OH2      OT      -0.834000       15.9994           0
     64043 W2       21348    TIP3     H1       HT       0.417000       1.00800           0
     64044 W2       21348    TIP3     H2       HT       0.417000       1.00800           0
     64045 W2       21349    TIP3     OH2      OT      -0.834000       15.9994           0
     64046 W2       21349    TIP3     H1       HT       0.417000       1.00800           0
     64047 W2       21349    TIP3     H2       HT       0.417000       1.00800           0
     64048 W2       21350    TIP3     OH2      OT      -0.834000       15.9994           0
     64049 W2       21350    TIP3     H1       HT       0.417000       1.00800           0
     64050 W2       21350    TIP3     H2       HT       0.417000       1.00800           0
     64051 W2       21351    TIP3     OH2      OT      -0.834000       15.9994           0
     64052 W2       21351    TIP3     H1       HT       0.417000       1.00800           0
     64053 W2       21351    TIP3     H2       HT       0.417000       1.00800           0
     64054 W2       21352    TIP3     OH2      OT      -0.834000       15.9994           0
     64055 W2       21352    TIP3     H1       HT       0.417000       1.00800           0
     64056 W2       21352    TIP3     H2       HT       0.417000       1.00800           0
     64057 W2       21353    TIP3     OH2      OT      -0.834000       15.9994           0
     64058 W2       21353    TIP3     H1       HT       0.417000       1.00800           0
     64059 W2       21353    TIP3     H2       HT       0.417000       1.00800           0
     64060 W2       21354    TIP3     OH2      OT      -0.834000       15.9994           0
     64061 W2       21354    TIP3     H1       HT       0.417000       1.00800           0
     64062 W2       21354    TIP3     H2       HT       0.417000       1.00800           0
     64063 W2       21355    TIP3     OH2      OT      -0.834000       15.9994           0
     64064 W2       21355    TIP3     H1       HT       0.417000       1.00800           0
     64065 W2       21355    TIP3     H2       HT       0.417000       1.00800           0
     64066 W2       21356    TIP3     OH2      OT      -0.834000       15.9994           0
     64067 W2       21356    TIP3     H1       HT       0.417000       1.00800           0
     64068 W2       21356    TIP3     H2       HT       0.417000       1.00800           0
     64069 W2       21357    TIP3     OH2      OT      -0.834000       15.9994           0
     64070 W2       21357    TIP3     H1       HT       0.417000       1.00800           0
     64071 W2       21357    TIP3     H2       HT       0.417000       1.00800           0
     64072 W2       21358    TIP3     OH2      OT      -0.834000       15.9994           0
     64073 W2       21358    TIP3     H1       HT       0.417000       1.00800           0
     64074 W2       21358    TIP3     H2       HT       0.417000       1.00800           0
     64075 W2       21359    TIP3     OH2      OT      -0.834000       15.9994           0
     64076 W2       21359    TIP3     H1       HT       0.417000       1.00800           0
     64077 W2       21359    TIP3     H2       HT       0.417000       1.00800           0
     64078 W2       21360    TIP3     OH2      OT      -0.834000       15.9994           0
     64079 W2       21360    TIP3     H1       HT       0.417000       1.00800           0
     64080 W2       21360    TIP3     H2       HT       0.417000       1.00800           0
     64081 W2       21361    TIP3     OH2      OT      -0.834000       15.9994           0
     64082 W2       21361    TIP3     H1       HT       0.417000       1.00800           0
     64083 W2       21361    TIP3     H2       HT       0.417000       1.00800           0
     64084 W2       21362    TIP3     OH2      OT      -0.834000       15.9994           0
     64085 W2       21362    TIP3     H1       HT       0.417000       1.00800           0
     64086 W2       21362    TIP3     H2       HT       0.417000       1.00800           0
     64087 W2       21363    TIP3     OH2      OT      -0.834000       15.9994           0
     64088 W2       21363    TIP3     H1       HT       0.417000       1.00800           0
     64089 W2       21363    TIP3     H2       HT       0.417000       1.00800           0
     64090 W2       21364    TIP3     OH2      OT      -0.834000       15.9994           0
     64091 W2       21364    TIP3     H1       HT       0.417000       1.00800           0
     64092 W2       21364    TIP3     H2       HT       0.417000       1.00800           0
     64093 W2       21365    TIP3     OH2      OT      -0.834000       15.9994           0
     64094 W2       21365    TIP3     H1       HT       0.417000       1.00800           0
     64095 W2       21365    TIP3     H2       HT       0.417000       1.00800           0
     64096 W2       21366    TIP3     OH2      OT      -0.834000       15.9994           0
     64097 W2       21366    TIP3     H1       HT       0.417000       1.00800           0
     64098 W2       21366    TIP3     H2       HT       0.417000       1.00800           0
     64099 W2       21367    TIP3     OH2      OT      -0.834000       15.9994           0
     64100 W2       21367    TIP3     H1       HT       0.417000       1.00800           0
     64101 W2       21367    TIP3     H2       HT       0.417000       1.00800           0
     64102 W2       21368    TIP3     OH2      OT      -0.834000       15.9994           0
     64103 W2       21368    TIP3     H1       HT       0.417000       1.00800           0
     64104 W2       21368    TIP3     H2       HT       0.417000       1.00800           0
     64105 W2       21369    TIP3     OH2      OT      -0.834000       15.9994           0
     64106 W2       21369    TIP3     H1       HT       0.417000       1.00800           0
     64107 W2       21369    TIP3     H2       HT       0.417000       1.00800           0
     64108 W2       21370    TIP3     OH2      OT      -0.834000       15.9994           0
     64109 W2       21370    TIP3     H1       HT       0.417000       1.00800           0
     64110 W2       21370    TIP3     H2       HT       0.417000       1.00800           0
     64111 W2       21371    TIP3     OH2      OT      -0.834000       15.9994           0
     64112 W2       21371    TIP3     H1       HT       0.417000       1.00800           0
     64113 W2       21371    TIP3     H2       HT       0.417000       1.00800           0
     64114 W2       21372    TIP3     OH2      OT      -0.834000       15.9994           0
     64115 W2       21372    TIP3     H1       HT       0.417000       1.00800           0
     64116 W2       21372    TIP3     H2       HT       0.417000       1.00800           0
     64117 W2       21373    TIP3     OH2      OT      -0.834000       15.9994           0
     64118 W2       21373    TIP3     H1       HT       0.417000       1.00800           0
     64119 W2       21373    TIP3     H2       HT       0.417000       1.00800           0
     64120 W2       21374    TIP3     OH2      OT      -0.834000       15.9994           0
     64121 W2       21374    TIP3     H1       HT       0.417000       1.00800           0
     64122 W2       21374    TIP3     H2       HT       0.417000       1.00800           0
     64123 W2       21375    TIP3     OH2      OT      -0.834000       15.9994           0
     64124 W2       21375    TIP3     H1       HT       0.417000       1.00800           0
     64125 W2       21375    TIP3     H2       HT       0.417000       1.00800           0
     64126 W2       21376    TIP3     OH2      OT      -0.834000       15.9994           0
     64127 W2       21376    TIP3     H1       HT       0.417000       1.00800           0
     64128 W2       21376    TIP3     H2       HT       0.417000       1.00800           0
     64129 W2       21377    TIP3     OH2      OT      -0.834000       15.9994           0
     64130 W2       21377    TIP3     H1       HT       0.417000       1.00800           0
     64131 W2       21377    TIP3     H2       HT       0.417000       1.00800           0
     64132 W2       21378    TIP3     OH2      OT      -0.834000       15.9994           0
     64133 W2       21378    TIP3     H1       HT       0.417000       1.00800           0
     64134 W2       21378    TIP3     H2       HT       0.417000       1.00800           0
     64135 W2       21379    TIP3     OH2      OT      -0.834000       15.9994           0
     64136 W2       21379    TIP3     H1       HT       0.417000       1.00800           0
     64137 W2       21379    TIP3     H2       HT       0.417000       1.00800           0
     64138 W2       21380    TIP3     OH2      OT      -0.834000       15.9994           0
     64139 W2       21380    TIP3     H1       HT       0.417000       1.00800           0
     64140 W2       21380    TIP3     H2       HT       0.417000       1.00800           0
     64141 W2       21381    TIP3     OH2      OT      -0.834000       15.9994           0
     64142 W2       21381    TIP3     H1       HT       0.417000       1.00800           0
     64143 W2       21381    TIP3     H2       HT       0.417000       1.00800           0
     64144 W2       21382    TIP3     OH2      OT      -0.834000       15.9994           0
     64145 W2       21382    TIP3     H1       HT       0.417000       1.00800           0
     64146 W2       21382    TIP3     H2       HT       0.417000       1.00800           0
     64147 W2       21383    TIP3     OH2      OT      -0.834000       15.9994           0
     64148 W2       21383    TIP3     H1       HT       0.417000       1.00800           0
     64149 W2       21383    TIP3     H2       HT       0.417000       1.00800           0
     64150 W2       21384    TIP3     OH2      OT      -0.834000       15.9994           0
     64151 W2       21384    TIP3     H1       HT       0.417000       1.00800           0
     64152 W2       21384    TIP3     H2       HT       0.417000       1.00800           0
     64153 W2       21385    TIP3     OH2      OT      -0.834000       15.9994           0
     64154 W2       21385    TIP3     H1       HT       0.417000       1.00800           0
     64155 W2       21385    TIP3     H2       HT       0.417000       1.00800           0
     64156 W2       21386    TIP3     OH2      OT      -0.834000       15.9994           0
     64157 W2       21386    TIP3     H1       HT       0.417000       1.00800           0
     64158 W2       21386    TIP3     H2       HT       0.417000       1.00800           0
     64159 W2       21387    TIP3     OH2      OT      -0.834000       15.9994           0
     64160 W2       21387    TIP3     H1       HT       0.417000       1.00800           0
     64161 W2       21387    TIP3     H2       HT       0.417000       1.00800           0
     64162 W2       21388    TIP3     OH2      OT      -0.834000       15.9994           0
     64163 W2       21388    TIP3     H1       HT       0.417000       1.00800           0
     64164 W2       21388    TIP3     H2       HT       0.417000       1.00800           0
     64165 W2       21389    TIP3     OH2      OT      -0.834000       15.9994           0
     64166 W2       21389    TIP3     H1       HT       0.417000       1.00800           0
     64167 W2       21389    TIP3     H2       HT       0.417000       1.00800           0
     64168 W2       21390    TIP3     OH2      OT      -0.834000       15.9994           0
     64169 W2       21390    TIP3     H1       HT       0.417000       1.00800           0
     64170 W2       21390    TIP3     H2       HT       0.417000       1.00800           0
     64171 W2       21391    TIP3     OH2      OT      -0.834000       15.9994           0
     64172 W2       21391    TIP3     H1       HT       0.417000       1.00800           0
     64173 W2       21391    TIP3     H2       HT       0.417000       1.00800           0
     64174 W2       21392    TIP3     OH2      OT      -0.834000       15.9994           0
     64175 W2       21392    TIP3     H1       HT       0.417000       1.00800           0
     64176 W2       21392    TIP3     H2       HT       0.417000       1.00800           0
     64177 W2       21393    TIP3     OH2      OT      -0.834000       15.9994           0
     64178 W2       21393    TIP3     H1       HT       0.417000       1.00800           0
     64179 W2       21393    TIP3     H2       HT       0.417000       1.00800           0
     64180 W2       21394    TIP3     OH2      OT      -0.834000       15.9994           0
     64181 W2       21394    TIP3     H1       HT       0.417000       1.00800           0
     64182 W2       21394    TIP3     H2       HT       0.417000       1.00800           0
     64183 W2       21395    TIP3     OH2      OT      -0.834000       15.9994           0
     64184 W2       21395    TIP3     H1       HT       0.417000       1.00800           0
     64185 W2       21395    TIP3     H2       HT       0.417000       1.00800           0
     64186 W2       21396    TIP3     OH2      OT      -0.834000       15.9994           0
     64187 W2       21396    TIP3     H1       HT       0.417000       1.00800           0
     64188 W2       21396    TIP3     H2       HT       0.417000       1.00800           0
     64189 W2       21397    TIP3     OH2      OT      -0.834000       15.9994           0
     64190 W2       21397    TIP3     H1       HT       0.417000       1.00800           0
     64191 W2       21397    TIP3     H2       HT       0.417000       1.00800           0
     64192 W2       21398    TIP3     OH2      OT      -0.834000       15.9994           0
     64193 W2       21398    TIP3     H1       HT       0.417000       1.00800           0
     64194 W2       21398    TIP3     H2       HT       0.417000       1.00800           0
     64195 W2       21399    TIP3     OH2      OT      -0.834000       15.9994           0
     64196 W2       21399    TIP3     H1       HT       0.417000       1.00800           0
     64197 W2       21399    TIP3     H2       HT       0.417000       1.00800           0
     64198 W2       21400    TIP3     OH2      OT      -0.834000       15.9994           0
     64199 W2       21400    TIP3     H1       HT       0.417000       1.00800           0
     64200 W2       21400    TIP3     H2       HT       0.417000       1.00800           0
     64201 W2       21401    TIP3     OH2      OT      -0.834000       15.9994           0
     64202 W2       21401    TIP3     H1       HT       0.417000       1.00800           0
     64203 W2       21401    TIP3     H2       HT       0.417000       1.00800           0
     64204 W2       21402    TIP3     OH2      OT      -0.834000       15.9994           0
     64205 W2       21402    TIP3     H1       HT       0.417000       1.00800           0
     64206 W2       21402    TIP3     H2       HT       0.417000       1.00800           0
     64207 W2       21403    TIP3     OH2      OT      -0.834000       15.9994           0
     64208 W2       21403    TIP3     H1       HT       0.417000       1.00800           0
     64209 W2       21403    TIP3     H2       HT       0.417000       1.00800           0
     64210 W2       21404    TIP3     OH2      OT      -0.834000       15.9994           0
     64211 W2       21404    TIP3     H1       HT       0.417000       1.00800           0
     64212 W2       21404    TIP3     H2       HT       0.417000       1.00800           0
     64213 W2       21405    TIP3     OH2      OT      -0.834000       15.9994           0
     64214 W2       21405    TIP3     H1       HT       0.417000       1.00800           0
     64215 W2       21405    TIP3     H2       HT       0.417000       1.00800           0
     64216 W2       21406    TIP3     OH2      OT      -0.834000       15.9994           0
     64217 W2       21406    TIP3     H1       HT       0.417000       1.00800           0
     64218 W2       21406    TIP3     H2       HT       0.417000       1.00800           0
     64219 W2       21407    TIP3     OH2      OT      -0.834000       15.9994           0
     64220 W2       21407    TIP3     H1       HT       0.417000       1.00800           0
     64221 W2       21407    TIP3     H2       HT       0.417000       1.00800           0
     64222 W2       21408    TIP3     OH2      OT      -0.834000       15.9994           0
     64223 W2       21408    TIP3     H1       HT       0.417000       1.00800           0
     64224 W2       21408    TIP3     H2       HT       0.417000       1.00800           0
     64225 W2       21409    TIP3     OH2      OT      -0.834000       15.9994           0
     64226 W2       21409    TIP3     H1       HT       0.417000       1.00800           0
     64227 W2       21409    TIP3     H2       HT       0.417000       1.00800           0
     64228 W2       21410    TIP3     OH2      OT      -0.834000       15.9994           0
     64229 W2       21410    TIP3     H1       HT       0.417000       1.00800           0
     64230 W2       21410    TIP3     H2       HT       0.417000       1.00800           0
     64231 W2       21411    TIP3     OH2      OT      -0.834000       15.9994           0
     64232 W2       21411    TIP3     H1       HT       0.417000       1.00800           0
     64233 W2       21411    TIP3     H2       HT       0.417000       1.00800           0
     64234 W2       21412    TIP3     OH2      OT      -0.834000       15.9994           0
     64235 W2       21412    TIP3     H1       HT       0.417000       1.00800           0
     64236 W2       21412    TIP3     H2       HT       0.417000       1.00800           0
     64237 W2       21413    TIP3     OH2      OT      -0.834000       15.9994           0
     64238 W2       21413    TIP3     H1       HT       0.417000       1.00800           0
     64239 W2       21413    TIP3     H2       HT       0.417000       1.00800           0
     64240 W2       21414    TIP3     OH2      OT      -0.834000       15.9994           0
     64241 W2       21414    TIP3     H1       HT       0.417000       1.00800           0
     64242 W2       21414    TIP3     H2       HT       0.417000       1.00800           0
     64243 W2       21415    TIP3     OH2      OT      -0.834000       15.9994           0
     64244 W2       21415    TIP3     H1       HT       0.417000       1.00800           0
     64245 W2       21415    TIP3     H2       HT       0.417000       1.00800           0
     64246 W2       21416    TIP3     OH2      OT      -0.834000       15.9994           0
     64247 W2       21416    TIP3     H1       HT       0.417000       1.00800           0
     64248 W2       21416    TIP3     H2       HT       0.417000       1.00800           0
     64249 W2       21417    TIP3     OH2      OT      -0.834000       15.9994           0
     64250 W2       21417    TIP3     H1       HT       0.417000       1.00800           0
     64251 W2       21417    TIP3     H2       HT       0.417000       1.00800           0
     64252 W2       21418    TIP3     OH2      OT      -0.834000       15.9994           0
     64253 W2       21418    TIP3     H1       HT       0.417000       1.00800           0
     64254 W2       21418    TIP3     H2       HT       0.417000       1.00800           0
     64255 W2       21419    TIP3     OH2      OT      -0.834000       15.9994           0
     64256 W2       21419    TIP3     H1       HT       0.417000       1.00800           0
     64257 W2       21419    TIP3     H2       HT       0.417000       1.00800           0
     64258 W2       21420    TIP3     OH2      OT      -0.834000       15.9994           0
     64259 W2       21420    TIP3     H1       HT       0.417000       1.00800           0
     64260 W2       21420    TIP3     H2       HT       0.417000       1.00800           0
     64261 W2       21421    TIP3     OH2      OT      -0.834000       15.9994           0
     64262 W2       21421    TIP3     H1       HT       0.417000       1.00800           0
     64263 W2       21421    TIP3     H2       HT       0.417000       1.00800           0
     64264 W2       21422    TIP3     OH2      OT      -0.834000       15.9994           0
     64265 W2       21422    TIP3     H1       HT       0.417000       1.00800           0
     64266 W2       21422    TIP3     H2       HT       0.417000       1.00800           0
     64267 W2       21423    TIP3     OH2      OT      -0.834000       15.9994           0
     64268 W2       21423    TIP3     H1       HT       0.417000       1.00800           0
     64269 W2       21423    TIP3     H2       HT       0.417000       1.00800           0
     64270 W2       21424    TIP3     OH2      OT      -0.834000       15.9994           0
     64271 W2       21424    TIP3     H1       HT       0.417000       1.00800           0
     64272 W2       21424    TIP3     H2       HT       0.417000       1.00800           0
     64273 W2       21425    TIP3     OH2      OT      -0.834000       15.9994           0
     64274 W2       21425    TIP3     H1       HT       0.417000       1.00800           0
     64275 W2       21425    TIP3     H2       HT       0.417000       1.00800           0
     64276 W2       21426    TIP3     OH2      OT      -0.834000       15.9994           0
     64277 W2       21426    TIP3     H1       HT       0.417000       1.00800           0
     64278 W2       21426    TIP3     H2       HT       0.417000       1.00800           0
     64279 W2       21427    TIP3     OH2      OT      -0.834000       15.9994           0
     64280 W2       21427    TIP3     H1       HT       0.417000       1.00800           0
     64281 W2       21427    TIP3     H2       HT       0.417000       1.00800           0
     64282 W2       21428    TIP3     OH2      OT      -0.834000       15.9994           0
     64283 W2       21428    TIP3     H1       HT       0.417000       1.00800           0
     64284 W2       21428    TIP3     H2       HT       0.417000       1.00800           0
     64285 W2       21429    TIP3     OH2      OT      -0.834000       15.9994           0
     64286 W2       21429    TIP3     H1       HT       0.417000       1.00800           0
     64287 W2       21429    TIP3     H2       HT       0.417000       1.00800           0
     64288 W2       21430    TIP3     OH2      OT      -0.834000       15.9994           0
     64289 W2       21430    TIP3     H1       HT       0.417000       1.00800           0
     64290 W2       21430    TIP3     H2       HT       0.417000       1.00800           0
     64291 W2       21431    TIP3     OH2      OT      -0.834000       15.9994           0
     64292 W2       21431    TIP3     H1       HT       0.417000       1.00800           0
     64293 W2       21431    TIP3     H2       HT       0.417000       1.00800           0
     64294 W2       21432    TIP3     OH2      OT      -0.834000       15.9994           0
     64295 W2       21432    TIP3     H1       HT       0.417000       1.00800           0
     64296 W2       21432    TIP3     H2       HT       0.417000       1.00800           0
     64297 W2       21433    TIP3     OH2      OT      -0.834000       15.9994           0
     64298 W2       21433    TIP3     H1       HT       0.417000       1.00800           0
     64299 W2       21433    TIP3     H2       HT       0.417000       1.00800           0
     64300 W2       21434    TIP3     OH2      OT      -0.834000       15.9994           0
     64301 W2       21434    TIP3     H1       HT       0.417000       1.00800           0
     64302 W2       21434    TIP3     H2       HT       0.417000       1.00800           0
     64303 W2       21435    TIP3     OH2      OT      -0.834000       15.9994           0
     64304 W2       21435    TIP3     H1       HT       0.417000       1.00800           0
     64305 W2       21435    TIP3     H2       HT       0.417000       1.00800           0
     64306 W2       21436    TIP3     OH2      OT      -0.834000       15.9994           0
     64307 W2       21436    TIP3     H1       HT       0.417000       1.00800           0
     64308 W2       21436    TIP3     H2       HT       0.417000       1.00800           0
     64309 W2       21437    TIP3     OH2      OT      -0.834000       15.9994           0
     64310 W2       21437    TIP3     H1       HT       0.417000       1.00800           0
     64311 W2       21437    TIP3     H2       HT       0.417000       1.00800           0
     64312 W2       21438    TIP3     OH2      OT      -0.834000       15.9994           0
     64313 W2       21438    TIP3     H1       HT       0.417000       1.00800           0
     64314 W2       21438    TIP3     H2       HT       0.417000       1.00800           0
     64315 W2       21439    TIP3     OH2      OT      -0.834000       15.9994           0
     64316 W2       21439    TIP3     H1       HT       0.417000       1.00800           0
     64317 W2       21439    TIP3     H2       HT       0.417000       1.00800           0
     64318 W2       21440    TIP3     OH2      OT      -0.834000       15.9994           0
     64319 W2       21440    TIP3     H1       HT       0.417000       1.00800           0
     64320 W2       21440    TIP3     H2       HT       0.417000       1.00800           0
     64321 W2       21441    TIP3     OH2      OT      -0.834000       15.9994           0
     64322 W2       21441    TIP3     H1       HT       0.417000       1.00800           0
     64323 W2       21441    TIP3     H2       HT       0.417000       1.00800           0
     64324 W2       21442    TIP3     OH2      OT      -0.834000       15.9994           0
     64325 W2       21442    TIP3     H1       HT       0.417000       1.00800           0
     64326 W2       21442    TIP3     H2       HT       0.417000       1.00800           0
     64327 W2       21443    TIP3     OH2      OT      -0.834000       15.9994           0
     64328 W2       21443    TIP3     H1       HT       0.417000       1.00800           0
     64329 W2       21443    TIP3     H2       HT       0.417000       1.00800           0
     64330 W2       21444    TIP3     OH2      OT      -0.834000       15.9994           0
     64331 W2       21444    TIP3     H1       HT       0.417000       1.00800           0
     64332 W2       21444    TIP3     H2       HT       0.417000       1.00800           0
     64333 W2       21445    TIP3     OH2      OT      -0.834000       15.9994           0
     64334 W2       21445    TIP3     H1       HT       0.417000       1.00800           0
     64335 W2       21445    TIP3     H2       HT       0.417000       1.00800           0
     64336 W2       21446    TIP3     OH2      OT      -0.834000       15.9994           0
     64337 W2       21446    TIP3     H1       HT       0.417000       1.00800           0
     64338 W2       21446    TIP3     H2       HT       0.417000       1.00800           0
     64339 W2       21447    TIP3     OH2      OT      -0.834000       15.9994           0
     64340 W2       21447    TIP3     H1       HT       0.417000       1.00800           0
     64341 W2       21447    TIP3     H2       HT       0.417000       1.00800           0
     64342 W2       21448    TIP3     OH2      OT      -0.834000       15.9994           0
     64343 W2       21448    TIP3     H1       HT       0.417000       1.00800           0
     64344 W2       21448    TIP3     H2       HT       0.417000       1.00800           0
     64345 W2       21449    TIP3     OH2      OT      -0.834000       15.9994           0
     64346 W2       21449    TIP3     H1       HT       0.417000       1.00800           0
     64347 W2       21449    TIP3     H2       HT       0.417000       1.00800           0
     64348 W2       21450    TIP3     OH2      OT      -0.834000       15.9994           0
     64349 W2       21450    TIP3     H1       HT       0.417000       1.00800           0
     64350 W2       21450    TIP3     H2       HT       0.417000       1.00800           0
     64351 W2       21451    TIP3     OH2      OT      -0.834000       15.9994           0
     64352 W2       21451    TIP3     H1       HT       0.417000       1.00800           0
     64353 W2       21451    TIP3     H2       HT       0.417000       1.00800           0
     64354 W2       21452    TIP3     OH2      OT      -0.834000       15.9994           0
     64355 W2       21452    TIP3     H1       HT       0.417000       1.00800           0
     64356 W2       21452    TIP3     H2       HT       0.417000       1.00800           0
     64357 W2       21453    TIP3     OH2      OT      -0.834000       15.9994           0
     64358 W2       21453    TIP3     H1       HT       0.417000       1.00800           0
     64359 W2       21453    TIP3     H2       HT       0.417000       1.00800           0
     64360 W2       21454    TIP3     OH2      OT      -0.834000       15.9994           0
     64361 W2       21454    TIP3     H1       HT       0.417000       1.00800           0
     64362 W2       21454    TIP3     H2       HT       0.417000       1.00800           0
     64363 W2       21455    TIP3     OH2      OT      -0.834000       15.9994           0
     64364 W2       21455    TIP3     H1       HT       0.417000       1.00800           0
     64365 W2       21455    TIP3     H2       HT       0.417000       1.00800           0
     64366 W2       21456    TIP3     OH2      OT      -0.834000       15.9994           0
     64367 W2       21456    TIP3     H1       HT       0.417000       1.00800           0
     64368 W2       21456    TIP3     H2       HT       0.417000       1.00800           0
     64369 W2       21457    TIP3     OH2      OT      -0.834000       15.9994           0
     64370 W2       21457    TIP3     H1       HT       0.417000       1.00800           0
     64371 W2       21457    TIP3     H2       HT       0.417000       1.00800           0
     64372 W2       21458    TIP3     OH2      OT      -0.834000       15.9994           0
     64373 W2       21458    TIP3     H1       HT       0.417000       1.00800           0
     64374 W2       21458    TIP3     H2       HT       0.417000       1.00800           0
     64375 W2       21459    TIP3     OH2      OT      -0.834000       15.9994           0
     64376 W2       21459    TIP3     H1       HT       0.417000       1.00800           0
     64377 W2       21459    TIP3     H2       HT       0.417000       1.00800           0
     64378 W2       21460    TIP3     OH2      OT      -0.834000       15.9994           0
     64379 W2       21460    TIP3     H1       HT       0.417000       1.00800           0
     64380 W2       21460    TIP3     H2       HT       0.417000       1.00800           0
     64381 W2       21461    TIP3     OH2      OT      -0.834000       15.9994           0
     64382 W2       21461    TIP3     H1       HT       0.417000       1.00800           0
     64383 W2       21461    TIP3     H2       HT       0.417000       1.00800           0
     64384 W2       21462    TIP3     OH2      OT      -0.834000       15.9994           0
     64385 W2       21462    TIP3     H1       HT       0.417000       1.00800           0
     64386 W2       21462    TIP3     H2       HT       0.417000       1.00800           0
     64387 W2       21463    TIP3     OH2      OT      -0.834000       15.9994           0
     64388 W2       21463    TIP3     H1       HT       0.417000       1.00800           0
     64389 W2       21463    TIP3     H2       HT       0.417000       1.00800           0
     64390 W2       21464    TIP3     OH2      OT      -0.834000       15.9994           0
     64391 W2       21464    TIP3     H1       HT       0.417000       1.00800           0
     64392 W2       21464    TIP3     H2       HT       0.417000       1.00800           0
     64393 W2       21465    TIP3     OH2      OT      -0.834000       15.9994           0
     64394 W2       21465    TIP3     H1       HT       0.417000       1.00800           0
     64395 W2       21465    TIP3     H2       HT       0.417000       1.00800           0
     64396 W2       21466    TIP3     OH2      OT      -0.834000       15.9994           0
     64397 W2       21466    TIP3     H1       HT       0.417000       1.00800           0
     64398 W2       21466    TIP3     H2       HT       0.417000       1.00800           0
     64399 W2       21467    TIP3     OH2      OT      -0.834000       15.9994           0
     64400 W2       21467    TIP3     H1       HT       0.417000       1.00800           0
     64401 W2       21467    TIP3     H2       HT       0.417000       1.00800           0
     64402 W2       21468    TIP3     OH2      OT      -0.834000       15.9994           0
     64403 W2       21468    TIP3     H1       HT       0.417000       1.00800           0
     64404 W2       21468    TIP3     H2       HT       0.417000       1.00800           0
     64405 W2       21469    TIP3     OH2      OT      -0.834000       15.9994           0
     64406 W2       21469    TIP3     H1       HT       0.417000       1.00800           0
     64407 W2       21469    TIP3     H2       HT       0.417000       1.00800           0
     64408 W2       21470    TIP3     OH2      OT      -0.834000       15.9994           0
     64409 W2       21470    TIP3     H1       HT       0.417000       1.00800           0
     64410 W2       21470    TIP3     H2       HT       0.417000       1.00800           0
     64411 W2       21471    TIP3     OH2      OT      -0.834000       15.9994           0
     64412 W2       21471    TIP3     H1       HT       0.417000       1.00800           0
     64413 W2       21471    TIP3     H2       HT       0.417000       1.00800           0
     64414 W2       21472    TIP3     OH2      OT      -0.834000       15.9994           0
     64415 W2       21472    TIP3     H1       HT       0.417000       1.00800           0
     64416 W2       21472    TIP3     H2       HT       0.417000       1.00800           0
     64417 W2       21473    TIP3     OH2      OT      -0.834000       15.9994           0
     64418 W2       21473    TIP3     H1       HT       0.417000       1.00800           0
     64419 W2       21473    TIP3     H2       HT       0.417000       1.00800           0
     64420 W2       21474    TIP3     OH2      OT      -0.834000       15.9994           0
     64421 W2       21474    TIP3     H1       HT       0.417000       1.00800           0
     64422 W2       21474    TIP3     H2       HT       0.417000       1.00800           0
     64423 W2       21475    TIP3     OH2      OT      -0.834000       15.9994           0
     64424 W2       21475    TIP3     H1       HT       0.417000       1.00800           0
     64425 W2       21475    TIP3     H2       HT       0.417000       1.00800           0
     64426 W2       21476    TIP3     OH2      OT      -0.834000       15.9994           0
     64427 W2       21476    TIP3     H1       HT       0.417000       1.00800           0
     64428 W2       21476    TIP3     H2       HT       0.417000       1.00800           0
     64429 W2       21477    TIP3     OH2      OT      -0.834000       15.9994           0
     64430 W2       21477    TIP3     H1       HT       0.417000       1.00800           0
     64431 W2       21477    TIP3     H2       HT       0.417000       1.00800           0
     64432 W2       21478    TIP3     OH2      OT      -0.834000       15.9994           0
     64433 W2       21478    TIP3     H1       HT       0.417000       1.00800           0
     64434 W2       21478    TIP3     H2       HT       0.417000       1.00800           0
     64435 W2       21479    TIP3     OH2      OT      -0.834000       15.9994           0
     64436 W2       21479    TIP3     H1       HT       0.417000       1.00800           0
     64437 W2       21479    TIP3     H2       HT       0.417000       1.00800           0
     64438 W2       21480    TIP3     OH2      OT      -0.834000       15.9994           0
     64439 W2       21480    TIP3     H1       HT       0.417000       1.00800           0
     64440 W2       21480    TIP3     H2       HT       0.417000       1.00800           0
     64441 W2       21481    TIP3     OH2      OT      -0.834000       15.9994           0
     64442 W2       21481    TIP3     H1       HT       0.417000       1.00800           0
     64443 W2       21481    TIP3     H2       HT       0.417000       1.00800           0
     64444 W2       21482    TIP3     OH2      OT      -0.834000       15.9994           0
     64445 W2       21482    TIP3     H1       HT       0.417000       1.00800           0
     64446 W2       21482    TIP3     H2       HT       0.417000       1.00800           0
     64447 W2       21483    TIP3     OH2      OT      -0.834000       15.9994           0
     64448 W2       21483    TIP3     H1       HT       0.417000       1.00800           0
     64449 W2       21483    TIP3     H2       HT       0.417000       1.00800           0
     64450 W2       21484    TIP3     OH2      OT      -0.834000       15.9994           0
     64451 W2       21484    TIP3     H1       HT       0.417000       1.00800           0
     64452 W2       21484    TIP3     H2       HT       0.417000       1.00800           0
     64453 W2       21485    TIP3     OH2      OT      -0.834000       15.9994           0
     64454 W2       21485    TIP3     H1       HT       0.417000       1.00800           0
     64455 W2       21485    TIP3     H2       HT       0.417000       1.00800           0
     64456 W2       21486    TIP3     OH2      OT      -0.834000       15.9994           0
     64457 W2       21486    TIP3     H1       HT       0.417000       1.00800           0
     64458 W2       21486    TIP3     H2       HT       0.417000       1.00800           0
     64459 W2       21487    TIP3     OH2      OT      -0.834000       15.9994           0
     64460 W2       21487    TIP3     H1       HT       0.417000       1.00800           0
     64461 W2       21487    TIP3     H2       HT       0.417000       1.00800           0
     64462 W2       21488    TIP3     OH2      OT      -0.834000       15.9994           0
     64463 W2       21488    TIP3     H1       HT       0.417000       1.00800           0
     64464 W2       21488    TIP3     H2       HT       0.417000       1.00800           0
     64465 W2       21489    TIP3     OH2      OT      -0.834000       15.9994           0
     64466 W2       21489    TIP3     H1       HT       0.417000       1.00800           0
     64467 W2       21489    TIP3     H2       HT       0.417000       1.00800           0
     64468 W2       21490    TIP3     OH2      OT      -0.834000       15.9994           0
     64469 W2       21490    TIP3     H1       HT       0.417000       1.00800           0
     64470 W2       21490    TIP3     H2       HT       0.417000       1.00800           0
     64471 W2       21491    TIP3     OH2      OT      -0.834000       15.9994           0
     64472 W2       21491    TIP3     H1       HT       0.417000       1.00800           0
     64473 W2       21491    TIP3     H2       HT       0.417000       1.00800           0
     64474 W2       21492    TIP3     OH2      OT      -0.834000       15.9994           0
     64475 W2       21492    TIP3     H1       HT       0.417000       1.00800           0
     64476 W2       21492    TIP3     H2       HT       0.417000       1.00800           0
     64477 W2       21493    TIP3     OH2      OT      -0.834000       15.9994           0
     64478 W2       21493    TIP3     H1       HT       0.417000       1.00800           0
     64479 W2       21493    TIP3     H2       HT       0.417000       1.00800           0
     64480 W2       21494    TIP3     OH2      OT      -0.834000       15.9994           0
     64481 W2       21494    TIP3     H1       HT       0.417000       1.00800           0
     64482 W2       21494    TIP3     H2       HT       0.417000       1.00800           0
     64483 W2       21495    TIP3     OH2      OT      -0.834000       15.9994           0
     64484 W2       21495    TIP3     H1       HT       0.417000       1.00800           0
     64485 W2       21495    TIP3     H2       HT       0.417000       1.00800           0
     64486 W2       21496    TIP3     OH2      OT      -0.834000       15.9994           0
     64487 W2       21496    TIP3     H1       HT       0.417000       1.00800           0
     64488 W2       21496    TIP3     H2       HT       0.417000       1.00800           0
     64489 W2       21497    TIP3     OH2      OT      -0.834000       15.9994           0
     64490 W2       21497    TIP3     H1       HT       0.417000       1.00800           0
     64491 W2       21497    TIP3     H2       HT       0.417000       1.00800           0
     64492 W2       21498    TIP3     OH2      OT      -0.834000       15.9994           0
     64493 W2       21498    TIP3     H1       HT       0.417000       1.00800           0
     64494 W2       21498    TIP3     H2       HT       0.417000       1.00800           0
     64495 W2       21499    TIP3     OH2      OT      -0.834000       15.9994           0
     64496 W2       21499    TIP3     H1       HT       0.417000       1.00800           0
     64497 W2       21499    TIP3     H2       HT       0.417000       1.00800           0
     64498 W2       21500    TIP3     OH2      OT      -0.834000       15.9994           0
     64499 W2       21500    TIP3     H1       HT       0.417000       1.00800           0
     64500 W2       21500    TIP3     H2       HT       0.417000       1.00800           0
     64501 W2       21501    TIP3     OH2      OT      -0.834000       15.9994           0
     64502 W2       21501    TIP3     H1       HT       0.417000       1.00800           0
     64503 W2       21501    TIP3     H2       HT       0.417000       1.00800           0
     64504 W2       21502    TIP3     OH2      OT      -0.834000       15.9994           0
     64505 W2       21502    TIP3     H1       HT       0.417000       1.00800           0
     64506 W2       21502    TIP3     H2       HT       0.417000       1.00800           0
     64507 W2       21503    TIP3     OH2      OT      -0.834000       15.9994           0
     64508 W2       21503    TIP3     H1       HT       0.417000       1.00800           0
     64509 W2       21503    TIP3     H2       HT       0.417000       1.00800           0
     64510 W2       21504    TIP3     OH2      OT      -0.834000       15.9994           0
     64511 W2       21504    TIP3     H1       HT       0.417000       1.00800           0
     64512 W2       21504    TIP3     H2       HT       0.417000       1.00800           0
     64513 W2       21505    TIP3     OH2      OT      -0.834000       15.9994           0
     64514 W2       21505    TIP3     H1       HT       0.417000       1.00800           0
     64515 W2       21505    TIP3     H2       HT       0.417000       1.00800           0
     64516 W2       21506    TIP3     OH2      OT      -0.834000       15.9994           0
     64517 W2       21506    TIP3     H1       HT       0.417000       1.00800           0
     64518 W2       21506    TIP3     H2       HT       0.417000       1.00800           0
     64519 W2       21507    TIP3     OH2      OT      -0.834000       15.9994           0
     64520 W2       21507    TIP3     H1       HT       0.417000       1.00800           0
     64521 W2       21507    TIP3     H2       HT       0.417000       1.00800           0
     64522 W2       21508    TIP3     OH2      OT      -0.834000       15.9994           0
     64523 W2       21508    TIP3     H1       HT       0.417000       1.00800           0
     64524 W2       21508    TIP3     H2       HT       0.417000       1.00800           0
     64525 W2       21509    TIP3     OH2      OT      -0.834000       15.9994           0
     64526 W2       21509    TIP3     H1       HT       0.417000       1.00800           0
     64527 W2       21509    TIP3     H2       HT       0.417000       1.00800           0
     64528 W2       21510    TIP3     OH2      OT      -0.834000       15.9994           0
     64529 W2       21510    TIP3     H1       HT       0.417000       1.00800           0
     64530 W2       21510    TIP3     H2       HT       0.417000       1.00800           0
     64531 W2       21511    TIP3     OH2      OT      -0.834000       15.9994           0
     64532 W2       21511    TIP3     H1       HT       0.417000       1.00800           0
     64533 W2       21511    TIP3     H2       HT       0.417000       1.00800           0
     64534 W2       21512    TIP3     OH2      OT      -0.834000       15.9994           0
     64535 W2       21512    TIP3     H1       HT       0.417000       1.00800           0
     64536 W2       21512    TIP3     H2       HT       0.417000       1.00800           0
     64537 W2       21513    TIP3     OH2      OT      -0.834000       15.9994           0
     64538 W2       21513    TIP3     H1       HT       0.417000       1.00800           0
     64539 W2       21513    TIP3     H2       HT       0.417000       1.00800           0
     64540 W2       21514    TIP3     OH2      OT      -0.834000       15.9994           0
     64541 W2       21514    TIP3     H1       HT       0.417000       1.00800           0
     64542 W2       21514    TIP3     H2       HT       0.417000       1.00800           0
     64543 W2       21515    TIP3     OH2      OT      -0.834000       15.9994           0
     64544 W2       21515    TIP3     H1       HT       0.417000       1.00800           0
     64545 W2       21515    TIP3     H2       HT       0.417000       1.00800           0
     64546 W2       21516    TIP3     OH2      OT      -0.834000       15.9994           0
     64547 W2       21516    TIP3     H1       HT       0.417000       1.00800           0
     64548 W2       21516    TIP3     H2       HT       0.417000       1.00800           0
     64549 W2       21517    TIP3     OH2      OT      -0.834000       15.9994           0
     64550 W2       21517    TIP3     H1       HT       0.417000       1.00800           0
     64551 W2       21517    TIP3     H2       HT       0.417000       1.00800           0
     64552 W2       21518    TIP3     OH2      OT      -0.834000       15.9994           0
     64553 W2       21518    TIP3     H1       HT       0.417000       1.00800           0
     64554 W2       21518    TIP3     H2       HT       0.417000       1.00800           0
     64555 W2       21519    TIP3     OH2      OT      -0.834000       15.9994           0
     64556 W2       21519    TIP3     H1       HT       0.417000       1.00800           0
     64557 W2       21519    TIP3     H2       HT       0.417000       1.00800           0
     64558 W2       21520    TIP3     OH2      OT      -0.834000       15.9994           0
     64559 W2       21520    TIP3     H1       HT       0.417000       1.00800           0
     64560 W2       21520    TIP3     H2       HT       0.417000       1.00800           0
     64561 W2       21521    TIP3     OH2      OT      -0.834000       15.9994           0
     64562 W2       21521    TIP3     H1       HT       0.417000       1.00800           0
     64563 W2       21521    TIP3     H2       HT       0.417000       1.00800           0
     64564 W2       21522    TIP3     OH2      OT      -0.834000       15.9994           0
     64565 W2       21522    TIP3     H1       HT       0.417000       1.00800           0
     64566 W2       21522    TIP3     H2       HT       0.417000       1.00800           0
     64567 W2       21523    TIP3     OH2      OT      -0.834000       15.9994           0
     64568 W2       21523    TIP3     H1       HT       0.417000       1.00800           0
     64569 W2       21523    TIP3     H2       HT       0.417000       1.00800           0
     64570 W2       21524    TIP3     OH2      OT      -0.834000       15.9994           0
     64571 W2       21524    TIP3     H1       HT       0.417000       1.00800           0
     64572 W2       21524    TIP3     H2       HT       0.417000       1.00800           0
     64573 W2       21525    TIP3     OH2      OT      -0.834000       15.9994           0
     64574 W2       21525    TIP3     H1       HT       0.417000       1.00800           0
     64575 W2       21525    TIP3     H2       HT       0.417000       1.00800           0
     64576 W2       21526    TIP3     OH2      OT      -0.834000       15.9994           0
     64577 W2       21526    TIP3     H1       HT       0.417000       1.00800           0
     64578 W2       21526    TIP3     H2       HT       0.417000       1.00800           0
     64579 W2       21527    TIP3     OH2      OT      -0.834000       15.9994           0
     64580 W2       21527    TIP3     H1       HT       0.417000       1.00800           0
     64581 W2       21527    TIP3     H2       HT       0.417000       1.00800           0
     64582 W2       21528    TIP3     OH2      OT      -0.834000       15.9994           0
     64583 W2       21528    TIP3     H1       HT       0.417000       1.00800           0
     64584 W2       21528    TIP3     H2       HT       0.417000       1.00800           0
     64585 W2       21529    TIP3     OH2      OT      -0.834000       15.9994           0
     64586 W2       21529    TIP3     H1       HT       0.417000       1.00800           0
     64587 W2       21529    TIP3     H2       HT       0.417000       1.00800           0
     64588 W2       21530    TIP3     OH2      OT      -0.834000       15.9994           0
     64589 W2       21530    TIP3     H1       HT       0.417000       1.00800           0
     64590 W2       21530    TIP3     H2       HT       0.417000       1.00800           0
     64591 W2       21531    TIP3     OH2      OT      -0.834000       15.9994           0
     64592 W2       21531    TIP3     H1       HT       0.417000       1.00800           0
     64593 W2       21531    TIP3     H2       HT       0.417000       1.00800           0
     64594 W2       21532    TIP3     OH2      OT      -0.834000       15.9994           0
     64595 W2       21532    TIP3     H1       HT       0.417000       1.00800           0
     64596 W2       21532    TIP3     H2       HT       0.417000       1.00800           0
     64597 W2       21533    TIP3     OH2      OT      -0.834000       15.9994           0
     64598 W2       21533    TIP3     H1       HT       0.417000       1.00800           0
     64599 W2       21533    TIP3     H2       HT       0.417000       1.00800           0
     64600 W2       21534    TIP3     OH2      OT      -0.834000       15.9994           0
     64601 W2       21534    TIP3     H1       HT       0.417000       1.00800           0
     64602 W2       21534    TIP3     H2       HT       0.417000       1.00800           0
     64603 W2       21535    TIP3     OH2      OT      -0.834000       15.9994           0
     64604 W2       21535    TIP3     H1       HT       0.417000       1.00800           0
     64605 W2       21535    TIP3     H2       HT       0.417000       1.00800           0
     64606 W2       21536    TIP3     OH2      OT      -0.834000       15.9994           0
     64607 W2       21536    TIP3     H1       HT       0.417000       1.00800           0
     64608 W2       21536    TIP3     H2       HT       0.417000       1.00800           0
     64609 W2       21537    TIP3     OH2      OT      -0.834000       15.9994           0
     64610 W2       21537    TIP3     H1       HT       0.417000       1.00800           0
     64611 W2       21537    TIP3     H2       HT       0.417000       1.00800           0
     64612 W2       21538    TIP3     OH2      OT      -0.834000       15.9994           0
     64613 W2       21538    TIP3     H1       HT       0.417000       1.00800           0
     64614 W2       21538    TIP3     H2       HT       0.417000       1.00800           0
     64615 W2       21539    TIP3     OH2      OT      -0.834000       15.9994           0
     64616 W2       21539    TIP3     H1       HT       0.417000       1.00800           0
     64617 W2       21539    TIP3     H2       HT       0.417000       1.00800           0
     64618 W2       21540    TIP3     OH2      OT      -0.834000       15.9994           0
     64619 W2       21540    TIP3     H1       HT       0.417000       1.00800           0
     64620 W2       21540    TIP3     H2       HT       0.417000       1.00800           0
     64621 W2       21541    TIP3     OH2      OT      -0.834000       15.9994           0
     64622 W2       21541    TIP3     H1       HT       0.417000       1.00800           0
     64623 W2       21541    TIP3     H2       HT       0.417000       1.00800           0
     64624 W2       21542    TIP3     OH2      OT      -0.834000       15.9994           0
     64625 W2       21542    TIP3     H1       HT       0.417000       1.00800           0
     64626 W2       21542    TIP3     H2       HT       0.417000       1.00800           0
     64627 W2       21543    TIP3     OH2      OT      -0.834000       15.9994           0
     64628 W2       21543    TIP3     H1       HT       0.417000       1.00800           0
     64629 W2       21543    TIP3     H2       HT       0.417000       1.00800           0
     64630 W2       21544    TIP3     OH2      OT      -0.834000       15.9994           0
     64631 W2       21544    TIP3     H1       HT       0.417000       1.00800           0
     64632 W2       21544    TIP3     H2       HT       0.417000       1.00800           0
     64633 W2       21545    TIP3     OH2      OT      -0.834000       15.9994           0
     64634 W2       21545    TIP3     H1       HT       0.417000       1.00800           0
     64635 W2       21545    TIP3     H2       HT       0.417000       1.00800           0
     64636 W2       21546    TIP3     OH2      OT      -0.834000       15.9994           0
     64637 W2       21546    TIP3     H1       HT       0.417000       1.00800           0
     64638 W2       21546    TIP3     H2       HT       0.417000       1.00800           0
     64639 W2       21547    TIP3     OH2      OT      -0.834000       15.9994           0
     64640 W2       21547    TIP3     H1       HT       0.417000       1.00800           0
     64641 W2       21547    TIP3     H2       HT       0.417000       1.00800           0
     64642 W2       21548    TIP3     OH2      OT      -0.834000       15.9994           0
     64643 W2       21548    TIP3     H1       HT       0.417000       1.00800           0
     64644 W2       21548    TIP3     H2       HT       0.417000       1.00800           0
     64645 W2       21549    TIP3     OH2      OT      -0.834000       15.9994           0
     64646 W2       21549    TIP3     H1       HT       0.417000       1.00800           0
     64647 W2       21549    TIP3     H2       HT       0.417000       1.00800           0
     64648 W2       21550    TIP3     OH2      OT      -0.834000       15.9994           0
     64649 W2       21550    TIP3     H1       HT       0.417000       1.00800           0
     64650 W2       21550    TIP3     H2       HT       0.417000       1.00800           0
     64651 W2       21551    TIP3     OH2      OT      -0.834000       15.9994           0
     64652 W2       21551    TIP3     H1       HT       0.417000       1.00800           0
     64653 W2       21551    TIP3     H2       HT       0.417000       1.00800           0
     64654 W2       21552    TIP3     OH2      OT      -0.834000       15.9994           0
     64655 W2       21552    TIP3     H1       HT       0.417000       1.00800           0
     64656 W2       21552    TIP3     H2       HT       0.417000       1.00800           0
     64657 W2       21553    TIP3     OH2      OT      -0.834000       15.9994           0
     64658 W2       21553    TIP3     H1       HT       0.417000       1.00800           0
     64659 W2       21553    TIP3     H2       HT       0.417000       1.00800           0
     64660 W2       21554    TIP3     OH2      OT      -0.834000       15.9994           0
     64661 W2       21554    TIP3     H1       HT       0.417000       1.00800           0
     64662 W2       21554    TIP3     H2       HT       0.417000       1.00800           0
     64663 W2       21555    TIP3     OH2      OT      -0.834000       15.9994           0
     64664 W2       21555    TIP3     H1       HT       0.417000       1.00800           0
     64665 W2       21555    TIP3     H2       HT       0.417000       1.00800           0
     64666 W2       21556    TIP3     OH2      OT      -0.834000       15.9994           0
     64667 W2       21556    TIP3     H1       HT       0.417000       1.00800           0
     64668 W2       21556    TIP3     H2       HT       0.417000       1.00800           0
     64669 W2       21557    TIP3     OH2      OT      -0.834000       15.9994           0
     64670 W2       21557    TIP3     H1       HT       0.417000       1.00800           0
     64671 W2       21557    TIP3     H2       HT       0.417000       1.00800           0
     64672 W2       21558    TIP3     OH2      OT      -0.834000       15.9994           0
     64673 W2       21558    TIP3     H1       HT       0.417000       1.00800           0
     64674 W2       21558    TIP3     H2       HT       0.417000       1.00800           0
     64675 W2       21559    TIP3     OH2      OT      -0.834000       15.9994           0
     64676 W2       21559    TIP3     H1       HT       0.417000       1.00800           0
     64677 W2       21559    TIP3     H2       HT       0.417000       1.00800           0
     64678 W2       21560    TIP3     OH2      OT      -0.834000       15.9994           0
     64679 W2       21560    TIP3     H1       HT       0.417000       1.00800           0
     64680 W2       21560    TIP3     H2       HT       0.417000       1.00800           0
     64681 W2       21561    TIP3     OH2      OT      -0.834000       15.9994           0
     64682 W2       21561    TIP3     H1       HT       0.417000       1.00800           0
     64683 W2       21561    TIP3     H2       HT       0.417000       1.00800           0
     64684 W2       21562    TIP3     OH2      OT      -0.834000       15.9994           0
     64685 W2       21562    TIP3     H1       HT       0.417000       1.00800           0
     64686 W2       21562    TIP3     H2       HT       0.417000       1.00800           0
     64687 W2       21563    TIP3     OH2      OT      -0.834000       15.9994           0
     64688 W2       21563    TIP3     H1       HT       0.417000       1.00800           0
     64689 W2       21563    TIP3     H2       HT       0.417000       1.00800           0
     64690 W2       21564    TIP3     OH2      OT      -0.834000       15.9994           0
     64691 W2       21564    TIP3     H1       HT       0.417000       1.00800           0
     64692 W2       21564    TIP3     H2       HT       0.417000       1.00800           0
     64693 W2       21565    TIP3     OH2      OT      -0.834000       15.9994           0
     64694 W2       21565    TIP3     H1       HT       0.417000       1.00800           0
     64695 W2       21565    TIP3     H2       HT       0.417000       1.00800           0
     64696 W2       21566    TIP3     OH2      OT      -0.834000       15.9994           0
     64697 W2       21566    TIP3     H1       HT       0.417000       1.00800           0
     64698 W2       21566    TIP3     H2       HT       0.417000       1.00800           0
     64699 W2       21567    TIP3     OH2      OT      -0.834000       15.9994           0
     64700 W2       21567    TIP3     H1       HT       0.417000       1.00800           0
     64701 W2       21567    TIP3     H2       HT       0.417000       1.00800           0
     64702 W2       21568    TIP3     OH2      OT      -0.834000       15.9994           0
     64703 W2       21568    TIP3     H1       HT       0.417000       1.00800           0
     64704 W2       21568    TIP3     H2       HT       0.417000       1.00800           0
     64705 W2       21569    TIP3     OH2      OT      -0.834000       15.9994           0
     64706 W2       21569    TIP3     H1       HT       0.417000       1.00800           0
     64707 W2       21569    TIP3     H2       HT       0.417000       1.00800           0
     64708 W2       21570    TIP3     OH2      OT      -0.834000       15.9994           0
     64709 W2       21570    TIP3     H1       HT       0.417000       1.00800           0
     64710 W2       21570    TIP3     H2       HT       0.417000       1.00800           0
     64711 W2       21571    TIP3     OH2      OT      -0.834000       15.9994           0
     64712 W2       21571    TIP3     H1       HT       0.417000       1.00800           0
     64713 W2       21571    TIP3     H2       HT       0.417000       1.00800           0
     64714 W2       21572    TIP3     OH2      OT      -0.834000       15.9994           0
     64715 W2       21572    TIP3     H1       HT       0.417000       1.00800           0
     64716 W2       21572    TIP3     H2       HT       0.417000       1.00800           0
     64717 W2       21573    TIP3     OH2      OT      -0.834000       15.9994           0
     64718 W2       21573    TIP3     H1       HT       0.417000       1.00800           0
     64719 W2       21573    TIP3     H2       HT       0.417000       1.00800           0
     64720 W2       21574    TIP3     OH2      OT      -0.834000       15.9994           0
     64721 W2       21574    TIP3     H1       HT       0.417000       1.00800           0
     64722 W2       21574    TIP3     H2       HT       0.417000       1.00800           0
     64723 W2       21575    TIP3     OH2      OT      -0.834000       15.9994           0
     64724 W2       21575    TIP3     H1       HT       0.417000       1.00800           0
     64725 W2       21575    TIP3     H2       HT       0.417000       1.00800           0
     64726 W2       21576    TIP3     OH2      OT      -0.834000       15.9994           0
     64727 W2       21576    TIP3     H1       HT       0.417000       1.00800           0
     64728 W2       21576    TIP3     H2       HT       0.417000       1.00800           0
     64729 W2       21577    TIP3     OH2      OT      -0.834000       15.9994           0
     64730 W2       21577    TIP3     H1       HT       0.417000       1.00800           0
     64731 W2       21577    TIP3     H2       HT       0.417000       1.00800           0
     64732 W2       21578    TIP3     OH2      OT      -0.834000       15.9994           0
     64733 W2       21578    TIP3     H1       HT       0.417000       1.00800           0
     64734 W2       21578    TIP3     H2       HT       0.417000       1.00800           0
     64735 W2       21579    TIP3     OH2      OT      -0.834000       15.9994           0
     64736 W2       21579    TIP3     H1       HT       0.417000       1.00800           0
     64737 W2       21579    TIP3     H2       HT       0.417000       1.00800           0
     64738 W2       21580    TIP3     OH2      OT      -0.834000       15.9994           0
     64739 W2       21580    TIP3     H1       HT       0.417000       1.00800           0
     64740 W2       21580    TIP3     H2       HT       0.417000       1.00800           0
     64741 W2       21581    TIP3     OH2      OT      -0.834000       15.9994           0
     64742 W2       21581    TIP3     H1       HT       0.417000       1.00800           0
     64743 W2       21581    TIP3     H2       HT       0.417000       1.00800           0
     64744 W2       21582    TIP3     OH2      OT      -0.834000       15.9994           0
     64745 W2       21582    TIP3     H1       HT       0.417000       1.00800           0
     64746 W2       21582    TIP3     H2       HT       0.417000       1.00800           0
     64747 W2       21583    TIP3     OH2      OT      -0.834000       15.9994           0
     64748 W2       21583    TIP3     H1       HT       0.417000       1.00800           0
     64749 W2       21583    TIP3     H2       HT       0.417000       1.00800           0
     64750 W2       21584    TIP3     OH2      OT      -0.834000       15.9994           0
     64751 W2       21584    TIP3     H1       HT       0.417000       1.00800           0
     64752 W2       21584    TIP3     H2       HT       0.417000       1.00800           0
     64753 W2       21585    TIP3     OH2      OT      -0.834000       15.9994           0
     64754 W2       21585    TIP3     H1       HT       0.417000       1.00800           0
     64755 W2       21585    TIP3     H2       HT       0.417000       1.00800           0
     64756 W2       21586    TIP3     OH2      OT      -0.834000       15.9994           0
     64757 W2       21586    TIP3     H1       HT       0.417000       1.00800           0
     64758 W2       21586    TIP3     H2       HT       0.417000       1.00800           0
     64759 W2       21587    TIP3     OH2      OT      -0.834000       15.9994           0
     64760 W2       21587    TIP3     H1       HT       0.417000       1.00800           0
     64761 W2       21587    TIP3     H2       HT       0.417000       1.00800           0
     64762 W2       21588    TIP3     OH2      OT      -0.834000       15.9994           0
     64763 W2       21588    TIP3     H1       HT       0.417000       1.00800           0
     64764 W2       21588    TIP3     H2       HT       0.417000       1.00800           0
     64765 W2       21589    TIP3     OH2      OT      -0.834000       15.9994           0
     64766 W2       21589    TIP3     H1       HT       0.417000       1.00800           0
     64767 W2       21589    TIP3     H2       HT       0.417000       1.00800           0
     64768 W2       21590    TIP3     OH2      OT      -0.834000       15.9994           0
     64769 W2       21590    TIP3     H1       HT       0.417000       1.00800           0
     64770 W2       21590    TIP3     H2       HT       0.417000       1.00800           0
     64771 W2       21591    TIP3     OH2      OT      -0.834000       15.9994           0
     64772 W2       21591    TIP3     H1       HT       0.417000       1.00800           0
     64773 W2       21591    TIP3     H2       HT       0.417000       1.00800           0
     64774 W2       21592    TIP3     OH2      OT      -0.834000       15.9994           0
     64775 W2       21592    TIP3     H1       HT       0.417000       1.00800           0
     64776 W2       21592    TIP3     H2       HT       0.417000       1.00800           0
     64777 W2       21593    TIP3     OH2      OT      -0.834000       15.9994           0
     64778 W2       21593    TIP3     H1       HT       0.417000       1.00800           0
     64779 W2       21593    TIP3     H2       HT       0.417000       1.00800           0
     64780 W2       21594    TIP3     OH2      OT      -0.834000       15.9994           0
     64781 W2       21594    TIP3     H1       HT       0.417000       1.00800           0
     64782 W2       21594    TIP3     H2       HT       0.417000       1.00800           0
     64783 W2       21595    TIP3     OH2      OT      -0.834000       15.9994           0
     64784 W2       21595    TIP3     H1       HT       0.417000       1.00800           0
     64785 W2       21595    TIP3     H2       HT       0.417000       1.00800           0
     64786 W2       21596    TIP3     OH2      OT      -0.834000       15.9994           0
     64787 W2       21596    TIP3     H1       HT       0.417000       1.00800           0
     64788 W2       21596    TIP3     H2       HT       0.417000       1.00800           0
     64789 W2       21597    TIP3     OH2      OT      -0.834000       15.9994           0
     64790 W2       21597    TIP3     H1       HT       0.417000       1.00800           0
     64791 W2       21597    TIP3     H2       HT       0.417000       1.00800           0
     64792 W2       21598    TIP3     OH2      OT      -0.834000       15.9994           0
     64793 W2       21598    TIP3     H1       HT       0.417000       1.00800           0
     64794 W2       21598    TIP3     H2       HT       0.417000       1.00800           0
     64795 W2       21599    TIP3     OH2      OT      -0.834000       15.9994           0
     64796 W2       21599    TIP3     H1       HT       0.417000       1.00800           0
     64797 W2       21599    TIP3     H2       HT       0.417000       1.00800           0
     64798 W2       21600    TIP3     OH2      OT      -0.834000       15.9994           0
     64799 W2       21600    TIP3     H1       HT       0.417000       1.00800           0
     64800 W2       21600    TIP3     H2       HT       0.417000       1.00800           0
     64801 W2       21601    TIP3     OH2      OT      -0.834000       15.9994           0
     64802 W2       21601    TIP3     H1       HT       0.417000       1.00800           0
     64803 W2       21601    TIP3     H2       HT       0.417000       1.00800           0
     64804 W2       21602    TIP3     OH2      OT      -0.834000       15.9994           0
     64805 W2       21602    TIP3     H1       HT       0.417000       1.00800           0
     64806 W2       21602    TIP3     H2       HT       0.417000       1.00800           0
     64807 W2       21603    TIP3     OH2      OT      -0.834000       15.9994           0
     64808 W2       21603    TIP3     H1       HT       0.417000       1.00800           0
     64809 W2       21603    TIP3     H2       HT       0.417000       1.00800           0
     64810 W2       21604    TIP3     OH2      OT      -0.834000       15.9994           0
     64811 W2       21604    TIP3     H1       HT       0.417000       1.00800           0
     64812 W2       21604    TIP3     H2       HT       0.417000       1.00800           0
     64813 W2       21605    TIP3     OH2      OT      -0.834000       15.9994           0
     64814 W2       21605    TIP3     H1       HT       0.417000       1.00800           0
     64815 W2       21605    TIP3     H2       HT       0.417000       1.00800           0
     64816 W2       21606    TIP3     OH2      OT      -0.834000       15.9994           0
     64817 W2       21606    TIP3     H1       HT       0.417000       1.00800           0
     64818 W2       21606    TIP3     H2       HT       0.417000       1.00800           0
     64819 W2       21607    TIP3     OH2      OT      -0.834000       15.9994           0
     64820 W2       21607    TIP3     H1       HT       0.417000       1.00800           0
     64821 W2       21607    TIP3     H2       HT       0.417000       1.00800           0
     64822 W2       21608    TIP3     OH2      OT      -0.834000       15.9994           0
     64823 W2       21608    TIP3     H1       HT       0.417000       1.00800           0
     64824 W2       21608    TIP3     H2       HT       0.417000       1.00800           0
     64825 W2       21609    TIP3     OH2      OT      -0.834000       15.9994           0
     64826 W2       21609    TIP3     H1       HT       0.417000       1.00800           0
     64827 W2       21609    TIP3     H2       HT       0.417000       1.00800           0
     64828 W2       21610    TIP3     OH2      OT      -0.834000       15.9994           0
     64829 W2       21610    TIP3     H1       HT       0.417000       1.00800           0
     64830 W2       21610    TIP3     H2       HT       0.417000       1.00800           0
     64831 W2       21611    TIP3     OH2      OT      -0.834000       15.9994           0
     64832 W2       21611    TIP3     H1       HT       0.417000       1.00800           0
     64833 W2       21611    TIP3     H2       HT       0.417000       1.00800           0
     64834 W2       21612    TIP3     OH2      OT      -0.834000       15.9994           0
     64835 W2       21612    TIP3     H1       HT       0.417000       1.00800           0
     64836 W2       21612    TIP3     H2       HT       0.417000       1.00800           0
     64837 W2       21613    TIP3     OH2      OT      -0.834000       15.9994           0
     64838 W2       21613    TIP3     H1       HT       0.417000       1.00800           0
     64839 W2       21613    TIP3     H2       HT       0.417000       1.00800           0
     64840 W2       21614    TIP3     OH2      OT      -0.834000       15.9994           0
     64841 W2       21614    TIP3     H1       HT       0.417000       1.00800           0
     64842 W2       21614    TIP3     H2       HT       0.417000       1.00800           0
     64843 W2       21615    TIP3     OH2      OT      -0.834000       15.9994           0
     64844 W2       21615    TIP3     H1       HT       0.417000       1.00800           0
     64845 W2       21615    TIP3     H2       HT       0.417000       1.00800           0
     64846 W2       21616    TIP3     OH2      OT      -0.834000       15.9994           0
     64847 W2       21616    TIP3     H1       HT       0.417000       1.00800           0
     64848 W2       21616    TIP3     H2       HT       0.417000       1.00800           0
     64849 W2       21617    TIP3     OH2      OT      -0.834000       15.9994           0
     64850 W2       21617    TIP3     H1       HT       0.417000       1.00800           0
     64851 W2       21617    TIP3     H2       HT       0.417000       1.00800           0
     64852 W2       21618    TIP3     OH2      OT      -0.834000       15.9994           0
     64853 W2       21618    TIP3     H1       HT       0.417000       1.00800           0
     64854 W2       21618    TIP3     H2       HT       0.417000       1.00800           0
     64855 W2       21619    TIP3     OH2      OT      -0.834000       15.9994           0
     64856 W2       21619    TIP3     H1       HT       0.417000       1.00800           0
     64857 W2       21619    TIP3     H2       HT       0.417000       1.00800           0
     64858 W2       21620    TIP3     OH2      OT      -0.834000       15.9994           0
     64859 W2       21620    TIP3     H1       HT       0.417000       1.00800           0
     64860 W2       21620    TIP3     H2       HT       0.417000       1.00800           0
     64861 W2       21621    TIP3     OH2      OT      -0.834000       15.9994           0
     64862 W2       21621    TIP3     H1       HT       0.417000       1.00800           0
     64863 W2       21621    TIP3     H2       HT       0.417000       1.00800           0
     64864 W2       21622    TIP3     OH2      OT      -0.834000       15.9994           0
     64865 W2       21622    TIP3     H1       HT       0.417000       1.00800           0
     64866 W2       21622    TIP3     H2       HT       0.417000       1.00800           0
     64867 W2       21623    TIP3     OH2      OT      -0.834000       15.9994           0
     64868 W2       21623    TIP3     H1       HT       0.417000       1.00800           0
     64869 W2       21623    TIP3     H2       HT       0.417000       1.00800           0
     64870 W2       21624    TIP3     OH2      OT      -0.834000       15.9994           0
     64871 W2       21624    TIP3     H1       HT       0.417000       1.00800           0
     64872 W2       21624    TIP3     H2       HT       0.417000       1.00800           0
     64873 W2       21625    TIP3     OH2      OT      -0.834000       15.9994           0
     64874 W2       21625    TIP3     H1       HT       0.417000       1.00800           0
     64875 W2       21625    TIP3     H2       HT       0.417000       1.00800           0
     64876 W2       21626    TIP3     OH2      OT      -0.834000       15.9994           0
     64877 W2       21626    TIP3     H1       HT       0.417000       1.00800           0
     64878 W2       21626    TIP3     H2       HT       0.417000       1.00800           0
     64879 W2       21627    TIP3     OH2      OT      -0.834000       15.9994           0
     64880 W2       21627    TIP3     H1       HT       0.417000       1.00800           0
     64881 W2       21627    TIP3     H2       HT       0.417000       1.00800           0
     64882 W2       21628    TIP3     OH2      OT      -0.834000       15.9994           0
     64883 W2       21628    TIP3     H1       HT       0.417000       1.00800           0
     64884 W2       21628    TIP3     H2       HT       0.417000       1.00800           0
     64885 W2       21629    TIP3     OH2      OT      -0.834000       15.9994           0
     64886 W2       21629    TIP3     H1       HT       0.417000       1.00800           0
     64887 W2       21629    TIP3     H2       HT       0.417000       1.00800           0
     64888 W2       21630    TIP3     OH2      OT      -0.834000       15.9994           0
     64889 W2       21630    TIP3     H1       HT       0.417000       1.00800           0
     64890 W2       21630    TIP3     H2       HT       0.417000       1.00800           0
     64891 W2       21631    TIP3     OH2      OT      -0.834000       15.9994           0
     64892 W2       21631    TIP3     H1       HT       0.417000       1.00800           0
     64893 W2       21631    TIP3     H2       HT       0.417000       1.00800           0
     64894 W2       21632    TIP3     OH2      OT      -0.834000       15.9994           0
     64895 W2       21632    TIP3     H1       HT       0.417000       1.00800           0
     64896 W2       21632    TIP3     H2       HT       0.417000       1.00800           0
     64897 W2       21633    TIP3     OH2      OT      -0.834000       15.9994           0
     64898 W2       21633    TIP3     H1       HT       0.417000       1.00800           0
     64899 W2       21633    TIP3     H2       HT       0.417000       1.00800           0
     64900 W2       21634    TIP3     OH2      OT      -0.834000       15.9994           0
     64901 W2       21634    TIP3     H1       HT       0.417000       1.00800           0
     64902 W2       21634    TIP3     H2       HT       0.417000       1.00800           0
     64903 W2       21635    TIP3     OH2      OT      -0.834000       15.9994           0
     64904 W2       21635    TIP3     H1       HT       0.417000       1.00800           0
     64905 W2       21635    TIP3     H2       HT       0.417000       1.00800           0
     64906 W2       21636    TIP3     OH2      OT      -0.834000       15.9994           0
     64907 W2       21636    TIP3     H1       HT       0.417000       1.00800           0
     64908 W2       21636    TIP3     H2       HT       0.417000       1.00800           0
     64909 W2       21637    TIP3     OH2      OT      -0.834000       15.9994           0
     64910 W2       21637    TIP3     H1       HT       0.417000       1.00800           0
     64911 W2       21637    TIP3     H2       HT       0.417000       1.00800           0
     64912 W2       21638    TIP3     OH2      OT      -0.834000       15.9994           0
     64913 W2       21638    TIP3     H1       HT       0.417000       1.00800           0
     64914 W2       21638    TIP3     H2       HT       0.417000       1.00800           0
     64915 W2       21639    TIP3     OH2      OT      -0.834000       15.9994           0
     64916 W2       21639    TIP3     H1       HT       0.417000       1.00800           0
     64917 W2       21639    TIP3     H2       HT       0.417000       1.00800           0
     64918 W2       21640    TIP3     OH2      OT      -0.834000       15.9994           0
     64919 W2       21640    TIP3     H1       HT       0.417000       1.00800           0
     64920 W2       21640    TIP3     H2       HT       0.417000       1.00800           0
     64921 W2       21641    TIP3     OH2      OT      -0.834000       15.9994           0
     64922 W2       21641    TIP3     H1       HT       0.417000       1.00800           0
     64923 W2       21641    TIP3     H2       HT       0.417000       1.00800           0
     64924 W2       21642    TIP3     OH2      OT      -0.834000       15.9994           0
     64925 W2       21642    TIP3     H1       HT       0.417000       1.00800           0
     64926 W2       21642    TIP3     H2       HT       0.417000       1.00800           0
     64927 W2       21643    TIP3     OH2      OT      -0.834000       15.9994           0
     64928 W2       21643    TIP3     H1       HT       0.417000       1.00800           0
     64929 W2       21643    TIP3     H2       HT       0.417000       1.00800           0
     64930 W2       21644    TIP3     OH2      OT      -0.834000       15.9994           0
     64931 W2       21644    TIP3     H1       HT       0.417000       1.00800           0
     64932 W2       21644    TIP3     H2       HT       0.417000       1.00800           0
     64933 W2       21645    TIP3     OH2      OT      -0.834000       15.9994           0
     64934 W2       21645    TIP3     H1       HT       0.417000       1.00800           0
     64935 W2       21645    TIP3     H2       HT       0.417000       1.00800           0
     64936 W2       21646    TIP3     OH2      OT      -0.834000       15.9994           0
     64937 W2       21646    TIP3     H1       HT       0.417000       1.00800           0
     64938 W2       21646    TIP3     H2       HT       0.417000       1.00800           0
     64939 W2       21647    TIP3     OH2      OT      -0.834000       15.9994           0
     64940 W2       21647    TIP3     H1       HT       0.417000       1.00800           0
     64941 W2       21647    TIP3     H2       HT       0.417000       1.00800           0
     64942 W2       21648    TIP3     OH2      OT      -0.834000       15.9994           0
     64943 W2       21648    TIP3     H1       HT       0.417000       1.00800           0
     64944 W2       21648    TIP3     H2       HT       0.417000       1.00800           0
     64945 W2       21649    TIP3     OH2      OT      -0.834000       15.9994           0
     64946 W2       21649    TIP3     H1       HT       0.417000       1.00800           0
     64947 W2       21649    TIP3     H2       HT       0.417000       1.00800           0
     64948 W2       21650    TIP3     OH2      OT      -0.834000       15.9994           0
     64949 W2       21650    TIP3     H1       HT       0.417000       1.00800           0
     64950 W2       21650    TIP3     H2       HT       0.417000       1.00800           0
     64951 W2       21651    TIP3     OH2      OT      -0.834000       15.9994           0
     64952 W2       21651    TIP3     H1       HT       0.417000       1.00800           0
     64953 W2       21651    TIP3     H2       HT       0.417000       1.00800           0
     64954 W2       21652    TIP3     OH2      OT      -0.834000       15.9994           0
     64955 W2       21652    TIP3     H1       HT       0.417000       1.00800           0
     64956 W2       21652    TIP3     H2       HT       0.417000       1.00800           0
     64957 W2       21653    TIP3     OH2      OT      -0.834000       15.9994           0
     64958 W2       21653    TIP3     H1       HT       0.417000       1.00800           0
     64959 W2       21653    TIP3     H2       HT       0.417000       1.00800           0
     64960 W2       21654    TIP3     OH2      OT      -0.834000       15.9994           0
     64961 W2       21654    TIP3     H1       HT       0.417000       1.00800           0
     64962 W2       21654    TIP3     H2       HT       0.417000       1.00800           0
     64963 W2       21655    TIP3     OH2      OT      -0.834000       15.9994           0
     64964 W2       21655    TIP3     H1       HT       0.417000       1.00800           0
     64965 W2       21655    TIP3     H2       HT       0.417000       1.00800           0
     64966 W2       21656    TIP3     OH2      OT      -0.834000       15.9994           0
     64967 W2       21656    TIP3     H1       HT       0.417000       1.00800           0
     64968 W2       21656    TIP3     H2       HT       0.417000       1.00800           0
     64969 W2       21657    TIP3     OH2      OT      -0.834000       15.9994           0
     64970 W2       21657    TIP3     H1       HT       0.417000       1.00800           0
     64971 W2       21657    TIP3     H2       HT       0.417000       1.00800           0
     64972 W2       21658    TIP3     OH2      OT      -0.834000       15.9994           0
     64973 W2       21658    TIP3     H1       HT       0.417000       1.00800           0
     64974 W2       21658    TIP3     H2       HT       0.417000       1.00800           0
     64975 W2       21659    TIP3     OH2      OT      -0.834000       15.9994           0
     64976 W2       21659    TIP3     H1       HT       0.417000       1.00800           0
     64977 W2       21659    TIP3     H2       HT       0.417000       1.00800           0
     64978 W2       21660    TIP3     OH2      OT      -0.834000       15.9994           0
     64979 W2       21660    TIP3     H1       HT       0.417000       1.00800           0
     64980 W2       21660    TIP3     H2       HT       0.417000       1.00800           0
     64981 W2       21661    TIP3     OH2      OT      -0.834000       15.9994           0
     64982 W2       21661    TIP3     H1       HT       0.417000       1.00800           0
     64983 W2       21661    TIP3     H2       HT       0.417000       1.00800           0
     64984 W2       21662    TIP3     OH2      OT      -0.834000       15.9994           0
     64985 W2       21662    TIP3     H1       HT       0.417000       1.00800           0
     64986 W2       21662    TIP3     H2       HT       0.417000       1.00800           0
     64987 W2       21663    TIP3     OH2      OT      -0.834000       15.9994           0
     64988 W2       21663    TIP3     H1       HT       0.417000       1.00800           0
     64989 W2       21663    TIP3     H2       HT       0.417000       1.00800           0
     64990 W2       21664    TIP3     OH2      OT      -0.834000       15.9994           0
     64991 W2       21664    TIP3     H1       HT       0.417000       1.00800           0
     64992 W2       21664    TIP3     H2       HT       0.417000       1.00800           0
     64993 W2       21665    TIP3     OH2      OT      -0.834000       15.9994           0
     64994 W2       21665    TIP3     H1       HT       0.417000       1.00800           0
     64995 W2       21665    TIP3     H2       HT       0.417000       1.00800           0
     64996 W2       21666    TIP3     OH2      OT      -0.834000       15.9994           0
     64997 W2       21666    TIP3     H1       HT       0.417000       1.00800           0
     64998 W2       21666    TIP3     H2       HT       0.417000       1.00800           0
     64999 W2       21667    TIP3     OH2      OT      -0.834000       15.9994           0
     65000 W2       21667    TIP3     H1       HT       0.417000       1.00800           0
     65001 W2       21667    TIP3     H2       HT       0.417000       1.00800           0
     65002 W2       21668    TIP3     OH2      OT      -0.834000       15.9994           0
     65003 W2       21668    TIP3     H1       HT       0.417000       1.00800           0
     65004 W2       21668    TIP3     H2       HT       0.417000       1.00800           0
     65005 W2       21669    TIP3     OH2      OT      -0.834000       15.9994           0
     65006 W2       21669    TIP3     H1       HT       0.417000       1.00800           0
     65007 W2       21669    TIP3     H2       HT       0.417000       1.00800           0
     65008 W2       21670    TIP3     OH2      OT      -0.834000       15.9994           0
     65009 W2       21670    TIP3     H1       HT       0.417000       1.00800           0
     65010 W2       21670    TIP3     H2       HT       0.417000       1.00800           0
     65011 W2       21671    TIP3     OH2      OT      -0.834000       15.9994           0
     65012 W2       21671    TIP3     H1       HT       0.417000       1.00800           0
     65013 W2       21671    TIP3     H2       HT       0.417000       1.00800           0
     65014 W2       21672    TIP3     OH2      OT      -0.834000       15.9994           0
     65015 W2       21672    TIP3     H1       HT       0.417000       1.00800           0
     65016 W2       21672    TIP3     H2       HT       0.417000       1.00800           0
     65017 W2       21673    TIP3     OH2      OT      -0.834000       15.9994           0
     65018 W2       21673    TIP3     H1       HT       0.417000       1.00800           0
     65019 W2       21673    TIP3     H2       HT       0.417000       1.00800           0
     65020 W2       21674    TIP3     OH2      OT      -0.834000       15.9994           0
     65021 W2       21674    TIP3     H1       HT       0.417000       1.00800           0
     65022 W2       21674    TIP3     H2       HT       0.417000       1.00800           0
     65023 W2       21675    TIP3     OH2      OT      -0.834000       15.9994           0
     65024 W2       21675    TIP3     H1       HT       0.417000       1.00800           0
     65025 W2       21675    TIP3     H2       HT       0.417000       1.00800           0
     65026 W2       21676    TIP3     OH2      OT      -0.834000       15.9994           0
     65027 W2       21676    TIP3     H1       HT       0.417000       1.00800           0
     65028 W2       21676    TIP3     H2       HT       0.417000       1.00800           0
     65029 W2       21677    TIP3     OH2      OT      -0.834000       15.9994           0
     65030 W2       21677    TIP3     H1       HT       0.417000       1.00800           0
     65031 W2       21677    TIP3     H2       HT       0.417000       1.00800           0
     65032 W2       21678    TIP3     OH2      OT      -0.834000       15.9994           0
     65033 W2       21678    TIP3     H1       HT       0.417000       1.00800           0
     65034 W2       21678    TIP3     H2       HT       0.417000       1.00800           0
     65035 W2       21679    TIP3     OH2      OT      -0.834000       15.9994           0
     65036 W2       21679    TIP3     H1       HT       0.417000       1.00800           0
     65037 W2       21679    TIP3     H2       HT       0.417000       1.00800           0
     65038 W2       21680    TIP3     OH2      OT      -0.834000       15.9994           0
     65039 W2       21680    TIP3     H1       HT       0.417000       1.00800           0
     65040 W2       21680    TIP3     H2       HT       0.417000       1.00800           0
     65041 W2       21681    TIP3     OH2      OT      -0.834000       15.9994           0
     65042 W2       21681    TIP3     H1       HT       0.417000       1.00800           0
     65043 W2       21681    TIP3     H2       HT       0.417000       1.00800           0
     65044 W2       21682    TIP3     OH2      OT      -0.834000       15.9994           0
     65045 W2       21682    TIP3     H1       HT       0.417000       1.00800           0
     65046 W2       21682    TIP3     H2       HT       0.417000       1.00800           0
     65047 W2       21683    TIP3     OH2      OT      -0.834000       15.9994           0
     65048 W2       21683    TIP3     H1       HT       0.417000       1.00800           0
     65049 W2       21683    TIP3     H2       HT       0.417000       1.00800           0
     65050 W2       21684    TIP3     OH2      OT      -0.834000       15.9994           0
     65051 W2       21684    TIP3     H1       HT       0.417000       1.00800           0
     65052 W2       21684    TIP3     H2       HT       0.417000       1.00800           0
     65053 W2       21685    TIP3     OH2      OT      -0.834000       15.9994           0
     65054 W2       21685    TIP3     H1       HT       0.417000       1.00800           0
     65055 W2       21685    TIP3     H2       HT       0.417000       1.00800           0
     65056 W2       21686    TIP3     OH2      OT      -0.834000       15.9994           0
     65057 W2       21686    TIP3     H1       HT       0.417000       1.00800           0
     65058 W2       21686    TIP3     H2       HT       0.417000       1.00800           0
     65059 W2       21687    TIP3     OH2      OT      -0.834000       15.9994           0
     65060 W2       21687    TIP3     H1       HT       0.417000       1.00800           0
     65061 W2       21687    TIP3     H2       HT       0.417000       1.00800           0
     65062 W2       21688    TIP3     OH2      OT      -0.834000       15.9994           0
     65063 W2       21688    TIP3     H1       HT       0.417000       1.00800           0
     65064 W2       21688    TIP3     H2       HT       0.417000       1.00800           0
     65065 W2       21689    TIP3     OH2      OT      -0.834000       15.9994           0
     65066 W2       21689    TIP3     H1       HT       0.417000       1.00800           0
     65067 W2       21689    TIP3     H2       HT       0.417000       1.00800           0
     65068 W2       21690    TIP3     OH2      OT      -0.834000       15.9994           0
     65069 W2       21690    TIP3     H1       HT       0.417000       1.00800           0
     65070 W2       21690    TIP3     H2       HT       0.417000       1.00800           0
     65071 W2       21691    TIP3     OH2      OT      -0.834000       15.9994           0
     65072 W2       21691    TIP3     H1       HT       0.417000       1.00800           0
     65073 W2       21691    TIP3     H2       HT       0.417000       1.00800           0
     65074 W2       21692    TIP3     OH2      OT      -0.834000       15.9994           0
     65075 W2       21692    TIP3     H1       HT       0.417000       1.00800           0
     65076 W2       21692    TIP3     H2       HT       0.417000       1.00800           0
     65077 W2       21693    TIP3     OH2      OT      -0.834000       15.9994           0
     65078 W2       21693    TIP3     H1       HT       0.417000       1.00800           0
     65079 W2       21693    TIP3     H2       HT       0.417000       1.00800           0
     65080 W2       21694    TIP3     OH2      OT      -0.834000       15.9994           0
     65081 W2       21694    TIP3     H1       HT       0.417000       1.00800           0
     65082 W2       21694    TIP3     H2       HT       0.417000       1.00800           0
     65083 W2       21695    TIP3     OH2      OT      -0.834000       15.9994           0
     65084 W2       21695    TIP3     H1       HT       0.417000       1.00800           0
     65085 W2       21695    TIP3     H2       HT       0.417000       1.00800           0
     65086 W2       21696    TIP3     OH2      OT      -0.834000       15.9994           0
     65087 W2       21696    TIP3     H1       HT       0.417000       1.00800           0
     65088 W2       21696    TIP3     H2       HT       0.417000       1.00800           0
     65089 W2       21697    TIP3     OH2      OT      -0.834000       15.9994           0
     65090 W2       21697    TIP3     H1       HT       0.417000       1.00800           0
     65091 W2       21697    TIP3     H2       HT       0.417000       1.00800           0
     65092 W2       21698    TIP3     OH2      OT      -0.834000       15.9994           0
     65093 W2       21698    TIP3     H1       HT       0.417000       1.00800           0
     65094 W2       21698    TIP3     H2       HT       0.417000       1.00800           0
     65095 W2       21699    TIP3     OH2      OT      -0.834000       15.9994           0
     65096 W2       21699    TIP3     H1       HT       0.417000       1.00800           0
     65097 W2       21699    TIP3     H2       HT       0.417000       1.00800           0
     65098 W2       21700    TIP3     OH2      OT      -0.834000       15.9994           0
     65099 W2       21700    TIP3     H1       HT       0.417000       1.00800           0
     65100 W2       21700    TIP3     H2       HT       0.417000       1.00800           0
     65101 W2       21701    TIP3     OH2      OT      -0.834000       15.9994           0
     65102 W2       21701    TIP3     H1       HT       0.417000       1.00800           0
     65103 W2       21701    TIP3     H2       HT       0.417000       1.00800           0
     65104 W2       21702    TIP3     OH2      OT      -0.834000       15.9994           0
     65105 W2       21702    TIP3     H1       HT       0.417000       1.00800           0
     65106 W2       21702    TIP3     H2       HT       0.417000       1.00800           0
     65107 W2       21703    TIP3     OH2      OT      -0.834000       15.9994           0
     65108 W2       21703    TIP3     H1       HT       0.417000       1.00800           0
     65109 W2       21703    TIP3     H2       HT       0.417000       1.00800           0
     65110 W2       21704    TIP3     OH2      OT      -0.834000       15.9994           0
     65111 W2       21704    TIP3     H1       HT       0.417000       1.00800           0
     65112 W2       21704    TIP3     H2       HT       0.417000       1.00800           0
     65113 W2       21705    TIP3     OH2      OT      -0.834000       15.9994           0
     65114 W2       21705    TIP3     H1       HT       0.417000       1.00800           0
     65115 W2       21705    TIP3     H2       HT       0.417000       1.00800           0
     65116 W2       21706    TIP3     OH2      OT      -0.834000       15.9994           0
     65117 W2       21706    TIP3     H1       HT       0.417000       1.00800           0
     65118 W2       21706    TIP3     H2       HT       0.417000       1.00800           0
     65119 W2       21707    TIP3     OH2      OT      -0.834000       15.9994           0
     65120 W2       21707    TIP3     H1       HT       0.417000       1.00800           0
     65121 W2       21707    TIP3     H2       HT       0.417000       1.00800           0
     65122 W2       21708    TIP3     OH2      OT      -0.834000       15.9994           0
     65123 W2       21708    TIP3     H1       HT       0.417000       1.00800           0
     65124 W2       21708    TIP3     H2       HT       0.417000       1.00800           0
     65125 W2       21709    TIP3     OH2      OT      -0.834000       15.9994           0
     65126 W2       21709    TIP3     H1       HT       0.417000       1.00800           0
     65127 W2       21709    TIP3     H2       HT       0.417000       1.00800           0
     65128 W2       21710    TIP3     OH2      OT      -0.834000       15.9994           0
     65129 W2       21710    TIP3     H1       HT       0.417000       1.00800           0
     65130 W2       21710    TIP3     H2       HT       0.417000       1.00800           0
     65131 W2       21711    TIP3     OH2      OT      -0.834000       15.9994           0
     65132 W2       21711    TIP3     H1       HT       0.417000       1.00800           0
     65133 W2       21711    TIP3     H2       HT       0.417000       1.00800           0
     65134 W2       21712    TIP3     OH2      OT      -0.834000       15.9994           0
     65135 W2       21712    TIP3     H1       HT       0.417000       1.00800           0
     65136 W2       21712    TIP3     H2       HT       0.417000       1.00800           0
     65137 W2       21713    TIP3     OH2      OT      -0.834000       15.9994           0
     65138 W2       21713    TIP3     H1       HT       0.417000       1.00800           0
     65139 W2       21713    TIP3     H2       HT       0.417000       1.00800           0
     65140 W2       21714    TIP3     OH2      OT      -0.834000       15.9994           0
     65141 W2       21714    TIP3     H1       HT       0.417000       1.00800           0
     65142 W2       21714    TIP3     H2       HT       0.417000       1.00800           0
     65143 W2       21715    TIP3     OH2      OT      -0.834000       15.9994           0
     65144 W2       21715    TIP3     H1       HT       0.417000       1.00800           0
     65145 W2       21715    TIP3     H2       HT       0.417000       1.00800           0
     65146 W2       21716    TIP3     OH2      OT      -0.834000       15.9994           0
     65147 W2       21716    TIP3     H1       HT       0.417000       1.00800           0
     65148 W2       21716    TIP3     H2       HT       0.417000       1.00800           0
     65149 W2       21717    TIP3     OH2      OT      -0.834000       15.9994           0
     65150 W2       21717    TIP3     H1       HT       0.417000       1.00800           0
     65151 W2       21717    TIP3     H2       HT       0.417000       1.00800           0
     65152 W2       21718    TIP3     OH2      OT      -0.834000       15.9994           0
     65153 W2       21718    TIP3     H1       HT       0.417000       1.00800           0
     65154 W2       21718    TIP3     H2       HT       0.417000       1.00800           0
     65155 W2       21719    TIP3     OH2      OT      -0.834000       15.9994           0
     65156 W2       21719    TIP3     H1       HT       0.417000       1.00800           0
     65157 W2       21719    TIP3     H2       HT       0.417000       1.00800           0
     65158 W2       21720    TIP3     OH2      OT      -0.834000       15.9994           0
     65159 W2       21720    TIP3     H1       HT       0.417000       1.00800           0
     65160 W2       21720    TIP3     H2       HT       0.417000       1.00800           0
     65161 W2       21721    TIP3     OH2      OT      -0.834000       15.9994           0
     65162 W2       21721    TIP3     H1       HT       0.417000       1.00800           0
     65163 W2       21721    TIP3     H2       HT       0.417000       1.00800           0
     65164 W2       21722    TIP3     OH2      OT      -0.834000       15.9994           0
     65165 W2       21722    TIP3     H1       HT       0.417000       1.00800           0
     65166 W2       21722    TIP3     H2       HT       0.417000       1.00800           0
     65167 W2       21723    TIP3     OH2      OT      -0.834000       15.9994           0
     65168 W2       21723    TIP3     H1       HT       0.417000       1.00800           0
     65169 W2       21723    TIP3     H2       HT       0.417000       1.00800           0
     65170 W2       21724    TIP3     OH2      OT      -0.834000       15.9994           0
     65171 W2       21724    TIP3     H1       HT       0.417000       1.00800           0
     65172 W2       21724    TIP3     H2       HT       0.417000       1.00800           0
     65173 W2       21725    TIP3     OH2      OT      -0.834000       15.9994           0
     65174 W2       21725    TIP3     H1       HT       0.417000       1.00800           0
     65175 W2       21725    TIP3     H2       HT       0.417000       1.00800           0
     65176 W2       21726    TIP3     OH2      OT      -0.834000       15.9994           0
     65177 W2       21726    TIP3     H1       HT       0.417000       1.00800           0
     65178 W2       21726    TIP3     H2       HT       0.417000       1.00800           0
     65179 W2       21727    TIP3     OH2      OT      -0.834000       15.9994           0
     65180 W2       21727    TIP3     H1       HT       0.417000       1.00800           0
     65181 W2       21727    TIP3     H2       HT       0.417000       1.00800           0
     65182 W2       21728    TIP3     OH2      OT      -0.834000       15.9994           0
     65183 W2       21728    TIP3     H1       HT       0.417000       1.00800           0
     65184 W2       21728    TIP3     H2       HT       0.417000       1.00800           0
     65185 W2       21729    TIP3     OH2      OT      -0.834000       15.9994           0
     65186 W2       21729    TIP3     H1       HT       0.417000       1.00800           0
     65187 W2       21729    TIP3     H2       HT       0.417000       1.00800           0
     65188 W2       21730    TIP3     OH2      OT      -0.834000       15.9994           0
     65189 W2       21730    TIP3     H1       HT       0.417000       1.00800           0
     65190 W2       21730    TIP3     H2       HT       0.417000       1.00800           0
     65191 W2       21731    TIP3     OH2      OT      -0.834000       15.9994           0
     65192 W2       21731    TIP3     H1       HT       0.417000       1.00800           0
     65193 W2       21731    TIP3     H2       HT       0.417000       1.00800           0
     65194 W2       21732    TIP3     OH2      OT      -0.834000       15.9994           0
     65195 W2       21732    TIP3     H1       HT       0.417000       1.00800           0
     65196 W2       21732    TIP3     H2       HT       0.417000       1.00800           0
     65197 W2       21733    TIP3     OH2      OT      -0.834000       15.9994           0
     65198 W2       21733    TIP3     H1       HT       0.417000       1.00800           0
     65199 W2       21733    TIP3     H2       HT       0.417000       1.00800           0
     65200 W2       21734    TIP3     OH2      OT      -0.834000       15.9994           0
     65201 W2       21734    TIP3     H1       HT       0.417000       1.00800           0
     65202 W2       21734    TIP3     H2       HT       0.417000       1.00800           0
     65203 W2       21735    TIP3     OH2      OT      -0.834000       15.9994           0
     65204 W2       21735    TIP3     H1       HT       0.417000       1.00800           0
     65205 W2       21735    TIP3     H2       HT       0.417000       1.00800           0
     65206 W2       21736    TIP3     OH2      OT      -0.834000       15.9994           0
     65207 W2       21736    TIP3     H1       HT       0.417000       1.00800           0
     65208 W2       21736    TIP3     H2       HT       0.417000       1.00800           0
     65209 W2       21737    TIP3     OH2      OT      -0.834000       15.9994           0
     65210 W2       21737    TIP3     H1       HT       0.417000       1.00800           0
     65211 W2       21737    TIP3     H2       HT       0.417000       1.00800           0
     65212 W2       21738    TIP3     OH2      OT      -0.834000       15.9994           0
     65213 W2       21738    TIP3     H1       HT       0.417000       1.00800           0
     65214 W2       21738    TIP3     H2       HT       0.417000       1.00800           0
     65215 W2       21739    TIP3     OH2      OT      -0.834000       15.9994           0
     65216 W2       21739    TIP3     H1       HT       0.417000       1.00800           0
     65217 W2       21739    TIP3     H2       HT       0.417000       1.00800           0
     65218 W2       21740    TIP3     OH2      OT      -0.834000       15.9994           0
     65219 W2       21740    TIP3     H1       HT       0.417000       1.00800           0
     65220 W2       21740    TIP3     H2       HT       0.417000       1.00800           0
     65221 W2       21741    TIP3     OH2      OT      -0.834000       15.9994           0
     65222 W2       21741    TIP3     H1       HT       0.417000       1.00800           0
     65223 W2       21741    TIP3     H2       HT       0.417000       1.00800           0
     65224 W2       21742    TIP3     OH2      OT      -0.834000       15.9994           0
     65225 W2       21742    TIP3     H1       HT       0.417000       1.00800           0
     65226 W2       21742    TIP3     H2       HT       0.417000       1.00800           0
     65227 W2       21743    TIP3     OH2      OT      -0.834000       15.9994           0
     65228 W2       21743    TIP3     H1       HT       0.417000       1.00800           0
     65229 W2       21743    TIP3     H2       HT       0.417000       1.00800           0
     65230 W2       21744    TIP3     OH2      OT      -0.834000       15.9994           0
     65231 W2       21744    TIP3     H1       HT       0.417000       1.00800           0
     65232 W2       21744    TIP3     H2       HT       0.417000       1.00800           0
     65233 W2       21745    TIP3     OH2      OT      -0.834000       15.9994           0
     65234 W2       21745    TIP3     H1       HT       0.417000       1.00800           0
     65235 W2       21745    TIP3     H2       HT       0.417000       1.00800           0
     65236 W2       21746    TIP3     OH2      OT      -0.834000       15.9994           0
     65237 W2       21746    TIP3     H1       HT       0.417000       1.00800           0
     65238 W2       21746    TIP3     H2       HT       0.417000       1.00800           0
     65239 W2       21747    TIP3     OH2      OT      -0.834000       15.9994           0
     65240 W2       21747    TIP3     H1       HT       0.417000       1.00800           0
     65241 W2       21747    TIP3     H2       HT       0.417000       1.00800           0
     65242 W2       21748    TIP3     OH2      OT      -0.834000       15.9994           0
     65243 W2       21748    TIP3     H1       HT       0.417000       1.00800           0
     65244 W2       21748    TIP3     H2       HT       0.417000       1.00800           0
     65245 W2       21749    TIP3     OH2      OT      -0.834000       15.9994           0
     65246 W2       21749    TIP3     H1       HT       0.417000       1.00800           0
     65247 W2       21749    TIP3     H2       HT       0.417000       1.00800           0
     65248 W2       21750    TIP3     OH2      OT      -0.834000       15.9994           0
     65249 W2       21750    TIP3     H1       HT       0.417000       1.00800           0
     65250 W2       21750    TIP3     H2       HT       0.417000       1.00800           0
     65251 W2       21752    TIP3     OH2      OT      -0.834000       15.9994           0
     65252 W2       21752    TIP3     H1       HT       0.417000       1.00800           0
     65253 W2       21752    TIP3     H2       HT       0.417000       1.00800           0
     65254 W2       21753    TIP3     OH2      OT      -0.834000       15.9994           0
     65255 W2       21753    TIP3     H1       HT       0.417000       1.00800           0
     65256 W2       21753    TIP3     H2       HT       0.417000       1.00800           0
     65257 W2       21754    TIP3     OH2      OT      -0.834000       15.9994           0
     65258 W2       21754    TIP3     H1       HT       0.417000       1.00800           0
     65259 W2       21754    TIP3     H2       HT       0.417000       1.00800           0
     65260 W2       21755    TIP3     OH2      OT      -0.834000       15.9994           0
     65261 W2       21755    TIP3     H1       HT       0.417000       1.00800           0
     65262 W2       21755    TIP3     H2       HT       0.417000       1.00800           0
     65263 W2       21756    TIP3     OH2      OT      -0.834000       15.9994           0
     65264 W2       21756    TIP3     H1       HT       0.417000       1.00800           0
     65265 W2       21756    TIP3     H2       HT       0.417000       1.00800           0
     65266 W2       21757    TIP3     OH2      OT      -0.834000       15.9994           0
     65267 W2       21757    TIP3     H1       HT       0.417000       1.00800           0
     65268 W2       21757    TIP3     H2       HT       0.417000       1.00800           0
     65269 W2       21758    TIP3     OH2      OT      -0.834000       15.9994           0
     65270 W2       21758    TIP3     H1       HT       0.417000       1.00800           0
     65271 W2       21758    TIP3     H2       HT       0.417000       1.00800           0
     65272 W2       21759    TIP3     OH2      OT      -0.834000       15.9994           0
     65273 W2       21759    TIP3     H1       HT       0.417000       1.00800           0
     65274 W2       21759    TIP3     H2       HT       0.417000       1.00800           0
     65275 W2       21760    TIP3     OH2      OT      -0.834000       15.9994           0
     65276 W2       21760    TIP3     H1       HT       0.417000       1.00800           0
     65277 W2       21760    TIP3     H2       HT       0.417000       1.00800           0
     65278 W2       21761    TIP3     OH2      OT      -0.834000       15.9994           0
     65279 W2       21761    TIP3     H1       HT       0.417000       1.00800           0
     65280 W2       21761    TIP3     H2       HT       0.417000       1.00800           0
     65281 W2       21762    TIP3     OH2      OT      -0.834000       15.9994           0
     65282 W2       21762    TIP3     H1       HT       0.417000       1.00800           0
     65283 W2       21762    TIP3     H2       HT       0.417000       1.00800           0
     65284 W2       21763    TIP3     OH2      OT      -0.834000       15.9994           0
     65285 W2       21763    TIP3     H1       HT       0.417000       1.00800           0
     65286 W2       21763    TIP3     H2       HT       0.417000       1.00800           0
     65287 W2       21765    TIP3     OH2      OT      -0.834000       15.9994           0
     65288 W2       21765    TIP3     H1       HT       0.417000       1.00800           0
     65289 W2       21765    TIP3     H2       HT       0.417000       1.00800           0
     65290 W2       21766    TIP3     OH2      OT      -0.834000       15.9994           0
     65291 W2       21766    TIP3     H1       HT       0.417000       1.00800           0
     65292 W2       21766    TIP3     H2       HT       0.417000       1.00800           0
     65293 W2       21767    TIP3     OH2      OT      -0.834000       15.9994           0
     65294 W2       21767    TIP3     H1       HT       0.417000       1.00800           0
     65295 W2       21767    TIP3     H2       HT       0.417000       1.00800           0
     65296 W2       21768    TIP3     OH2      OT      -0.834000       15.9994           0
     65297 W2       21768    TIP3     H1       HT       0.417000       1.00800           0
     65298 W2       21768    TIP3     H2       HT       0.417000       1.00800           0
     65299 W2       21770    TIP3     OH2      OT      -0.834000       15.9994           0
     65300 W2       21770    TIP3     H1       HT       0.417000       1.00800           0
     65301 W2       21770    TIP3     H2       HT       0.417000       1.00800           0
     65302 W2       21771    TIP3     OH2      OT      -0.834000       15.9994           0
     65303 W2       21771    TIP3     H1       HT       0.417000       1.00800           0
     65304 W2       21771    TIP3     H2       HT       0.417000       1.00800           0
     65305 W2       21772    TIP3     OH2      OT      -0.834000       15.9994           0
     65306 W2       21772    TIP3     H1       HT       0.417000       1.00800           0
     65307 W2       21772    TIP3     H2       HT       0.417000       1.00800           0
     65308 W2       21773    TIP3     OH2      OT      -0.834000       15.9994           0
     65309 W2       21773    TIP3     H1       HT       0.417000       1.00800           0
     65310 W2       21773    TIP3     H2       HT       0.417000       1.00800           0
     65311 W2       21775    TIP3     OH2      OT      -0.834000       15.9994           0
     65312 W2       21775    TIP3     H1       HT       0.417000       1.00800           0
     65313 W2       21775    TIP3     H2       HT       0.417000       1.00800           0
     65314 W2       21777    TIP3     OH2      OT      -0.834000       15.9994           0
     65315 W2       21777    TIP3     H1       HT       0.417000       1.00800           0
     65316 W2       21777    TIP3     H2       HT       0.417000       1.00800           0
     65317 W2       21779    TIP3     OH2      OT      -0.834000       15.9994           0
     65318 W2       21779    TIP3     H1       HT       0.417000       1.00800           0
     65319 W2       21779    TIP3     H2       HT       0.417000       1.00800           0
     65320 W2       21780    TIP3     OH2      OT      -0.834000       15.9994           0
     65321 W2       21780    TIP3     H1       HT       0.417000       1.00800           0
     65322 W2       21780    TIP3     H2       HT       0.417000       1.00800           0
     65323 W2       21781    TIP3     OH2      OT      -0.834000       15.9994           0
     65324 W2       21781    TIP3     H1       HT       0.417000       1.00800           0
     65325 W2       21781    TIP3     H2       HT       0.417000       1.00800           0
     65326 W2       21782    TIP3     OH2      OT      -0.834000       15.9994           0
     65327 W2       21782    TIP3     H1       HT       0.417000       1.00800           0
     65328 W2       21782    TIP3     H2       HT       0.417000       1.00800           0
     65329 W2       21783    TIP3     OH2      OT      -0.834000       15.9994           0
     65330 W2       21783    TIP3     H1       HT       0.417000       1.00800           0
     65331 W2       21783    TIP3     H2       HT       0.417000       1.00800           0
     65332 W2       21786    TIP3     OH2      OT      -0.834000       15.9994           0
     65333 W2       21786    TIP3     H1       HT       0.417000       1.00800           0
     65334 W2       21786    TIP3     H2       HT       0.417000       1.00800           0
     65335 W2       21787    TIP3     OH2      OT      -0.834000       15.9994           0
     65336 W2       21787    TIP3     H1       HT       0.417000       1.00800           0
     65337 W2       21787    TIP3     H2       HT       0.417000       1.00800           0
     65338 W2       21788    TIP3     OH2      OT      -0.834000       15.9994           0
     65339 W2       21788    TIP3     H1       HT       0.417000       1.00800           0
     65340 W2       21788    TIP3     H2       HT       0.417000       1.00800           0
     65341 W2       21789    TIP3     OH2      OT      -0.834000       15.9994           0
     65342 W2       21789    TIP3     H1       HT       0.417000       1.00800           0
     65343 W2       21789    TIP3     H2       HT       0.417000       1.00800           0
     65344 W2       21792    TIP3     OH2      OT      -0.834000       15.9994           0
     65345 W2       21792    TIP3     H1       HT       0.417000       1.00800           0
     65346 W2       21792    TIP3     H2       HT       0.417000       1.00800           0
     65347 W2       21795    TIP3     OH2      OT      -0.834000       15.9994           0
     65348 W2       21795    TIP3     H1       HT       0.417000       1.00800           0
     65349 W2       21795    TIP3     H2       HT       0.417000       1.00800           0
     65350 W2       21796    TIP3     OH2      OT      -0.834000       15.9994           0
     65351 W2       21796    TIP3     H1       HT       0.417000       1.00800           0
     65352 W2       21796    TIP3     H2       HT       0.417000       1.00800           0
     65353 W2       21797    TIP3     OH2      OT      -0.834000       15.9994           0
     65354 W2       21797    TIP3     H1       HT       0.417000       1.00800           0
     65355 W2       21797    TIP3     H2       HT       0.417000       1.00800           0
     65356 W2       21798    TIP3     OH2      OT      -0.834000       15.9994           0
     65357 W2       21798    TIP3     H1       HT       0.417000       1.00800           0
     65358 W2       21798    TIP3     H2       HT       0.417000       1.00800           0
     65359 W2       21799    TIP3     OH2      OT      -0.834000       15.9994           0
     65360 W2       21799    TIP3     H1       HT       0.417000       1.00800           0
     65361 W2       21799    TIP3     H2       HT       0.417000       1.00800           0
     65362 W2       21801    TIP3     OH2      OT      -0.834000       15.9994           0
     65363 W2       21801    TIP3     H1       HT       0.417000       1.00800           0
     65364 W2       21801    TIP3     H2       HT       0.417000       1.00800           0
     65365 W2       21802    TIP3     OH2      OT      -0.834000       15.9994           0
     65366 W2       21802    TIP3     H1       HT       0.417000       1.00800           0
     65367 W2       21802    TIP3     H2       HT       0.417000       1.00800           0
     65368 W2       21803    TIP3     OH2      OT      -0.834000       15.9994           0
     65369 W2       21803    TIP3     H1       HT       0.417000       1.00800           0
     65370 W2       21803    TIP3     H2       HT       0.417000       1.00800           0
     65371 W2       21804    TIP3     OH2      OT      -0.834000       15.9994           0
     65372 W2       21804    TIP3     H1       HT       0.417000       1.00800           0
     65373 W2       21804    TIP3     H2       HT       0.417000       1.00800           0
     65374 W2       21805    TIP3     OH2      OT      -0.834000       15.9994           0
     65375 W2       21805    TIP3     H1       HT       0.417000       1.00800           0
     65376 W2       21805    TIP3     H2       HT       0.417000       1.00800           0
     65377 W2       21806    TIP3     OH2      OT      -0.834000       15.9994           0
     65378 W2       21806    TIP3     H1       HT       0.417000       1.00800           0
     65379 W2       21806    TIP3     H2       HT       0.417000       1.00800           0
     65380 W2       21807    TIP3     OH2      OT      -0.834000       15.9994           0
     65381 W2       21807    TIP3     H1       HT       0.417000       1.00800           0
     65382 W2       21807    TIP3     H2       HT       0.417000       1.00800           0
     65383 W2       21808    TIP3     OH2      OT      -0.834000       15.9994           0
     65384 W2       21808    TIP3     H1       HT       0.417000       1.00800           0
     65385 W2       21808    TIP3     H2       HT       0.417000       1.00800           0
     65386 W2       21809    TIP3     OH2      OT      -0.834000       15.9994           0
     65387 W2       21809    TIP3     H1       HT       0.417000       1.00800           0
     65388 W2       21809    TIP3     H2       HT       0.417000       1.00800           0
     65389 W2       21810    TIP3     OH2      OT      -0.834000       15.9994           0
     65390 W2       21810    TIP3     H1       HT       0.417000       1.00800           0
     65391 W2       21810    TIP3     H2       HT       0.417000       1.00800           0
     65392 W2       21811    TIP3     OH2      OT      -0.834000       15.9994           0
     65393 W2       21811    TIP3     H1       HT       0.417000       1.00800           0
     65394 W2       21811    TIP3     H2       HT       0.417000       1.00800           0
     65395 W2       21814    TIP3     OH2      OT      -0.834000       15.9994           0
     65396 W2       21814    TIP3     H1       HT       0.417000       1.00800           0
     65397 W2       21814    TIP3     H2       HT       0.417000       1.00800           0
     65398 W2       21815    TIP3     OH2      OT      -0.834000       15.9994           0
     65399 W2       21815    TIP3     H1       HT       0.417000       1.00800           0
     65400 W2       21815    TIP3     H2       HT       0.417000       1.00800           0
     65401 W2       21816    TIP3     OH2      OT      -0.834000       15.9994           0
     65402 W2       21816    TIP3     H1       HT       0.417000       1.00800           0
     65403 W2       21816    TIP3     H2       HT       0.417000       1.00800           0
     65404 W2       21817    TIP3     OH2      OT      -0.834000       15.9994           0
     65405 W2       21817    TIP3     H1       HT       0.417000       1.00800           0
     65406 W2       21817    TIP3     H2       HT       0.417000       1.00800           0
     65407 W2       21818    TIP3     OH2      OT      -0.834000       15.9994           0
     65408 W2       21818    TIP3     H1       HT       0.417000       1.00800           0
     65409 W2       21818    TIP3     H2       HT       0.417000       1.00800           0
     65410 W2       21819    TIP3     OH2      OT      -0.834000       15.9994           0
     65411 W2       21819    TIP3     H1       HT       0.417000       1.00800           0
     65412 W2       21819    TIP3     H2       HT       0.417000       1.00800           0
     65413 W2       21821    TIP3     OH2      OT      -0.834000       15.9994           0
     65414 W2       21821    TIP3     H1       HT       0.417000       1.00800           0
     65415 W2       21821    TIP3     H2       HT       0.417000       1.00800           0
     65416 W2       21822    TIP3     OH2      OT      -0.834000       15.9994           0
     65417 W2       21822    TIP3     H1       HT       0.417000       1.00800           0
     65418 W2       21822    TIP3     H2       HT       0.417000       1.00800           0
     65419 W2       21823    TIP3     OH2      OT      -0.834000       15.9994           0
     65420 W2       21823    TIP3     H1       HT       0.417000       1.00800           0
     65421 W2       21823    TIP3     H2       HT       0.417000       1.00800           0
     65422 W2       21827    TIP3     OH2      OT      -0.834000       15.9994           0
     65423 W2       21827    TIP3     H1       HT       0.417000       1.00800           0
     65424 W2       21827    TIP3     H2       HT       0.417000       1.00800           0
     65425 W2       21829    TIP3     OH2      OT      -0.834000       15.9994           0
     65426 W2       21829    TIP3     H1       HT       0.417000       1.00800           0
     65427 W2       21829    TIP3     H2       HT       0.417000       1.00800           0
     65428 W2       21830    TIP3     OH2      OT      -0.834000       15.9994           0
     65429 W2       21830    TIP3     H1       HT       0.417000       1.00800           0
     65430 W2       21830    TIP3     H2       HT       0.417000       1.00800           0
     65431 W2       21831    TIP3     OH2      OT      -0.834000       15.9994           0
     65432 W2       21831    TIP3     H1       HT       0.417000       1.00800           0
     65433 W2       21831    TIP3     H2       HT       0.417000       1.00800           0
     65434 W2       21832    TIP3     OH2      OT      -0.834000       15.9994           0
     65435 W2       21832    TIP3     H1       HT       0.417000       1.00800           0
     65436 W2       21832    TIP3     H2       HT       0.417000       1.00800           0
     65437 W2       21833    TIP3     OH2      OT      -0.834000       15.9994           0
     65438 W2       21833    TIP3     H1       HT       0.417000       1.00800           0
     65439 W2       21833    TIP3     H2       HT       0.417000       1.00800           0
     65440 W2       21834    TIP3     OH2      OT      -0.834000       15.9994           0
     65441 W2       21834    TIP3     H1       HT       0.417000       1.00800           0
     65442 W2       21834    TIP3     H2       HT       0.417000       1.00800           0
     65443 W2       21835    TIP3     OH2      OT      -0.834000       15.9994           0
     65444 W2       21835    TIP3     H1       HT       0.417000       1.00800           0
     65445 W2       21835    TIP3     H2       HT       0.417000       1.00800           0
     65446 W2       21836    TIP3     OH2      OT      -0.834000       15.9994           0
     65447 W2       21836    TIP3     H1       HT       0.417000       1.00800           0
     65448 W2       21836    TIP3     H2       HT       0.417000       1.00800           0
     65449 W2       21837    TIP3     OH2      OT      -0.834000       15.9994           0
     65450 W2       21837    TIP3     H1       HT       0.417000       1.00800           0
     65451 W2       21837    TIP3     H2       HT       0.417000       1.00800           0
     65452 W2       21839    TIP3     OH2      OT      -0.834000       15.9994           0
     65453 W2       21839    TIP3     H1       HT       0.417000       1.00800           0
     65454 W2       21839    TIP3     H2       HT       0.417000       1.00800           0
     65455 W2       21841    TIP3     OH2      OT      -0.834000       15.9994           0
     65456 W2       21841    TIP3     H1       HT       0.417000       1.00800           0
     65457 W2       21841    TIP3     H2       HT       0.417000       1.00800           0
     65458 W2       21842    TIP3     OH2      OT      -0.834000       15.9994           0
     65459 W2       21842    TIP3     H1       HT       0.417000       1.00800           0
     65460 W2       21842    TIP3     H2       HT       0.417000       1.00800           0
     65461 W2       21843    TIP3     OH2      OT      -0.834000       15.9994           0
     65462 W2       21843    TIP3     H1       HT       0.417000       1.00800           0
     65463 W2       21843    TIP3     H2       HT       0.417000       1.00800           0
     65464 W2       21844    TIP3     OH2      OT      -0.834000       15.9994           0
     65465 W2       21844    TIP3     H1       HT       0.417000       1.00800           0
     65466 W2       21844    TIP3     H2       HT       0.417000       1.00800           0
     65467 W2       21845    TIP3     OH2      OT      -0.834000       15.9994           0
     65468 W2       21845    TIP3     H1       HT       0.417000       1.00800           0
     65469 W2       21845    TIP3     H2       HT       0.417000       1.00800           0
     65470 W2       21846    TIP3     OH2      OT      -0.834000       15.9994           0
     65471 W2       21846    TIP3     H1       HT       0.417000       1.00800           0
     65472 W2       21846    TIP3     H2       HT       0.417000       1.00800           0
     65473 W2       21847    TIP3     OH2      OT      -0.834000       15.9994           0
     65474 W2       21847    TIP3     H1       HT       0.417000       1.00800           0
     65475 W2       21847    TIP3     H2       HT       0.417000       1.00800           0
     65476 W2       21848    TIP3     OH2      OT      -0.834000       15.9994           0
     65477 W2       21848    TIP3     H1       HT       0.417000       1.00800           0
     65478 W2       21848    TIP3     H2       HT       0.417000       1.00800           0
     65479 W2       21849    TIP3     OH2      OT      -0.834000       15.9994           0
     65480 W2       21849    TIP3     H1       HT       0.417000       1.00800           0
     65481 W2       21849    TIP3     H2       HT       0.417000       1.00800           0
     65482 W2       21851    TIP3     OH2      OT      -0.834000       15.9994           0
     65483 W2       21851    TIP3     H1       HT       0.417000       1.00800           0
     65484 W2       21851    TIP3     H2       HT       0.417000       1.00800           0
     65485 W2       21852    TIP3     OH2      OT      -0.834000       15.9994           0
     65486 W2       21852    TIP3     H1       HT       0.417000       1.00800           0
     65487 W2       21852    TIP3     H2       HT       0.417000       1.00800           0
     65488 W2       21853    TIP3     OH2      OT      -0.834000       15.9994           0
     65489 W2       21853    TIP3     H1       HT       0.417000       1.00800           0
     65490 W2       21853    TIP3     H2       HT       0.417000       1.00800           0
     65491 W2       21855    TIP3     OH2      OT      -0.834000       15.9994           0
     65492 W2       21855    TIP3     H1       HT       0.417000       1.00800           0
     65493 W2       21855    TIP3     H2       HT       0.417000       1.00800           0
     65494 W2       21856    TIP3     OH2      OT      -0.834000       15.9994           0
     65495 W2       21856    TIP3     H1       HT       0.417000       1.00800           0
     65496 W2       21856    TIP3     H2       HT       0.417000       1.00800           0
     65497 W2       21857    TIP3     OH2      OT      -0.834000       15.9994           0
     65498 W2       21857    TIP3     H1       HT       0.417000       1.00800           0
     65499 W2       21857    TIP3     H2       HT       0.417000       1.00800           0
     65500 W2       21858    TIP3     OH2      OT      -0.834000       15.9994           0
     65501 W2       21858    TIP3     H1       HT       0.417000       1.00800           0
     65502 W2       21858    TIP3     H2       HT       0.417000       1.00800           0
     65503 W2       21859    TIP3     OH2      OT      -0.834000       15.9994           0
     65504 W2       21859    TIP3     H1       HT       0.417000       1.00800           0
     65505 W2       21859    TIP3     H2       HT       0.417000       1.00800           0
     65506 W2       21860    TIP3     OH2      OT      -0.834000       15.9994           0
     65507 W2       21860    TIP3     H1       HT       0.417000       1.00800           0
     65508 W2       21860    TIP3     H2       HT       0.417000       1.00800           0
     65509 W2       21863    TIP3     OH2      OT      -0.834000       15.9994           0
     65510 W2       21863    TIP3     H1       HT       0.417000       1.00800           0
     65511 W2       21863    TIP3     H2       HT       0.417000       1.00800           0
     65512 W2       21865    TIP3     OH2      OT      -0.834000       15.9994           0
     65513 W2       21865    TIP3     H1       HT       0.417000       1.00800           0
     65514 W2       21865    TIP3     H2       HT       0.417000       1.00800           0
     65515 W2       21867    TIP3     OH2      OT      -0.834000       15.9994           0
     65516 W2       21867    TIP3     H1       HT       0.417000       1.00800           0
     65517 W2       21867    TIP3     H2       HT       0.417000       1.00800           0
     65518 W2       21869    TIP3     OH2      OT      -0.834000       15.9994           0
     65519 W2       21869    TIP3     H1       HT       0.417000       1.00800           0
     65520 W2       21869    TIP3     H2       HT       0.417000       1.00800           0
     65521 W2       21872    TIP3     OH2      OT      -0.834000       15.9994           0
     65522 W2       21872    TIP3     H1       HT       0.417000       1.00800           0
     65523 W2       21872    TIP3     H2       HT       0.417000       1.00800           0
     65524 W2       21874    TIP3     OH2      OT      -0.834000       15.9994           0
     65525 W2       21874    TIP3     H1       HT       0.417000       1.00800           0
     65526 W2       21874    TIP3     H2       HT       0.417000       1.00800           0
     65527 W2       21876    TIP3     OH2      OT      -0.834000       15.9994           0
     65528 W2       21876    TIP3     H1       HT       0.417000       1.00800           0
     65529 W2       21876    TIP3     H2       HT       0.417000       1.00800           0
     65530 W2       21878    TIP3     OH2      OT      -0.834000       15.9994           0
     65531 W2       21878    TIP3     H1       HT       0.417000       1.00800           0
     65532 W2       21878    TIP3     H2       HT       0.417000       1.00800           0
     65533 W2       21890    TIP3     OH2      OT      -0.834000       15.9994           0
     65534 W2       21890    TIP3     H1       HT       0.417000       1.00800           0
     65535 W2       21890    TIP3     H2       HT       0.417000       1.00800           0
     65536 W2       21891    TIP3     OH2      OT      -0.834000       15.9994           0
     65537 W2       21891    TIP3     H1       HT       0.417000       1.00800           0
     65538 W2       21891    TIP3     H2       HT       0.417000       1.00800           0
     65539 W2       21892    TIP3     OH2      OT      -0.834000       15.9994           0
     65540 W2       21892    TIP3     H1       HT       0.417000       1.00800           0
     65541 W2       21892    TIP3     H2       HT       0.417000       1.00800           0
     65542 W2       21893    TIP3     OH2      OT      -0.834000       15.9994           0
     65543 W2       21893    TIP3     H1       HT       0.417000       1.00800           0
     65544 W2       21893    TIP3     H2       HT       0.417000       1.00800           0
     65545 W2       21894    TIP3     OH2      OT      -0.834000       15.9994           0
     65546 W2       21894    TIP3     H1       HT       0.417000       1.00800           0
     65547 W2       21894    TIP3     H2       HT       0.417000       1.00800           0
     65548 W2       21897    TIP3     OH2      OT      -0.834000       15.9994           0
     65549 W2       21897    TIP3     H1       HT       0.417000       1.00800           0
     65550 W2       21897    TIP3     H2       HT       0.417000       1.00800           0
     65551 W2       21898    TIP3     OH2      OT      -0.834000       15.9994           0
     65552 W2       21898    TIP3     H1       HT       0.417000       1.00800           0
     65553 W2       21898    TIP3     H2       HT       0.417000       1.00800           0
     65554 W2       21899    TIP3     OH2      OT      -0.834000       15.9994           0
     65555 W2       21899    TIP3     H1       HT       0.417000       1.00800           0
     65556 W2       21899    TIP3     H2       HT       0.417000       1.00800           0
     65557 W2       21900    TIP3     OH2      OT      -0.834000       15.9994           0
     65558 W2       21900    TIP3     H1       HT       0.417000       1.00800           0
     65559 W2       21900    TIP3     H2       HT       0.417000       1.00800           0
     65560 W2       21901    TIP3     OH2      OT      -0.834000       15.9994           0
     65561 W2       21901    TIP3     H1       HT       0.417000       1.00800           0
     65562 W2       21901    TIP3     H2       HT       0.417000       1.00800           0
     65563 W2       21902    TIP3     OH2      OT      -0.834000       15.9994           0
     65564 W2       21902    TIP3     H1       HT       0.417000       1.00800           0
     65565 W2       21902    TIP3     H2       HT       0.417000       1.00800           0
     65566 W2       21903    TIP3     OH2      OT      -0.834000       15.9994           0
     65567 W2       21903    TIP3     H1       HT       0.417000       1.00800           0
     65568 W2       21903    TIP3     H2       HT       0.417000       1.00800           0
     65569 W2       21904    TIP3     OH2      OT      -0.834000       15.9994           0
     65570 W2       21904    TIP3     H1       HT       0.417000       1.00800           0
     65571 W2       21904    TIP3     H2       HT       0.417000       1.00800           0
     65572 W2       21907    TIP3     OH2      OT      -0.834000       15.9994           0
     65573 W2       21907    TIP3     H1       HT       0.417000       1.00800           0
     65574 W2       21907    TIP3     H2       HT       0.417000       1.00800           0
     65575 W2       21908    TIP3     OH2      OT      -0.834000       15.9994           0
     65576 W2       21908    TIP3     H1       HT       0.417000       1.00800           0
     65577 W2       21908    TIP3     H2       HT       0.417000       1.00800           0
     65578 W2       21909    TIP3     OH2      OT      -0.834000       15.9994           0
     65579 W2       21909    TIP3     H1       HT       0.417000       1.00800           0
     65580 W2       21909    TIP3     H2       HT       0.417000       1.00800           0
     65581 W2       21910    TIP3     OH2      OT      -0.834000       15.9994           0
     65582 W2       21910    TIP3     H1       HT       0.417000       1.00800           0
     65583 W2       21910    TIP3     H2       HT       0.417000       1.00800           0
     65584 W2       21913    TIP3     OH2      OT      -0.834000       15.9994           0
     65585 W2       21913    TIP3     H1       HT       0.417000       1.00800           0
     65586 W2       21913    TIP3     H2       HT       0.417000       1.00800           0
     65587 W2       21914    TIP3     OH2      OT      -0.834000       15.9994           0
     65588 W2       21914    TIP3     H1       HT       0.417000       1.00800           0
     65589 W2       21914    TIP3     H2       HT       0.417000       1.00800           0
     65590 W2       21915    TIP3     OH2      OT      -0.834000       15.9994           0
     65591 W2       21915    TIP3     H1       HT       0.417000       1.00800           0
     65592 W2       21915    TIP3     H2       HT       0.417000       1.00800           0
     65593 W2       21917    TIP3     OH2      OT      -0.834000       15.9994           0
     65594 W2       21917    TIP3     H1       HT       0.417000       1.00800           0
     65595 W2       21917    TIP3     H2       HT       0.417000       1.00800           0
     65596 W2       21918    TIP3     OH2      OT      -0.834000       15.9994           0
     65597 W2       21918    TIP3     H1       HT       0.417000       1.00800           0
     65598 W2       21918    TIP3     H2       HT       0.417000       1.00800           0
     65599 W2       21919    TIP3     OH2      OT      -0.834000       15.9994           0
     65600 W2       21919    TIP3     H1       HT       0.417000       1.00800           0
     65601 W2       21919    TIP3     H2       HT       0.417000       1.00800           0
     65602 W2       21920    TIP3     OH2      OT      -0.834000       15.9994           0
     65603 W2       21920    TIP3     H1       HT       0.417000       1.00800           0
     65604 W2       21920    TIP3     H2       HT       0.417000       1.00800           0
     65605 W2       21922    TIP3     OH2      OT      -0.834000       15.9994           0
     65606 W2       21922    TIP3     H1       HT       0.417000       1.00800           0
     65607 W2       21922    TIP3     H2       HT       0.417000       1.00800           0
     65608 W2       21926    TIP3     OH2      OT      -0.834000       15.9994           0
     65609 W2       21926    TIP3     H1       HT       0.417000       1.00800           0
     65610 W2       21926    TIP3     H2       HT       0.417000       1.00800           0
     65611 W2       21927    TIP3     OH2      OT      -0.834000       15.9994           0
     65612 W2       21927    TIP3     H1       HT       0.417000       1.00800           0
     65613 W2       21927    TIP3     H2       HT       0.417000       1.00800           0
     65614 W2       21928    TIP3     OH2      OT      -0.834000       15.9994           0
     65615 W2       21928    TIP3     H1       HT       0.417000       1.00800           0
     65616 W2       21928    TIP3     H2       HT       0.417000       1.00800           0
     65617 W2       21929    TIP3     OH2      OT      -0.834000       15.9994           0
     65618 W2       21929    TIP3     H1       HT       0.417000       1.00800           0
     65619 W2       21929    TIP3     H2       HT       0.417000       1.00800           0
     65620 W2       21930    TIP3     OH2      OT      -0.834000       15.9994           0
     65621 W2       21930    TIP3     H1       HT       0.417000       1.00800           0
     65622 W2       21930    TIP3     H2       HT       0.417000       1.00800           0
     65623 W2       21931    TIP3     OH2      OT      -0.834000       15.9994           0
     65624 W2       21931    TIP3     H1       HT       0.417000       1.00800           0
     65625 W2       21931    TIP3     H2       HT       0.417000       1.00800           0
     65626 W2       21932    TIP3     OH2      OT      -0.834000       15.9994           0
     65627 W2       21932    TIP3     H1       HT       0.417000       1.00800           0
     65628 W2       21932    TIP3     H2       HT       0.417000       1.00800           0
     65629 W2       21933    TIP3     OH2      OT      -0.834000       15.9994           0
     65630 W2       21933    TIP3     H1       HT       0.417000       1.00800           0
     65631 W2       21933    TIP3     H2       HT       0.417000       1.00800           0
     65632 W2       21934    TIP3     OH2      OT      -0.834000       15.9994           0
     65633 W2       21934    TIP3     H1       HT       0.417000       1.00800           0
     65634 W2       21934    TIP3     H2       HT       0.417000       1.00800           0
     65635 W2       21935    TIP3     OH2      OT      -0.834000       15.9994           0
     65636 W2       21935    TIP3     H1       HT       0.417000       1.00800           0
     65637 W2       21935    TIP3     H2       HT       0.417000       1.00800           0
     65638 W2       21936    TIP3     OH2      OT      -0.834000       15.9994           0
     65639 W2       21936    TIP3     H1       HT       0.417000       1.00800           0
     65640 W2       21936    TIP3     H2       HT       0.417000       1.00800           0
     65641 W2       21937    TIP3     OH2      OT      -0.834000       15.9994           0
     65642 W2       21937    TIP3     H1       HT       0.417000       1.00800           0
     65643 W2       21937    TIP3     H2       HT       0.417000       1.00800           0
     65644 W2       21938    TIP3     OH2      OT      -0.834000       15.9994           0
     65645 W2       21938    TIP3     H1       HT       0.417000       1.00800           0
     65646 W2       21938    TIP3     H2       HT       0.417000       1.00800           0
     65647 W2       21939    TIP3     OH2      OT      -0.834000       15.9994           0
     65648 W2       21939    TIP3     H1       HT       0.417000       1.00800           0
     65649 W2       21939    TIP3     H2       HT       0.417000       1.00800           0
     65650 W2       21940    TIP3     OH2      OT      -0.834000       15.9994           0
     65651 W2       21940    TIP3     H1       HT       0.417000       1.00800           0
     65652 W2       21940    TIP3     H2       HT       0.417000       1.00800           0
     65653 W2       21941    TIP3     OH2      OT      -0.834000       15.9994           0
     65654 W2       21941    TIP3     H1       HT       0.417000       1.00800           0
     65655 W2       21941    TIP3     H2       HT       0.417000       1.00800           0
     65656 W2       21942    TIP3     OH2      OT      -0.834000       15.9994           0
     65657 W2       21942    TIP3     H1       HT       0.417000       1.00800           0
     65658 W2       21942    TIP3     H2       HT       0.417000       1.00800           0
     65659 W2       21943    TIP3     OH2      OT      -0.834000       15.9994           0
     65660 W2       21943    TIP3     H1       HT       0.417000       1.00800           0
     65661 W2       21943    TIP3     H2       HT       0.417000       1.00800           0
     65662 W2       21944    TIP3     OH2      OT      -0.834000       15.9994           0
     65663 W2       21944    TIP3     H1       HT       0.417000       1.00800           0
     65664 W2       21944    TIP3     H2       HT       0.417000       1.00800           0
     65665 W2       21945    TIP3     OH2      OT      -0.834000       15.9994           0
     65666 W2       21945    TIP3     H1       HT       0.417000       1.00800           0
     65667 W2       21945    TIP3     H2       HT       0.417000       1.00800           0
     65668 W2       21946    TIP3     OH2      OT      -0.834000       15.9994           0
     65669 W2       21946    TIP3     H1       HT       0.417000       1.00800           0
     65670 W2       21946    TIP3     H2       HT       0.417000       1.00800           0
     65671 W2       21949    TIP3     OH2      OT      -0.834000       15.9994           0
     65672 W2       21949    TIP3     H1       HT       0.417000       1.00800           0
     65673 W2       21949    TIP3     H2       HT       0.417000       1.00800           0
     65674 W2       21952    TIP3     OH2      OT      -0.834000       15.9994           0
     65675 W2       21952    TIP3     H1       HT       0.417000       1.00800           0
     65676 W2       21952    TIP3     H2       HT       0.417000       1.00800           0
     65677 W2       21953    TIP3     OH2      OT      -0.834000       15.9994           0
     65678 W2       21953    TIP3     H1       HT       0.417000       1.00800           0
     65679 W2       21953    TIP3     H2       HT       0.417000       1.00800           0
     65680 W2       21954    TIP3     OH2      OT      -0.834000       15.9994           0
     65681 W2       21954    TIP3     H1       HT       0.417000       1.00800           0
     65682 W2       21954    TIP3     H2       HT       0.417000       1.00800           0
     65683 W2       21955    TIP3     OH2      OT      -0.834000       15.9994           0
     65684 W2       21955    TIP3     H1       HT       0.417000       1.00800           0
     65685 W2       21955    TIP3     H2       HT       0.417000       1.00800           0
     65686 W2       21956    TIP3     OH2      OT      -0.834000       15.9994           0
     65687 W2       21956    TIP3     H1       HT       0.417000       1.00800           0
     65688 W2       21956    TIP3     H2       HT       0.417000       1.00800           0
     65689 W2       21957    TIP3     OH2      OT      -0.834000       15.9994           0
     65690 W2       21957    TIP3     H1       HT       0.417000       1.00800           0
     65691 W2       21957    TIP3     H2       HT       0.417000       1.00800           0
     65692 W2       21958    TIP3     OH2      OT      -0.834000       15.9994           0
     65693 W2       21958    TIP3     H1       HT       0.417000       1.00800           0
     65694 W2       21958    TIP3     H2       HT       0.417000       1.00800           0
     65695 W2       21959    TIP3     OH2      OT      -0.834000       15.9994           0
     65696 W2       21959    TIP3     H1       HT       0.417000       1.00800           0
     65697 W2       21959    TIP3     H2       HT       0.417000       1.00800           0
     65698 W2       21960    TIP3     OH2      OT      -0.834000       15.9994           0
     65699 W2       21960    TIP3     H1       HT       0.417000       1.00800           0
     65700 W2       21960    TIP3     H2       HT       0.417000       1.00800           0
     65701 W2       21961    TIP3     OH2      OT      -0.834000       15.9994           0
     65702 W2       21961    TIP3     H1       HT       0.417000       1.00800           0
     65703 W2       21961    TIP3     H2       HT       0.417000       1.00800           0
     65704 W2       21962    TIP3     OH2      OT      -0.834000       15.9994           0
     65705 W2       21962    TIP3     H1       HT       0.417000       1.00800           0
     65706 W2       21962    TIP3     H2       HT       0.417000       1.00800           0
     65707 W2       21963    TIP3     OH2      OT      -0.834000       15.9994           0
     65708 W2       21963    TIP3     H1       HT       0.417000       1.00800           0
     65709 W2       21963    TIP3     H2       HT       0.417000       1.00800           0
     65710 W2       21964    TIP3     OH2      OT      -0.834000       15.9994           0
     65711 W2       21964    TIP3     H1       HT       0.417000       1.00800           0
     65712 W2       21964    TIP3     H2       HT       0.417000       1.00800           0
     65713 W2       21965    TIP3     OH2      OT      -0.834000       15.9994           0
     65714 W2       21965    TIP3     H1       HT       0.417000       1.00800           0
     65715 W2       21965    TIP3     H2       HT       0.417000       1.00800           0
     65716 W2       21966    TIP3     OH2      OT      -0.834000       15.9994           0
     65717 W2       21966    TIP3     H1       HT       0.417000       1.00800           0
     65718 W2       21966    TIP3     H2       HT       0.417000       1.00800           0
     65719 W2       21968    TIP3     OH2      OT      -0.834000       15.9994           0
     65720 W2       21968    TIP3     H1       HT       0.417000       1.00800           0
     65721 W2       21968    TIP3     H2       HT       0.417000       1.00800           0
     65722 W2       21969    TIP3     OH2      OT      -0.834000       15.9994           0
     65723 W2       21969    TIP3     H1       HT       0.417000       1.00800           0
     65724 W2       21969    TIP3     H2       HT       0.417000       1.00800           0
     65725 W2       21970    TIP3     OH2      OT      -0.834000       15.9994           0
     65726 W2       21970    TIP3     H1       HT       0.417000       1.00800           0
     65727 W2       21970    TIP3     H2       HT       0.417000       1.00800           0
     65728 W2       21971    TIP3     OH2      OT      -0.834000       15.9994           0
     65729 W2       21971    TIP3     H1       HT       0.417000       1.00800           0
     65730 W2       21971    TIP3     H2       HT       0.417000       1.00800           0
     65731 W2       21972    TIP3     OH2      OT      -0.834000       15.9994           0
     65732 W2       21972    TIP3     H1       HT       0.417000       1.00800           0
     65733 W2       21972    TIP3     H2       HT       0.417000       1.00800           0
     65734 W2       21973    TIP3     OH2      OT      -0.834000       15.9994           0
     65735 W2       21973    TIP3     H1       HT       0.417000       1.00800           0
     65736 W2       21973    TIP3     H2       HT       0.417000       1.00800           0
     65737 W2       21974    TIP3     OH2      OT      -0.834000       15.9994           0
     65738 W2       21974    TIP3     H1       HT       0.417000       1.00800           0
     65739 W2       21974    TIP3     H2       HT       0.417000       1.00800           0
     65740 W2       21975    TIP3     OH2      OT      -0.834000       15.9994           0
     65741 W2       21975    TIP3     H1       HT       0.417000       1.00800           0
     65742 W2       21975    TIP3     H2       HT       0.417000       1.00800           0
     65743 W2       21976    TIP3     OH2      OT      -0.834000       15.9994           0
     65744 W2       21976    TIP3     H1       HT       0.417000       1.00800           0
     65745 W2       21976    TIP3     H2       HT       0.417000       1.00800           0
     65746 W2       21977    TIP3     OH2      OT      -0.834000       15.9994           0
     65747 W2       21977    TIP3     H1       HT       0.417000       1.00800           0
     65748 W2       21977    TIP3     H2       HT       0.417000       1.00800           0
     65749 W2       21978    TIP3     OH2      OT      -0.834000       15.9994           0
     65750 W2       21978    TIP3     H1       HT       0.417000       1.00800           0
     65751 W2       21978    TIP3     H2       HT       0.417000       1.00800           0
     65752 W2       21979    TIP3     OH2      OT      -0.834000       15.9994           0
     65753 W2       21979    TIP3     H1       HT       0.417000       1.00800           0
     65754 W2       21979    TIP3     H2       HT       0.417000       1.00800           0
     65755 W2       21981    TIP3     OH2      OT      -0.834000       15.9994           0
     65756 W2       21981    TIP3     H1       HT       0.417000       1.00800           0
     65757 W2       21981    TIP3     H2       HT       0.417000       1.00800           0
     65758 W2       21982    TIP3     OH2      OT      -0.834000       15.9994           0
     65759 W2       21982    TIP3     H1       HT       0.417000       1.00800           0
     65760 W2       21982    TIP3     H2       HT       0.417000       1.00800           0
     65761 W2       21983    TIP3     OH2      OT      -0.834000       15.9994           0
     65762 W2       21983    TIP3     H1       HT       0.417000       1.00800           0
     65763 W2       21983    TIP3     H2       HT       0.417000       1.00800           0
     65764 W2       21984    TIP3     OH2      OT      -0.834000       15.9994           0
     65765 W2       21984    TIP3     H1       HT       0.417000       1.00800           0
     65766 W2       21984    TIP3     H2       HT       0.417000       1.00800           0
     65767 W2       21986    TIP3     OH2      OT      -0.834000       15.9994           0
     65768 W2       21986    TIP3     H1       HT       0.417000       1.00800           0
     65769 W2       21986    TIP3     H2       HT       0.417000       1.00800           0
     65770 W2       21987    TIP3     OH2      OT      -0.834000       15.9994           0
     65771 W2       21987    TIP3     H1       HT       0.417000       1.00800           0
     65772 W2       21987    TIP3     H2       HT       0.417000       1.00800           0
     65773 W2       21988    TIP3     OH2      OT      -0.834000       15.9994           0
     65774 W2       21988    TIP3     H1       HT       0.417000       1.00800           0
     65775 W2       21988    TIP3     H2       HT       0.417000       1.00800           0
     65776 W2       21989    TIP3     OH2      OT      -0.834000       15.9994           0
     65777 W2       21989    TIP3     H1       HT       0.417000       1.00800           0
     65778 W2       21989    TIP3     H2       HT       0.417000       1.00800           0
     65779 W2       21991    TIP3     OH2      OT      -0.834000       15.9994           0
     65780 W2       21991    TIP3     H1       HT       0.417000       1.00800           0
     65781 W2       21991    TIP3     H2       HT       0.417000       1.00800           0
     65782 W2       21993    TIP3     OH2      OT      -0.834000       15.9994           0
     65783 W2       21993    TIP3     H1       HT       0.417000       1.00800           0
     65784 W2       21993    TIP3     H2       HT       0.417000       1.00800           0
     65785 W2       21995    TIP3     OH2      OT      -0.834000       15.9994           0
     65786 W2       21995    TIP3     H1       HT       0.417000       1.00800           0
     65787 W2       21995    TIP3     H2       HT       0.417000       1.00800           0
     65788 W2       21996    TIP3     OH2      OT      -0.834000       15.9994           0
     65789 W2       21996    TIP3     H1       HT       0.417000       1.00800           0
     65790 W2       21996    TIP3     H2       HT       0.417000       1.00800           0
     65791 W2       21997    TIP3     OH2      OT      -0.834000       15.9994           0
     65792 W2       21997    TIP3     H1       HT       0.417000       1.00800           0
     65793 W2       21997    TIP3     H2       HT       0.417000       1.00800           0
     65794 W2       21998    TIP3     OH2      OT      -0.834000       15.9994           0
     65795 W2       21998    TIP3     H1       HT       0.417000       1.00800           0
     65796 W2       21998    TIP3     H2       HT       0.417000       1.00800           0
     65797 W2       21999    TIP3     OH2      OT      -0.834000       15.9994           0
     65798 W2       21999    TIP3     H1       HT       0.417000       1.00800           0
     65799 W2       21999    TIP3     H2       HT       0.417000       1.00800           0
     65800 W2       22002    TIP3     OH2      OT      -0.834000       15.9994           0
     65801 W2       22002    TIP3     H1       HT       0.417000       1.00800           0
     65802 W2       22002    TIP3     H2       HT       0.417000       1.00800           0
     65803 W2       22003    TIP3     OH2      OT      -0.834000       15.9994           0
     65804 W2       22003    TIP3     H1       HT       0.417000       1.00800           0
     65805 W2       22003    TIP3     H2       HT       0.417000       1.00800           0
     65806 W2       22004    TIP3     OH2      OT      -0.834000       15.9994           0
     65807 W2       22004    TIP3     H1       HT       0.417000       1.00800           0
     65808 W2       22004    TIP3     H2       HT       0.417000       1.00800           0
     65809 W2       22005    TIP3     OH2      OT      -0.834000       15.9994           0
     65810 W2       22005    TIP3     H1       HT       0.417000       1.00800           0
     65811 W2       22005    TIP3     H2       HT       0.417000       1.00800           0
     65812 W2       22008    TIP3     OH2      OT      -0.834000       15.9994           0
     65813 W2       22008    TIP3     H1       HT       0.417000       1.00800           0
     65814 W2       22008    TIP3     H2       HT       0.417000       1.00800           0
     65815 W2       22011    TIP3     OH2      OT      -0.834000       15.9994           0
     65816 W2       22011    TIP3     H1       HT       0.417000       1.00800           0
     65817 W2       22011    TIP3     H2       HT       0.417000       1.00800           0
     65818 W2       22012    TIP3     OH2      OT      -0.834000       15.9994           0
     65819 W2       22012    TIP3     H1       HT       0.417000       1.00800           0
     65820 W2       22012    TIP3     H2       HT       0.417000       1.00800           0
     65821 W2       22013    TIP3     OH2      OT      -0.834000       15.9994           0
     65822 W2       22013    TIP3     H1       HT       0.417000       1.00800           0
     65823 W2       22013    TIP3     H2       HT       0.417000       1.00800           0
     65824 W2       22014    TIP3     OH2      OT      -0.834000       15.9994           0
     65825 W2       22014    TIP3     H1       HT       0.417000       1.00800           0
     65826 W2       22014    TIP3     H2       HT       0.417000       1.00800           0
     65827 W2       22015    TIP3     OH2      OT      -0.834000       15.9994           0
     65828 W2       22015    TIP3     H1       HT       0.417000       1.00800           0
     65829 W2       22015    TIP3     H2       HT       0.417000       1.00800           0
     65830 W2       22017    TIP3     OH2      OT      -0.834000       15.9994           0
     65831 W2       22017    TIP3     H1       HT       0.417000       1.00800           0
     65832 W2       22017    TIP3     H2       HT       0.417000       1.00800           0
     65833 W2       22018    TIP3     OH2      OT      -0.834000       15.9994           0
     65834 W2       22018    TIP3     H1       HT       0.417000       1.00800           0
     65835 W2       22018    TIP3     H2       HT       0.417000       1.00800           0
     65836 W2       22019    TIP3     OH2      OT      -0.834000       15.9994           0
     65837 W2       22019    TIP3     H1       HT       0.417000       1.00800           0
     65838 W2       22019    TIP3     H2       HT       0.417000       1.00800           0
     65839 W2       22020    TIP3     OH2      OT      -0.834000       15.9994           0
     65840 W2       22020    TIP3     H1       HT       0.417000       1.00800           0
     65841 W2       22020    TIP3     H2       HT       0.417000       1.00800           0
     65842 W2       22021    TIP3     OH2      OT      -0.834000       15.9994           0
     65843 W2       22021    TIP3     H1       HT       0.417000       1.00800           0
     65844 W2       22021    TIP3     H2       HT       0.417000       1.00800           0
     65845 W2       22022    TIP3     OH2      OT      -0.834000       15.9994           0
     65846 W2       22022    TIP3     H1       HT       0.417000       1.00800           0
     65847 W2       22022    TIP3     H2       HT       0.417000       1.00800           0
     65848 W2       22023    TIP3     OH2      OT      -0.834000       15.9994           0
     65849 W2       22023    TIP3     H1       HT       0.417000       1.00800           0
     65850 W2       22023    TIP3     H2       HT       0.417000       1.00800           0
     65851 W2       22024    TIP3     OH2      OT      -0.834000       15.9994           0
     65852 W2       22024    TIP3     H1       HT       0.417000       1.00800           0
     65853 W2       22024    TIP3     H2       HT       0.417000       1.00800           0
     65854 W2       22025    TIP3     OH2      OT      -0.834000       15.9994           0
     65855 W2       22025    TIP3     H1       HT       0.417000       1.00800           0
     65856 W2       22025    TIP3     H2       HT       0.417000       1.00800           0
     65857 W2       22026    TIP3     OH2      OT      -0.834000       15.9994           0
     65858 W2       22026    TIP3     H1       HT       0.417000       1.00800           0
     65859 W2       22026    TIP3     H2       HT       0.417000       1.00800           0
     65860 W2       22027    TIP3     OH2      OT      -0.834000       15.9994           0
     65861 W2       22027    TIP3     H1       HT       0.417000       1.00800           0
     65862 W2       22027    TIP3     H2       HT       0.417000       1.00800           0
     65863 W2       22030    TIP3     OH2      OT      -0.834000       15.9994           0
     65864 W2       22030    TIP3     H1       HT       0.417000       1.00800           0
     65865 W2       22030    TIP3     H2       HT       0.417000       1.00800           0
     65866 W2       22031    TIP3     OH2      OT      -0.834000       15.9994           0
     65867 W2       22031    TIP3     H1       HT       0.417000       1.00800           0
     65868 W2       22031    TIP3     H2       HT       0.417000       1.00800           0
     65869 W2       22032    TIP3     OH2      OT      -0.834000       15.9994           0
     65870 W2       22032    TIP3     H1       HT       0.417000       1.00800           0
     65871 W2       22032    TIP3     H2       HT       0.417000       1.00800           0
     65872 W2       22033    TIP3     OH2      OT      -0.834000       15.9994           0
     65873 W2       22033    TIP3     H1       HT       0.417000       1.00800           0
     65874 W2       22033    TIP3     H2       HT       0.417000       1.00800           0
     65875 W2       22034    TIP3     OH2      OT      -0.834000       15.9994           0
     65876 W2       22034    TIP3     H1       HT       0.417000       1.00800           0
     65877 W2       22034    TIP3     H2       HT       0.417000       1.00800           0
     65878 W2       22035    TIP3     OH2      OT      -0.834000       15.9994           0
     65879 W2       22035    TIP3     H1       HT       0.417000       1.00800           0
     65880 W2       22035    TIP3     H2       HT       0.417000       1.00800           0
     65881 W2       22037    TIP3     OH2      OT      -0.834000       15.9994           0
     65882 W2       22037    TIP3     H1       HT       0.417000       1.00800           0
     65883 W2       22037    TIP3     H2       HT       0.417000       1.00800           0
     65884 W2       22038    TIP3     OH2      OT      -0.834000       15.9994           0
     65885 W2       22038    TIP3     H1       HT       0.417000       1.00800           0
     65886 W2       22038    TIP3     H2       HT       0.417000       1.00800           0
     65887 W2       22039    TIP3     OH2      OT      -0.834000       15.9994           0
     65888 W2       22039    TIP3     H1       HT       0.417000       1.00800           0
     65889 W2       22039    TIP3     H2       HT       0.417000       1.00800           0
     65890 W2       22043    TIP3     OH2      OT      -0.834000       15.9994           0
     65891 W2       22043    TIP3     H1       HT       0.417000       1.00800           0
     65892 W2       22043    TIP3     H2       HT       0.417000       1.00800           0
     65893 W2       22045    TIP3     OH2      OT      -0.834000       15.9994           0
     65894 W2       22045    TIP3     H1       HT       0.417000       1.00800           0
     65895 W2       22045    TIP3     H2       HT       0.417000       1.00800           0
     65896 W2       22046    TIP3     OH2      OT      -0.834000       15.9994           0
     65897 W2       22046    TIP3     H1       HT       0.417000       1.00800           0
     65898 W2       22046    TIP3     H2       HT       0.417000       1.00800           0
     65899 W2       22047    TIP3     OH2      OT      -0.834000       15.9994           0
     65900 W2       22047    TIP3     H1       HT       0.417000       1.00800           0
     65901 W2       22047    TIP3     H2       HT       0.417000       1.00800           0
     65902 W2       22048    TIP3     OH2      OT      -0.834000       15.9994           0
     65903 W2       22048    TIP3     H1       HT       0.417000       1.00800           0
     65904 W2       22048    TIP3     H2       HT       0.417000       1.00800           0
     65905 W2       22049    TIP3     OH2      OT      -0.834000       15.9994           0
     65906 W2       22049    TIP3     H1       HT       0.417000       1.00800           0
     65907 W2       22049    TIP3     H2       HT       0.417000       1.00800           0
     65908 W2       22050    TIP3     OH2      OT      -0.834000       15.9994           0
     65909 W2       22050    TIP3     H1       HT       0.417000       1.00800           0
     65910 W2       22050    TIP3     H2       HT       0.417000       1.00800           0
     65911 W2       22051    TIP3     OH2      OT      -0.834000       15.9994           0
     65912 W2       22051    TIP3     H1       HT       0.417000       1.00800           0
     65913 W2       22051    TIP3     H2       HT       0.417000       1.00800           0
     65914 W2       22052    TIP3     OH2      OT      -0.834000       15.9994           0
     65915 W2       22052    TIP3     H1       HT       0.417000       1.00800           0
     65916 W2       22052    TIP3     H2       HT       0.417000       1.00800           0
     65917 W2       22053    TIP3     OH2      OT      -0.834000       15.9994           0
     65918 W2       22053    TIP3     H1       HT       0.417000       1.00800           0
     65919 W2       22053    TIP3     H2       HT       0.417000       1.00800           0
     65920 W2       22055    TIP3     OH2      OT      -0.834000       15.9994           0
     65921 W2       22055    TIP3     H1       HT       0.417000       1.00800           0
     65922 W2       22055    TIP3     H2       HT       0.417000       1.00800           0
     65923 W2       22057    TIP3     OH2      OT      -0.834000       15.9994           0
     65924 W2       22057    TIP3     H1       HT       0.417000       1.00800           0
     65925 W2       22057    TIP3     H2       HT       0.417000       1.00800           0
     65926 W2       22058    TIP3     OH2      OT      -0.834000       15.9994           0
     65927 W2       22058    TIP3     H1       HT       0.417000       1.00800           0
     65928 W2       22058    TIP3     H2       HT       0.417000       1.00800           0
     65929 W2       22059    TIP3     OH2      OT      -0.834000       15.9994           0
     65930 W2       22059    TIP3     H1       HT       0.417000       1.00800           0
     65931 W2       22059    TIP3     H2       HT       0.417000       1.00800           0
     65932 W2       22060    TIP3     OH2      OT      -0.834000       15.9994           0
     65933 W2       22060    TIP3     H1       HT       0.417000       1.00800           0
     65934 W2       22060    TIP3     H2       HT       0.417000       1.00800           0
     65935 W2       22061    TIP3     OH2      OT      -0.834000       15.9994           0
     65936 W2       22061    TIP3     H1       HT       0.417000       1.00800           0
     65937 W2       22061    TIP3     H2       HT       0.417000       1.00800           0
     65938 W2       22062    TIP3     OH2      OT      -0.834000       15.9994           0
     65939 W2       22062    TIP3     H1       HT       0.417000       1.00800           0
     65940 W2       22062    TIP3     H2       HT       0.417000       1.00800           0
     65941 W2       22063    TIP3     OH2      OT      -0.834000       15.9994           0
     65942 W2       22063    TIP3     H1       HT       0.417000       1.00800           0
     65943 W2       22063    TIP3     H2       HT       0.417000       1.00800           0
     65944 W2       22064    TIP3     OH2      OT      -0.834000       15.9994           0
     65945 W2       22064    TIP3     H1       HT       0.417000       1.00800           0
     65946 W2       22064    TIP3     H2       HT       0.417000       1.00800           0
     65947 W2       22065    TIP3     OH2      OT      -0.834000       15.9994           0
     65948 W2       22065    TIP3     H1       HT       0.417000       1.00800           0
     65949 W2       22065    TIP3     H2       HT       0.417000       1.00800           0
     65950 W2       22067    TIP3     OH2      OT      -0.834000       15.9994           0
     65951 W2       22067    TIP3     H1       HT       0.417000       1.00800           0
     65952 W2       22067    TIP3     H2       HT       0.417000       1.00800           0
     65953 W2       22068    TIP3     OH2      OT      -0.834000       15.9994           0
     65954 W2       22068    TIP3     H1       HT       0.417000       1.00800           0
     65955 W2       22068    TIP3     H2       HT       0.417000       1.00800           0
     65956 W2       22069    TIP3     OH2      OT      -0.834000       15.9994           0
     65957 W2       22069    TIP3     H1       HT       0.417000       1.00800           0
     65958 W2       22069    TIP3     H2       HT       0.417000       1.00800           0
     65959 W2       22071    TIP3     OH2      OT      -0.834000       15.9994           0
     65960 W2       22071    TIP3     H1       HT       0.417000       1.00800           0
     65961 W2       22071    TIP3     H2       HT       0.417000       1.00800           0
     65962 W2       22072    TIP3     OH2      OT      -0.834000       15.9994           0
     65963 W2       22072    TIP3     H1       HT       0.417000       1.00800           0
     65964 W2       22072    TIP3     H2       HT       0.417000       1.00800           0
     65965 W2       22073    TIP3     OH2      OT      -0.834000       15.9994           0
     65966 W2       22073    TIP3     H1       HT       0.417000       1.00800           0
     65967 W2       22073    TIP3     H2       HT       0.417000       1.00800           0
     65968 W2       22074    TIP3     OH2      OT      -0.834000       15.9994           0
     65969 W2       22074    TIP3     H1       HT       0.417000       1.00800           0
     65970 W2       22074    TIP3     H2       HT       0.417000       1.00800           0
     65971 W2       22075    TIP3     OH2      OT      -0.834000       15.9994           0
     65972 W2       22075    TIP3     H1       HT       0.417000       1.00800           0
     65973 W2       22075    TIP3     H2       HT       0.417000       1.00800           0
     65974 W2       22076    TIP3     OH2      OT      -0.834000       15.9994           0
     65975 W2       22076    TIP3     H1       HT       0.417000       1.00800           0
     65976 W2       22076    TIP3     H2       HT       0.417000       1.00800           0
     65977 W2       22079    TIP3     OH2      OT      -0.834000       15.9994           0
     65978 W2       22079    TIP3     H1       HT       0.417000       1.00800           0
     65979 W2       22079    TIP3     H2       HT       0.417000       1.00800           0
     65980 W2       22081    TIP3     OH2      OT      -0.834000       15.9994           0
     65981 W2       22081    TIP3     H1       HT       0.417000       1.00800           0
     65982 W2       22081    TIP3     H2       HT       0.417000       1.00800           0
     65983 W2       22083    TIP3     OH2      OT      -0.834000       15.9994           0
     65984 W2       22083    TIP3     H1       HT       0.417000       1.00800           0
     65985 W2       22083    TIP3     H2       HT       0.417000       1.00800           0
     65986 W2       22085    TIP3     OH2      OT      -0.834000       15.9994           0
     65987 W2       22085    TIP3     H1       HT       0.417000       1.00800           0
     65988 W2       22085    TIP3     H2       HT       0.417000       1.00800           0
     65989 W2       22088    TIP3     OH2      OT      -0.834000       15.9994           0
     65990 W2       22088    TIP3     H1       HT       0.417000       1.00800           0
     65991 W2       22088    TIP3     H2       HT       0.417000       1.00800           0
     65992 W2       22090    TIP3     OH2      OT      -0.834000       15.9994           0
     65993 W2       22090    TIP3     H1       HT       0.417000       1.00800           0
     65994 W2       22090    TIP3     H2       HT       0.417000       1.00800           0
     65995 W2       22092    TIP3     OH2      OT      -0.834000       15.9994           0
     65996 W2       22092    TIP3     H1       HT       0.417000       1.00800           0
     65997 W2       22092    TIP3     H2       HT       0.417000       1.00800           0
     65998 W2       22094    TIP3     OH2      OT      -0.834000       15.9994           0
     65999 W2       22094    TIP3     H1       HT       0.417000       1.00800           0
     66000 W2       22094    TIP3     H2       HT       0.417000       1.00800           0
     66001 W2       22106    TIP3     OH2      OT      -0.834000       15.9994           0
     66002 W2       22106    TIP3     H1       HT       0.417000       1.00800           0
     66003 W2       22106    TIP3     H2       HT       0.417000       1.00800           0
     66004 W2       22107    TIP3     OH2      OT      -0.834000       15.9994           0
     66005 W2       22107    TIP3     H1       HT       0.417000       1.00800           0
     66006 W2       22107    TIP3     H2       HT       0.417000       1.00800           0
     66007 W2       22108    TIP3     OH2      OT      -0.834000       15.9994           0
     66008 W2       22108    TIP3     H1       HT       0.417000       1.00800           0
     66009 W2       22108    TIP3     H2       HT       0.417000       1.00800           0
     66010 W2       22109    TIP3     OH2      OT      -0.834000       15.9994           0
     66011 W2       22109    TIP3     H1       HT       0.417000       1.00800           0
     66012 W2       22109    TIP3     H2       HT       0.417000       1.00800           0
     66013 W2       22110    TIP3     OH2      OT      -0.834000       15.9994           0
     66014 W2       22110    TIP3     H1       HT       0.417000       1.00800           0
     66015 W2       22110    TIP3     H2       HT       0.417000       1.00800           0
     66016 W2       22113    TIP3     OH2      OT      -0.834000       15.9994           0
     66017 W2       22113    TIP3     H1       HT       0.417000       1.00800           0
     66018 W2       22113    TIP3     H2       HT       0.417000       1.00800           0
     66019 W2       22114    TIP3     OH2      OT      -0.834000       15.9994           0
     66020 W2       22114    TIP3     H1       HT       0.417000       1.00800           0
     66021 W2       22114    TIP3     H2       HT       0.417000       1.00800           0
     66022 W2       22115    TIP3     OH2      OT      -0.834000       15.9994           0
     66023 W2       22115    TIP3     H1       HT       0.417000       1.00800           0
     66024 W2       22115    TIP3     H2       HT       0.417000       1.00800           0
     66025 W2       22116    TIP3     OH2      OT      -0.834000       15.9994           0
     66026 W2       22116    TIP3     H1       HT       0.417000       1.00800           0
     66027 W2       22116    TIP3     H2       HT       0.417000       1.00800           0
     66028 W2       22117    TIP3     OH2      OT      -0.834000       15.9994           0
     66029 W2       22117    TIP3     H1       HT       0.417000       1.00800           0
     66030 W2       22117    TIP3     H2       HT       0.417000       1.00800           0
     66031 W2       22118    TIP3     OH2      OT      -0.834000       15.9994           0
     66032 W2       22118    TIP3     H1       HT       0.417000       1.00800           0
     66033 W2       22118    TIP3     H2       HT       0.417000       1.00800           0
     66034 W2       22119    TIP3     OH2      OT      -0.834000       15.9994           0
     66035 W2       22119    TIP3     H1       HT       0.417000       1.00800           0
     66036 W2       22119    TIP3     H2       HT       0.417000       1.00800           0
     66037 W2       22120    TIP3     OH2      OT      -0.834000       15.9994           0
     66038 W2       22120    TIP3     H1       HT       0.417000       1.00800           0
     66039 W2       22120    TIP3     H2       HT       0.417000       1.00800           0
     66040 W2       22123    TIP3     OH2      OT      -0.834000       15.9994           0
     66041 W2       22123    TIP3     H1       HT       0.417000       1.00800           0
     66042 W2       22123    TIP3     H2       HT       0.417000       1.00800           0
     66043 W2       22124    TIP3     OH2      OT      -0.834000       15.9994           0
     66044 W2       22124    TIP3     H1       HT       0.417000       1.00800           0
     66045 W2       22124    TIP3     H2       HT       0.417000       1.00800           0
     66046 W2       22125    TIP3     OH2      OT      -0.834000       15.9994           0
     66047 W2       22125    TIP3     H1       HT       0.417000       1.00800           0
     66048 W2       22125    TIP3     H2       HT       0.417000       1.00800           0
     66049 W2       22126    TIP3     OH2      OT      -0.834000       15.9994           0
     66050 W2       22126    TIP3     H1       HT       0.417000       1.00800           0
     66051 W2       22126    TIP3     H2       HT       0.417000       1.00800           0
     66052 W2       22129    TIP3     OH2      OT      -0.834000       15.9994           0
     66053 W2       22129    TIP3     H1       HT       0.417000       1.00800           0
     66054 W2       22129    TIP3     H2       HT       0.417000       1.00800           0
     66055 W2       22130    TIP3     OH2      OT      -0.834000       15.9994           0
     66056 W2       22130    TIP3     H1       HT       0.417000       1.00800           0
     66057 W2       22130    TIP3     H2       HT       0.417000       1.00800           0
     66058 W2       22131    TIP3     OH2      OT      -0.834000       15.9994           0
     66059 W2       22131    TIP3     H1       HT       0.417000       1.00800           0
     66060 W2       22131    TIP3     H2       HT       0.417000       1.00800           0
     66061 W2       22133    TIP3     OH2      OT      -0.834000       15.9994           0
     66062 W2       22133    TIP3     H1       HT       0.417000       1.00800           0
     66063 W2       22133    TIP3     H2       HT       0.417000       1.00800           0
     66064 W2       22134    TIP3     OH2      OT      -0.834000       15.9994           0
     66065 W2       22134    TIP3     H1       HT       0.417000       1.00800           0
     66066 W2       22134    TIP3     H2       HT       0.417000       1.00800           0
     66067 W2       22135    TIP3     OH2      OT      -0.834000       15.9994           0
     66068 W2       22135    TIP3     H1       HT       0.417000       1.00800           0
     66069 W2       22135    TIP3     H2       HT       0.417000       1.00800           0
     66070 W2       22136    TIP3     OH2      OT      -0.834000       15.9994           0
     66071 W2       22136    TIP3     H1       HT       0.417000       1.00800           0
     66072 W2       22136    TIP3     H2       HT       0.417000       1.00800           0
     66073 W2       22138    TIP3     OH2      OT      -0.834000       15.9994           0
     66074 W2       22138    TIP3     H1       HT       0.417000       1.00800           0
     66075 W2       22138    TIP3     H2       HT       0.417000       1.00800           0
     66076 W2       22142    TIP3     OH2      OT      -0.834000       15.9994           0
     66077 W2       22142    TIP3     H1       HT       0.417000       1.00800           0
     66078 W2       22142    TIP3     H2       HT       0.417000       1.00800           0
     66079 W2       22143    TIP3     OH2      OT      -0.834000       15.9994           0
     66080 W2       22143    TIP3     H1       HT       0.417000       1.00800           0
     66081 W2       22143    TIP3     H2       HT       0.417000       1.00800           0
     66082 W2       22144    TIP3     OH2      OT      -0.834000       15.9994           0
     66083 W2       22144    TIP3     H1       HT       0.417000       1.00800           0
     66084 W2       22144    TIP3     H2       HT       0.417000       1.00800           0
     66085 W2       22145    TIP3     OH2      OT      -0.834000       15.9994           0
     66086 W2       22145    TIP3     H1       HT       0.417000       1.00800           0
     66087 W2       22145    TIP3     H2       HT       0.417000       1.00800           0
     66088 W2       22146    TIP3     OH2      OT      -0.834000       15.9994           0
     66089 W2       22146    TIP3     H1       HT       0.417000       1.00800           0
     66090 W2       22146    TIP3     H2       HT       0.417000       1.00800           0
     66091 W2       22147    TIP3     OH2      OT      -0.834000       15.9994           0
     66092 W2       22147    TIP3     H1       HT       0.417000       1.00800           0
     66093 W2       22147    TIP3     H2       HT       0.417000       1.00800           0
     66094 W2       22148    TIP3     OH2      OT      -0.834000       15.9994           0
     66095 W2       22148    TIP3     H1       HT       0.417000       1.00800           0
     66096 W2       22148    TIP3     H2       HT       0.417000       1.00800           0
     66097 W2       22149    TIP3     OH2      OT      -0.834000       15.9994           0
     66098 W2       22149    TIP3     H1       HT       0.417000       1.00800           0
     66099 W2       22149    TIP3     H2       HT       0.417000       1.00800           0
     66100 W2       22150    TIP3     OH2      OT      -0.834000       15.9994           0
     66101 W2       22150    TIP3     H1       HT       0.417000       1.00800           0
     66102 W2       22150    TIP3     H2       HT       0.417000       1.00800           0
     66103 W2       22151    TIP3     OH2      OT      -0.834000       15.9994           0
     66104 W2       22151    TIP3     H1       HT       0.417000       1.00800           0
     66105 W2       22151    TIP3     H2       HT       0.417000       1.00800           0
     66106 W2       22152    TIP3     OH2      OT      -0.834000       15.9994           0
     66107 W2       22152    TIP3     H1       HT       0.417000       1.00800           0
     66108 W2       22152    TIP3     H2       HT       0.417000       1.00800           0
     66109 W2       22153    TIP3     OH2      OT      -0.834000       15.9994           0
     66110 W2       22153    TIP3     H1       HT       0.417000       1.00800           0
     66111 W2       22153    TIP3     H2       HT       0.417000       1.00800           0
     66112 W2       22154    TIP3     OH2      OT      -0.834000       15.9994           0
     66113 W2       22154    TIP3     H1       HT       0.417000       1.00800           0
     66114 W2       22154    TIP3     H2       HT       0.417000       1.00800           0
     66115 W2       22155    TIP3     OH2      OT      -0.834000       15.9994           0
     66116 W2       22155    TIP3     H1       HT       0.417000       1.00800           0
     66117 W2       22155    TIP3     H2       HT       0.417000       1.00800           0
     66118 W2       22156    TIP3     OH2      OT      -0.834000       15.9994           0
     66119 W2       22156    TIP3     H1       HT       0.417000       1.00800           0
     66120 W2       22156    TIP3     H2       HT       0.417000       1.00800           0
     66121 W2       22157    TIP3     OH2      OT      -0.834000       15.9994           0
     66122 W2       22157    TIP3     H1       HT       0.417000       1.00800           0
     66123 W2       22157    TIP3     H2       HT       0.417000       1.00800           0
     66124 W2       22158    TIP3     OH2      OT      -0.834000       15.9994           0
     66125 W2       22158    TIP3     H1       HT       0.417000       1.00800           0
     66126 W2       22158    TIP3     H2       HT       0.417000       1.00800           0
     66127 W2       22159    TIP3     OH2      OT      -0.834000       15.9994           0
     66128 W2       22159    TIP3     H1       HT       0.417000       1.00800           0
     66129 W2       22159    TIP3     H2       HT       0.417000       1.00800           0
     66130 W2       22160    TIP3     OH2      OT      -0.834000       15.9994           0
     66131 W2       22160    TIP3     H1       HT       0.417000       1.00800           0
     66132 W2       22160    TIP3     H2       HT       0.417000       1.00800           0
     66133 W2       22161    TIP3     OH2      OT      -0.834000       15.9994           0
     66134 W2       22161    TIP3     H1       HT       0.417000       1.00800           0
     66135 W2       22161    TIP3     H2       HT       0.417000       1.00800           0
     66136 W2       22162    TIP3     OH2      OT      -0.834000       15.9994           0
     66137 W2       22162    TIP3     H1       HT       0.417000       1.00800           0
     66138 W2       22162    TIP3     H2       HT       0.417000       1.00800           0
     66139 W2       22165    TIP3     OH2      OT      -0.834000       15.9994           0
     66140 W2       22165    TIP3     H1       HT       0.417000       1.00800           0
     66141 W2       22165    TIP3     H2       HT       0.417000       1.00800           0
     66142 W2       22168    TIP3     OH2      OT      -0.834000       15.9994           0
     66143 W2       22168    TIP3     H1       HT       0.417000       1.00800           0
     66144 W2       22168    TIP3     H2       HT       0.417000       1.00800           0
     66145 W2       22169    TIP3     OH2      OT      -0.834000       15.9994           0
     66146 W2       22169    TIP3     H1       HT       0.417000       1.00800           0
     66147 W2       22169    TIP3     H2       HT       0.417000       1.00800           0
     66148 W2       22170    TIP3     OH2      OT      -0.834000       15.9994           0
     66149 W2       22170    TIP3     H1       HT       0.417000       1.00800           0
     66150 W2       22170    TIP3     H2       HT       0.417000       1.00800           0
     66151 W2       22171    TIP3     OH2      OT      -0.834000       15.9994           0
     66152 W2       22171    TIP3     H1       HT       0.417000       1.00800           0
     66153 W2       22171    TIP3     H2       HT       0.417000       1.00800           0
     66154 W2       22172    TIP3     OH2      OT      -0.834000       15.9994           0
     66155 W2       22172    TIP3     H1       HT       0.417000       1.00800           0
     66156 W2       22172    TIP3     H2       HT       0.417000       1.00800           0
     66157 W2       22173    TIP3     OH2      OT      -0.834000       15.9994           0
     66158 W2       22173    TIP3     H1       HT       0.417000       1.00800           0
     66159 W2       22173    TIP3     H2       HT       0.417000       1.00800           0
     66160 W2       22174    TIP3     OH2      OT      -0.834000       15.9994           0
     66161 W2       22174    TIP3     H1       HT       0.417000       1.00800           0
     66162 W2       22174    TIP3     H2       HT       0.417000       1.00800           0
     66163 W2       22175    TIP3     OH2      OT      -0.834000       15.9994           0
     66164 W2       22175    TIP3     H1       HT       0.417000       1.00800           0
     66165 W2       22175    TIP3     H2       HT       0.417000       1.00800           0
     66166 W2       22176    TIP3     OH2      OT      -0.834000       15.9994           0
     66167 W2       22176    TIP3     H1       HT       0.417000       1.00800           0
     66168 W2       22176    TIP3     H2       HT       0.417000       1.00800           0
     66169 W2       22177    TIP3     OH2      OT      -0.834000       15.9994           0
     66170 W2       22177    TIP3     H1       HT       0.417000       1.00800           0
     66171 W2       22177    TIP3     H2       HT       0.417000       1.00800           0
     66172 W2       22178    TIP3     OH2      OT      -0.834000       15.9994           0
     66173 W2       22178    TIP3     H1       HT       0.417000       1.00800           0
     66174 W2       22178    TIP3     H2       HT       0.417000       1.00800           0
     66175 W2       22179    TIP3     OH2      OT      -0.834000       15.9994           0
     66176 W2       22179    TIP3     H1       HT       0.417000       1.00800           0
     66177 W2       22179    TIP3     H2       HT       0.417000       1.00800           0
     66178 W2       22180    TIP3     OH2      OT      -0.834000       15.9994           0
     66179 W2       22180    TIP3     H1       HT       0.417000       1.00800           0
     66180 W2       22180    TIP3     H2       HT       0.417000       1.00800           0
     66181 W2       22181    TIP3     OH2      OT      -0.834000       15.9994           0
     66182 W2       22181    TIP3     H1       HT       0.417000       1.00800           0
     66183 W2       22181    TIP3     H2       HT       0.417000       1.00800           0
     66184 W2       22182    TIP3     OH2      OT      -0.834000       15.9994           0
     66185 W2       22182    TIP3     H1       HT       0.417000       1.00800           0
     66186 W2       22182    TIP3     H2       HT       0.417000       1.00800           0
     66187 W2       22184    TIP3     OH2      OT      -0.834000       15.9994           0
     66188 W2       22184    TIP3     H1       HT       0.417000       1.00800           0
     66189 W2       22184    TIP3     H2       HT       0.417000       1.00800           0
     66190 W2       22185    TIP3     OH2      OT      -0.834000       15.9994           0
     66191 W2       22185    TIP3     H1       HT       0.417000       1.00800           0
     66192 W2       22185    TIP3     H2       HT       0.417000       1.00800           0
     66193 W2       22186    TIP3     OH2      OT      -0.834000       15.9994           0
     66194 W2       22186    TIP3     H1       HT       0.417000       1.00800           0
     66195 W2       22186    TIP3     H2       HT       0.417000       1.00800           0
     66196 W2       22187    TIP3     OH2      OT      -0.834000       15.9994           0
     66197 W2       22187    TIP3     H1       HT       0.417000       1.00800           0
     66198 W2       22187    TIP3     H2       HT       0.417000       1.00800           0
     66199 W2       22188    TIP3     OH2      OT      -0.834000       15.9994           0
     66200 W2       22188    TIP3     H1       HT       0.417000       1.00800           0
     66201 W2       22188    TIP3     H2       HT       0.417000       1.00800           0
     66202 W2       22189    TIP3     OH2      OT      -0.834000       15.9994           0
     66203 W2       22189    TIP3     H1       HT       0.417000       1.00800           0
     66204 W2       22189    TIP3     H2       HT       0.417000       1.00800           0
     66205 W2       22190    TIP3     OH2      OT      -0.834000       15.9994           0
     66206 W2       22190    TIP3     H1       HT       0.417000       1.00800           0
     66207 W2       22190    TIP3     H2       HT       0.417000       1.00800           0
     66208 W2       22191    TIP3     OH2      OT      -0.834000       15.9994           0
     66209 W2       22191    TIP3     H1       HT       0.417000       1.00800           0
     66210 W2       22191    TIP3     H2       HT       0.417000       1.00800           0
     66211 W2       22192    TIP3     OH2      OT      -0.834000       15.9994           0
     66212 W2       22192    TIP3     H1       HT       0.417000       1.00800           0
     66213 W2       22192    TIP3     H2       HT       0.417000       1.00800           0
     66214 W2       22193    TIP3     OH2      OT      -0.834000       15.9994           0
     66215 W2       22193    TIP3     H1       HT       0.417000       1.00800           0
     66216 W2       22193    TIP3     H2       HT       0.417000       1.00800           0
     66217 W2       22194    TIP3     OH2      OT      -0.834000       15.9994           0
     66218 W2       22194    TIP3     H1       HT       0.417000       1.00800           0
     66219 W2       22194    TIP3     H2       HT       0.417000       1.00800           0
     66220 W2       22195    TIP3     OH2      OT      -0.834000       15.9994           0
     66221 W2       22195    TIP3     H1       HT       0.417000       1.00800           0
     66222 W2       22195    TIP3     H2       HT       0.417000       1.00800           0
     66223 W2       22197    TIP3     OH2      OT      -0.834000       15.9994           0
     66224 W2       22197    TIP3     H1       HT       0.417000       1.00800           0
     66225 W2       22197    TIP3     H2       HT       0.417000       1.00800           0
     66226 W2       22198    TIP3     OH2      OT      -0.834000       15.9994           0
     66227 W2       22198    TIP3     H1       HT       0.417000       1.00800           0
     66228 W2       22198    TIP3     H2       HT       0.417000       1.00800           0
     66229 W2       22199    TIP3     OH2      OT      -0.834000       15.9994           0
     66230 W2       22199    TIP3     H1       HT       0.417000       1.00800           0
     66231 W2       22199    TIP3     H2       HT       0.417000       1.00800           0
     66232 W2       22200    TIP3     OH2      OT      -0.834000       15.9994           0
     66233 W2       22200    TIP3     H1       HT       0.417000       1.00800           0
     66234 W2       22200    TIP3     H2       HT       0.417000       1.00800           0
     66235 W2       22202    TIP3     OH2      OT      -0.834000       15.9994           0
     66236 W2       22202    TIP3     H1       HT       0.417000       1.00800           0
     66237 W2       22202    TIP3     H2       HT       0.417000       1.00800           0
     66238 W2       22203    TIP3     OH2      OT      -0.834000       15.9994           0
     66239 W2       22203    TIP3     H1       HT       0.417000       1.00800           0
     66240 W2       22203    TIP3     H2       HT       0.417000       1.00800           0
     66241 W2       22204    TIP3     OH2      OT      -0.834000       15.9994           0
     66242 W2       22204    TIP3     H1       HT       0.417000       1.00800           0
     66243 W2       22204    TIP3     H2       HT       0.417000       1.00800           0
     66244 W2       22205    TIP3     OH2      OT      -0.834000       15.9994           0
     66245 W2       22205    TIP3     H1       HT       0.417000       1.00800           0
     66246 W2       22205    TIP3     H2       HT       0.417000       1.00800           0
     66247 W2       22207    TIP3     OH2      OT      -0.834000       15.9994           0
     66248 W2       22207    TIP3     H1       HT       0.417000       1.00800           0
     66249 W2       22207    TIP3     H2       HT       0.417000       1.00800           0
     66250 W2       22209    TIP3     OH2      OT      -0.834000       15.9994           0
     66251 W2       22209    TIP3     H1       HT       0.417000       1.00800           0
     66252 W2       22209    TIP3     H2       HT       0.417000       1.00800           0
     66253 W2       22211    TIP3     OH2      OT      -0.834000       15.9994           0
     66254 W2       22211    TIP3     H1       HT       0.417000       1.00800           0
     66255 W2       22211    TIP3     H2       HT       0.417000       1.00800           0
     66256 W2       22212    TIP3     OH2      OT      -0.834000       15.9994           0
     66257 W2       22212    TIP3     H1       HT       0.417000       1.00800           0
     66258 W2       22212    TIP3     H2       HT       0.417000       1.00800           0
     66259 W2       22213    TIP3     OH2      OT      -0.834000       15.9994           0
     66260 W2       22213    TIP3     H1       HT       0.417000       1.00800           0
     66261 W2       22213    TIP3     H2       HT       0.417000       1.00800           0
     66262 W2       22214    TIP3     OH2      OT      -0.834000       15.9994           0
     66263 W2       22214    TIP3     H1       HT       0.417000       1.00800           0
     66264 W2       22214    TIP3     H2       HT       0.417000       1.00800           0
     66265 W2       22215    TIP3     OH2      OT      -0.834000       15.9994           0
     66266 W2       22215    TIP3     H1       HT       0.417000       1.00800           0
     66267 W2       22215    TIP3     H2       HT       0.417000       1.00800           0
     66268 W2       22218    TIP3     OH2      OT      -0.834000       15.9994           0
     66269 W2       22218    TIP3     H1       HT       0.417000       1.00800           0
     66270 W2       22218    TIP3     H2       HT       0.417000       1.00800           0
     66271 W2       22219    TIP3     OH2      OT      -0.834000       15.9994           0
     66272 W2       22219    TIP3     H1       HT       0.417000       1.00800           0
     66273 W2       22219    TIP3     H2       HT       0.417000       1.00800           0
     66274 W2       22220    TIP3     OH2      OT      -0.834000       15.9994           0
     66275 W2       22220    TIP3     H1       HT       0.417000       1.00800           0
     66276 W2       22220    TIP3     H2       HT       0.417000       1.00800           0
     66277 W2       22221    TIP3     OH2      OT      -0.834000       15.9994           0
     66278 W2       22221    TIP3     H1       HT       0.417000       1.00800           0
     66279 W2       22221    TIP3     H2       HT       0.417000       1.00800           0
     66280 W2       22224    TIP3     OH2      OT      -0.834000       15.9994           0
     66281 W2       22224    TIP3     H1       HT       0.417000       1.00800           0
     66282 W2       22224    TIP3     H2       HT       0.417000       1.00800           0
     66283 W2       22227    TIP3     OH2      OT      -0.834000       15.9994           0
     66284 W2       22227    TIP3     H1       HT       0.417000       1.00800           0
     66285 W2       22227    TIP3     H2       HT       0.417000       1.00800           0
     66286 W2       22228    TIP3     OH2      OT      -0.834000       15.9994           0
     66287 W2       22228    TIP3     H1       HT       0.417000       1.00800           0
     66288 W2       22228    TIP3     H2       HT       0.417000       1.00800           0
     66289 W2       22229    TIP3     OH2      OT      -0.834000       15.9994           0
     66290 W2       22229    TIP3     H1       HT       0.417000       1.00800           0
     66291 W2       22229    TIP3     H2       HT       0.417000       1.00800           0
     66292 W2       22230    TIP3     OH2      OT      -0.834000       15.9994           0
     66293 W2       22230    TIP3     H1       HT       0.417000       1.00800           0
     66294 W2       22230    TIP3     H2       HT       0.417000       1.00800           0
     66295 W2       22231    TIP3     OH2      OT      -0.834000       15.9994           0
     66296 W2       22231    TIP3     H1       HT       0.417000       1.00800           0
     66297 W2       22231    TIP3     H2       HT       0.417000       1.00800           0
     66298 W2       22233    TIP3     OH2      OT      -0.834000       15.9994           0
     66299 W2       22233    TIP3     H1       HT       0.417000       1.00800           0
     66300 W2       22233    TIP3     H2       HT       0.417000       1.00800           0
     66301 W2       22234    TIP3     OH2      OT      -0.834000       15.9994           0
     66302 W2       22234    TIP3     H1       HT       0.417000       1.00800           0
     66303 W2       22234    TIP3     H2       HT       0.417000       1.00800           0
     66304 W2       22235    TIP3     OH2      OT      -0.834000       15.9994           0
     66305 W2       22235    TIP3     H1       HT       0.417000       1.00800           0
     66306 W2       22235    TIP3     H2       HT       0.417000       1.00800           0
     66307 W2       22236    TIP3     OH2      OT      -0.834000       15.9994           0
     66308 W2       22236    TIP3     H1       HT       0.417000       1.00800           0
     66309 W2       22236    TIP3     H2       HT       0.417000       1.00800           0
     66310 W2       22237    TIP3     OH2      OT      -0.834000       15.9994           0
     66311 W2       22237    TIP3     H1       HT       0.417000       1.00800           0
     66312 W2       22237    TIP3     H2       HT       0.417000       1.00800           0
     66313 W2       22238    TIP3     OH2      OT      -0.834000       15.9994           0
     66314 W2       22238    TIP3     H1       HT       0.417000       1.00800           0
     66315 W2       22238    TIP3     H2       HT       0.417000       1.00800           0
     66316 W2       22239    TIP3     OH2      OT      -0.834000       15.9994           0
     66317 W2       22239    TIP3     H1       HT       0.417000       1.00800           0
     66318 W2       22239    TIP3     H2       HT       0.417000       1.00800           0
     66319 W2       22240    TIP3     OH2      OT      -0.834000       15.9994           0
     66320 W2       22240    TIP3     H1       HT       0.417000       1.00800           0
     66321 W2       22240    TIP3     H2       HT       0.417000       1.00800           0
     66322 W2       22241    TIP3     OH2      OT      -0.834000       15.9994           0
     66323 W2       22241    TIP3     H1       HT       0.417000       1.00800           0
     66324 W2       22241    TIP3     H2       HT       0.417000       1.00800           0
     66325 W2       22242    TIP3     OH2      OT      -0.834000       15.9994           0
     66326 W2       22242    TIP3     H1       HT       0.417000       1.00800           0
     66327 W2       22242    TIP3     H2       HT       0.417000       1.00800           0
     66328 W2       22243    TIP3     OH2      OT      -0.834000       15.9994           0
     66329 W2       22243    TIP3     H1       HT       0.417000       1.00800           0
     66330 W2       22243    TIP3     H2       HT       0.417000       1.00800           0
     66331 W2       22246    TIP3     OH2      OT      -0.834000       15.9994           0
     66332 W2       22246    TIP3     H1       HT       0.417000       1.00800           0
     66333 W2       22246    TIP3     H2       HT       0.417000       1.00800           0
     66334 W2       22247    TIP3     OH2      OT      -0.834000       15.9994           0
     66335 W2       22247    TIP3     H1       HT       0.417000       1.00800           0
     66336 W2       22247    TIP3     H2       HT       0.417000       1.00800           0
     66337 W2       22248    TIP3     OH2      OT      -0.834000       15.9994           0
     66338 W2       22248    TIP3     H1       HT       0.417000       1.00800           0
     66339 W2       22248    TIP3     H2       HT       0.417000       1.00800           0
     66340 W2       22249    TIP3     OH2      OT      -0.834000       15.9994           0
     66341 W2       22249    TIP3     H1       HT       0.417000       1.00800           0
     66342 W2       22249    TIP3     H2       HT       0.417000       1.00800           0
     66343 W2       22250    TIP3     OH2      OT      -0.834000       15.9994           0
     66344 W2       22250    TIP3     H1       HT       0.417000       1.00800           0
     66345 W2       22250    TIP3     H2       HT       0.417000       1.00800           0
     66346 W2       22251    TIP3     OH2      OT      -0.834000       15.9994           0
     66347 W2       22251    TIP3     H1       HT       0.417000       1.00800           0
     66348 W2       22251    TIP3     H2       HT       0.417000       1.00800           0
     66349 W2       22253    TIP3     OH2      OT      -0.834000       15.9994           0
     66350 W2       22253    TIP3     H1       HT       0.417000       1.00800           0
     66351 W2       22253    TIP3     H2       HT       0.417000       1.00800           0
     66352 W2       22254    TIP3     OH2      OT      -0.834000       15.9994           0
     66353 W2       22254    TIP3     H1       HT       0.417000       1.00800           0
     66354 W2       22254    TIP3     H2       HT       0.417000       1.00800           0
     66355 W2       22255    TIP3     OH2      OT      -0.834000       15.9994           0
     66356 W2       22255    TIP3     H1       HT       0.417000       1.00800           0
     66357 W2       22255    TIP3     H2       HT       0.417000       1.00800           0
     66358 W2       22259    TIP3     OH2      OT      -0.834000       15.9994           0
     66359 W2       22259    TIP3     H1       HT       0.417000       1.00800           0
     66360 W2       22259    TIP3     H2       HT       0.417000       1.00800           0
     66361 W2       22261    TIP3     OH2      OT      -0.834000       15.9994           0
     66362 W2       22261    TIP3     H1       HT       0.417000       1.00800           0
     66363 W2       22261    TIP3     H2       HT       0.417000       1.00800           0
     66364 W2       22262    TIP3     OH2      OT      -0.834000       15.9994           0
     66365 W2       22262    TIP3     H1       HT       0.417000       1.00800           0
     66366 W2       22262    TIP3     H2       HT       0.417000       1.00800           0
     66367 W2       22263    TIP3     OH2      OT      -0.834000       15.9994           0
     66368 W2       22263    TIP3     H1       HT       0.417000       1.00800           0
     66369 W2       22263    TIP3     H2       HT       0.417000       1.00800           0
     66370 W2       22264    TIP3     OH2      OT      -0.834000       15.9994           0
     66371 W2       22264    TIP3     H1       HT       0.417000       1.00800           0
     66372 W2       22264    TIP3     H2       HT       0.417000       1.00800           0
     66373 W2       22265    TIP3     OH2      OT      -0.834000       15.9994           0
     66374 W2       22265    TIP3     H1       HT       0.417000       1.00800           0
     66375 W2       22265    TIP3     H2       HT       0.417000       1.00800           0
     66376 W2       22266    TIP3     OH2      OT      -0.834000       15.9994           0
     66377 W2       22266    TIP3     H1       HT       0.417000       1.00800           0
     66378 W2       22266    TIP3     H2       HT       0.417000       1.00800           0
     66379 W2       22267    TIP3     OH2      OT      -0.834000       15.9994           0
     66380 W2       22267    TIP3     H1       HT       0.417000       1.00800           0
     66381 W2       22267    TIP3     H2       HT       0.417000       1.00800           0
     66382 W2       22268    TIP3     OH2      OT      -0.834000       15.9994           0
     66383 W2       22268    TIP3     H1       HT       0.417000       1.00800           0
     66384 W2       22268    TIP3     H2       HT       0.417000       1.00800           0
     66385 W2       22269    TIP3     OH2      OT      -0.834000       15.9994           0
     66386 W2       22269    TIP3     H1       HT       0.417000       1.00800           0
     66387 W2       22269    TIP3     H2       HT       0.417000       1.00800           0
     66388 W2       22271    TIP3     OH2      OT      -0.834000       15.9994           0
     66389 W2       22271    TIP3     H1       HT       0.417000       1.00800           0
     66390 W2       22271    TIP3     H2       HT       0.417000       1.00800           0
     66391 W2       22273    TIP3     OH2      OT      -0.834000       15.9994           0
     66392 W2       22273    TIP3     H1       HT       0.417000       1.00800           0
     66393 W2       22273    TIP3     H2       HT       0.417000       1.00800           0
     66394 W2       22274    TIP3     OH2      OT      -0.834000       15.9994           0
     66395 W2       22274    TIP3     H1       HT       0.417000       1.00800           0
     66396 W2       22274    TIP3     H2       HT       0.417000       1.00800           0
     66397 W2       22275    TIP3     OH2      OT      -0.834000       15.9994           0
     66398 W2       22275    TIP3     H1       HT       0.417000       1.00800           0
     66399 W2       22275    TIP3     H2       HT       0.417000       1.00800           0
     66400 W2       22276    TIP3     OH2      OT      -0.834000       15.9994           0
     66401 W2       22276    TIP3     H1       HT       0.417000       1.00800           0
     66402 W2       22276    TIP3     H2       HT       0.417000       1.00800           0
     66403 W2       22277    TIP3     OH2      OT      -0.834000       15.9994           0
     66404 W2       22277    TIP3     H1       HT       0.417000       1.00800           0
     66405 W2       22277    TIP3     H2       HT       0.417000       1.00800           0
     66406 W2       22278    TIP3     OH2      OT      -0.834000       15.9994           0
     66407 W2       22278    TIP3     H1       HT       0.417000       1.00800           0
     66408 W2       22278    TIP3     H2       HT       0.417000       1.00800           0
     66409 W2       22279    TIP3     OH2      OT      -0.834000       15.9994           0
     66410 W2       22279    TIP3     H1       HT       0.417000       1.00800           0
     66411 W2       22279    TIP3     H2       HT       0.417000       1.00800           0
     66412 W2       22280    TIP3     OH2      OT      -0.834000       15.9994           0
     66413 W2       22280    TIP3     H1       HT       0.417000       1.00800           0
     66414 W2       22280    TIP3     H2       HT       0.417000       1.00800           0
     66415 W2       22281    TIP3     OH2      OT      -0.834000       15.9994           0
     66416 W2       22281    TIP3     H1       HT       0.417000       1.00800           0
     66417 W2       22281    TIP3     H2       HT       0.417000       1.00800           0
     66418 W2       22283    TIP3     OH2      OT      -0.834000       15.9994           0
     66419 W2       22283    TIP3     H1       HT       0.417000       1.00800           0
     66420 W2       22283    TIP3     H2       HT       0.417000       1.00800           0
     66421 W2       22284    TIP3     OH2      OT      -0.834000       15.9994           0
     66422 W2       22284    TIP3     H1       HT       0.417000       1.00800           0
     66423 W2       22284    TIP3     H2       HT       0.417000       1.00800           0
     66424 W2       22285    TIP3     OH2      OT      -0.834000       15.9994           0
     66425 W2       22285    TIP3     H1       HT       0.417000       1.00800           0
     66426 W2       22285    TIP3     H2       HT       0.417000       1.00800           0
     66427 W2       22287    TIP3     OH2      OT      -0.834000       15.9994           0
     66428 W2       22287    TIP3     H1       HT       0.417000       1.00800           0
     66429 W2       22287    TIP3     H2       HT       0.417000       1.00800           0
     66430 W2       22288    TIP3     OH2      OT      -0.834000       15.9994           0
     66431 W2       22288    TIP3     H1       HT       0.417000       1.00800           0
     66432 W2       22288    TIP3     H2       HT       0.417000       1.00800           0
     66433 W2       22289    TIP3     OH2      OT      -0.834000       15.9994           0
     66434 W2       22289    TIP3     H1       HT       0.417000       1.00800           0
     66435 W2       22289    TIP3     H2       HT       0.417000       1.00800           0
     66436 W2       22290    TIP3     OH2      OT      -0.834000       15.9994           0
     66437 W2       22290    TIP3     H1       HT       0.417000       1.00800           0
     66438 W2       22290    TIP3     H2       HT       0.417000       1.00800           0
     66439 W2       22291    TIP3     OH2      OT      -0.834000       15.9994           0
     66440 W2       22291    TIP3     H1       HT       0.417000       1.00800           0
     66441 W2       22291    TIP3     H2       HT       0.417000       1.00800           0
     66442 W2       22292    TIP3     OH2      OT      -0.834000       15.9994           0
     66443 W2       22292    TIP3     H1       HT       0.417000       1.00800           0
     66444 W2       22292    TIP3     H2       HT       0.417000       1.00800           0
     66445 W2       22295    TIP3     OH2      OT      -0.834000       15.9994           0
     66446 W2       22295    TIP3     H1       HT       0.417000       1.00800           0
     66447 W2       22295    TIP3     H2       HT       0.417000       1.00800           0
     66448 W2       22297    TIP3     OH2      OT      -0.834000       15.9994           0
     66449 W2       22297    TIP3     H1       HT       0.417000       1.00800           0
     66450 W2       22297    TIP3     H2       HT       0.417000       1.00800           0
     66451 W2       22299    TIP3     OH2      OT      -0.834000       15.9994           0
     66452 W2       22299    TIP3     H1       HT       0.417000       1.00800           0
     66453 W2       22299    TIP3     H2       HT       0.417000       1.00800           0
     66454 W2       22301    TIP3     OH2      OT      -0.834000       15.9994           0
     66455 W2       22301    TIP3     H1       HT       0.417000       1.00800           0
     66456 W2       22301    TIP3     H2       HT       0.417000       1.00800           0
     66457 W2       22304    TIP3     OH2      OT      -0.834000       15.9994           0
     66458 W2       22304    TIP3     H1       HT       0.417000       1.00800           0
     66459 W2       22304    TIP3     H2       HT       0.417000       1.00800           0
     66460 W2       22306    TIP3     OH2      OT      -0.834000       15.9994           0
     66461 W2       22306    TIP3     H1       HT       0.417000       1.00800           0
     66462 W2       22306    TIP3     H2       HT       0.417000       1.00800           0
     66463 W2       22308    TIP3     OH2      OT      -0.834000       15.9994           0
     66464 W2       22308    TIP3     H1       HT       0.417000       1.00800           0
     66465 W2       22308    TIP3     H2       HT       0.417000       1.00800           0
     66466 W2       22310    TIP3     OH2      OT      -0.834000       15.9994           0
     66467 W2       22310    TIP3     H1       HT       0.417000       1.00800           0
     66468 W2       22310    TIP3     H2       HT       0.417000       1.00800           0
     66469 W2       22322    TIP3     OH2      OT      -0.834000       15.9994           0
     66470 W2       22322    TIP3     H1       HT       0.417000       1.00800           0
     66471 W2       22322    TIP3     H2       HT       0.417000       1.00800           0
     66472 W2       22323    TIP3     OH2      OT      -0.834000       15.9994           0
     66473 W2       22323    TIP3     H1       HT       0.417000       1.00800           0
     66474 W2       22323    TIP3     H2       HT       0.417000       1.00800           0
     66475 W2       22324    TIP3     OH2      OT      -0.834000       15.9994           0
     66476 W2       22324    TIP3     H1       HT       0.417000       1.00800           0
     66477 W2       22324    TIP3     H2       HT       0.417000       1.00800           0
     66478 W2       22325    TIP3     OH2      OT      -0.834000       15.9994           0
     66479 W2       22325    TIP3     H1       HT       0.417000       1.00800           0
     66480 W2       22325    TIP3     H2       HT       0.417000       1.00800           0
     66481 W2       22326    TIP3     OH2      OT      -0.834000       15.9994           0
     66482 W2       22326    TIP3     H1       HT       0.417000       1.00800           0
     66483 W2       22326    TIP3     H2       HT       0.417000       1.00800           0
     66484 W2       22329    TIP3     OH2      OT      -0.834000       15.9994           0
     66485 W2       22329    TIP3     H1       HT       0.417000       1.00800           0
     66486 W2       22329    TIP3     H2       HT       0.417000       1.00800           0
     66487 W2       22330    TIP3     OH2      OT      -0.834000       15.9994           0
     66488 W2       22330    TIP3     H1       HT       0.417000       1.00800           0
     66489 W2       22330    TIP3     H2       HT       0.417000       1.00800           0
     66490 W2       22331    TIP3     OH2      OT      -0.834000       15.9994           0
     66491 W2       22331    TIP3     H1       HT       0.417000       1.00800           0
     66492 W2       22331    TIP3     H2       HT       0.417000       1.00800           0
     66493 W2       22332    TIP3     OH2      OT      -0.834000       15.9994           0
     66494 W2       22332    TIP3     H1       HT       0.417000       1.00800           0
     66495 W2       22332    TIP3     H2       HT       0.417000       1.00800           0
     66496 W2       22333    TIP3     OH2      OT      -0.834000       15.9994           0
     66497 W2       22333    TIP3     H1       HT       0.417000       1.00800           0
     66498 W2       22333    TIP3     H2       HT       0.417000       1.00800           0
     66499 W2       22334    TIP3     OH2      OT      -0.834000       15.9994           0
     66500 W2       22334    TIP3     H1       HT       0.417000       1.00800           0
     66501 W2       22334    TIP3     H2       HT       0.417000       1.00800           0
     66502 W2       22335    TIP3     OH2      OT      -0.834000       15.9994           0
     66503 W2       22335    TIP3     H1       HT       0.417000       1.00800           0
     66504 W2       22335    TIP3     H2       HT       0.417000       1.00800           0
     66505 W2       22336    TIP3     OH2      OT      -0.834000       15.9994           0
     66506 W2       22336    TIP3     H1       HT       0.417000       1.00800           0
     66507 W2       22336    TIP3     H2       HT       0.417000       1.00800           0
     66508 W2       22339    TIP3     OH2      OT      -0.834000       15.9994           0
     66509 W2       22339    TIP3     H1       HT       0.417000       1.00800           0
     66510 W2       22339    TIP3     H2       HT       0.417000       1.00800           0
     66511 W2       22340    TIP3     OH2      OT      -0.834000       15.9994           0
     66512 W2       22340    TIP3     H1       HT       0.417000       1.00800           0
     66513 W2       22340    TIP3     H2       HT       0.417000       1.00800           0
     66514 W2       22341    TIP3     OH2      OT      -0.834000       15.9994           0
     66515 W2       22341    TIP3     H1       HT       0.417000       1.00800           0
     66516 W2       22341    TIP3     H2       HT       0.417000       1.00800           0
     66517 W2       22342    TIP3     OH2      OT      -0.834000       15.9994           0
     66518 W2       22342    TIP3     H1       HT       0.417000       1.00800           0
     66519 W2       22342    TIP3     H2       HT       0.417000       1.00800           0
     66520 W2       22345    TIP3     OH2      OT      -0.834000       15.9994           0
     66521 W2       22345    TIP3     H1       HT       0.417000       1.00800           0
     66522 W2       22345    TIP3     H2       HT       0.417000       1.00800           0
     66523 W2       22346    TIP3     OH2      OT      -0.834000       15.9994           0
     66524 W2       22346    TIP3     H1       HT       0.417000       1.00800           0
     66525 W2       22346    TIP3     H2       HT       0.417000       1.00800           0
     66526 W2       22347    TIP3     OH2      OT      -0.834000       15.9994           0
     66527 W2       22347    TIP3     H1       HT       0.417000       1.00800           0
     66528 W2       22347    TIP3     H2       HT       0.417000       1.00800           0
     66529 W2       22349    TIP3     OH2      OT      -0.834000       15.9994           0
     66530 W2       22349    TIP3     H1       HT       0.417000       1.00800           0
     66531 W2       22349    TIP3     H2       HT       0.417000       1.00800           0
     66532 W2       22350    TIP3     OH2      OT      -0.834000       15.9994           0
     66533 W2       22350    TIP3     H1       HT       0.417000       1.00800           0
     66534 W2       22350    TIP3     H2       HT       0.417000       1.00800           0
     66535 W2       22351    TIP3     OH2      OT      -0.834000       15.9994           0
     66536 W2       22351    TIP3     H1       HT       0.417000       1.00800           0
     66537 W2       22351    TIP3     H2       HT       0.417000       1.00800           0
     66538 W2       22352    TIP3     OH2      OT      -0.834000       15.9994           0
     66539 W2       22352    TIP3     H1       HT       0.417000       1.00800           0
     66540 W2       22352    TIP3     H2       HT       0.417000       1.00800           0
     66541 W2       22354    TIP3     OH2      OT      -0.834000       15.9994           0
     66542 W2       22354    TIP3     H1       HT       0.417000       1.00800           0
     66543 W2       22354    TIP3     H2       HT       0.417000       1.00800           0
     66544 W2       22358    TIP3     OH2      OT      -0.834000       15.9994           0
     66545 W2       22358    TIP3     H1       HT       0.417000       1.00800           0
     66546 W2       22358    TIP3     H2       HT       0.417000       1.00800           0
     66547 W2       22359    TIP3     OH2      OT      -0.834000       15.9994           0
     66548 W2       22359    TIP3     H1       HT       0.417000       1.00800           0
     66549 W2       22359    TIP3     H2       HT       0.417000       1.00800           0
     66550 W2       22360    TIP3     OH2      OT      -0.834000       15.9994           0
     66551 W2       22360    TIP3     H1       HT       0.417000       1.00800           0
     66552 W2       22360    TIP3     H2       HT       0.417000       1.00800           0
     66553 W2       22361    TIP3     OH2      OT      -0.834000       15.9994           0
     66554 W2       22361    TIP3     H1       HT       0.417000       1.00800           0
     66555 W2       22361    TIP3     H2       HT       0.417000       1.00800           0
     66556 W2       22362    TIP3     OH2      OT      -0.834000       15.9994           0
     66557 W2       22362    TIP3     H1       HT       0.417000       1.00800           0
     66558 W2       22362    TIP3     H2       HT       0.417000       1.00800           0
     66559 W2       22363    TIP3     OH2      OT      -0.834000       15.9994           0
     66560 W2       22363    TIP3     H1       HT       0.417000       1.00800           0
     66561 W2       22363    TIP3     H2       HT       0.417000       1.00800           0
     66562 W2       22364    TIP3     OH2      OT      -0.834000       15.9994           0
     66563 W2       22364    TIP3     H1       HT       0.417000       1.00800           0
     66564 W2       22364    TIP3     H2       HT       0.417000       1.00800           0
     66565 W2       22365    TIP3     OH2      OT      -0.834000       15.9994           0
     66566 W2       22365    TIP3     H1       HT       0.417000       1.00800           0
     66567 W2       22365    TIP3     H2       HT       0.417000       1.00800           0
     66568 W2       22366    TIP3     OH2      OT      -0.834000       15.9994           0
     66569 W2       22366    TIP3     H1       HT       0.417000       1.00800           0
     66570 W2       22366    TIP3     H2       HT       0.417000       1.00800           0
     66571 W2       22367    TIP3     OH2      OT      -0.834000       15.9994           0
     66572 W2       22367    TIP3     H1       HT       0.417000       1.00800           0
     66573 W2       22367    TIP3     H2       HT       0.417000       1.00800           0
     66574 W2       22368    TIP3     OH2      OT      -0.834000       15.9994           0
     66575 W2       22368    TIP3     H1       HT       0.417000       1.00800           0
     66576 W2       22368    TIP3     H2       HT       0.417000       1.00800           0
     66577 W2       22369    TIP3     OH2      OT      -0.834000       15.9994           0
     66578 W2       22369    TIP3     H1       HT       0.417000       1.00800           0
     66579 W2       22369    TIP3     H2       HT       0.417000       1.00800           0
     66580 W2       22370    TIP3     OH2      OT      -0.834000       15.9994           0
     66581 W2       22370    TIP3     H1       HT       0.417000       1.00800           0
     66582 W2       22370    TIP3     H2       HT       0.417000       1.00800           0
     66583 W2       22371    TIP3     OH2      OT      -0.834000       15.9994           0
     66584 W2       22371    TIP3     H1       HT       0.417000       1.00800           0
     66585 W2       22371    TIP3     H2       HT       0.417000       1.00800           0
     66586 W2       22372    TIP3     OH2      OT      -0.834000       15.9994           0
     66587 W2       22372    TIP3     H1       HT       0.417000       1.00800           0
     66588 W2       22372    TIP3     H2       HT       0.417000       1.00800           0
     66589 W2       22373    TIP3     OH2      OT      -0.834000       15.9994           0
     66590 W2       22373    TIP3     H1       HT       0.417000       1.00800           0
     66591 W2       22373    TIP3     H2       HT       0.417000       1.00800           0
     66592 W2       22374    TIP3     OH2      OT      -0.834000       15.9994           0
     66593 W2       22374    TIP3     H1       HT       0.417000       1.00800           0
     66594 W2       22374    TIP3     H2       HT       0.417000       1.00800           0
     66595 W2       22375    TIP3     OH2      OT      -0.834000       15.9994           0
     66596 W2       22375    TIP3     H1       HT       0.417000       1.00800           0
     66597 W2       22375    TIP3     H2       HT       0.417000       1.00800           0
     66598 W2       22376    TIP3     OH2      OT      -0.834000       15.9994           0
     66599 W2       22376    TIP3     H1       HT       0.417000       1.00800           0
     66600 W2       22376    TIP3     H2       HT       0.417000       1.00800           0
     66601 W2       22377    TIP3     OH2      OT      -0.834000       15.9994           0
     66602 W2       22377    TIP3     H1       HT       0.417000       1.00800           0
     66603 W2       22377    TIP3     H2       HT       0.417000       1.00800           0
     66604 W2       22378    TIP3     OH2      OT      -0.834000       15.9994           0
     66605 W2       22378    TIP3     H1       HT       0.417000       1.00800           0
     66606 W2       22378    TIP3     H2       HT       0.417000       1.00800           0
     66607 W2       22381    TIP3     OH2      OT      -0.834000       15.9994           0
     66608 W2       22381    TIP3     H1       HT       0.417000       1.00800           0
     66609 W2       22381    TIP3     H2       HT       0.417000       1.00800           0
     66610 W2       22384    TIP3     OH2      OT      -0.834000       15.9994           0
     66611 W2       22384    TIP3     H1       HT       0.417000       1.00800           0
     66612 W2       22384    TIP3     H2       HT       0.417000       1.00800           0
     66613 W2       22385    TIP3     OH2      OT      -0.834000       15.9994           0
     66614 W2       22385    TIP3     H1       HT       0.417000       1.00800           0
     66615 W2       22385    TIP3     H2       HT       0.417000       1.00800           0
     66616 W2       22386    TIP3     OH2      OT      -0.834000       15.9994           0
     66617 W2       22386    TIP3     H1       HT       0.417000       1.00800           0
     66618 W2       22386    TIP3     H2       HT       0.417000       1.00800           0
     66619 W2       22387    TIP3     OH2      OT      -0.834000       15.9994           0
     66620 W2       22387    TIP3     H1       HT       0.417000       1.00800           0
     66621 W2       22387    TIP3     H2       HT       0.417000       1.00800           0
     66622 W2       22388    TIP3     OH2      OT      -0.834000       15.9994           0
     66623 W2       22388    TIP3     H1       HT       0.417000       1.00800           0
     66624 W2       22388    TIP3     H2       HT       0.417000       1.00800           0
     66625 W2       22389    TIP3     OH2      OT      -0.834000       15.9994           0
     66626 W2       22389    TIP3     H1       HT       0.417000       1.00800           0
     66627 W2       22389    TIP3     H2       HT       0.417000       1.00800           0
     66628 W2       22390    TIP3     OH2      OT      -0.834000       15.9994           0
     66629 W2       22390    TIP3     H1       HT       0.417000       1.00800           0
     66630 W2       22390    TIP3     H2       HT       0.417000       1.00800           0
     66631 W2       22391    TIP3     OH2      OT      -0.834000       15.9994           0
     66632 W2       22391    TIP3     H1       HT       0.417000       1.00800           0
     66633 W2       22391    TIP3     H2       HT       0.417000       1.00800           0
     66634 W2       22392    TIP3     OH2      OT      -0.834000       15.9994           0
     66635 W2       22392    TIP3     H1       HT       0.417000       1.00800           0
     66636 W2       22392    TIP3     H2       HT       0.417000       1.00800           0
     66637 W2       22393    TIP3     OH2      OT      -0.834000       15.9994           0
     66638 W2       22393    TIP3     H1       HT       0.417000       1.00800           0
     66639 W2       22393    TIP3     H2       HT       0.417000       1.00800           0
     66640 W2       22394    TIP3     OH2      OT      -0.834000       15.9994           0
     66641 W2       22394    TIP3     H1       HT       0.417000       1.00800           0
     66642 W2       22394    TIP3     H2       HT       0.417000       1.00800           0
     66643 W2       22395    TIP3     OH2      OT      -0.834000       15.9994           0
     66644 W2       22395    TIP3     H1       HT       0.417000       1.00800           0
     66645 W2       22395    TIP3     H2       HT       0.417000       1.00800           0
     66646 W2       22396    TIP3     OH2      OT      -0.834000       15.9994           0
     66647 W2       22396    TIP3     H1       HT       0.417000       1.00800           0
     66648 W2       22396    TIP3     H2       HT       0.417000       1.00800           0
     66649 W2       22397    TIP3     OH2      OT      -0.834000       15.9994           0
     66650 W2       22397    TIP3     H1       HT       0.417000       1.00800           0
     66651 W2       22397    TIP3     H2       HT       0.417000       1.00800           0
     66652 W2       22398    TIP3     OH2      OT      -0.834000       15.9994           0
     66653 W2       22398    TIP3     H1       HT       0.417000       1.00800           0
     66654 W2       22398    TIP3     H2       HT       0.417000       1.00800           0
     66655 W2       22400    TIP3     OH2      OT      -0.834000       15.9994           0
     66656 W2       22400    TIP3     H1       HT       0.417000       1.00800           0
     66657 W2       22400    TIP3     H2       HT       0.417000       1.00800           0
     66658 W2       22401    TIP3     OH2      OT      -0.834000       15.9994           0
     66659 W2       22401    TIP3     H1       HT       0.417000       1.00800           0
     66660 W2       22401    TIP3     H2       HT       0.417000       1.00800           0
     66661 W2       22402    TIP3     OH2      OT      -0.834000       15.9994           0
     66662 W2       22402    TIP3     H1       HT       0.417000       1.00800           0
     66663 W2       22402    TIP3     H2       HT       0.417000       1.00800           0
     66664 W2       22403    TIP3     OH2      OT      -0.834000       15.9994           0
     66665 W2       22403    TIP3     H1       HT       0.417000       1.00800           0
     66666 W2       22403    TIP3     H2       HT       0.417000       1.00800           0
     66667 W2       22404    TIP3     OH2      OT      -0.834000       15.9994           0
     66668 W2       22404    TIP3     H1       HT       0.417000       1.00800           0
     66669 W2       22404    TIP3     H2       HT       0.417000       1.00800           0
     66670 W2       22405    TIP3     OH2      OT      -0.834000       15.9994           0
     66671 W2       22405    TIP3     H1       HT       0.417000       1.00800           0
     66672 W2       22405    TIP3     H2       HT       0.417000       1.00800           0
     66673 W2       22406    TIP3     OH2      OT      -0.834000       15.9994           0
     66674 W2       22406    TIP3     H1       HT       0.417000       1.00800           0
     66675 W2       22406    TIP3     H2       HT       0.417000       1.00800           0
     66676 W2       22407    TIP3     OH2      OT      -0.834000       15.9994           0
     66677 W2       22407    TIP3     H1       HT       0.417000       1.00800           0
     66678 W2       22407    TIP3     H2       HT       0.417000       1.00800           0
     66679 W2       22408    TIP3     OH2      OT      -0.834000       15.9994           0
     66680 W2       22408    TIP3     H1       HT       0.417000       1.00800           0
     66681 W2       22408    TIP3     H2       HT       0.417000       1.00800           0
     66682 W2       22409    TIP3     OH2      OT      -0.834000       15.9994           0
     66683 W2       22409    TIP3     H1       HT       0.417000       1.00800           0
     66684 W2       22409    TIP3     H2       HT       0.417000       1.00800           0
     66685 W2       22410    TIP3     OH2      OT      -0.834000       15.9994           0
     66686 W2       22410    TIP3     H1       HT       0.417000       1.00800           0
     66687 W2       22410    TIP3     H2       HT       0.417000       1.00800           0
     66688 W2       22411    TIP3     OH2      OT      -0.834000       15.9994           0
     66689 W2       22411    TIP3     H1       HT       0.417000       1.00800           0
     66690 W2       22411    TIP3     H2       HT       0.417000       1.00800           0
     66691 W2       22413    TIP3     OH2      OT      -0.834000       15.9994           0
     66692 W2       22413    TIP3     H1       HT       0.417000       1.00800           0
     66693 W2       22413    TIP3     H2       HT       0.417000       1.00800           0
     66694 W2       22414    TIP3     OH2      OT      -0.834000       15.9994           0
     66695 W2       22414    TIP3     H1       HT       0.417000       1.00800           0
     66696 W2       22414    TIP3     H2       HT       0.417000       1.00800           0
     66697 W2       22415    TIP3     OH2      OT      -0.834000       15.9994           0
     66698 W2       22415    TIP3     H1       HT       0.417000       1.00800           0
     66699 W2       22415    TIP3     H2       HT       0.417000       1.00800           0
     66700 W2       22416    TIP3     OH2      OT      -0.834000       15.9994           0
     66701 W2       22416    TIP3     H1       HT       0.417000       1.00800           0
     66702 W2       22416    TIP3     H2       HT       0.417000       1.00800           0
     66703 W2       22418    TIP3     OH2      OT      -0.834000       15.9994           0
     66704 W2       22418    TIP3     H1       HT       0.417000       1.00800           0
     66705 W2       22418    TIP3     H2       HT       0.417000       1.00800           0
     66706 W2       22419    TIP3     OH2      OT      -0.834000       15.9994           0
     66707 W2       22419    TIP3     H1       HT       0.417000       1.00800           0
     66708 W2       22419    TIP3     H2       HT       0.417000       1.00800           0
     66709 W2       22420    TIP3     OH2      OT      -0.834000       15.9994           0
     66710 W2       22420    TIP3     H1       HT       0.417000       1.00800           0
     66711 W2       22420    TIP3     H2       HT       0.417000       1.00800           0
     66712 W2       22421    TIP3     OH2      OT      -0.834000       15.9994           0
     66713 W2       22421    TIP3     H1       HT       0.417000       1.00800           0
     66714 W2       22421    TIP3     H2       HT       0.417000       1.00800           0
     66715 W2       22423    TIP3     OH2      OT      -0.834000       15.9994           0
     66716 W2       22423    TIP3     H1       HT       0.417000       1.00800           0
     66717 W2       22423    TIP3     H2       HT       0.417000       1.00800           0
     66718 W2       22425    TIP3     OH2      OT      -0.834000       15.9994           0
     66719 W2       22425    TIP3     H1       HT       0.417000       1.00800           0
     66720 W2       22425    TIP3     H2       HT       0.417000       1.00800           0
     66721 W2       22427    TIP3     OH2      OT      -0.834000       15.9994           0
     66722 W2       22427    TIP3     H1       HT       0.417000       1.00800           0
     66723 W2       22427    TIP3     H2       HT       0.417000       1.00800           0
     66724 W2       22428    TIP3     OH2      OT      -0.834000       15.9994           0
     66725 W2       22428    TIP3     H1       HT       0.417000       1.00800           0
     66726 W2       22428    TIP3     H2       HT       0.417000       1.00800           0
     66727 W2       22429    TIP3     OH2      OT      -0.834000       15.9994           0
     66728 W2       22429    TIP3     H1       HT       0.417000       1.00800           0
     66729 W2       22429    TIP3     H2       HT       0.417000       1.00800           0
     66730 W2       22430    TIP3     OH2      OT      -0.834000       15.9994           0
     66731 W2       22430    TIP3     H1       HT       0.417000       1.00800           0
     66732 W2       22430    TIP3     H2       HT       0.417000       1.00800           0
     66733 W2       22431    TIP3     OH2      OT      -0.834000       15.9994           0
     66734 W2       22431    TIP3     H1       HT       0.417000       1.00800           0
     66735 W2       22431    TIP3     H2       HT       0.417000       1.00800           0
     66736 W2       22434    TIP3     OH2      OT      -0.834000       15.9994           0
     66737 W2       22434    TIP3     H1       HT       0.417000       1.00800           0
     66738 W2       22434    TIP3     H2       HT       0.417000       1.00800           0
     66739 W2       22435    TIP3     OH2      OT      -0.834000       15.9994           0
     66740 W2       22435    TIP3     H1       HT       0.417000       1.00800           0
     66741 W2       22435    TIP3     H2       HT       0.417000       1.00800           0
     66742 W2       22436    TIP3     OH2      OT      -0.834000       15.9994           0
     66743 W2       22436    TIP3     H1       HT       0.417000       1.00800           0
     66744 W2       22436    TIP3     H2       HT       0.417000       1.00800           0
     66745 W2       22437    TIP3     OH2      OT      -0.834000       15.9994           0
     66746 W2       22437    TIP3     H1       HT       0.417000       1.00800           0
     66747 W2       22437    TIP3     H2       HT       0.417000       1.00800           0
     66748 W2       22440    TIP3     OH2      OT      -0.834000       15.9994           0
     66749 W2       22440    TIP3     H1       HT       0.417000       1.00800           0
     66750 W2       22440    TIP3     H2       HT       0.417000       1.00800           0
     66751 W2       22443    TIP3     OH2      OT      -0.834000       15.9994           0
     66752 W2       22443    TIP3     H1       HT       0.417000       1.00800           0
     66753 W2       22443    TIP3     H2       HT       0.417000       1.00800           0
     66754 W2       22444    TIP3     OH2      OT      -0.834000       15.9994           0
     66755 W2       22444    TIP3     H1       HT       0.417000       1.00800           0
     66756 W2       22444    TIP3     H2       HT       0.417000       1.00800           0
     66757 W2       22445    TIP3     OH2      OT      -0.834000       15.9994           0
     66758 W2       22445    TIP3     H1       HT       0.417000       1.00800           0
     66759 W2       22445    TIP3     H2       HT       0.417000       1.00800           0
     66760 W2       22446    TIP3     OH2      OT      -0.834000       15.9994           0
     66761 W2       22446    TIP3     H1       HT       0.417000       1.00800           0
     66762 W2       22446    TIP3     H2       HT       0.417000       1.00800           0
     66763 W2       22447    TIP3     OH2      OT      -0.834000       15.9994           0
     66764 W2       22447    TIP3     H1       HT       0.417000       1.00800           0
     66765 W2       22447    TIP3     H2       HT       0.417000       1.00800           0
     66766 W2       22449    TIP3     OH2      OT      -0.834000       15.9994           0
     66767 W2       22449    TIP3     H1       HT       0.417000       1.00800           0
     66768 W2       22449    TIP3     H2       HT       0.417000       1.00800           0
     66769 W2       22450    TIP3     OH2      OT      -0.834000       15.9994           0
     66770 W2       22450    TIP3     H1       HT       0.417000       1.00800           0
     66771 W2       22450    TIP3     H2       HT       0.417000       1.00800           0
     66772 W2       22451    TIP3     OH2      OT      -0.834000       15.9994           0
     66773 W2       22451    TIP3     H1       HT       0.417000       1.00800           0
     66774 W2       22451    TIP3     H2       HT       0.417000       1.00800           0
     66775 W2       22452    TIP3     OH2      OT      -0.834000       15.9994           0
     66776 W2       22452    TIP3     H1       HT       0.417000       1.00800           0
     66777 W2       22452    TIP3     H2       HT       0.417000       1.00800           0
     66778 W2       22453    TIP3     OH2      OT      -0.834000       15.9994           0
     66779 W2       22453    TIP3     H1       HT       0.417000       1.00800           0
     66780 W2       22453    TIP3     H2       HT       0.417000       1.00800           0
     66781 W2       22454    TIP3     OH2      OT      -0.834000       15.9994           0
     66782 W2       22454    TIP3     H1       HT       0.417000       1.00800           0
     66783 W2       22454    TIP3     H2       HT       0.417000       1.00800           0
     66784 W2       22455    TIP3     OH2      OT      -0.834000       15.9994           0
     66785 W2       22455    TIP3     H1       HT       0.417000       1.00800           0
     66786 W2       22455    TIP3     H2       HT       0.417000       1.00800           0
     66787 W2       22456    TIP3     OH2      OT      -0.834000       15.9994           0
     66788 W2       22456    TIP3     H1       HT       0.417000       1.00800           0
     66789 W2       22456    TIP3     H2       HT       0.417000       1.00800           0
     66790 W2       22457    TIP3     OH2      OT      -0.834000       15.9994           0
     66791 W2       22457    TIP3     H1       HT       0.417000       1.00800           0
     66792 W2       22457    TIP3     H2       HT       0.417000       1.00800           0
     66793 W2       22458    TIP3     OH2      OT      -0.834000       15.9994           0
     66794 W2       22458    TIP3     H1       HT       0.417000       1.00800           0
     66795 W2       22458    TIP3     H2       HT       0.417000       1.00800           0
     66796 W2       22459    TIP3     OH2      OT      -0.834000       15.9994           0
     66797 W2       22459    TIP3     H1       HT       0.417000       1.00800           0
     66798 W2       22459    TIP3     H2       HT       0.417000       1.00800           0
     66799 W2       22462    TIP3     OH2      OT      -0.834000       15.9994           0
     66800 W2       22462    TIP3     H1       HT       0.417000       1.00800           0
     66801 W2       22462    TIP3     H2       HT       0.417000       1.00800           0
     66802 W2       22463    TIP3     OH2      OT      -0.834000       15.9994           0
     66803 W2       22463    TIP3     H1       HT       0.417000       1.00800           0
     66804 W2       22463    TIP3     H2       HT       0.417000       1.00800           0
     66805 W2       22464    TIP3     OH2      OT      -0.834000       15.9994           0
     66806 W2       22464    TIP3     H1       HT       0.417000       1.00800           0
     66807 W2       22464    TIP3     H2       HT       0.417000       1.00800           0
     66808 W2       22465    TIP3     OH2      OT      -0.834000       15.9994           0
     66809 W2       22465    TIP3     H1       HT       0.417000       1.00800           0
     66810 W2       22465    TIP3     H2       HT       0.417000       1.00800           0
     66811 W2       22466    TIP3     OH2      OT      -0.834000       15.9994           0
     66812 W2       22466    TIP3     H1       HT       0.417000       1.00800           0
     66813 W2       22466    TIP3     H2       HT       0.417000       1.00800           0
     66814 W2       22467    TIP3     OH2      OT      -0.834000       15.9994           0
     66815 W2       22467    TIP3     H1       HT       0.417000       1.00800           0
     66816 W2       22467    TIP3     H2       HT       0.417000       1.00800           0
     66817 W2       22469    TIP3     OH2      OT      -0.834000       15.9994           0
     66818 W2       22469    TIP3     H1       HT       0.417000       1.00800           0
     66819 W2       22469    TIP3     H2       HT       0.417000       1.00800           0
     66820 W2       22470    TIP3     OH2      OT      -0.834000       15.9994           0
     66821 W2       22470    TIP3     H1       HT       0.417000       1.00800           0
     66822 W2       22470    TIP3     H2       HT       0.417000       1.00800           0
     66823 W2       22471    TIP3     OH2      OT      -0.834000       15.9994           0
     66824 W2       22471    TIP3     H1       HT       0.417000       1.00800           0
     66825 W2       22471    TIP3     H2       HT       0.417000       1.00800           0
     66826 W2       22475    TIP3     OH2      OT      -0.834000       15.9994           0
     66827 W2       22475    TIP3     H1       HT       0.417000       1.00800           0
     66828 W2       22475    TIP3     H2       HT       0.417000       1.00800           0
     66829 W2       22477    TIP3     OH2      OT      -0.834000       15.9994           0
     66830 W2       22477    TIP3     H1       HT       0.417000       1.00800           0
     66831 W2       22477    TIP3     H2       HT       0.417000       1.00800           0
     66832 W2       22478    TIP3     OH2      OT      -0.834000       15.9994           0
     66833 W2       22478    TIP3     H1       HT       0.417000       1.00800           0
     66834 W2       22478    TIP3     H2       HT       0.417000       1.00800           0
     66835 W2       22479    TIP3     OH2      OT      -0.834000       15.9994           0
     66836 W2       22479    TIP3     H1       HT       0.417000       1.00800           0
     66837 W2       22479    TIP3     H2       HT       0.417000       1.00800           0
     66838 W2       22480    TIP3     OH2      OT      -0.834000       15.9994           0
     66839 W2       22480    TIP3     H1       HT       0.417000       1.00800           0
     66840 W2       22480    TIP3     H2       HT       0.417000       1.00800           0
     66841 W2       22481    TIP3     OH2      OT      -0.834000       15.9994           0
     66842 W2       22481    TIP3     H1       HT       0.417000       1.00800           0
     66843 W2       22481    TIP3     H2       HT       0.417000       1.00800           0
     66844 W2       22482    TIP3     OH2      OT      -0.834000       15.9994           0
     66845 W2       22482    TIP3     H1       HT       0.417000       1.00800           0
     66846 W2       22482    TIP3     H2       HT       0.417000       1.00800           0
     66847 W2       22483    TIP3     OH2      OT      -0.834000       15.9994           0
     66848 W2       22483    TIP3     H1       HT       0.417000       1.00800           0
     66849 W2       22483    TIP3     H2       HT       0.417000       1.00800           0
     66850 W2       22484    TIP3     OH2      OT      -0.834000       15.9994           0
     66851 W2       22484    TIP3     H1       HT       0.417000       1.00800           0
     66852 W2       22484    TIP3     H2       HT       0.417000       1.00800           0
     66853 W2       22485    TIP3     OH2      OT      -0.834000       15.9994           0
     66854 W2       22485    TIP3     H1       HT       0.417000       1.00800           0
     66855 W2       22485    TIP3     H2       HT       0.417000       1.00800           0
     66856 W2       22487    TIP3     OH2      OT      -0.834000       15.9994           0
     66857 W2       22487    TIP3     H1       HT       0.417000       1.00800           0
     66858 W2       22487    TIP3     H2       HT       0.417000       1.00800           0
     66859 W2       22489    TIP3     OH2      OT      -0.834000       15.9994           0
     66860 W2       22489    TIP3     H1       HT       0.417000       1.00800           0
     66861 W2       22489    TIP3     H2       HT       0.417000       1.00800           0
     66862 W2       22490    TIP3     OH2      OT      -0.834000       15.9994           0
     66863 W2       22490    TIP3     H1       HT       0.417000       1.00800           0
     66864 W2       22490    TIP3     H2       HT       0.417000       1.00800           0
     66865 W2       22491    TIP3     OH2      OT      -0.834000       15.9994           0
     66866 W2       22491    TIP3     H1       HT       0.417000       1.00800           0
     66867 W2       22491    TIP3     H2       HT       0.417000       1.00800           0
     66868 W2       22492    TIP3     OH2      OT      -0.834000       15.9994           0
     66869 W2       22492    TIP3     H1       HT       0.417000       1.00800           0
     66870 W2       22492    TIP3     H2       HT       0.417000       1.00800           0
     66871 W2       22493    TIP3     OH2      OT      -0.834000       15.9994           0
     66872 W2       22493    TIP3     H1       HT       0.417000       1.00800           0
     66873 W2       22493    TIP3     H2       HT       0.417000       1.00800           0
     66874 W2       22494    TIP3     OH2      OT      -0.834000       15.9994           0
     66875 W2       22494    TIP3     H1       HT       0.417000       1.00800           0
     66876 W2       22494    TIP3     H2       HT       0.417000       1.00800           0
     66877 W2       22495    TIP3     OH2      OT      -0.834000       15.9994           0
     66878 W2       22495    TIP3     H1       HT       0.417000       1.00800           0
     66879 W2       22495    TIP3     H2       HT       0.417000       1.00800           0
     66880 W2       22496    TIP3     OH2      OT      -0.834000       15.9994           0
     66881 W2       22496    TIP3     H1       HT       0.417000       1.00800           0
     66882 W2       22496    TIP3     H2       HT       0.417000       1.00800           0
     66883 W2       22497    TIP3     OH2      OT      -0.834000       15.9994           0
     66884 W2       22497    TIP3     H1       HT       0.417000       1.00800           0
     66885 W2       22497    TIP3     H2       HT       0.417000       1.00800           0
     66886 W2       22499    TIP3     OH2      OT      -0.834000       15.9994           0
     66887 W2       22499    TIP3     H1       HT       0.417000       1.00800           0
     66888 W2       22499    TIP3     H2       HT       0.417000       1.00800           0
     66889 W2       22500    TIP3     OH2      OT      -0.834000       15.9994           0
     66890 W2       22500    TIP3     H1       HT       0.417000       1.00800           0
     66891 W2       22500    TIP3     H2       HT       0.417000       1.00800           0
     66892 W2       22501    TIP3     OH2      OT      -0.834000       15.9994           0
     66893 W2       22501    TIP3     H1       HT       0.417000       1.00800           0
     66894 W2       22501    TIP3     H2       HT       0.417000       1.00800           0
     66895 W2       22503    TIP3     OH2      OT      -0.834000       15.9994           0
     66896 W2       22503    TIP3     H1       HT       0.417000       1.00800           0
     66897 W2       22503    TIP3     H2       HT       0.417000       1.00800           0
     66898 W2       22504    TIP3     OH2      OT      -0.834000       15.9994           0
     66899 W2       22504    TIP3     H1       HT       0.417000       1.00800           0
     66900 W2       22504    TIP3     H2       HT       0.417000       1.00800           0
     66901 W2       22505    TIP3     OH2      OT      -0.834000       15.9994           0
     66902 W2       22505    TIP3     H1       HT       0.417000       1.00800           0
     66903 W2       22505    TIP3     H2       HT       0.417000       1.00800           0
     66904 W2       22506    TIP3     OH2      OT      -0.834000       15.9994           0
     66905 W2       22506    TIP3     H1       HT       0.417000       1.00800           0
     66906 W2       22506    TIP3     H2       HT       0.417000       1.00800           0
     66907 W2       22507    TIP3     OH2      OT      -0.834000       15.9994           0
     66908 W2       22507    TIP3     H1       HT       0.417000       1.00800           0
     66909 W2       22507    TIP3     H2       HT       0.417000       1.00800           0
     66910 W2       22508    TIP3     OH2      OT      -0.834000       15.9994           0
     66911 W2       22508    TIP3     H1       HT       0.417000       1.00800           0
     66912 W2       22508    TIP3     H2       HT       0.417000       1.00800           0
     66913 W2       22511    TIP3     OH2      OT      -0.834000       15.9994           0
     66914 W2       22511    TIP3     H1       HT       0.417000       1.00800           0
     66915 W2       22511    TIP3     H2       HT       0.417000       1.00800           0
     66916 W2       22513    TIP3     OH2      OT      -0.834000       15.9994           0
     66917 W2       22513    TIP3     H1       HT       0.417000       1.00800           0
     66918 W2       22513    TIP3     H2       HT       0.417000       1.00800           0
     66919 W2       22515    TIP3     OH2      OT      -0.834000       15.9994           0
     66920 W2       22515    TIP3     H1       HT       0.417000       1.00800           0
     66921 W2       22515    TIP3     H2       HT       0.417000       1.00800           0
     66922 W2       22517    TIP3     OH2      OT      -0.834000       15.9994           0
     66923 W2       22517    TIP3     H1       HT       0.417000       1.00800           0
     66924 W2       22517    TIP3     H2       HT       0.417000       1.00800           0
     66925 W2       22520    TIP3     OH2      OT      -0.834000       15.9994           0
     66926 W2       22520    TIP3     H1       HT       0.417000       1.00800           0
     66927 W2       22520    TIP3     H2       HT       0.417000       1.00800           0
     66928 W2       22522    TIP3     OH2      OT      -0.834000       15.9994           0
     66929 W2       22522    TIP3     H1       HT       0.417000       1.00800           0
     66930 W2       22522    TIP3     H2       HT       0.417000       1.00800           0
     66931 W2       22524    TIP3     OH2      OT      -0.834000       15.9994           0
     66932 W2       22524    TIP3     H1       HT       0.417000       1.00800           0
     66933 W2       22524    TIP3     H2       HT       0.417000       1.00800           0
     66934 W2       22526    TIP3     OH2      OT      -0.834000       15.9994           0
     66935 W2       22526    TIP3     H1       HT       0.417000       1.00800           0
     66936 W2       22526    TIP3     H2       HT       0.417000       1.00800           0
     66937 W2       22538    TIP3     OH2      OT      -0.834000       15.9994           0
     66938 W2       22538    TIP3     H1       HT       0.417000       1.00800           0
     66939 W2       22538    TIP3     H2       HT       0.417000       1.00800           0
     66940 W2       22539    TIP3     OH2      OT      -0.834000       15.9994           0
     66941 W2       22539    TIP3     H1       HT       0.417000       1.00800           0
     66942 W2       22539    TIP3     H2       HT       0.417000       1.00800           0
     66943 W2       22540    TIP3     OH2      OT      -0.834000       15.9994           0
     66944 W2       22540    TIP3     H1       HT       0.417000       1.00800           0
     66945 W2       22540    TIP3     H2       HT       0.417000       1.00800           0
     66946 W2       22541    TIP3     OH2      OT      -0.834000       15.9994           0
     66947 W2       22541    TIP3     H1       HT       0.417000       1.00800           0
     66948 W2       22541    TIP3     H2       HT       0.417000       1.00800           0
     66949 W2       22542    TIP3     OH2      OT      -0.834000       15.9994           0
     66950 W2       22542    TIP3     H1       HT       0.417000       1.00800           0
     66951 W2       22542    TIP3     H2       HT       0.417000       1.00800           0
     66952 W2       22545    TIP3     OH2      OT      -0.834000       15.9994           0
     66953 W2       22545    TIP3     H1       HT       0.417000       1.00800           0
     66954 W2       22545    TIP3     H2       HT       0.417000       1.00800           0
     66955 W2       22546    TIP3     OH2      OT      -0.834000       15.9994           0
     66956 W2       22546    TIP3     H1       HT       0.417000       1.00800           0
     66957 W2       22546    TIP3     H2       HT       0.417000       1.00800           0
     66958 W2       22547    TIP3     OH2      OT      -0.834000       15.9994           0
     66959 W2       22547    TIP3     H1       HT       0.417000       1.00800           0
     66960 W2       22547    TIP3     H2       HT       0.417000       1.00800           0
     66961 W2       22548    TIP3     OH2      OT      -0.834000       15.9994           0
     66962 W2       22548    TIP3     H1       HT       0.417000       1.00800           0
     66963 W2       22548    TIP3     H2       HT       0.417000       1.00800           0
     66964 W2       22549    TIP3     OH2      OT      -0.834000       15.9994           0
     66965 W2       22549    TIP3     H1       HT       0.417000       1.00800           0
     66966 W2       22549    TIP3     H2       HT       0.417000       1.00800           0
     66967 W2       22550    TIP3     OH2      OT      -0.834000       15.9994           0
     66968 W2       22550    TIP3     H1       HT       0.417000       1.00800           0
     66969 W2       22550    TIP3     H2       HT       0.417000       1.00800           0
     66970 W2       22551    TIP3     OH2      OT      -0.834000       15.9994           0
     66971 W2       22551    TIP3     H1       HT       0.417000       1.00800           0
     66972 W2       22551    TIP3     H2       HT       0.417000       1.00800           0
     66973 W2       22552    TIP3     OH2      OT      -0.834000       15.9994           0
     66974 W2       22552    TIP3     H1       HT       0.417000       1.00800           0
     66975 W2       22552    TIP3     H2       HT       0.417000       1.00800           0
     66976 W2       22555    TIP3     OH2      OT      -0.834000       15.9994           0
     66977 W2       22555    TIP3     H1       HT       0.417000       1.00800           0
     66978 W2       22555    TIP3     H2       HT       0.417000       1.00800           0
     66979 W2       22556    TIP3     OH2      OT      -0.834000       15.9994           0
     66980 W2       22556    TIP3     H1       HT       0.417000       1.00800           0
     66981 W2       22556    TIP3     H2       HT       0.417000       1.00800           0
     66982 W2       22557    TIP3     OH2      OT      -0.834000       15.9994           0
     66983 W2       22557    TIP3     H1       HT       0.417000       1.00800           0
     66984 W2       22557    TIP3     H2       HT       0.417000       1.00800           0
     66985 W2       22558    TIP3     OH2      OT      -0.834000       15.9994           0
     66986 W2       22558    TIP3     H1       HT       0.417000       1.00800           0
     66987 W2       22558    TIP3     H2       HT       0.417000       1.00800           0
     66988 W2       22561    TIP3     OH2      OT      -0.834000       15.9994           0
     66989 W2       22561    TIP3     H1       HT       0.417000       1.00800           0
     66990 W2       22561    TIP3     H2       HT       0.417000       1.00800           0
     66991 W2       22562    TIP3     OH2      OT      -0.834000       15.9994           0
     66992 W2       22562    TIP3     H1       HT       0.417000       1.00800           0
     66993 W2       22562    TIP3     H2       HT       0.417000       1.00800           0
     66994 W2       22563    TIP3     OH2      OT      -0.834000       15.9994           0
     66995 W2       22563    TIP3     H1       HT       0.417000       1.00800           0
     66996 W2       22563    TIP3     H2       HT       0.417000       1.00800           0
     66997 W2       22565    TIP3     OH2      OT      -0.834000       15.9994           0
     66998 W2       22565    TIP3     H1       HT       0.417000       1.00800           0
     66999 W2       22565    TIP3     H2       HT       0.417000       1.00800           0
     67000 W2       22566    TIP3     OH2      OT      -0.834000       15.9994           0
     67001 W2       22566    TIP3     H1       HT       0.417000       1.00800           0
     67002 W2       22566    TIP3     H2       HT       0.417000       1.00800           0
     67003 W2       22567    TIP3     OH2      OT      -0.834000       15.9994           0
     67004 W2       22567    TIP3     H1       HT       0.417000       1.00800           0
     67005 W2       22567    TIP3     H2       HT       0.417000       1.00800           0
     67006 W2       22568    TIP3     OH2      OT      -0.834000       15.9994           0
     67007 W2       22568    TIP3     H1       HT       0.417000       1.00800           0
     67008 W2       22568    TIP3     H2       HT       0.417000       1.00800           0
     67009 W2       22570    TIP3     OH2      OT      -0.834000       15.9994           0
     67010 W2       22570    TIP3     H1       HT       0.417000       1.00800           0
     67011 W2       22570    TIP3     H2       HT       0.417000       1.00800           0
     67012 W2       22574    TIP3     OH2      OT      -0.834000       15.9994           0
     67013 W2       22574    TIP3     H1       HT       0.417000       1.00800           0
     67014 W2       22574    TIP3     H2       HT       0.417000       1.00800           0
     67015 W2       22575    TIP3     OH2      OT      -0.834000       15.9994           0
     67016 W2       22575    TIP3     H1       HT       0.417000       1.00800           0
     67017 W2       22575    TIP3     H2       HT       0.417000       1.00800           0
     67018 W2       22576    TIP3     OH2      OT      -0.834000       15.9994           0
     67019 W2       22576    TIP3     H1       HT       0.417000       1.00800           0
     67020 W2       22576    TIP3     H2       HT       0.417000       1.00800           0
     67021 W2       22577    TIP3     OH2      OT      -0.834000       15.9994           0
     67022 W2       22577    TIP3     H1       HT       0.417000       1.00800           0
     67023 W2       22577    TIP3     H2       HT       0.417000       1.00800           0
     67024 W2       22578    TIP3     OH2      OT      -0.834000       15.9994           0
     67025 W2       22578    TIP3     H1       HT       0.417000       1.00800           0
     67026 W2       22578    TIP3     H2       HT       0.417000       1.00800           0
     67027 W2       22579    TIP3     OH2      OT      -0.834000       15.9994           0
     67028 W2       22579    TIP3     H1       HT       0.417000       1.00800           0
     67029 W2       22579    TIP3     H2       HT       0.417000       1.00800           0
     67030 W2       22580    TIP3     OH2      OT      -0.834000       15.9994           0
     67031 W2       22580    TIP3     H1       HT       0.417000       1.00800           0
     67032 W2       22580    TIP3     H2       HT       0.417000       1.00800           0
     67033 W2       22581    TIP3     OH2      OT      -0.834000       15.9994           0
     67034 W2       22581    TIP3     H1       HT       0.417000       1.00800           0
     67035 W2       22581    TIP3     H2       HT       0.417000       1.00800           0
     67036 W2       22582    TIP3     OH2      OT      -0.834000       15.9994           0
     67037 W2       22582    TIP3     H1       HT       0.417000       1.00800           0
     67038 W2       22582    TIP3     H2       HT       0.417000       1.00800           0
     67039 W2       22583    TIP3     OH2      OT      -0.834000       15.9994           0
     67040 W2       22583    TIP3     H1       HT       0.417000       1.00800           0
     67041 W2       22583    TIP3     H2       HT       0.417000       1.00800           0
     67042 W2       22584    TIP3     OH2      OT      -0.834000       15.9994           0
     67043 W2       22584    TIP3     H1       HT       0.417000       1.00800           0
     67044 W2       22584    TIP3     H2       HT       0.417000       1.00800           0
     67045 W2       22585    TIP3     OH2      OT      -0.834000       15.9994           0
     67046 W2       22585    TIP3     H1       HT       0.417000       1.00800           0
     67047 W2       22585    TIP3     H2       HT       0.417000       1.00800           0
     67048 W2       22586    TIP3     OH2      OT      -0.834000       15.9994           0
     67049 W2       22586    TIP3     H1       HT       0.417000       1.00800           0
     67050 W2       22586    TIP3     H2       HT       0.417000       1.00800           0
     67051 W2       22587    TIP3     OH2      OT      -0.834000       15.9994           0
     67052 W2       22587    TIP3     H1       HT       0.417000       1.00800           0
     67053 W2       22587    TIP3     H2       HT       0.417000       1.00800           0
     67054 W2       22588    TIP3     OH2      OT      -0.834000       15.9994           0
     67055 W2       22588    TIP3     H1       HT       0.417000       1.00800           0
     67056 W2       22588    TIP3     H2       HT       0.417000       1.00800           0
     67057 W2       22589    TIP3     OH2      OT      -0.834000       15.9994           0
     67058 W2       22589    TIP3     H1       HT       0.417000       1.00800           0
     67059 W2       22589    TIP3     H2       HT       0.417000       1.00800           0
     67060 W2       22590    TIP3     OH2      OT      -0.834000       15.9994           0
     67061 W2       22590    TIP3     H1       HT       0.417000       1.00800           0
     67062 W2       22590    TIP3     H2       HT       0.417000       1.00800           0
     67063 W2       22591    TIP3     OH2      OT      -0.834000       15.9994           0
     67064 W2       22591    TIP3     H1       HT       0.417000       1.00800           0
     67065 W2       22591    TIP3     H2       HT       0.417000       1.00800           0
     67066 W2       22592    TIP3     OH2      OT      -0.834000       15.9994           0
     67067 W2       22592    TIP3     H1       HT       0.417000       1.00800           0
     67068 W2       22592    TIP3     H2       HT       0.417000       1.00800           0
     67069 W2       22593    TIP3     OH2      OT      -0.834000       15.9994           0
     67070 W2       22593    TIP3     H1       HT       0.417000       1.00800           0
     67071 W2       22593    TIP3     H2       HT       0.417000       1.00800           0
     67072 W2       22594    TIP3     OH2      OT      -0.834000       15.9994           0
     67073 W2       22594    TIP3     H1       HT       0.417000       1.00800           0
     67074 W2       22594    TIP3     H2       HT       0.417000       1.00800           0
     67075 W2       22597    TIP3     OH2      OT      -0.834000       15.9994           0
     67076 W2       22597    TIP3     H1       HT       0.417000       1.00800           0
     67077 W2       22597    TIP3     H2       HT       0.417000       1.00800           0
     67078 W2       22600    TIP3     OH2      OT      -0.834000       15.9994           0
     67079 W2       22600    TIP3     H1       HT       0.417000       1.00800           0
     67080 W2       22600    TIP3     H2       HT       0.417000       1.00800           0
     67081 W2       22601    TIP3     OH2      OT      -0.834000       15.9994           0
     67082 W2       22601    TIP3     H1       HT       0.417000       1.00800           0
     67083 W2       22601    TIP3     H2       HT       0.417000       1.00800           0
     67084 W2       22602    TIP3     OH2      OT      -0.834000       15.9994           0
     67085 W2       22602    TIP3     H1       HT       0.417000       1.00800           0
     67086 W2       22602    TIP3     H2       HT       0.417000       1.00800           0
     67087 W2       22603    TIP3     OH2      OT      -0.834000       15.9994           0
     67088 W2       22603    TIP3     H1       HT       0.417000       1.00800           0
     67089 W2       22603    TIP3     H2       HT       0.417000       1.00800           0
     67090 W2       22604    TIP3     OH2      OT      -0.834000       15.9994           0
     67091 W2       22604    TIP3     H1       HT       0.417000       1.00800           0
     67092 W2       22604    TIP3     H2       HT       0.417000       1.00800           0
     67093 W2       22605    TIP3     OH2      OT      -0.834000       15.9994           0
     67094 W2       22605    TIP3     H1       HT       0.417000       1.00800           0
     67095 W2       22605    TIP3     H2       HT       0.417000       1.00800           0
     67096 W2       22606    TIP3     OH2      OT      -0.834000       15.9994           0
     67097 W2       22606    TIP3     H1       HT       0.417000       1.00800           0
     67098 W2       22606    TIP3     H2       HT       0.417000       1.00800           0
     67099 W2       22607    TIP3     OH2      OT      -0.834000       15.9994           0
     67100 W2       22607    TIP3     H1       HT       0.417000       1.00800           0
     67101 W2       22607    TIP3     H2       HT       0.417000       1.00800           0
     67102 W2       22608    TIP3     OH2      OT      -0.834000       15.9994           0
     67103 W2       22608    TIP3     H1       HT       0.417000       1.00800           0
     67104 W2       22608    TIP3     H2       HT       0.417000       1.00800           0
     67105 W2       22609    TIP3     OH2      OT      -0.834000       15.9994           0
     67106 W2       22609    TIP3     H1       HT       0.417000       1.00800           0
     67107 W2       22609    TIP3     H2       HT       0.417000       1.00800           0
     67108 W2       22610    TIP3     OH2      OT      -0.834000       15.9994           0
     67109 W2       22610    TIP3     H1       HT       0.417000       1.00800           0
     67110 W2       22610    TIP3     H2       HT       0.417000       1.00800           0
     67111 W2       22611    TIP3     OH2      OT      -0.834000       15.9994           0
     67112 W2       22611    TIP3     H1       HT       0.417000       1.00800           0
     67113 W2       22611    TIP3     H2       HT       0.417000       1.00800           0
     67114 W2       22612    TIP3     OH2      OT      -0.834000       15.9994           0
     67115 W2       22612    TIP3     H1       HT       0.417000       1.00800           0
     67116 W2       22612    TIP3     H2       HT       0.417000       1.00800           0
     67117 W2       22613    TIP3     OH2      OT      -0.834000       15.9994           0
     67118 W2       22613    TIP3     H1       HT       0.417000       1.00800           0
     67119 W2       22613    TIP3     H2       HT       0.417000       1.00800           0
     67120 W2       22614    TIP3     OH2      OT      -0.834000       15.9994           0
     67121 W2       22614    TIP3     H1       HT       0.417000       1.00800           0
     67122 W2       22614    TIP3     H2       HT       0.417000       1.00800           0
     67123 W2       22616    TIP3     OH2      OT      -0.834000       15.9994           0
     67124 W2       22616    TIP3     H1       HT       0.417000       1.00800           0
     67125 W2       22616    TIP3     H2       HT       0.417000       1.00800           0
     67126 W2       22617    TIP3     OH2      OT      -0.834000       15.9994           0
     67127 W2       22617    TIP3     H1       HT       0.417000       1.00800           0
     67128 W2       22617    TIP3     H2       HT       0.417000       1.00800           0
     67129 W2       22618    TIP3     OH2      OT      -0.834000       15.9994           0
     67130 W2       22618    TIP3     H1       HT       0.417000       1.00800           0
     67131 W2       22618    TIP3     H2       HT       0.417000       1.00800           0
     67132 W2       22619    TIP3     OH2      OT      -0.834000       15.9994           0
     67133 W2       22619    TIP3     H1       HT       0.417000       1.00800           0
     67134 W2       22619    TIP3     H2       HT       0.417000       1.00800           0
     67135 W2       22620    TIP3     OH2      OT      -0.834000       15.9994           0
     67136 W2       22620    TIP3     H1       HT       0.417000       1.00800           0
     67137 W2       22620    TIP3     H2       HT       0.417000       1.00800           0
     67138 W2       22621    TIP3     OH2      OT      -0.834000       15.9994           0
     67139 W2       22621    TIP3     H1       HT       0.417000       1.00800           0
     67140 W2       22621    TIP3     H2       HT       0.417000       1.00800           0
     67141 W2       22622    TIP3     OH2      OT      -0.834000       15.9994           0
     67142 W2       22622    TIP3     H1       HT       0.417000       1.00800           0
     67143 W2       22622    TIP3     H2       HT       0.417000       1.00800           0
     67144 W2       22623    TIP3     OH2      OT      -0.834000       15.9994           0
     67145 W2       22623    TIP3     H1       HT       0.417000       1.00800           0
     67146 W2       22623    TIP3     H2       HT       0.417000       1.00800           0
     67147 W2       22624    TIP3     OH2      OT      -0.834000       15.9994           0
     67148 W2       22624    TIP3     H1       HT       0.417000       1.00800           0
     67149 W2       22624    TIP3     H2       HT       0.417000       1.00800           0
     67150 W2       22625    TIP3     OH2      OT      -0.834000       15.9994           0
     67151 W2       22625    TIP3     H1       HT       0.417000       1.00800           0
     67152 W2       22625    TIP3     H2       HT       0.417000       1.00800           0
     67153 W2       22626    TIP3     OH2      OT      -0.834000       15.9994           0
     67154 W2       22626    TIP3     H1       HT       0.417000       1.00800           0
     67155 W2       22626    TIP3     H2       HT       0.417000       1.00800           0
     67156 W2       22627    TIP3     OH2      OT      -0.834000       15.9994           0
     67157 W2       22627    TIP3     H1       HT       0.417000       1.00800           0
     67158 W2       22627    TIP3     H2       HT       0.417000       1.00800           0
     67159 W2       22629    TIP3     OH2      OT      -0.834000       15.9994           0
     67160 W2       22629    TIP3     H1       HT       0.417000       1.00800           0
     67161 W2       22629    TIP3     H2       HT       0.417000       1.00800           0
     67162 W2       22630    TIP3     OH2      OT      -0.834000       15.9994           0
     67163 W2       22630    TIP3     H1       HT       0.417000       1.00800           0
     67164 W2       22630    TIP3     H2       HT       0.417000       1.00800           0
     67165 W2       22631    TIP3     OH2      OT      -0.834000       15.9994           0
     67166 W2       22631    TIP3     H1       HT       0.417000       1.00800           0
     67167 W2       22631    TIP3     H2       HT       0.417000       1.00800           0
     67168 W2       22632    TIP3     OH2      OT      -0.834000       15.9994           0
     67169 W2       22632    TIP3     H1       HT       0.417000       1.00800           0
     67170 W2       22632    TIP3     H2       HT       0.417000       1.00800           0
     67171 W2       22634    TIP3     OH2      OT      -0.834000       15.9994           0
     67172 W2       22634    TIP3     H1       HT       0.417000       1.00800           0
     67173 W2       22634    TIP3     H2       HT       0.417000       1.00800           0
     67174 W2       22635    TIP3     OH2      OT      -0.834000       15.9994           0
     67175 W2       22635    TIP3     H1       HT       0.417000       1.00800           0
     67176 W2       22635    TIP3     H2       HT       0.417000       1.00800           0
     67177 W2       22636    TIP3     OH2      OT      -0.834000       15.9994           0
     67178 W2       22636    TIP3     H1       HT       0.417000       1.00800           0
     67179 W2       22636    TIP3     H2       HT       0.417000       1.00800           0
     67180 W2       22637    TIP3     OH2      OT      -0.834000       15.9994           0
     67181 W2       22637    TIP3     H1       HT       0.417000       1.00800           0
     67182 W2       22637    TIP3     H2       HT       0.417000       1.00800           0
     67183 W2       22639    TIP3     OH2      OT      -0.834000       15.9994           0
     67184 W2       22639    TIP3     H1       HT       0.417000       1.00800           0
     67185 W2       22639    TIP3     H2       HT       0.417000       1.00800           0
     67186 W2       22641    TIP3     OH2      OT      -0.834000       15.9994           0
     67187 W2       22641    TIP3     H1       HT       0.417000       1.00800           0
     67188 W2       22641    TIP3     H2       HT       0.417000       1.00800           0
     67189 W2       22643    TIP3     OH2      OT      -0.834000       15.9994           0
     67190 W2       22643    TIP3     H1       HT       0.417000       1.00800           0
     67191 W2       22643    TIP3     H2       HT       0.417000       1.00800           0
     67192 W2       22644    TIP3     OH2      OT      -0.834000       15.9994           0
     67193 W2       22644    TIP3     H1       HT       0.417000       1.00800           0
     67194 W2       22644    TIP3     H2       HT       0.417000       1.00800           0
     67195 W2       22645    TIP3     OH2      OT      -0.834000       15.9994           0
     67196 W2       22645    TIP3     H1       HT       0.417000       1.00800           0
     67197 W2       22645    TIP3     H2       HT       0.417000       1.00800           0
     67198 W2       22646    TIP3     OH2      OT      -0.834000       15.9994           0
     67199 W2       22646    TIP3     H1       HT       0.417000       1.00800           0
     67200 W2       22646    TIP3     H2       HT       0.417000       1.00800           0
     67201 W2       22647    TIP3     OH2      OT      -0.834000       15.9994           0
     67202 W2       22647    TIP3     H1       HT       0.417000       1.00800           0
     67203 W2       22647    TIP3     H2       HT       0.417000       1.00800           0
     67204 W2       22650    TIP3     OH2      OT      -0.834000       15.9994           0
     67205 W2       22650    TIP3     H1       HT       0.417000       1.00800           0
     67206 W2       22650    TIP3     H2       HT       0.417000       1.00800           0
     67207 W2       22651    TIP3     OH2      OT      -0.834000       15.9994           0
     67208 W2       22651    TIP3     H1       HT       0.417000       1.00800           0
     67209 W2       22651    TIP3     H2       HT       0.417000       1.00800           0
     67210 W2       22652    TIP3     OH2      OT      -0.834000       15.9994           0
     67211 W2       22652    TIP3     H1       HT       0.417000       1.00800           0
     67212 W2       22652    TIP3     H2       HT       0.417000       1.00800           0
     67213 W2       22653    TIP3     OH2      OT      -0.834000       15.9994           0
     67214 W2       22653    TIP3     H1       HT       0.417000       1.00800           0
     67215 W2       22653    TIP3     H2       HT       0.417000       1.00800           0
     67216 W2       22656    TIP3     OH2      OT      -0.834000       15.9994           0
     67217 W2       22656    TIP3     H1       HT       0.417000       1.00800           0
     67218 W2       22656    TIP3     H2       HT       0.417000       1.00800           0
     67219 W2       22659    TIP3     OH2      OT      -0.834000       15.9994           0
     67220 W2       22659    TIP3     H1       HT       0.417000       1.00800           0
     67221 W2       22659    TIP3     H2       HT       0.417000       1.00800           0
     67222 W2       22660    TIP3     OH2      OT      -0.834000       15.9994           0
     67223 W2       22660    TIP3     H1       HT       0.417000       1.00800           0
     67224 W2       22660    TIP3     H2       HT       0.417000       1.00800           0
     67225 W2       22661    TIP3     OH2      OT      -0.834000       15.9994           0
     67226 W2       22661    TIP3     H1       HT       0.417000       1.00800           0
     67227 W2       22661    TIP3     H2       HT       0.417000       1.00800           0
     67228 W2       22662    TIP3     OH2      OT      -0.834000       15.9994           0
     67229 W2       22662    TIP3     H1       HT       0.417000       1.00800           0
     67230 W2       22662    TIP3     H2       HT       0.417000       1.00800           0
     67231 W2       22663    TIP3     OH2      OT      -0.834000       15.9994           0
     67232 W2       22663    TIP3     H1       HT       0.417000       1.00800           0
     67233 W2       22663    TIP3     H2       HT       0.417000       1.00800           0
     67234 W2       22665    TIP3     OH2      OT      -0.834000       15.9994           0
     67235 W2       22665    TIP3     H1       HT       0.417000       1.00800           0
     67236 W2       22665    TIP3     H2       HT       0.417000       1.00800           0
     67237 W2       22666    TIP3     OH2      OT      -0.834000       15.9994           0
     67238 W2       22666    TIP3     H1       HT       0.417000       1.00800           0
     67239 W2       22666    TIP3     H2       HT       0.417000       1.00800           0
     67240 W2       22667    TIP3     OH2      OT      -0.834000       15.9994           0
     67241 W2       22667    TIP3     H1       HT       0.417000       1.00800           0
     67242 W2       22667    TIP3     H2       HT       0.417000       1.00800           0
     67243 W2       22668    TIP3     OH2      OT      -0.834000       15.9994           0
     67244 W2       22668    TIP3     H1       HT       0.417000       1.00800           0
     67245 W2       22668    TIP3     H2       HT       0.417000       1.00800           0
     67246 W2       22669    TIP3     OH2      OT      -0.834000       15.9994           0
     67247 W2       22669    TIP3     H1       HT       0.417000       1.00800           0
     67248 W2       22669    TIP3     H2       HT       0.417000       1.00800           0
     67249 W2       22670    TIP3     OH2      OT      -0.834000       15.9994           0
     67250 W2       22670    TIP3     H1       HT       0.417000       1.00800           0
     67251 W2       22670    TIP3     H2       HT       0.417000       1.00800           0
     67252 W2       22671    TIP3     OH2      OT      -0.834000       15.9994           0
     67253 W2       22671    TIP3     H1       HT       0.417000       1.00800           0
     67254 W2       22671    TIP3     H2       HT       0.417000       1.00800           0
     67255 W2       22672    TIP3     OH2      OT      -0.834000       15.9994           0
     67256 W2       22672    TIP3     H1       HT       0.417000       1.00800           0
     67257 W2       22672    TIP3     H2       HT       0.417000       1.00800           0
     67258 W2       22673    TIP3     OH2      OT      -0.834000       15.9994           0
     67259 W2       22673    TIP3     H1       HT       0.417000       1.00800           0
     67260 W2       22673    TIP3     H2       HT       0.417000       1.00800           0
     67261 W2       22674    TIP3     OH2      OT      -0.834000       15.9994           0
     67262 W2       22674    TIP3     H1       HT       0.417000       1.00800           0
     67263 W2       22674    TIP3     H2       HT       0.417000       1.00800           0
     67264 W2       22675    TIP3     OH2      OT      -0.834000       15.9994           0
     67265 W2       22675    TIP3     H1       HT       0.417000       1.00800           0
     67266 W2       22675    TIP3     H2       HT       0.417000       1.00800           0
     67267 W2       22678    TIP3     OH2      OT      -0.834000       15.9994           0
     67268 W2       22678    TIP3     H1       HT       0.417000       1.00800           0
     67269 W2       22678    TIP3     H2       HT       0.417000       1.00800           0
     67270 W2       22679    TIP3     OH2      OT      -0.834000       15.9994           0
     67271 W2       22679    TIP3     H1       HT       0.417000       1.00800           0
     67272 W2       22679    TIP3     H2       HT       0.417000       1.00800           0
     67273 W2       22680    TIP3     OH2      OT      -0.834000       15.9994           0
     67274 W2       22680    TIP3     H1       HT       0.417000       1.00800           0
     67275 W2       22680    TIP3     H2       HT       0.417000       1.00800           0
     67276 W2       22681    TIP3     OH2      OT      -0.834000       15.9994           0
     67277 W2       22681    TIP3     H1       HT       0.417000       1.00800           0
     67278 W2       22681    TIP3     H2       HT       0.417000       1.00800           0
     67279 W2       22682    TIP3     OH2      OT      -0.834000       15.9994           0
     67280 W2       22682    TIP3     H1       HT       0.417000       1.00800           0
     67281 W2       22682    TIP3     H2       HT       0.417000       1.00800           0
     67282 W2       22683    TIP3     OH2      OT      -0.834000       15.9994           0
     67283 W2       22683    TIP3     H1       HT       0.417000       1.00800           0
     67284 W2       22683    TIP3     H2       HT       0.417000       1.00800           0
     67285 W2       22685    TIP3     OH2      OT      -0.834000       15.9994           0
     67286 W2       22685    TIP3     H1       HT       0.417000       1.00800           0
     67287 W2       22685    TIP3     H2       HT       0.417000       1.00800           0
     67288 W2       22686    TIP3     OH2      OT      -0.834000       15.9994           0
     67289 W2       22686    TIP3     H1       HT       0.417000       1.00800           0
     67290 W2       22686    TIP3     H2       HT       0.417000       1.00800           0
     67291 W2       22687    TIP3     OH2      OT      -0.834000       15.9994           0
     67292 W2       22687    TIP3     H1       HT       0.417000       1.00800           0
     67293 W2       22687    TIP3     H2       HT       0.417000       1.00800           0
     67294 W2       22691    TIP3     OH2      OT      -0.834000       15.9994           0
     67295 W2       22691    TIP3     H1       HT       0.417000       1.00800           0
     67296 W2       22691    TIP3     H2       HT       0.417000       1.00800           0
     67297 W2       22693    TIP3     OH2      OT      -0.834000       15.9994           0
     67298 W2       22693    TIP3     H1       HT       0.417000       1.00800           0
     67299 W2       22693    TIP3     H2       HT       0.417000       1.00800           0
     67300 W2       22694    TIP3     OH2      OT      -0.834000       15.9994           0
     67301 W2       22694    TIP3     H1       HT       0.417000       1.00800           0
     67302 W2       22694    TIP3     H2       HT       0.417000       1.00800           0
     67303 W2       22695    TIP3     OH2      OT      -0.834000       15.9994           0
     67304 W2       22695    TIP3     H1       HT       0.417000       1.00800           0
     67305 W2       22695    TIP3     H2       HT       0.417000       1.00800           0
     67306 W2       22696    TIP3     OH2      OT      -0.834000       15.9994           0
     67307 W2       22696    TIP3     H1       HT       0.417000       1.00800           0
     67308 W2       22696    TIP3     H2       HT       0.417000       1.00800           0
     67309 W2       22697    TIP3     OH2      OT      -0.834000       15.9994           0
     67310 W2       22697    TIP3     H1       HT       0.417000       1.00800           0
     67311 W2       22697    TIP3     H2       HT       0.417000       1.00800           0
     67312 W2       22698    TIP3     OH2      OT      -0.834000       15.9994           0
     67313 W2       22698    TIP3     H1       HT       0.417000       1.00800           0
     67314 W2       22698    TIP3     H2       HT       0.417000       1.00800           0
     67315 W2       22699    TIP3     OH2      OT      -0.834000       15.9994           0
     67316 W2       22699    TIP3     H1       HT       0.417000       1.00800           0
     67317 W2       22699    TIP3     H2       HT       0.417000       1.00800           0
     67318 W2       22700    TIP3     OH2      OT      -0.834000       15.9994           0
     67319 W2       22700    TIP3     H1       HT       0.417000       1.00800           0
     67320 W2       22700    TIP3     H2       HT       0.417000       1.00800           0
     67321 W2       22701    TIP3     OH2      OT      -0.834000       15.9994           0
     67322 W2       22701    TIP3     H1       HT       0.417000       1.00800           0
     67323 W2       22701    TIP3     H2       HT       0.417000       1.00800           0
     67324 W2       22703    TIP3     OH2      OT      -0.834000       15.9994           0
     67325 W2       22703    TIP3     H1       HT       0.417000       1.00800           0
     67326 W2       22703    TIP3     H2       HT       0.417000       1.00800           0
     67327 W2       22705    TIP3     OH2      OT      -0.834000       15.9994           0
     67328 W2       22705    TIP3     H1       HT       0.417000       1.00800           0
     67329 W2       22705    TIP3     H2       HT       0.417000       1.00800           0
     67330 W2       22706    TIP3     OH2      OT      -0.834000       15.9994           0
     67331 W2       22706    TIP3     H1       HT       0.417000       1.00800           0
     67332 W2       22706    TIP3     H2       HT       0.417000       1.00800           0
     67333 W2       22707    TIP3     OH2      OT      -0.834000       15.9994           0
     67334 W2       22707    TIP3     H1       HT       0.417000       1.00800           0
     67335 W2       22707    TIP3     H2       HT       0.417000       1.00800           0
     67336 W2       22708    TIP3     OH2      OT      -0.834000       15.9994           0
     67337 W2       22708    TIP3     H1       HT       0.417000       1.00800           0
     67338 W2       22708    TIP3     H2       HT       0.417000       1.00800           0
     67339 W2       22709    TIP3     OH2      OT      -0.834000       15.9994           0
     67340 W2       22709    TIP3     H1       HT       0.417000       1.00800           0
     67341 W2       22709    TIP3     H2       HT       0.417000       1.00800           0
     67342 W2       22710    TIP3     OH2      OT      -0.834000       15.9994           0
     67343 W2       22710    TIP3     H1       HT       0.417000       1.00800           0
     67344 W2       22710    TIP3     H2       HT       0.417000       1.00800           0
     67345 W2       22711    TIP3     OH2      OT      -0.834000       15.9994           0
     67346 W2       22711    TIP3     H1       HT       0.417000       1.00800           0
     67347 W2       22711    TIP3     H2       HT       0.417000       1.00800           0
     67348 W2       22712    TIP3     OH2      OT      -0.834000       15.9994           0
     67349 W2       22712    TIP3     H1       HT       0.417000       1.00800           0
     67350 W2       22712    TIP3     H2       HT       0.417000       1.00800           0
     67351 W2       22713    TIP3     OH2      OT      -0.834000       15.9994           0
     67352 W2       22713    TIP3     H1       HT       0.417000       1.00800           0
     67353 W2       22713    TIP3     H2       HT       0.417000       1.00800           0
     67354 W2       22715    TIP3     OH2      OT      -0.834000       15.9994           0
     67355 W2       22715    TIP3     H1       HT       0.417000       1.00800           0
     67356 W2       22715    TIP3     H2       HT       0.417000       1.00800           0
     67357 W2       22716    TIP3     OH2      OT      -0.834000       15.9994           0
     67358 W2       22716    TIP3     H1       HT       0.417000       1.00800           0
     67359 W2       22716    TIP3     H2       HT       0.417000       1.00800           0
     67360 W2       22717    TIP3     OH2      OT      -0.834000       15.9994           0
     67361 W2       22717    TIP3     H1       HT       0.417000       1.00800           0
     67362 W2       22717    TIP3     H2       HT       0.417000       1.00800           0
     67363 W2       22719    TIP3     OH2      OT      -0.834000       15.9994           0
     67364 W2       22719    TIP3     H1       HT       0.417000       1.00800           0
     67365 W2       22719    TIP3     H2       HT       0.417000       1.00800           0
     67366 W2       22720    TIP3     OH2      OT      -0.834000       15.9994           0
     67367 W2       22720    TIP3     H1       HT       0.417000       1.00800           0
     67368 W2       22720    TIP3     H2       HT       0.417000       1.00800           0
     67369 W2       22721    TIP3     OH2      OT      -0.834000       15.9994           0
     67370 W2       22721    TIP3     H1       HT       0.417000       1.00800           0
     67371 W2       22721    TIP3     H2       HT       0.417000       1.00800           0
     67372 W2       22722    TIP3     OH2      OT      -0.834000       15.9994           0
     67373 W2       22722    TIP3     H1       HT       0.417000       1.00800           0
     67374 W2       22722    TIP3     H2       HT       0.417000       1.00800           0
     67375 W2       22723    TIP3     OH2      OT      -0.834000       15.9994           0
     67376 W2       22723    TIP3     H1       HT       0.417000       1.00800           0
     67377 W2       22723    TIP3     H2       HT       0.417000       1.00800           0
     67378 W2       22724    TIP3     OH2      OT      -0.834000       15.9994           0
     67379 W2       22724    TIP3     H1       HT       0.417000       1.00800           0
     67380 W2       22724    TIP3     H2       HT       0.417000       1.00800           0
     67381 W2       22727    TIP3     OH2      OT      -0.834000       15.9994           0
     67382 W2       22727    TIP3     H1       HT       0.417000       1.00800           0
     67383 W2       22727    TIP3     H2       HT       0.417000       1.00800           0
     67384 W2       22729    TIP3     OH2      OT      -0.834000       15.9994           0
     67385 W2       22729    TIP3     H1       HT       0.417000       1.00800           0
     67386 W2       22729    TIP3     H2       HT       0.417000       1.00800           0
     67387 W2       22731    TIP3     OH2      OT      -0.834000       15.9994           0
     67388 W2       22731    TIP3     H1       HT       0.417000       1.00800           0
     67389 W2       22731    TIP3     H2       HT       0.417000       1.00800           0
     67390 W2       22733    TIP3     OH2      OT      -0.834000       15.9994           0
     67391 W2       22733    TIP3     H1       HT       0.417000       1.00800           0
     67392 W2       22733    TIP3     H2       HT       0.417000       1.00800           0
     67393 W2       22736    TIP3     OH2      OT      -0.834000       15.9994           0
     67394 W2       22736    TIP3     H1       HT       0.417000       1.00800           0
     67395 W2       22736    TIP3     H2       HT       0.417000       1.00800           0
     67396 W2       22738    TIP3     OH2      OT      -0.834000       15.9994           0
     67397 W2       22738    TIP3     H1       HT       0.417000       1.00800           0
     67398 W2       22738    TIP3     H2       HT       0.417000       1.00800           0
     67399 W2       22740    TIP3     OH2      OT      -0.834000       15.9994           0
     67400 W2       22740    TIP3     H1       HT       0.417000       1.00800           0
     67401 W2       22740    TIP3     H2       HT       0.417000       1.00800           0
     67402 W2       22742    TIP3     OH2      OT      -0.834000       15.9994           0
     67403 W2       22742    TIP3     H1       HT       0.417000       1.00800           0
     67404 W2       22742    TIP3     H2       HT       0.417000       1.00800           0
     67405 W2       22754    TIP3     OH2      OT      -0.834000       15.9994           0
     67406 W2       22754    TIP3     H1       HT       0.417000       1.00800           0
     67407 W2       22754    TIP3     H2       HT       0.417000       1.00800           0
     67408 W2       22755    TIP3     OH2      OT      -0.834000       15.9994           0
     67409 W2       22755    TIP3     H1       HT       0.417000       1.00800           0
     67410 W2       22755    TIP3     H2       HT       0.417000       1.00800           0
     67411 W2       22756    TIP3     OH2      OT      -0.834000       15.9994           0
     67412 W2       22756    TIP3     H1       HT       0.417000       1.00800           0
     67413 W2       22756    TIP3     H2       HT       0.417000       1.00800           0
     67414 W2       22757    TIP3     OH2      OT      -0.834000       15.9994           0
     67415 W2       22757    TIP3     H1       HT       0.417000       1.00800           0
     67416 W2       22757    TIP3     H2       HT       0.417000       1.00800           0
     67417 W2       22758    TIP3     OH2      OT      -0.834000       15.9994           0
     67418 W2       22758    TIP3     H1       HT       0.417000       1.00800           0
     67419 W2       22758    TIP3     H2       HT       0.417000       1.00800           0
     67420 W2       22761    TIP3     OH2      OT      -0.834000       15.9994           0
     67421 W2       22761    TIP3     H1       HT       0.417000       1.00800           0
     67422 W2       22761    TIP3     H2       HT       0.417000       1.00800           0
     67423 W2       22762    TIP3     OH2      OT      -0.834000       15.9994           0
     67424 W2       22762    TIP3     H1       HT       0.417000       1.00800           0
     67425 W2       22762    TIP3     H2       HT       0.417000       1.00800           0
     67426 W2       22763    TIP3     OH2      OT      -0.834000       15.9994           0
     67427 W2       22763    TIP3     H1       HT       0.417000       1.00800           0
     67428 W2       22763    TIP3     H2       HT       0.417000       1.00800           0
     67429 W2       22764    TIP3     OH2      OT      -0.834000       15.9994           0
     67430 W2       22764    TIP3     H1       HT       0.417000       1.00800           0
     67431 W2       22764    TIP3     H2       HT       0.417000       1.00800           0
     67432 W2       22765    TIP3     OH2      OT      -0.834000       15.9994           0
     67433 W2       22765    TIP3     H1       HT       0.417000       1.00800           0
     67434 W2       22765    TIP3     H2       HT       0.417000       1.00800           0
     67435 W2       22766    TIP3     OH2      OT      -0.834000       15.9994           0
     67436 W2       22766    TIP3     H1       HT       0.417000       1.00800           0
     67437 W2       22766    TIP3     H2       HT       0.417000       1.00800           0
     67438 W2       22767    TIP3     OH2      OT      -0.834000       15.9994           0
     67439 W2       22767    TIP3     H1       HT       0.417000       1.00800           0
     67440 W2       22767    TIP3     H2       HT       0.417000       1.00800           0
     67441 W2       22768    TIP3     OH2      OT      -0.834000       15.9994           0
     67442 W2       22768    TIP3     H1       HT       0.417000       1.00800           0
     67443 W2       22768    TIP3     H2       HT       0.417000       1.00800           0
     67444 W2       22771    TIP3     OH2      OT      -0.834000       15.9994           0
     67445 W2       22771    TIP3     H1       HT       0.417000       1.00800           0
     67446 W2       22771    TIP3     H2       HT       0.417000       1.00800           0
     67447 W2       22772    TIP3     OH2      OT      -0.834000       15.9994           0
     67448 W2       22772    TIP3     H1       HT       0.417000       1.00800           0
     67449 W2       22772    TIP3     H2       HT       0.417000       1.00800           0
     67450 W2       22773    TIP3     OH2      OT      -0.834000       15.9994           0
     67451 W2       22773    TIP3     H1       HT       0.417000       1.00800           0
     67452 W2       22773    TIP3     H2       HT       0.417000       1.00800           0
     67453 W2       22774    TIP3     OH2      OT      -0.834000       15.9994           0
     67454 W2       22774    TIP3     H1       HT       0.417000       1.00800           0
     67455 W2       22774    TIP3     H2       HT       0.417000       1.00800           0
     67456 W2       22777    TIP3     OH2      OT      -0.834000       15.9994           0
     67457 W2       22777    TIP3     H1       HT       0.417000       1.00800           0
     67458 W2       22777    TIP3     H2       HT       0.417000       1.00800           0
     67459 W2       22778    TIP3     OH2      OT      -0.834000       15.9994           0
     67460 W2       22778    TIP3     H1       HT       0.417000       1.00800           0
     67461 W2       22778    TIP3     H2       HT       0.417000       1.00800           0
     67462 W2       22779    TIP3     OH2      OT      -0.834000       15.9994           0
     67463 W2       22779    TIP3     H1       HT       0.417000       1.00800           0
     67464 W2       22779    TIP3     H2       HT       0.417000       1.00800           0
     67465 W2       22781    TIP3     OH2      OT      -0.834000       15.9994           0
     67466 W2       22781    TIP3     H1       HT       0.417000       1.00800           0
     67467 W2       22781    TIP3     H2       HT       0.417000       1.00800           0
     67468 W2       22782    TIP3     OH2      OT      -0.834000       15.9994           0
     67469 W2       22782    TIP3     H1       HT       0.417000       1.00800           0
     67470 W2       22782    TIP3     H2       HT       0.417000       1.00800           0
     67471 W2       22783    TIP3     OH2      OT      -0.834000       15.9994           0
     67472 W2       22783    TIP3     H1       HT       0.417000       1.00800           0
     67473 W2       22783    TIP3     H2       HT       0.417000       1.00800           0
     67474 W2       22784    TIP3     OH2      OT      -0.834000       15.9994           0
     67475 W2       22784    TIP3     H1       HT       0.417000       1.00800           0
     67476 W2       22784    TIP3     H2       HT       0.417000       1.00800           0
     67477 W2       22786    TIP3     OH2      OT      -0.834000       15.9994           0
     67478 W2       22786    TIP3     H1       HT       0.417000       1.00800           0
     67479 W2       22786    TIP3     H2       HT       0.417000       1.00800           0
     67480 W2       22790    TIP3     OH2      OT      -0.834000       15.9994           0
     67481 W2       22790    TIP3     H1       HT       0.417000       1.00800           0
     67482 W2       22790    TIP3     H2       HT       0.417000       1.00800           0
     67483 W2       22791    TIP3     OH2      OT      -0.834000       15.9994           0
     67484 W2       22791    TIP3     H1       HT       0.417000       1.00800           0
     67485 W2       22791    TIP3     H2       HT       0.417000       1.00800           0
     67486 W2       22792    TIP3     OH2      OT      -0.834000       15.9994           0
     67487 W2       22792    TIP3     H1       HT       0.417000       1.00800           0
     67488 W2       22792    TIP3     H2       HT       0.417000       1.00800           0
     67489 W2       22793    TIP3     OH2      OT      -0.834000       15.9994           0
     67490 W2       22793    TIP3     H1       HT       0.417000       1.00800           0
     67491 W2       22793    TIP3     H2       HT       0.417000       1.00800           0
     67492 W2       22794    TIP3     OH2      OT      -0.834000       15.9994           0
     67493 W2       22794    TIP3     H1       HT       0.417000       1.00800           0
     67494 W2       22794    TIP3     H2       HT       0.417000       1.00800           0
     67495 W2       22795    TIP3     OH2      OT      -0.834000       15.9994           0
     67496 W2       22795    TIP3     H1       HT       0.417000       1.00800           0
     67497 W2       22795    TIP3     H2       HT       0.417000       1.00800           0
     67498 W2       22796    TIP3     OH2      OT      -0.834000       15.9994           0
     67499 W2       22796    TIP3     H1       HT       0.417000       1.00800           0
     67500 W2       22796    TIP3     H2       HT       0.417000       1.00800           0
     67501 W2       22797    TIP3     OH2      OT      -0.834000       15.9994           0
     67502 W2       22797    TIP3     H1       HT       0.417000       1.00800           0
     67503 W2       22797    TIP3     H2       HT       0.417000       1.00800           0
     67504 W2       22798    TIP3     OH2      OT      -0.834000       15.9994           0
     67505 W2       22798    TIP3     H1       HT       0.417000       1.00800           0
     67506 W2       22798    TIP3     H2       HT       0.417000       1.00800           0
     67507 W2       22799    TIP3     OH2      OT      -0.834000       15.9994           0
     67508 W2       22799    TIP3     H1       HT       0.417000       1.00800           0
     67509 W2       22799    TIP3     H2       HT       0.417000       1.00800           0
     67510 W2       22800    TIP3     OH2      OT      -0.834000       15.9994           0
     67511 W2       22800    TIP3     H1       HT       0.417000       1.00800           0
     67512 W2       22800    TIP3     H2       HT       0.417000       1.00800           0
     67513 W2       22801    TIP3     OH2      OT      -0.834000       15.9994           0
     67514 W2       22801    TIP3     H1       HT       0.417000       1.00800           0
     67515 W2       22801    TIP3     H2       HT       0.417000       1.00800           0
     67516 W2       22802    TIP3     OH2      OT      -0.834000       15.9994           0
     67517 W2       22802    TIP3     H1       HT       0.417000       1.00800           0
     67518 W2       22802    TIP3     H2       HT       0.417000       1.00800           0
     67519 W2       22803    TIP3     OH2      OT      -0.834000       15.9994           0
     67520 W2       22803    TIP3     H1       HT       0.417000       1.00800           0
     67521 W2       22803    TIP3     H2       HT       0.417000       1.00800           0
     67522 W2       22804    TIP3     OH2      OT      -0.834000       15.9994           0
     67523 W2       22804    TIP3     H1       HT       0.417000       1.00800           0
     67524 W2       22804    TIP3     H2       HT       0.417000       1.00800           0
     67525 W2       22805    TIP3     OH2      OT      -0.834000       15.9994           0
     67526 W2       22805    TIP3     H1       HT       0.417000       1.00800           0
     67527 W2       22805    TIP3     H2       HT       0.417000       1.00800           0
     67528 W2       22806    TIP3     OH2      OT      -0.834000       15.9994           0
     67529 W2       22806    TIP3     H1       HT       0.417000       1.00800           0
     67530 W2       22806    TIP3     H2       HT       0.417000       1.00800           0
     67531 W2       22807    TIP3     OH2      OT      -0.834000       15.9994           0
     67532 W2       22807    TIP3     H1       HT       0.417000       1.00800           0
     67533 W2       22807    TIP3     H2       HT       0.417000       1.00800           0
     67534 W2       22808    TIP3     OH2      OT      -0.834000       15.9994           0
     67535 W2       22808    TIP3     H1       HT       0.417000       1.00800           0
     67536 W2       22808    TIP3     H2       HT       0.417000       1.00800           0
     67537 W2       22809    TIP3     OH2      OT      -0.834000       15.9994           0
     67538 W2       22809    TIP3     H1       HT       0.417000       1.00800           0
     67539 W2       22809    TIP3     H2       HT       0.417000       1.00800           0
     67540 W2       22810    TIP3     OH2      OT      -0.834000       15.9994           0
     67541 W2       22810    TIP3     H1       HT       0.417000       1.00800           0
     67542 W2       22810    TIP3     H2       HT       0.417000       1.00800           0
     67543 W2       22813    TIP3     OH2      OT      -0.834000       15.9994           0
     67544 W2       22813    TIP3     H1       HT       0.417000       1.00800           0
     67545 W2       22813    TIP3     H2       HT       0.417000       1.00800           0
     67546 W2       22816    TIP3     OH2      OT      -0.834000       15.9994           0
     67547 W2       22816    TIP3     H1       HT       0.417000       1.00800           0
     67548 W2       22816    TIP3     H2       HT       0.417000       1.00800           0
     67549 W2       22817    TIP3     OH2      OT      -0.834000       15.9994           0
     67550 W2       22817    TIP3     H1       HT       0.417000       1.00800           0
     67551 W2       22817    TIP3     H2       HT       0.417000       1.00800           0
     67552 W2       22818    TIP3     OH2      OT      -0.834000       15.9994           0
     67553 W2       22818    TIP3     H1       HT       0.417000       1.00800           0
     67554 W2       22818    TIP3     H2       HT       0.417000       1.00800           0
     67555 W2       22819    TIP3     OH2      OT      -0.834000       15.9994           0
     67556 W2       22819    TIP3     H1       HT       0.417000       1.00800           0
     67557 W2       22819    TIP3     H2       HT       0.417000       1.00800           0
     67558 W2       22820    TIP3     OH2      OT      -0.834000       15.9994           0
     67559 W2       22820    TIP3     H1       HT       0.417000       1.00800           0
     67560 W2       22820    TIP3     H2       HT       0.417000       1.00800           0
     67561 W2       22821    TIP3     OH2      OT      -0.834000       15.9994           0
     67562 W2       22821    TIP3     H1       HT       0.417000       1.00800           0
     67563 W2       22821    TIP3     H2       HT       0.417000       1.00800           0
     67564 W2       22822    TIP3     OH2      OT      -0.834000       15.9994           0
     67565 W2       22822    TIP3     H1       HT       0.417000       1.00800           0
     67566 W2       22822    TIP3     H2       HT       0.417000       1.00800           0
     67567 W2       22823    TIP3     OH2      OT      -0.834000       15.9994           0
     67568 W2       22823    TIP3     H1       HT       0.417000       1.00800           0
     67569 W2       22823    TIP3     H2       HT       0.417000       1.00800           0
     67570 W2       22824    TIP3     OH2      OT      -0.834000       15.9994           0
     67571 W2       22824    TIP3     H1       HT       0.417000       1.00800           0
     67572 W2       22824    TIP3     H2       HT       0.417000       1.00800           0
     67573 W2       22825    TIP3     OH2      OT      -0.834000       15.9994           0
     67574 W2       22825    TIP3     H1       HT       0.417000       1.00800           0
     67575 W2       22825    TIP3     H2       HT       0.417000       1.00800           0
     67576 W2       22826    TIP3     OH2      OT      -0.834000       15.9994           0
     67577 W2       22826    TIP3     H1       HT       0.417000       1.00800           0
     67578 W2       22826    TIP3     H2       HT       0.417000       1.00800           0
     67579 W2       22827    TIP3     OH2      OT      -0.834000       15.9994           0
     67580 W2       22827    TIP3     H1       HT       0.417000       1.00800           0
     67581 W2       22827    TIP3     H2       HT       0.417000       1.00800           0
     67582 W2       22828    TIP3     OH2      OT      -0.834000       15.9994           0
     67583 W2       22828    TIP3     H1       HT       0.417000       1.00800           0
     67584 W2       22828    TIP3     H2       HT       0.417000       1.00800           0
     67585 W2       22829    TIP3     OH2      OT      -0.834000       15.9994           0
     67586 W2       22829    TIP3     H1       HT       0.417000       1.00800           0
     67587 W2       22829    TIP3     H2       HT       0.417000       1.00800           0
     67588 W2       22830    TIP3     OH2      OT      -0.834000       15.9994           0
     67589 W2       22830    TIP3     H1       HT       0.417000       1.00800           0
     67590 W2       22830    TIP3     H2       HT       0.417000       1.00800           0
     67591 W2       22831    TIP3     OH2      OT      -0.834000       15.9994           0
     67592 W2       22831    TIP3     H1       HT       0.417000       1.00800           0
     67593 W2       22831    TIP3     H2       HT       0.417000       1.00800           0
     67594 W2       22832    TIP3     OH2      OT      -0.834000       15.9994           0
     67595 W2       22832    TIP3     H1       HT       0.417000       1.00800           0
     67596 W2       22832    TIP3     H2       HT       0.417000       1.00800           0
     67597 W2       22833    TIP3     OH2      OT      -0.834000       15.9994           0
     67598 W2       22833    TIP3     H1       HT       0.417000       1.00800           0
     67599 W2       22833    TIP3     H2       HT       0.417000       1.00800           0
     67600 W2       22834    TIP3     OH2      OT      -0.834000       15.9994           0
     67601 W2       22834    TIP3     H1       HT       0.417000       1.00800           0
     67602 W2       22834    TIP3     H2       HT       0.417000       1.00800           0
     67603 W2       22835    TIP3     OH2      OT      -0.834000       15.9994           0
     67604 W2       22835    TIP3     H1       HT       0.417000       1.00800           0
     67605 W2       22835    TIP3     H2       HT       0.417000       1.00800           0
     67606 W2       22836    TIP3     OH2      OT      -0.834000       15.9994           0
     67607 W2       22836    TIP3     H1       HT       0.417000       1.00800           0
     67608 W2       22836    TIP3     H2       HT       0.417000       1.00800           0
     67609 W2       22837    TIP3     OH2      OT      -0.834000       15.9994           0
     67610 W2       22837    TIP3     H1       HT       0.417000       1.00800           0
     67611 W2       22837    TIP3     H2       HT       0.417000       1.00800           0
     67612 W2       22838    TIP3     OH2      OT      -0.834000       15.9994           0
     67613 W2       22838    TIP3     H1       HT       0.417000       1.00800           0
     67614 W2       22838    TIP3     H2       HT       0.417000       1.00800           0
     67615 W2       22839    TIP3     OH2      OT      -0.834000       15.9994           0
     67616 W2       22839    TIP3     H1       HT       0.417000       1.00800           0
     67617 W2       22839    TIP3     H2       HT       0.417000       1.00800           0
     67618 W2       22840    TIP3     OH2      OT      -0.834000       15.9994           0
     67619 W2       22840    TIP3     H1       HT       0.417000       1.00800           0
     67620 W2       22840    TIP3     H2       HT       0.417000       1.00800           0
     67621 W2       22841    TIP3     OH2      OT      -0.834000       15.9994           0
     67622 W2       22841    TIP3     H1       HT       0.417000       1.00800           0
     67623 W2       22841    TIP3     H2       HT       0.417000       1.00800           0
     67624 W2       22843    TIP3     OH2      OT      -0.834000       15.9994           0
     67625 W2       22843    TIP3     H1       HT       0.417000       1.00800           0
     67626 W2       22843    TIP3     H2       HT       0.417000       1.00800           0
     67627 W2       22844    TIP3     OH2      OT      -0.834000       15.9994           0
     67628 W2       22844    TIP3     H1       HT       0.417000       1.00800           0
     67629 W2       22844    TIP3     H2       HT       0.417000       1.00800           0
     67630 W2       22845    TIP3     OH2      OT      -0.834000       15.9994           0
     67631 W2       22845    TIP3     H1       HT       0.417000       1.00800           0
     67632 W2       22845    TIP3     H2       HT       0.417000       1.00800           0
     67633 W2       22846    TIP3     OH2      OT      -0.834000       15.9994           0
     67634 W2       22846    TIP3     H1       HT       0.417000       1.00800           0
     67635 W2       22846    TIP3     H2       HT       0.417000       1.00800           0
     67636 W2       22848    TIP3     OH2      OT      -0.834000       15.9994           0
     67637 W2       22848    TIP3     H1       HT       0.417000       1.00800           0
     67638 W2       22848    TIP3     H2       HT       0.417000       1.00800           0
     67639 W2       22850    TIP3     OH2      OT      -0.834000       15.9994           0
     67640 W2       22850    TIP3     H1       HT       0.417000       1.00800           0
     67641 W2       22850    TIP3     H2       HT       0.417000       1.00800           0
     67642 W2       22852    TIP3     OH2      OT      -0.834000       15.9994           0
     67643 W2       22852    TIP3     H1       HT       0.417000       1.00800           0
     67644 W2       22852    TIP3     H2       HT       0.417000       1.00800           0
     67645 W2       22853    TIP3     OH2      OT      -0.834000       15.9994           0
     67646 W2       22853    TIP3     H1       HT       0.417000       1.00800           0
     67647 W2       22853    TIP3     H2       HT       0.417000       1.00800           0
     67648 W2       22854    TIP3     OH2      OT      -0.834000       15.9994           0
     67649 W2       22854    TIP3     H1       HT       0.417000       1.00800           0
     67650 W2       22854    TIP3     H2       HT       0.417000       1.00800           0
     67651 W2       22856    TIP3     OH2      OT      -0.834000       15.9994           0
     67652 W2       22856    TIP3     H1       HT       0.417000       1.00800           0
     67653 W2       22856    TIP3     H2       HT       0.417000       1.00800           0
     67654 W2       22857    TIP3     OH2      OT      -0.834000       15.9994           0
     67655 W2       22857    TIP3     H1       HT       0.417000       1.00800           0
     67656 W2       22857    TIP3     H2       HT       0.417000       1.00800           0
     67657 W2       22858    TIP3     OH2      OT      -0.834000       15.9994           0
     67658 W2       22858    TIP3     H1       HT       0.417000       1.00800           0
     67659 W2       22858    TIP3     H2       HT       0.417000       1.00800           0
     67660 W2       22859    TIP3     OH2      OT      -0.834000       15.9994           0
     67661 W2       22859    TIP3     H1       HT       0.417000       1.00800           0
     67662 W2       22859    TIP3     H2       HT       0.417000       1.00800           0
     67663 W2       22861    TIP3     OH2      OT      -0.834000       15.9994           0
     67664 W2       22861    TIP3     H1       HT       0.417000       1.00800           0
     67665 W2       22861    TIP3     H2       HT       0.417000       1.00800           0
     67666 W2       22864    TIP3     OH2      OT      -0.834000       15.9994           0
     67667 W2       22864    TIP3     H1       HT       0.417000       1.00800           0
     67668 W2       22864    TIP3     H2       HT       0.417000       1.00800           0
     67669 W2       22865    TIP3     OH2      OT      -0.834000       15.9994           0
     67670 W2       22865    TIP3     H1       HT       0.417000       1.00800           0
     67671 W2       22865    TIP3     H2       HT       0.417000       1.00800           0
     67672 W2       22866    TIP3     OH2      OT      -0.834000       15.9994           0
     67673 W2       22866    TIP3     H1       HT       0.417000       1.00800           0
     67674 W2       22866    TIP3     H2       HT       0.417000       1.00800           0
     67675 W2       22867    TIP3     OH2      OT      -0.834000       15.9994           0
     67676 W2       22867    TIP3     H1       HT       0.417000       1.00800           0
     67677 W2       22867    TIP3     H2       HT       0.417000       1.00800           0
     67678 W2       22868    TIP3     OH2      OT      -0.834000       15.9994           0
     67679 W2       22868    TIP3     H1       HT       0.417000       1.00800           0
     67680 W2       22868    TIP3     H2       HT       0.417000       1.00800           0
     67681 W2       22870    TIP3     OH2      OT      -0.834000       15.9994           0
     67682 W2       22870    TIP3     H1       HT       0.417000       1.00800           0
     67683 W2       22870    TIP3     H2       HT       0.417000       1.00800           0
     67684 W2       22871    TIP3     OH2      OT      -0.834000       15.9994           0
     67685 W2       22871    TIP3     H1       HT       0.417000       1.00800           0
     67686 W2       22871    TIP3     H2       HT       0.417000       1.00800           0
     67687 W2       22872    TIP3     OH2      OT      -0.834000       15.9994           0
     67688 W2       22872    TIP3     H1       HT       0.417000       1.00800           0
     67689 W2       22872    TIP3     H2       HT       0.417000       1.00800           0
     67690 W2       22873    TIP3     OH2      OT      -0.834000       15.9994           0
     67691 W2       22873    TIP3     H1       HT       0.417000       1.00800           0
     67692 W2       22873    TIP3     H2       HT       0.417000       1.00800           0
     67693 W2       22874    TIP3     OH2      OT      -0.834000       15.9994           0
     67694 W2       22874    TIP3     H1       HT       0.417000       1.00800           0
     67695 W2       22874    TIP3     H2       HT       0.417000       1.00800           0
     67696 W2       22875    TIP3     OH2      OT      -0.834000       15.9994           0
     67697 W2       22875    TIP3     H1       HT       0.417000       1.00800           0
     67698 W2       22875    TIP3     H2       HT       0.417000       1.00800           0
     67699 W2       22876    TIP3     OH2      OT      -0.834000       15.9994           0
     67700 W2       22876    TIP3     H1       HT       0.417000       1.00800           0
     67701 W2       22876    TIP3     H2       HT       0.417000       1.00800           0
     67702 W2       22877    TIP3     OH2      OT      -0.834000       15.9994           0
     67703 W2       22877    TIP3     H1       HT       0.417000       1.00800           0
     67704 W2       22877    TIP3     H2       HT       0.417000       1.00800           0
     67705 W2       22878    TIP3     OH2      OT      -0.834000       15.9994           0
     67706 W2       22878    TIP3     H1       HT       0.417000       1.00800           0
     67707 W2       22878    TIP3     H2       HT       0.417000       1.00800           0
     67708 W2       22879    TIP3     OH2      OT      -0.834000       15.9994           0
     67709 W2       22879    TIP3     H1       HT       0.417000       1.00800           0
     67710 W2       22879    TIP3     H2       HT       0.417000       1.00800           0
     67711 W2       22880    TIP3     OH2      OT      -0.834000       15.9994           0
     67712 W2       22880    TIP3     H1       HT       0.417000       1.00800           0
     67713 W2       22880    TIP3     H2       HT       0.417000       1.00800           0
     67714 W2       22882    TIP3     OH2      OT      -0.834000       15.9994           0
     67715 W2       22882    TIP3     H1       HT       0.417000       1.00800           0
     67716 W2       22882    TIP3     H2       HT       0.417000       1.00800           0
     67717 W2       22883    TIP3     OH2      OT      -0.834000       15.9994           0
     67718 W2       22883    TIP3     H1       HT       0.417000       1.00800           0
     67719 W2       22883    TIP3     H2       HT       0.417000       1.00800           0
     67720 W2       22884    TIP3     OH2      OT      -0.834000       15.9994           0
     67721 W2       22884    TIP3     H1       HT       0.417000       1.00800           0
     67722 W2       22884    TIP3     H2       HT       0.417000       1.00800           0
     67723 W2       22885    TIP3     OH2      OT      -0.834000       15.9994           0
     67724 W2       22885    TIP3     H1       HT       0.417000       1.00800           0
     67725 W2       22885    TIP3     H2       HT       0.417000       1.00800           0
     67726 W2       22886    TIP3     OH2      OT      -0.834000       15.9994           0
     67727 W2       22886    TIP3     H1       HT       0.417000       1.00800           0
     67728 W2       22886    TIP3     H2       HT       0.417000       1.00800           0
     67729 W2       22888    TIP3     OH2      OT      -0.834000       15.9994           0
     67730 W2       22888    TIP3     H1       HT       0.417000       1.00800           0
     67731 W2       22888    TIP3     H2       HT       0.417000       1.00800           0
     67732 W2       22889    TIP3     OH2      OT      -0.834000       15.9994           0
     67733 W2       22889    TIP3     H1       HT       0.417000       1.00800           0
     67734 W2       22889    TIP3     H2       HT       0.417000       1.00800           0
     67735 W2       22890    TIP3     OH2      OT      -0.834000       15.9994           0
     67736 W2       22890    TIP3     H1       HT       0.417000       1.00800           0
     67737 W2       22890    TIP3     H2       HT       0.417000       1.00800           0
     67738 W2       22894    TIP3     OH2      OT      -0.834000       15.9994           0
     67739 W2       22894    TIP3     H1       HT       0.417000       1.00800           0
     67740 W2       22894    TIP3     H2       HT       0.417000       1.00800           0
     67741 W2       22895    TIP3     OH2      OT      -0.834000       15.9994           0
     67742 W2       22895    TIP3     H1       HT       0.417000       1.00800           0
     67743 W2       22895    TIP3     H2       HT       0.417000       1.00800           0
     67744 W2       22896    TIP3     OH2      OT      -0.834000       15.9994           0
     67745 W2       22896    TIP3     H1       HT       0.417000       1.00800           0
     67746 W2       22896    TIP3     H2       HT       0.417000       1.00800           0
     67747 W2       22897    TIP3     OH2      OT      -0.834000       15.9994           0
     67748 W2       22897    TIP3     H1       HT       0.417000       1.00800           0
     67749 W2       22897    TIP3     H2       HT       0.417000       1.00800           0
     67750 W2       22898    TIP3     OH2      OT      -0.834000       15.9994           0
     67751 W2       22898    TIP3     H1       HT       0.417000       1.00800           0
     67752 W2       22898    TIP3     H2       HT       0.417000       1.00800           0
     67753 W2       22899    TIP3     OH2      OT      -0.834000       15.9994           0
     67754 W2       22899    TIP3     H1       HT       0.417000       1.00800           0
     67755 W2       22899    TIP3     H2       HT       0.417000       1.00800           0
     67756 W2       22900    TIP3     OH2      OT      -0.834000       15.9994           0
     67757 W2       22900    TIP3     H1       HT       0.417000       1.00800           0
     67758 W2       22900    TIP3     H2       HT       0.417000       1.00800           0
     67759 W2       22901    TIP3     OH2      OT      -0.834000       15.9994           0
     67760 W2       22901    TIP3     H1       HT       0.417000       1.00800           0
     67761 W2       22901    TIP3     H2       HT       0.417000       1.00800           0
     67762 W2       22904    TIP3     OH2      OT      -0.834000       15.9994           0
     67763 W2       22904    TIP3     H1       HT       0.417000       1.00800           0
     67764 W2       22904    TIP3     H2       HT       0.417000       1.00800           0
     67765 W2       22905    TIP3     OH2      OT      -0.834000       15.9994           0
     67766 W2       22905    TIP3     H1       HT       0.417000       1.00800           0
     67767 W2       22905    TIP3     H2       HT       0.417000       1.00800           0
     67768 W2       22906    TIP3     OH2      OT      -0.834000       15.9994           0
     67769 W2       22906    TIP3     H1       HT       0.417000       1.00800           0
     67770 W2       22906    TIP3     H2       HT       0.417000       1.00800           0
     67771 W2       22907    TIP3     OH2      OT      -0.834000       15.9994           0
     67772 W2       22907    TIP3     H1       HT       0.417000       1.00800           0
     67773 W2       22907    TIP3     H2       HT       0.417000       1.00800           0
     67774 W2       22908    TIP3     OH2      OT      -0.834000       15.9994           0
     67775 W2       22908    TIP3     H1       HT       0.417000       1.00800           0
     67776 W2       22908    TIP3     H2       HT       0.417000       1.00800           0
     67777 W2       22909    TIP3     OH2      OT      -0.834000       15.9994           0
     67778 W2       22909    TIP3     H1       HT       0.417000       1.00800           0
     67779 W2       22909    TIP3     H2       HT       0.417000       1.00800           0
     67780 W2       22910    TIP3     OH2      OT      -0.834000       15.9994           0
     67781 W2       22910    TIP3     H1       HT       0.417000       1.00800           0
     67782 W2       22910    TIP3     H2       HT       0.417000       1.00800           0
     67783 W2       22911    TIP3     OH2      OT      -0.834000       15.9994           0
     67784 W2       22911    TIP3     H1       HT       0.417000       1.00800           0
     67785 W2       22911    TIP3     H2       HT       0.417000       1.00800           0
     67786 W2       22912    TIP3     OH2      OT      -0.834000       15.9994           0
     67787 W2       22912    TIP3     H1       HT       0.417000       1.00800           0
     67788 W2       22912    TIP3     H2       HT       0.417000       1.00800           0
     67789 W2       22914    TIP3     OH2      OT      -0.834000       15.9994           0
     67790 W2       22914    TIP3     H1       HT       0.417000       1.00800           0
     67791 W2       22914    TIP3     H2       HT       0.417000       1.00800           0
     67792 W2       22915    TIP3     OH2      OT      -0.834000       15.9994           0
     67793 W2       22915    TIP3     H1       HT       0.417000       1.00800           0
     67794 W2       22915    TIP3     H2       HT       0.417000       1.00800           0
     67795 W2       22916    TIP3     OH2      OT      -0.834000       15.9994           0
     67796 W2       22916    TIP3     H1       HT       0.417000       1.00800           0
     67797 W2       22916    TIP3     H2       HT       0.417000       1.00800           0
     67798 W2       22917    TIP3     OH2      OT      -0.834000       15.9994           0
     67799 W2       22917    TIP3     H1       HT       0.417000       1.00800           0
     67800 W2       22917    TIP3     H2       HT       0.417000       1.00800           0
     67801 W2       22918    TIP3     OH2      OT      -0.834000       15.9994           0
     67802 W2       22918    TIP3     H1       HT       0.417000       1.00800           0
     67803 W2       22918    TIP3     H2       HT       0.417000       1.00800           0
     67804 W2       22919    TIP3     OH2      OT      -0.834000       15.9994           0
     67805 W2       22919    TIP3     H1       HT       0.417000       1.00800           0
     67806 W2       22919    TIP3     H2       HT       0.417000       1.00800           0
     67807 W2       22920    TIP3     OH2      OT      -0.834000       15.9994           0
     67808 W2       22920    TIP3     H1       HT       0.417000       1.00800           0
     67809 W2       22920    TIP3     H2       HT       0.417000       1.00800           0
     67810 W2       22921    TIP3     OH2      OT      -0.834000       15.9994           0
     67811 W2       22921    TIP3     H1       HT       0.417000       1.00800           0
     67812 W2       22921    TIP3     H2       HT       0.417000       1.00800           0
     67813 W2       22924    TIP3     OH2      OT      -0.834000       15.9994           0
     67814 W2       22924    TIP3     H1       HT       0.417000       1.00800           0
     67815 W2       22924    TIP3     H2       HT       0.417000       1.00800           0
     67816 W2       22926    TIP3     OH2      OT      -0.834000       15.9994           0
     67817 W2       22926    TIP3     H1       HT       0.417000       1.00800           0
     67818 W2       22926    TIP3     H2       HT       0.417000       1.00800           0
     67819 W2       22928    TIP3     OH2      OT      -0.834000       15.9994           0
     67820 W2       22928    TIP3     H1       HT       0.417000       1.00800           0
     67821 W2       22928    TIP3     H2       HT       0.417000       1.00800           0
     67822 W2       22930    TIP3     OH2      OT      -0.834000       15.9994           0
     67823 W2       22930    TIP3     H1       HT       0.417000       1.00800           0
     67824 W2       22930    TIP3     H2       HT       0.417000       1.00800           0
     67825 W2       22933    TIP3     OH2      OT      -0.834000       15.9994           0
     67826 W2       22933    TIP3     H1       HT       0.417000       1.00800           0
     67827 W2       22933    TIP3     H2       HT       0.417000       1.00800           0
     67828 W2       22935    TIP3     OH2      OT      -0.834000       15.9994           0
     67829 W2       22935    TIP3     H1       HT       0.417000       1.00800           0
     67830 W2       22935    TIP3     H2       HT       0.417000       1.00800           0
     67831 W2       22938    TIP3     OH2      OT      -0.834000       15.9994           0
     67832 W2       22938    TIP3     H1       HT       0.417000       1.00800           0
     67833 W2       22938    TIP3     H2       HT       0.417000       1.00800           0
     67834 W2       22950    TIP3     OH2      OT      -0.834000       15.9994           0
     67835 W2       22950    TIP3     H1       HT       0.417000       1.00800           0
     67836 W2       22950    TIP3     H2       HT       0.417000       1.00800           0
     67837 W2       22951    TIP3     OH2      OT      -0.834000       15.9994           0
     67838 W2       22951    TIP3     H1       HT       0.417000       1.00800           0
     67839 W2       22951    TIP3     H2       HT       0.417000       1.00800           0
     67840 W2       22952    TIP3     OH2      OT      -0.834000       15.9994           0
     67841 W2       22952    TIP3     H1       HT       0.417000       1.00800           0
     67842 W2       22952    TIP3     H2       HT       0.417000       1.00800           0
     67843 W2       22953    TIP3     OH2      OT      -0.834000       15.9994           0
     67844 W2       22953    TIP3     H1       HT       0.417000       1.00800           0
     67845 W2       22953    TIP3     H2       HT       0.417000       1.00800           0
     67846 W2       22954    TIP3     OH2      OT      -0.834000       15.9994           0
     67847 W2       22954    TIP3     H1       HT       0.417000       1.00800           0
     67848 W2       22954    TIP3     H2       HT       0.417000       1.00800           0
     67849 W2       22956    TIP3     OH2      OT      -0.834000       15.9994           0
     67850 W2       22956    TIP3     H1       HT       0.417000       1.00800           0
     67851 W2       22956    TIP3     H2       HT       0.417000       1.00800           0
     67852 W2       22957    TIP3     OH2      OT      -0.834000       15.9994           0
     67853 W2       22957    TIP3     H1       HT       0.417000       1.00800           0
     67854 W2       22957    TIP3     H2       HT       0.417000       1.00800           0
     67855 W2       22958    TIP3     OH2      OT      -0.834000       15.9994           0
     67856 W2       22958    TIP3     H1       HT       0.417000       1.00800           0
     67857 W2       22958    TIP3     H2       HT       0.417000       1.00800           0
     67858 W2       22959    TIP3     OH2      OT      -0.834000       15.9994           0
     67859 W2       22959    TIP3     H1       HT       0.417000       1.00800           0
     67860 W2       22959    TIP3     H2       HT       0.417000       1.00800           0
     67861 W2       22961    TIP3     OH2      OT      -0.834000       15.9994           0
     67862 W2       22961    TIP3     H1       HT       0.417000       1.00800           0
     67863 W2       22961    TIP3     H2       HT       0.417000       1.00800           0
     67864 W2       22964    TIP3     OH2      OT      -0.834000       15.9994           0
     67865 W2       22964    TIP3     H1       HT       0.417000       1.00800           0
     67866 W2       22964    TIP3     H2       HT       0.417000       1.00800           0
     67867 W2       22965    TIP3     OH2      OT      -0.834000       15.9994           0
     67868 W2       22965    TIP3     H1       HT       0.417000       1.00800           0
     67869 W2       22965    TIP3     H2       HT       0.417000       1.00800           0
     67870 W2       22966    TIP3     OH2      OT      -0.834000       15.9994           0
     67871 W2       22966    TIP3     H1       HT       0.417000       1.00800           0
     67872 W2       22966    TIP3     H2       HT       0.417000       1.00800           0
     67873 W2       22967    TIP3     OH2      OT      -0.834000       15.9994           0
     67874 W2       22967    TIP3     H1       HT       0.417000       1.00800           0
     67875 W2       22967    TIP3     H2       HT       0.417000       1.00800           0
     67876 W2       22968    TIP3     OH2      OT      -0.834000       15.9994           0
     67877 W2       22968    TIP3     H1       HT       0.417000       1.00800           0
     67878 W2       22968    TIP3     H2       HT       0.417000       1.00800           0
     67879 W2       22969    TIP3     OH2      OT      -0.834000       15.9994           0
     67880 W2       22969    TIP3     H1       HT       0.417000       1.00800           0
     67881 W2       22969    TIP3     H2       HT       0.417000       1.00800           0
     67882 W2       22970    TIP3     OH2      OT      -0.834000       15.9994           0
     67883 W2       22970    TIP3     H1       HT       0.417000       1.00800           0
     67884 W2       22970    TIP3     H2       HT       0.417000       1.00800           0
     67885 W2       22971    TIP3     OH2      OT      -0.834000       15.9994           0
     67886 W2       22971    TIP3     H1       HT       0.417000       1.00800           0
     67887 W2       22971    TIP3     H2       HT       0.417000       1.00800           0
     67888 W2       22972    TIP3     OH2      OT      -0.834000       15.9994           0
     67889 W2       22972    TIP3     H1       HT       0.417000       1.00800           0
     67890 W2       22972    TIP3     H2       HT       0.417000       1.00800           0
     67891 W2       22973    TIP3     OH2      OT      -0.834000       15.9994           0
     67892 W2       22973    TIP3     H1       HT       0.417000       1.00800           0
     67893 W2       22973    TIP3     H2       HT       0.417000       1.00800           0
     67894 W2       22974    TIP3     OH2      OT      -0.834000       15.9994           0
     67895 W2       22974    TIP3     H1       HT       0.417000       1.00800           0
     67896 W2       22974    TIP3     H2       HT       0.417000       1.00800           0
     67897 W2       22975    TIP3     OH2      OT      -0.834000       15.9994           0
     67898 W2       22975    TIP3     H1       HT       0.417000       1.00800           0
     67899 W2       22975    TIP3     H2       HT       0.417000       1.00800           0
     67900 W2       22976    TIP3     OH2      OT      -0.834000       15.9994           0
     67901 W2       22976    TIP3     H1       HT       0.417000       1.00800           0
     67902 W2       22976    TIP3     H2       HT       0.417000       1.00800           0
     67903 W2       22977    TIP3     OH2      OT      -0.834000       15.9994           0
     67904 W2       22977    TIP3     H1       HT       0.417000       1.00800           0
     67905 W2       22977    TIP3     H2       HT       0.417000       1.00800           0
     67906 W2       22978    TIP3     OH2      OT      -0.834000       15.9994           0
     67907 W2       22978    TIP3     H1       HT       0.417000       1.00800           0
     67908 W2       22978    TIP3     H2       HT       0.417000       1.00800           0
     67909 W2       22979    TIP3     OH2      OT      -0.834000       15.9994           0
     67910 W2       22979    TIP3     H1       HT       0.417000       1.00800           0
     67911 W2       22979    TIP3     H2       HT       0.417000       1.00800           0
     67912 W2       22980    TIP3     OH2      OT      -0.834000       15.9994           0
     67913 W2       22980    TIP3     H1       HT       0.417000       1.00800           0
     67914 W2       22980    TIP3     H2       HT       0.417000       1.00800           0
     67915 W2       22983    TIP3     OH2      OT      -0.834000       15.9994           0
     67916 W2       22983    TIP3     H1       HT       0.417000       1.00800           0
     67917 W2       22983    TIP3     H2       HT       0.417000       1.00800           0
     67918 W2       22985    TIP3     OH2      OT      -0.834000       15.9994           0
     67919 W2       22985    TIP3     H1       HT       0.417000       1.00800           0
     67920 W2       22985    TIP3     H2       HT       0.417000       1.00800           0
     67921 W2       22986    TIP3     OH2      OT      -0.834000       15.9994           0
     67922 W2       22986    TIP3     H1       HT       0.417000       1.00800           0
     67923 W2       22986    TIP3     H2       HT       0.417000       1.00800           0
     67924 W2       22987    TIP3     OH2      OT      -0.834000       15.9994           0
     67925 W2       22987    TIP3     H1       HT       0.417000       1.00800           0
     67926 W2       22987    TIP3     H2       HT       0.417000       1.00800           0
     67927 W2       22988    TIP3     OH2      OT      -0.834000       15.9994           0
     67928 W2       22988    TIP3     H1       HT       0.417000       1.00800           0
     67929 W2       22988    TIP3     H2       HT       0.417000       1.00800           0
     67930 W2       22989    TIP3     OH2      OT      -0.834000       15.9994           0
     67931 W2       22989    TIP3     H1       HT       0.417000       1.00800           0
     67932 W2       22989    TIP3     H2       HT       0.417000       1.00800           0
     67933 W2       22990    TIP3     OH2      OT      -0.834000       15.9994           0
     67934 W2       22990    TIP3     H1       HT       0.417000       1.00800           0
     67935 W2       22990    TIP3     H2       HT       0.417000       1.00800           0
     67936 W2       22991    TIP3     OH2      OT      -0.834000       15.9994           0
     67937 W2       22991    TIP3     H1       HT       0.417000       1.00800           0
     67938 W2       22991    TIP3     H2       HT       0.417000       1.00800           0
     67939 W2       22992    TIP3     OH2      OT      -0.834000       15.9994           0
     67940 W2       22992    TIP3     H1       HT       0.417000       1.00800           0
     67941 W2       22992    TIP3     H2       HT       0.417000       1.00800           0
     67942 W2       22993    TIP3     OH2      OT      -0.834000       15.9994           0
     67943 W2       22993    TIP3     H1       HT       0.417000       1.00800           0
     67944 W2       22993    TIP3     H2       HT       0.417000       1.00800           0
     67945 W2       22994    TIP3     OH2      OT      -0.834000       15.9994           0
     67946 W2       22994    TIP3     H1       HT       0.417000       1.00800           0
     67947 W2       22994    TIP3     H2       HT       0.417000       1.00800           0
     67948 W2       22995    TIP3     OH2      OT      -0.834000       15.9994           0
     67949 W2       22995    TIP3     H1       HT       0.417000       1.00800           0
     67950 W2       22995    TIP3     H2       HT       0.417000       1.00800           0
     67951 W2       22996    TIP3     OH2      OT      -0.834000       15.9994           0
     67952 W2       22996    TIP3     H1       HT       0.417000       1.00800           0
     67953 W2       22996    TIP3     H2       HT       0.417000       1.00800           0
     67954 W2       22997    TIP3     OH2      OT      -0.834000       15.9994           0
     67955 W2       22997    TIP3     H1       HT       0.417000       1.00800           0
     67956 W2       22997    TIP3     H2       HT       0.417000       1.00800           0
     67957 W2       22998    TIP3     OH2      OT      -0.834000       15.9994           0
     67958 W2       22998    TIP3     H1       HT       0.417000       1.00800           0
     67959 W2       22998    TIP3     H2       HT       0.417000       1.00800           0
     67960 W2       22999    TIP3     OH2      OT      -0.834000       15.9994           0
     67961 W2       22999    TIP3     H1       HT       0.417000       1.00800           0
     67962 W2       22999    TIP3     H2       HT       0.417000       1.00800           0
     67963 W2       23001    TIP3     OH2      OT      -0.834000       15.9994           0
     67964 W2       23001    TIP3     H1       HT       0.417000       1.00800           0
     67965 W2       23001    TIP3     H2       HT       0.417000       1.00800           0
     67966 W2       23002    TIP3     OH2      OT      -0.834000       15.9994           0
     67967 W2       23002    TIP3     H1       HT       0.417000       1.00800           0
     67968 W2       23002    TIP3     H2       HT       0.417000       1.00800           0
     67969 W2       23003    TIP3     OH2      OT      -0.834000       15.9994           0
     67970 W2       23003    TIP3     H1       HT       0.417000       1.00800           0
     67971 W2       23003    TIP3     H2       HT       0.417000       1.00800           0
     67972 W2       23004    TIP3     OH2      OT      -0.834000       15.9994           0
     67973 W2       23004    TIP3     H1       HT       0.417000       1.00800           0
     67974 W2       23004    TIP3     H2       HT       0.417000       1.00800           0
     67975 W2       23005    TIP3     OH2      OT      -0.834000       15.9994           0
     67976 W2       23005    TIP3     H1       HT       0.417000       1.00800           0
     67977 W2       23005    TIP3     H2       HT       0.417000       1.00800           0
     67978 W2       23006    TIP3     OH2      OT      -0.834000       15.9994           0
     67979 W2       23006    TIP3     H1       HT       0.417000       1.00800           0
     67980 W2       23006    TIP3     H2       HT       0.417000       1.00800           0
     67981 W2       23007    TIP3     OH2      OT      -0.834000       15.9994           0
     67982 W2       23007    TIP3     H1       HT       0.417000       1.00800           0
     67983 W2       23007    TIP3     H2       HT       0.417000       1.00800           0
     67984 W2       23008    TIP3     OH2      OT      -0.834000       15.9994           0
     67985 W2       23008    TIP3     H1       HT       0.417000       1.00800           0
     67986 W2       23008    TIP3     H2       HT       0.417000       1.00800           0
     67987 W2       23009    TIP3     OH2      OT      -0.834000       15.9994           0
     67988 W2       23009    TIP3     H1       HT       0.417000       1.00800           0
     67989 W2       23009    TIP3     H2       HT       0.417000       1.00800           0
     67990 W2       23010    TIP3     OH2      OT      -0.834000       15.9994           0
     67991 W2       23010    TIP3     H1       HT       0.417000       1.00800           0
     67992 W2       23010    TIP3     H2       HT       0.417000       1.00800           0
     67993 W2       23011    TIP3     OH2      OT      -0.834000       15.9994           0
     67994 W2       23011    TIP3     H1       HT       0.417000       1.00800           0
     67995 W2       23011    TIP3     H2       HT       0.417000       1.00800           0
     67996 W2       23012    TIP3     OH2      OT      -0.834000       15.9994           0
     67997 W2       23012    TIP3     H1       HT       0.417000       1.00800           0
     67998 W2       23012    TIP3     H2       HT       0.417000       1.00800           0
     67999 W2       23014    TIP3     OH2      OT      -0.834000       15.9994           0
     68000 W2       23014    TIP3     H1       HT       0.417000       1.00800           0
     68001 W2       23014    TIP3     H2       HT       0.417000       1.00800           0
     68002 W2       23015    TIP3     OH2      OT      -0.834000       15.9994           0
     68003 W2       23015    TIP3     H1       HT       0.417000       1.00800           0
     68004 W2       23015    TIP3     H2       HT       0.417000       1.00800           0
     68005 W2       23016    TIP3     OH2      OT      -0.834000       15.9994           0
     68006 W2       23016    TIP3     H1       HT       0.417000       1.00800           0
     68007 W2       23016    TIP3     H2       HT       0.417000       1.00800           0
     68008 W2       23017    TIP3     OH2      OT      -0.834000       15.9994           0
     68009 W2       23017    TIP3     H1       HT       0.417000       1.00800           0
     68010 W2       23017    TIP3     H2       HT       0.417000       1.00800           0
     68011 W2       23019    TIP3     OH2      OT      -0.834000       15.9994           0
     68012 W2       23019    TIP3     H1       HT       0.417000       1.00800           0
     68013 W2       23019    TIP3     H2       HT       0.417000       1.00800           0
     68014 W2       23020    TIP3     OH2      OT      -0.834000       15.9994           0
     68015 W2       23020    TIP3     H1       HT       0.417000       1.00800           0
     68016 W2       23020    TIP3     H2       HT       0.417000       1.00800           0
     68017 W2       23021    TIP3     OH2      OT      -0.834000       15.9994           0
     68018 W2       23021    TIP3     H1       HT       0.417000       1.00800           0
     68019 W2       23021    TIP3     H2       HT       0.417000       1.00800           0
     68020 W2       23022    TIP3     OH2      OT      -0.834000       15.9994           0
     68021 W2       23022    TIP3     H1       HT       0.417000       1.00800           0
     68022 W2       23022    TIP3     H2       HT       0.417000       1.00800           0
     68023 W2       23024    TIP3     OH2      OT      -0.834000       15.9994           0
     68024 W2       23024    TIP3     H1       HT       0.417000       1.00800           0
     68025 W2       23024    TIP3     H2       HT       0.417000       1.00800           0
     68026 W2       23026    TIP3     OH2      OT      -0.834000       15.9994           0
     68027 W2       23026    TIP3     H1       HT       0.417000       1.00800           0
     68028 W2       23026    TIP3     H2       HT       0.417000       1.00800           0
     68029 W2       23028    TIP3     OH2      OT      -0.834000       15.9994           0
     68030 W2       23028    TIP3     H1       HT       0.417000       1.00800           0
     68031 W2       23028    TIP3     H2       HT       0.417000       1.00800           0
     68032 W2       23029    TIP3     OH2      OT      -0.834000       15.9994           0
     68033 W2       23029    TIP3     H1       HT       0.417000       1.00800           0
     68034 W2       23029    TIP3     H2       HT       0.417000       1.00800           0
     68035 W2       23030    TIP3     OH2      OT      -0.834000       15.9994           0
     68036 W2       23030    TIP3     H1       HT       0.417000       1.00800           0
     68037 W2       23030    TIP3     H2       HT       0.417000       1.00800           0
     68038 W2       23031    TIP3     OH2      OT      -0.834000       15.9994           0
     68039 W2       23031    TIP3     H1       HT       0.417000       1.00800           0
     68040 W2       23031    TIP3     H2       HT       0.417000       1.00800           0
     68041 W2       23032    TIP3     OH2      OT      -0.834000       15.9994           0
     68042 W2       23032    TIP3     H1       HT       0.417000       1.00800           0
     68043 W2       23032    TIP3     H2       HT       0.417000       1.00800           0
     68044 W2       23035    TIP3     OH2      OT      -0.834000       15.9994           0
     68045 W2       23035    TIP3     H1       HT       0.417000       1.00800           0
     68046 W2       23035    TIP3     H2       HT       0.417000       1.00800           0
     68047 W2       23036    TIP3     OH2      OT      -0.834000       15.9994           0
     68048 W2       23036    TIP3     H1       HT       0.417000       1.00800           0
     68049 W2       23036    TIP3     H2       HT       0.417000       1.00800           0
     68050 W2       23037    TIP3     OH2      OT      -0.834000       15.9994           0
     68051 W2       23037    TIP3     H1       HT       0.417000       1.00800           0
     68052 W2       23037    TIP3     H2       HT       0.417000       1.00800           0
     68053 W2       23038    TIP3     OH2      OT      -0.834000       15.9994           0
     68054 W2       23038    TIP3     H1       HT       0.417000       1.00800           0
     68055 W2       23038    TIP3     H2       HT       0.417000       1.00800           0
     68056 W2       23041    TIP3     OH2      OT      -0.834000       15.9994           0
     68057 W2       23041    TIP3     H1       HT       0.417000       1.00800           0
     68058 W2       23041    TIP3     H2       HT       0.417000       1.00800           0
     68059 W2       23044    TIP3     OH2      OT      -0.834000       15.9994           0
     68060 W2       23044    TIP3     H1       HT       0.417000       1.00800           0
     68061 W2       23044    TIP3     H2       HT       0.417000       1.00800           0
     68062 W2       23045    TIP3     OH2      OT      -0.834000       15.9994           0
     68063 W2       23045    TIP3     H1       HT       0.417000       1.00800           0
     68064 W2       23045    TIP3     H2       HT       0.417000       1.00800           0
     68065 W2       23046    TIP3     OH2      OT      -0.834000       15.9994           0
     68066 W2       23046    TIP3     H1       HT       0.417000       1.00800           0
     68067 W2       23046    TIP3     H2       HT       0.417000       1.00800           0
     68068 W2       23047    TIP3     OH2      OT      -0.834000       15.9994           0
     68069 W2       23047    TIP3     H1       HT       0.417000       1.00800           0
     68070 W2       23047    TIP3     H2       HT       0.417000       1.00800           0
     68071 W2       23048    TIP3     OH2      OT      -0.834000       15.9994           0
     68072 W2       23048    TIP3     H1       HT       0.417000       1.00800           0
     68073 W2       23048    TIP3     H2       HT       0.417000       1.00800           0
     68074 W2       23050    TIP3     OH2      OT      -0.834000       15.9994           0
     68075 W2       23050    TIP3     H1       HT       0.417000       1.00800           0
     68076 W2       23050    TIP3     H2       HT       0.417000       1.00800           0
     68077 W2       23051    TIP3     OH2      OT      -0.834000       15.9994           0
     68078 W2       23051    TIP3     H1       HT       0.417000       1.00800           0
     68079 W2       23051    TIP3     H2       HT       0.417000       1.00800           0
     68080 W2       23052    TIP3     OH2      OT      -0.834000       15.9994           0
     68081 W2       23052    TIP3     H1       HT       0.417000       1.00800           0
     68082 W2       23052    TIP3     H2       HT       0.417000       1.00800           0
     68083 W2       23053    TIP3     OH2      OT      -0.834000       15.9994           0
     68084 W2       23053    TIP3     H1       HT       0.417000       1.00800           0
     68085 W2       23053    TIP3     H2       HT       0.417000       1.00800           0
     68086 W2       23054    TIP3     OH2      OT      -0.834000       15.9994           0
     68087 W2       23054    TIP3     H1       HT       0.417000       1.00800           0
     68088 W2       23054    TIP3     H2       HT       0.417000       1.00800           0
     68089 W2       23055    TIP3     OH2      OT      -0.834000       15.9994           0
     68090 W2       23055    TIP3     H1       HT       0.417000       1.00800           0
     68091 W2       23055    TIP3     H2       HT       0.417000       1.00800           0
     68092 W2       23056    TIP3     OH2      OT      -0.834000       15.9994           0
     68093 W2       23056    TIP3     H1       HT       0.417000       1.00800           0
     68094 W2       23056    TIP3     H2       HT       0.417000       1.00800           0
     68095 W2       23057    TIP3     OH2      OT      -0.834000       15.9994           0
     68096 W2       23057    TIP3     H1       HT       0.417000       1.00800           0
     68097 W2       23057    TIP3     H2       HT       0.417000       1.00800           0
     68098 W2       23058    TIP3     OH2      OT      -0.834000       15.9994           0
     68099 W2       23058    TIP3     H1       HT       0.417000       1.00800           0
     68100 W2       23058    TIP3     H2       HT       0.417000       1.00800           0
     68101 W2       23059    TIP3     OH2      OT      -0.834000       15.9994           0
     68102 W2       23059    TIP3     H1       HT       0.417000       1.00800           0
     68103 W2       23059    TIP3     H2       HT       0.417000       1.00800           0
     68104 W2       23060    TIP3     OH2      OT      -0.834000       15.9994           0
     68105 W2       23060    TIP3     H1       HT       0.417000       1.00800           0
     68106 W2       23060    TIP3     H2       HT       0.417000       1.00800           0
     68107 W2       23063    TIP3     OH2      OT      -0.834000       15.9994           0
     68108 W2       23063    TIP3     H1       HT       0.417000       1.00800           0
     68109 W2       23063    TIP3     H2       HT       0.417000       1.00800           0
     68110 W2       23064    TIP3     OH2      OT      -0.834000       15.9994           0
     68111 W2       23064    TIP3     H1       HT       0.417000       1.00800           0
     68112 W2       23064    TIP3     H2       HT       0.417000       1.00800           0
     68113 W2       23065    TIP3     OH2      OT      -0.834000       15.9994           0
     68114 W2       23065    TIP3     H1       HT       0.417000       1.00800           0
     68115 W2       23065    TIP3     H2       HT       0.417000       1.00800           0
     68116 W2       23066    TIP3     OH2      OT      -0.834000       15.9994           0
     68117 W2       23066    TIP3     H1       HT       0.417000       1.00800           0
     68118 W2       23066    TIP3     H2       HT       0.417000       1.00800           0
     68119 W2       23067    TIP3     OH2      OT      -0.834000       15.9994           0
     68120 W2       23067    TIP3     H1       HT       0.417000       1.00800           0
     68121 W2       23067    TIP3     H2       HT       0.417000       1.00800           0
     68122 W2       23068    TIP3     OH2      OT      -0.834000       15.9994           0
     68123 W2       23068    TIP3     H1       HT       0.417000       1.00800           0
     68124 W2       23068    TIP3     H2       HT       0.417000       1.00800           0
     68125 W2       23070    TIP3     OH2      OT      -0.834000       15.9994           0
     68126 W2       23070    TIP3     H1       HT       0.417000       1.00800           0
     68127 W2       23070    TIP3     H2       HT       0.417000       1.00800           0
     68128 W2       23071    TIP3     OH2      OT      -0.834000       15.9994           0
     68129 W2       23071    TIP3     H1       HT       0.417000       1.00800           0
     68130 W2       23071    TIP3     H2       HT       0.417000       1.00800           0
     68131 W2       23072    TIP3     OH2      OT      -0.834000       15.9994           0
     68132 W2       23072    TIP3     H1       HT       0.417000       1.00800           0
     68133 W2       23072    TIP3     H2       HT       0.417000       1.00800           0
     68134 W2       23076    TIP3     OH2      OT      -0.834000       15.9994           0
     68135 W2       23076    TIP3     H1       HT       0.417000       1.00800           0
     68136 W2       23076    TIP3     H2       HT       0.417000       1.00800           0
     68137 W2       23078    TIP3     OH2      OT      -0.834000       15.9994           0
     68138 W2       23078    TIP3     H1       HT       0.417000       1.00800           0
     68139 W2       23078    TIP3     H2       HT       0.417000       1.00800           0
     68140 W2       23079    TIP3     OH2      OT      -0.834000       15.9994           0
     68141 W2       23079    TIP3     H1       HT       0.417000       1.00800           0
     68142 W2       23079    TIP3     H2       HT       0.417000       1.00800           0
     68143 W2       23080    TIP3     OH2      OT      -0.834000       15.9994           0
     68144 W2       23080    TIP3     H1       HT       0.417000       1.00800           0
     68145 W2       23080    TIP3     H2       HT       0.417000       1.00800           0
     68146 W2       23081    TIP3     OH2      OT      -0.834000       15.9994           0
     68147 W2       23081    TIP3     H1       HT       0.417000       1.00800           0
     68148 W2       23081    TIP3     H2       HT       0.417000       1.00800           0
     68149 W2       23082    TIP3     OH2      OT      -0.834000       15.9994           0
     68150 W2       23082    TIP3     H1       HT       0.417000       1.00800           0
     68151 W2       23082    TIP3     H2       HT       0.417000       1.00800           0
     68152 W2       23083    TIP3     OH2      OT      -0.834000       15.9994           0
     68153 W2       23083    TIP3     H1       HT       0.417000       1.00800           0
     68154 W2       23083    TIP3     H2       HT       0.417000       1.00800           0
     68155 W2       23084    TIP3     OH2      OT      -0.834000       15.9994           0
     68156 W2       23084    TIP3     H1       HT       0.417000       1.00800           0
     68157 W2       23084    TIP3     H2       HT       0.417000       1.00800           0
     68158 W2       23085    TIP3     OH2      OT      -0.834000       15.9994           0
     68159 W2       23085    TIP3     H1       HT       0.417000       1.00800           0
     68160 W2       23085    TIP3     H2       HT       0.417000       1.00800           0
     68161 W2       23086    TIP3     OH2      OT      -0.834000       15.9994           0
     68162 W2       23086    TIP3     H1       HT       0.417000       1.00800           0
     68163 W2       23086    TIP3     H2       HT       0.417000       1.00800           0
     68164 W2       23088    TIP3     OH2      OT      -0.834000       15.9994           0
     68165 W2       23088    TIP3     H1       HT       0.417000       1.00800           0
     68166 W2       23088    TIP3     H2       HT       0.417000       1.00800           0
     68167 W2       23090    TIP3     OH2      OT      -0.834000       15.9994           0
     68168 W2       23090    TIP3     H1       HT       0.417000       1.00800           0
     68169 W2       23090    TIP3     H2       HT       0.417000       1.00800           0
     68170 W2       23091    TIP3     OH2      OT      -0.834000       15.9994           0
     68171 W2       23091    TIP3     H1       HT       0.417000       1.00800           0
     68172 W2       23091    TIP3     H2       HT       0.417000       1.00800           0
     68173 W2       23092    TIP3     OH2      OT      -0.834000       15.9994           0
     68174 W2       23092    TIP3     H1       HT       0.417000       1.00800           0
     68175 W2       23092    TIP3     H2       HT       0.417000       1.00800           0
     68176 W2       23093    TIP3     OH2      OT      -0.834000       15.9994           0
     68177 W2       23093    TIP3     H1       HT       0.417000       1.00800           0
     68178 W2       23093    TIP3     H2       HT       0.417000       1.00800           0
     68179 W2       23094    TIP3     OH2      OT      -0.834000       15.9994           0
     68180 W2       23094    TIP3     H1       HT       0.417000       1.00800           0
     68181 W2       23094    TIP3     H2       HT       0.417000       1.00800           0
     68182 W2       23095    TIP3     OH2      OT      -0.834000       15.9994           0
     68183 W2       23095    TIP3     H1       HT       0.417000       1.00800           0
     68184 W2       23095    TIP3     H2       HT       0.417000       1.00800           0
     68185 W2       23096    TIP3     OH2      OT      -0.834000       15.9994           0
     68186 W2       23096    TIP3     H1       HT       0.417000       1.00800           0
     68187 W2       23096    TIP3     H2       HT       0.417000       1.00800           0
     68188 W2       23097    TIP3     OH2      OT      -0.834000       15.9994           0
     68189 W2       23097    TIP3     H1       HT       0.417000       1.00800           0
     68190 W2       23097    TIP3     H2       HT       0.417000       1.00800           0
     68191 W2       23098    TIP3     OH2      OT      -0.834000       15.9994           0
     68192 W2       23098    TIP3     H1       HT       0.417000       1.00800           0
     68193 W2       23098    TIP3     H2       HT       0.417000       1.00800           0
     68194 W2       23100    TIP3     OH2      OT      -0.834000       15.9994           0
     68195 W2       23100    TIP3     H1       HT       0.417000       1.00800           0
     68196 W2       23100    TIP3     H2       HT       0.417000       1.00800           0
     68197 W2       23101    TIP3     OH2      OT      -0.834000       15.9994           0
     68198 W2       23101    TIP3     H1       HT       0.417000       1.00800           0
     68199 W2       23101    TIP3     H2       HT       0.417000       1.00800           0
     68200 W2       23102    TIP3     OH2      OT      -0.834000       15.9994           0
     68201 W2       23102    TIP3     H1       HT       0.417000       1.00800           0
     68202 W2       23102    TIP3     H2       HT       0.417000       1.00800           0
     68203 W2       23104    TIP3     OH2      OT      -0.834000       15.9994           0
     68204 W2       23104    TIP3     H1       HT       0.417000       1.00800           0
     68205 W2       23104    TIP3     H2       HT       0.417000       1.00800           0
     68206 W2       23105    TIP3     OH2      OT      -0.834000       15.9994           0
     68207 W2       23105    TIP3     H1       HT       0.417000       1.00800           0
     68208 W2       23105    TIP3     H2       HT       0.417000       1.00800           0
     68209 W2       23106    TIP3     OH2      OT      -0.834000       15.9994           0
     68210 W2       23106    TIP3     H1       HT       0.417000       1.00800           0
     68211 W2       23106    TIP3     H2       HT       0.417000       1.00800           0
     68212 W2       23107    TIP3     OH2      OT      -0.834000       15.9994           0
     68213 W2       23107    TIP3     H1       HT       0.417000       1.00800           0
     68214 W2       23107    TIP3     H2       HT       0.417000       1.00800           0
     68215 W2       23108    TIP3     OH2      OT      -0.834000       15.9994           0
     68216 W2       23108    TIP3     H1       HT       0.417000       1.00800           0
     68217 W2       23108    TIP3     H2       HT       0.417000       1.00800           0
     68218 W2       23109    TIP3     OH2      OT      -0.834000       15.9994           0
     68219 W2       23109    TIP3     H1       HT       0.417000       1.00800           0
     68220 W2       23109    TIP3     H2       HT       0.417000       1.00800           0
     68221 W2       23112    TIP3     OH2      OT      -0.834000       15.9994           0
     68222 W2       23112    TIP3     H1       HT       0.417000       1.00800           0
     68223 W2       23112    TIP3     H2       HT       0.417000       1.00800           0
     68224 W2       23114    TIP3     OH2      OT      -0.834000       15.9994           0
     68225 W2       23114    TIP3     H1       HT       0.417000       1.00800           0
     68226 W2       23114    TIP3     H2       HT       0.417000       1.00800           0
     68227 W2       23116    TIP3     OH2      OT      -0.834000       15.9994           0
     68228 W2       23116    TIP3     H1       HT       0.417000       1.00800           0
     68229 W2       23116    TIP3     H2       HT       0.417000       1.00800           0
     68230 W2       23118    TIP3     OH2      OT      -0.834000       15.9994           0
     68231 W2       23118    TIP3     H1       HT       0.417000       1.00800           0
     68232 W2       23118    TIP3     H2       HT       0.417000       1.00800           0
     68233 W2       23121    TIP3     OH2      OT      -0.834000       15.9994           0
     68234 W2       23121    TIP3     H1       HT       0.417000       1.00800           0
     68235 W2       23121    TIP3     H2       HT       0.417000       1.00800           0
     68236 W2       23123    TIP3     OH2      OT      -0.834000       15.9994           0
     68237 W2       23123    TIP3     H1       HT       0.417000       1.00800           0
     68238 W2       23123    TIP3     H2       HT       0.417000       1.00800           0
     68239 W2       23125    TIP3     OH2      OT      -0.834000       15.9994           0
     68240 W2       23125    TIP3     H1       HT       0.417000       1.00800           0
     68241 W2       23125    TIP3     H2       HT       0.417000       1.00800           0
     68242 W2       23127    TIP3     OH2      OT      -0.834000       15.9994           0
     68243 W2       23127    TIP3     H1       HT       0.417000       1.00800           0
     68244 W2       23127    TIP3     H2       HT       0.417000       1.00800           0
     68245 W2       23139    TIP3     OH2      OT      -0.834000       15.9994           0
     68246 W2       23139    TIP3     H1       HT       0.417000       1.00800           0
     68247 W2       23139    TIP3     H2       HT       0.417000       1.00800           0
     68248 W2       23140    TIP3     OH2      OT      -0.834000       15.9994           0
     68249 W2       23140    TIP3     H1       HT       0.417000       1.00800           0
     68250 W2       23140    TIP3     H2       HT       0.417000       1.00800           0
     68251 W2       23141    TIP3     OH2      OT      -0.834000       15.9994           0
     68252 W2       23141    TIP3     H1       HT       0.417000       1.00800           0
     68253 W2       23141    TIP3     H2       HT       0.417000       1.00800           0
     68254 W2       23142    TIP3     OH2      OT      -0.834000       15.9994           0
     68255 W2       23142    TIP3     H1       HT       0.417000       1.00800           0
     68256 W2       23142    TIP3     H2       HT       0.417000       1.00800           0
     68257 W2       23143    TIP3     OH2      OT      -0.834000       15.9994           0
     68258 W2       23143    TIP3     H1       HT       0.417000       1.00800           0
     68259 W2       23143    TIP3     H2       HT       0.417000       1.00800           0
     68260 W2       23146    TIP3     OH2      OT      -0.834000       15.9994           0
     68261 W2       23146    TIP3     H1       HT       0.417000       1.00800           0
     68262 W2       23146    TIP3     H2       HT       0.417000       1.00800           0
     68263 W2       23147    TIP3     OH2      OT      -0.834000       15.9994           0
     68264 W2       23147    TIP3     H1       HT       0.417000       1.00800           0
     68265 W2       23147    TIP3     H2       HT       0.417000       1.00800           0
     68266 W2       23148    TIP3     OH2      OT      -0.834000       15.9994           0
     68267 W2       23148    TIP3     H1       HT       0.417000       1.00800           0
     68268 W2       23148    TIP3     H2       HT       0.417000       1.00800           0
     68269 W2       23149    TIP3     OH2      OT      -0.834000       15.9994           0
     68270 W2       23149    TIP3     H1       HT       0.417000       1.00800           0
     68271 W2       23149    TIP3     H2       HT       0.417000       1.00800           0
     68272 W2       23150    TIP3     OH2      OT      -0.834000       15.9994           0
     68273 W2       23150    TIP3     H1       HT       0.417000       1.00800           0
     68274 W2       23150    TIP3     H2       HT       0.417000       1.00800           0
     68275 W2       23151    TIP3     OH2      OT      -0.834000       15.9994           0
     68276 W2       23151    TIP3     H1       HT       0.417000       1.00800           0
     68277 W2       23151    TIP3     H2       HT       0.417000       1.00800           0
     68278 W2       23152    TIP3     OH2      OT      -0.834000       15.9994           0
     68279 W2       23152    TIP3     H1       HT       0.417000       1.00800           0
     68280 W2       23152    TIP3     H2       HT       0.417000       1.00800           0
     68281 W2       23153    TIP3     OH2      OT      -0.834000       15.9994           0
     68282 W2       23153    TIP3     H1       HT       0.417000       1.00800           0
     68283 W2       23153    TIP3     H2       HT       0.417000       1.00800           0
     68284 W2       23156    TIP3     OH2      OT      -0.834000       15.9994           0
     68285 W2       23156    TIP3     H1       HT       0.417000       1.00800           0
     68286 W2       23156    TIP3     H2       HT       0.417000       1.00800           0
     68287 W2       23157    TIP3     OH2      OT      -0.834000       15.9994           0
     68288 W2       23157    TIP3     H1       HT       0.417000       1.00800           0
     68289 W2       23157    TIP3     H2       HT       0.417000       1.00800           0
     68290 W2       23158    TIP3     OH2      OT      -0.834000       15.9994           0
     68291 W2       23158    TIP3     H1       HT       0.417000       1.00800           0
     68292 W2       23158    TIP3     H2       HT       0.417000       1.00800           0
     68293 W2       23159    TIP3     OH2      OT      -0.834000       15.9994           0
     68294 W2       23159    TIP3     H1       HT       0.417000       1.00800           0
     68295 W2       23159    TIP3     H2       HT       0.417000       1.00800           0
     68296 W2       23162    TIP3     OH2      OT      -0.834000       15.9994           0
     68297 W2       23162    TIP3     H1       HT       0.417000       1.00800           0
     68298 W2       23162    TIP3     H2       HT       0.417000       1.00800           0
     68299 W2       23163    TIP3     OH2      OT      -0.834000       15.9994           0
     68300 W2       23163    TIP3     H1       HT       0.417000       1.00800           0
     68301 W2       23163    TIP3     H2       HT       0.417000       1.00800           0
     68302 W2       23164    TIP3     OH2      OT      -0.834000       15.9994           0
     68303 W2       23164    TIP3     H1       HT       0.417000       1.00800           0
     68304 W2       23164    TIP3     H2       HT       0.417000       1.00800           0
     68305 W2       23166    TIP3     OH2      OT      -0.834000       15.9994           0
     68306 W2       23166    TIP3     H1       HT       0.417000       1.00800           0
     68307 W2       23166    TIP3     H2       HT       0.417000       1.00800           0
     68308 W2       23167    TIP3     OH2      OT      -0.834000       15.9994           0
     68309 W2       23167    TIP3     H1       HT       0.417000       1.00800           0
     68310 W2       23167    TIP3     H2       HT       0.417000       1.00800           0
     68311 W2       23168    TIP3     OH2      OT      -0.834000       15.9994           0
     68312 W2       23168    TIP3     H1       HT       0.417000       1.00800           0
     68313 W2       23168    TIP3     H2       HT       0.417000       1.00800           0
     68314 W2       23169    TIP3     OH2      OT      -0.834000       15.9994           0
     68315 W2       23169    TIP3     H1       HT       0.417000       1.00800           0
     68316 W2       23169    TIP3     H2       HT       0.417000       1.00800           0
     68317 W2       23171    TIP3     OH2      OT      -0.834000       15.9994           0
     68318 W2       23171    TIP3     H1       HT       0.417000       1.00800           0
     68319 W2       23171    TIP3     H2       HT       0.417000       1.00800           0
     68320 W2       23175    TIP3     OH2      OT      -0.834000       15.9994           0
     68321 W2       23175    TIP3     H1       HT       0.417000       1.00800           0
     68322 W2       23175    TIP3     H2       HT       0.417000       1.00800           0
     68323 W2       23176    TIP3     OH2      OT      -0.834000       15.9994           0
     68324 W2       23176    TIP3     H1       HT       0.417000       1.00800           0
     68325 W2       23176    TIP3     H2       HT       0.417000       1.00800           0
     68326 W2       23177    TIP3     OH2      OT      -0.834000       15.9994           0
     68327 W2       23177    TIP3     H1       HT       0.417000       1.00800           0
     68328 W2       23177    TIP3     H2       HT       0.417000       1.00800           0
     68329 W2       23178    TIP3     OH2      OT      -0.834000       15.9994           0
     68330 W2       23178    TIP3     H1       HT       0.417000       1.00800           0
     68331 W2       23178    TIP3     H2       HT       0.417000       1.00800           0
     68332 W2       23179    TIP3     OH2      OT      -0.834000       15.9994           0
     68333 W2       23179    TIP3     H1       HT       0.417000       1.00800           0
     68334 W2       23179    TIP3     H2       HT       0.417000       1.00800           0
     68335 W2       23180    TIP3     OH2      OT      -0.834000       15.9994           0
     68336 W2       23180    TIP3     H1       HT       0.417000       1.00800           0
     68337 W2       23180    TIP3     H2       HT       0.417000       1.00800           0
     68338 W2       23181    TIP3     OH2      OT      -0.834000       15.9994           0
     68339 W2       23181    TIP3     H1       HT       0.417000       1.00800           0
     68340 W2       23181    TIP3     H2       HT       0.417000       1.00800           0
     68341 W2       23182    TIP3     OH2      OT      -0.834000       15.9994           0
     68342 W2       23182    TIP3     H1       HT       0.417000       1.00800           0
     68343 W2       23182    TIP3     H2       HT       0.417000       1.00800           0
     68344 W2       23183    TIP3     OH2      OT      -0.834000       15.9994           0
     68345 W2       23183    TIP3     H1       HT       0.417000       1.00800           0
     68346 W2       23183    TIP3     H2       HT       0.417000       1.00800           0
     68347 W2       23184    TIP3     OH2      OT      -0.834000       15.9994           0
     68348 W2       23184    TIP3     H1       HT       0.417000       1.00800           0
     68349 W2       23184    TIP3     H2       HT       0.417000       1.00800           0
     68350 W2       23185    TIP3     OH2      OT      -0.834000       15.9994           0
     68351 W2       23185    TIP3     H1       HT       0.417000       1.00800           0
     68352 W2       23185    TIP3     H2       HT       0.417000       1.00800           0
     68353 W2       23186    TIP3     OH2      OT      -0.834000       15.9994           0
     68354 W2       23186    TIP3     H1       HT       0.417000       1.00800           0
     68355 W2       23186    TIP3     H2       HT       0.417000       1.00800           0
     68356 W2       23187    TIP3     OH2      OT      -0.834000       15.9994           0
     68357 W2       23187    TIP3     H1       HT       0.417000       1.00800           0
     68358 W2       23187    TIP3     H2       HT       0.417000       1.00800           0
     68359 W2       23188    TIP3     OH2      OT      -0.834000       15.9994           0
     68360 W2       23188    TIP3     H1       HT       0.417000       1.00800           0
     68361 W2       23188    TIP3     H2       HT       0.417000       1.00800           0
     68362 W2       23189    TIP3     OH2      OT      -0.834000       15.9994           0
     68363 W2       23189    TIP3     H1       HT       0.417000       1.00800           0
     68364 W2       23189    TIP3     H2       HT       0.417000       1.00800           0
     68365 W2       23190    TIP3     OH2      OT      -0.834000       15.9994           0
     68366 W2       23190    TIP3     H1       HT       0.417000       1.00800           0
     68367 W2       23190    TIP3     H2       HT       0.417000       1.00800           0
     68368 W2       23191    TIP3     OH2      OT      -0.834000       15.9994           0
     68369 W2       23191    TIP3     H1       HT       0.417000       1.00800           0
     68370 W2       23191    TIP3     H2       HT       0.417000       1.00800           0
     68371 W2       23192    TIP3     OH2      OT      -0.834000       15.9994           0
     68372 W2       23192    TIP3     H1       HT       0.417000       1.00800           0
     68373 W2       23192    TIP3     H2       HT       0.417000       1.00800           0
     68374 W2       23193    TIP3     OH2      OT      -0.834000       15.9994           0
     68375 W2       23193    TIP3     H1       HT       0.417000       1.00800           0
     68376 W2       23193    TIP3     H2       HT       0.417000       1.00800           0
     68377 W2       23194    TIP3     OH2      OT      -0.834000       15.9994           0
     68378 W2       23194    TIP3     H1       HT       0.417000       1.00800           0
     68379 W2       23194    TIP3     H2       HT       0.417000       1.00800           0
     68380 W2       23195    TIP3     OH2      OT      -0.834000       15.9994           0
     68381 W2       23195    TIP3     H1       HT       0.417000       1.00800           0
     68382 W2       23195    TIP3     H2       HT       0.417000       1.00800           0
     68383 W2       23198    TIP3     OH2      OT      -0.834000       15.9994           0
     68384 W2       23198    TIP3     H1       HT       0.417000       1.00800           0
     68385 W2       23198    TIP3     H2       HT       0.417000       1.00800           0
     68386 W2       23201    TIP3     OH2      OT      -0.834000       15.9994           0
     68387 W2       23201    TIP3     H1       HT       0.417000       1.00800           0
     68388 W2       23201    TIP3     H2       HT       0.417000       1.00800           0
     68389 W2       23202    TIP3     OH2      OT      -0.834000       15.9994           0
     68390 W2       23202    TIP3     H1       HT       0.417000       1.00800           0
     68391 W2       23202    TIP3     H2       HT       0.417000       1.00800           0
     68392 W2       23203    TIP3     OH2      OT      -0.834000       15.9994           0
     68393 W2       23203    TIP3     H1       HT       0.417000       1.00800           0
     68394 W2       23203    TIP3     H2       HT       0.417000       1.00800           0
     68395 W2       23204    TIP3     OH2      OT      -0.834000       15.9994           0
     68396 W2       23204    TIP3     H1       HT       0.417000       1.00800           0
     68397 W2       23204    TIP3     H2       HT       0.417000       1.00800           0
     68398 W2       23205    TIP3     OH2      OT      -0.834000       15.9994           0
     68399 W2       23205    TIP3     H1       HT       0.417000       1.00800           0
     68400 W2       23205    TIP3     H2       HT       0.417000       1.00800           0
     68401 W2       23206    TIP3     OH2      OT      -0.834000       15.9994           0
     68402 W2       23206    TIP3     H1       HT       0.417000       1.00800           0
     68403 W2       23206    TIP3     H2       HT       0.417000       1.00800           0
     68404 W2       23207    TIP3     OH2      OT      -0.834000       15.9994           0
     68405 W2       23207    TIP3     H1       HT       0.417000       1.00800           0
     68406 W2       23207    TIP3     H2       HT       0.417000       1.00800           0
     68407 W2       23208    TIP3     OH2      OT      -0.834000       15.9994           0
     68408 W2       23208    TIP3     H1       HT       0.417000       1.00800           0
     68409 W2       23208    TIP3     H2       HT       0.417000       1.00800           0
     68410 W2       23209    TIP3     OH2      OT      -0.834000       15.9994           0
     68411 W2       23209    TIP3     H1       HT       0.417000       1.00800           0
     68412 W2       23209    TIP3     H2       HT       0.417000       1.00800           0
     68413 W2       23210    TIP3     OH2      OT      -0.834000       15.9994           0
     68414 W2       23210    TIP3     H1       HT       0.417000       1.00800           0
     68415 W2       23210    TIP3     H2       HT       0.417000       1.00800           0
     68416 W2       23211    TIP3     OH2      OT      -0.834000       15.9994           0
     68417 W2       23211    TIP3     H1       HT       0.417000       1.00800           0
     68418 W2       23211    TIP3     H2       HT       0.417000       1.00800           0
     68419 W2       23212    TIP3     OH2      OT      -0.834000       15.9994           0
     68420 W2       23212    TIP3     H1       HT       0.417000       1.00800           0
     68421 W2       23212    TIP3     H2       HT       0.417000       1.00800           0
     68422 W2       23213    TIP3     OH2      OT      -0.834000       15.9994           0
     68423 W2       23213    TIP3     H1       HT       0.417000       1.00800           0
     68424 W2       23213    TIP3     H2       HT       0.417000       1.00800           0
     68425 W2       23214    TIP3     OH2      OT      -0.834000       15.9994           0
     68426 W2       23214    TIP3     H1       HT       0.417000       1.00800           0
     68427 W2       23214    TIP3     H2       HT       0.417000       1.00800           0
     68428 W2       23215    TIP3     OH2      OT      -0.834000       15.9994           0
     68429 W2       23215    TIP3     H1       HT       0.417000       1.00800           0
     68430 W2       23215    TIP3     H2       HT       0.417000       1.00800           0
     68431 W2       23217    TIP3     OH2      OT      -0.834000       15.9994           0
     68432 W2       23217    TIP3     H1       HT       0.417000       1.00800           0
     68433 W2       23217    TIP3     H2       HT       0.417000       1.00800           0
     68434 W2       23218    TIP3     OH2      OT      -0.834000       15.9994           0
     68435 W2       23218    TIP3     H1       HT       0.417000       1.00800           0
     68436 W2       23218    TIP3     H2       HT       0.417000       1.00800           0
     68437 W2       23219    TIP3     OH2      OT      -0.834000       15.9994           0
     68438 W2       23219    TIP3     H1       HT       0.417000       1.00800           0
     68439 W2       23219    TIP3     H2       HT       0.417000       1.00800           0
     68440 W2       23220    TIP3     OH2      OT      -0.834000       15.9994           0
     68441 W2       23220    TIP3     H1       HT       0.417000       1.00800           0
     68442 W2       23220    TIP3     H2       HT       0.417000       1.00800           0
     68443 W2       23221    TIP3     OH2      OT      -0.834000       15.9994           0
     68444 W2       23221    TIP3     H1       HT       0.417000       1.00800           0
     68445 W2       23221    TIP3     H2       HT       0.417000       1.00800           0
     68446 W2       23222    TIP3     OH2      OT      -0.834000       15.9994           0
     68447 W2       23222    TIP3     H1       HT       0.417000       1.00800           0
     68448 W2       23222    TIP3     H2       HT       0.417000       1.00800           0
     68449 W2       23223    TIP3     OH2      OT      -0.834000       15.9994           0
     68450 W2       23223    TIP3     H1       HT       0.417000       1.00800           0
     68451 W2       23223    TIP3     H2       HT       0.417000       1.00800           0
     68452 W2       23224    TIP3     OH2      OT      -0.834000       15.9994           0
     68453 W2       23224    TIP3     H1       HT       0.417000       1.00800           0
     68454 W2       23224    TIP3     H2       HT       0.417000       1.00800           0
     68455 W2       23225    TIP3     OH2      OT      -0.834000       15.9994           0
     68456 W2       23225    TIP3     H1       HT       0.417000       1.00800           0
     68457 W2       23225    TIP3     H2       HT       0.417000       1.00800           0
     68458 W2       23226    TIP3     OH2      OT      -0.834000       15.9994           0
     68459 W2       23226    TIP3     H1       HT       0.417000       1.00800           0
     68460 W2       23226    TIP3     H2       HT       0.417000       1.00800           0
     68461 W2       23227    TIP3     OH2      OT      -0.834000       15.9994           0
     68462 W2       23227    TIP3     H1       HT       0.417000       1.00800           0
     68463 W2       23227    TIP3     H2       HT       0.417000       1.00800           0
     68464 W2       23228    TIP3     OH2      OT      -0.834000       15.9994           0
     68465 W2       23228    TIP3     H1       HT       0.417000       1.00800           0
     68466 W2       23228    TIP3     H2       HT       0.417000       1.00800           0
     68467 W2       23230    TIP3     OH2      OT      -0.834000       15.9994           0
     68468 W2       23230    TIP3     H1       HT       0.417000       1.00800           0
     68469 W2       23230    TIP3     H2       HT       0.417000       1.00800           0
     68470 W2       23231    TIP3     OH2      OT      -0.834000       15.9994           0
     68471 W2       23231    TIP3     H1       HT       0.417000       1.00800           0
     68472 W2       23231    TIP3     H2       HT       0.417000       1.00800           0
     68473 W2       23232    TIP3     OH2      OT      -0.834000       15.9994           0
     68474 W2       23232    TIP3     H1       HT       0.417000       1.00800           0
     68475 W2       23232    TIP3     H2       HT       0.417000       1.00800           0
     68476 W2       23233    TIP3     OH2      OT      -0.834000       15.9994           0
     68477 W2       23233    TIP3     H1       HT       0.417000       1.00800           0
     68478 W2       23233    TIP3     H2       HT       0.417000       1.00800           0
     68479 W2       23235    TIP3     OH2      OT      -0.834000       15.9994           0
     68480 W2       23235    TIP3     H1       HT       0.417000       1.00800           0
     68481 W2       23235    TIP3     H2       HT       0.417000       1.00800           0
     68482 W2       23236    TIP3     OH2      OT      -0.834000       15.9994           0
     68483 W2       23236    TIP3     H1       HT       0.417000       1.00800           0
     68484 W2       23236    TIP3     H2       HT       0.417000       1.00800           0
     68485 W2       23237    TIP3     OH2      OT      -0.834000       15.9994           0
     68486 W2       23237    TIP3     H1       HT       0.417000       1.00800           0
     68487 W2       23237    TIP3     H2       HT       0.417000       1.00800           0
     68488 W2       23238    TIP3     OH2      OT      -0.834000       15.9994           0
     68489 W2       23238    TIP3     H1       HT       0.417000       1.00800           0
     68490 W2       23238    TIP3     H2       HT       0.417000       1.00800           0
     68491 W2       23240    TIP3     OH2      OT      -0.834000       15.9994           0
     68492 W2       23240    TIP3     H1       HT       0.417000       1.00800           0
     68493 W2       23240    TIP3     H2       HT       0.417000       1.00800           0
     68494 W2       23242    TIP3     OH2      OT      -0.834000       15.9994           0
     68495 W2       23242    TIP3     H1       HT       0.417000       1.00800           0
     68496 W2       23242    TIP3     H2       HT       0.417000       1.00800           0
     68497 W2       23244    TIP3     OH2      OT      -0.834000       15.9994           0
     68498 W2       23244    TIP3     H1       HT       0.417000       1.00800           0
     68499 W2       23244    TIP3     H2       HT       0.417000       1.00800           0
     68500 W2       23245    TIP3     OH2      OT      -0.834000       15.9994           0
     68501 W2       23245    TIP3     H1       HT       0.417000       1.00800           0
     68502 W2       23245    TIP3     H2       HT       0.417000       1.00800           0
     68503 W2       23246    TIP3     OH2      OT      -0.834000       15.9994           0
     68504 W2       23246    TIP3     H1       HT       0.417000       1.00800           0
     68505 W2       23246    TIP3     H2       HT       0.417000       1.00800           0
     68506 W2       23247    TIP3     OH2      OT      -0.834000       15.9994           0
     68507 W2       23247    TIP3     H1       HT       0.417000       1.00800           0
     68508 W2       23247    TIP3     H2       HT       0.417000       1.00800           0
     68509 W2       23248    TIP3     OH2      OT      -0.834000       15.9994           0
     68510 W2       23248    TIP3     H1       HT       0.417000       1.00800           0
     68511 W2       23248    TIP3     H2       HT       0.417000       1.00800           0
     68512 W2       23251    TIP3     OH2      OT      -0.834000       15.9994           0
     68513 W2       23251    TIP3     H1       HT       0.417000       1.00800           0
     68514 W2       23251    TIP3     H2       HT       0.417000       1.00800           0
     68515 W2       23252    TIP3     OH2      OT      -0.834000       15.9994           0
     68516 W2       23252    TIP3     H1       HT       0.417000       1.00800           0
     68517 W2       23252    TIP3     H2       HT       0.417000       1.00800           0
     68518 W2       23253    TIP3     OH2      OT      -0.834000       15.9994           0
     68519 W2       23253    TIP3     H1       HT       0.417000       1.00800           0
     68520 W2       23253    TIP3     H2       HT       0.417000       1.00800           0
     68521 W2       23254    TIP3     OH2      OT      -0.834000       15.9994           0
     68522 W2       23254    TIP3     H1       HT       0.417000       1.00800           0
     68523 W2       23254    TIP3     H2       HT       0.417000       1.00800           0
     68524 W2       23257    TIP3     OH2      OT      -0.834000       15.9994           0
     68525 W2       23257    TIP3     H1       HT       0.417000       1.00800           0
     68526 W2       23257    TIP3     H2       HT       0.417000       1.00800           0
     68527 W2       23260    TIP3     OH2      OT      -0.834000       15.9994           0
     68528 W2       23260    TIP3     H1       HT       0.417000       1.00800           0
     68529 W2       23260    TIP3     H2       HT       0.417000       1.00800           0
     68530 W2       23261    TIP3     OH2      OT      -0.834000       15.9994           0
     68531 W2       23261    TIP3     H1       HT       0.417000       1.00800           0
     68532 W2       23261    TIP3     H2       HT       0.417000       1.00800           0
     68533 W2       23262    TIP3     OH2      OT      -0.834000       15.9994           0
     68534 W2       23262    TIP3     H1       HT       0.417000       1.00800           0
     68535 W2       23262    TIP3     H2       HT       0.417000       1.00800           0
     68536 W2       23263    TIP3     OH2      OT      -0.834000       15.9994           0
     68537 W2       23263    TIP3     H1       HT       0.417000       1.00800           0
     68538 W2       23263    TIP3     H2       HT       0.417000       1.00800           0
     68539 W2       23264    TIP3     OH2      OT      -0.834000       15.9994           0
     68540 W2       23264    TIP3     H1       HT       0.417000       1.00800           0
     68541 W2       23264    TIP3     H2       HT       0.417000       1.00800           0
     68542 W2       23266    TIP3     OH2      OT      -0.834000       15.9994           0
     68543 W2       23266    TIP3     H1       HT       0.417000       1.00800           0
     68544 W2       23266    TIP3     H2       HT       0.417000       1.00800           0
     68545 W2       23267    TIP3     OH2      OT      -0.834000       15.9994           0
     68546 W2       23267    TIP3     H1       HT       0.417000       1.00800           0
     68547 W2       23267    TIP3     H2       HT       0.417000       1.00800           0
     68548 W2       23268    TIP3     OH2      OT      -0.834000       15.9994           0
     68549 W2       23268    TIP3     H1       HT       0.417000       1.00800           0
     68550 W2       23268    TIP3     H2       HT       0.417000       1.00800           0
     68551 W2       23269    TIP3     OH2      OT      -0.834000       15.9994           0
     68552 W2       23269    TIP3     H1       HT       0.417000       1.00800           0
     68553 W2       23269    TIP3     H2       HT       0.417000       1.00800           0
     68554 W2       23270    TIP3     OH2      OT      -0.834000       15.9994           0
     68555 W2       23270    TIP3     H1       HT       0.417000       1.00800           0
     68556 W2       23270    TIP3     H2       HT       0.417000       1.00800           0
     68557 W2       23271    TIP3     OH2      OT      -0.834000       15.9994           0
     68558 W2       23271    TIP3     H1       HT       0.417000       1.00800           0
     68559 W2       23271    TIP3     H2       HT       0.417000       1.00800           0
     68560 W2       23272    TIP3     OH2      OT      -0.834000       15.9994           0
     68561 W2       23272    TIP3     H1       HT       0.417000       1.00800           0
     68562 W2       23272    TIP3     H2       HT       0.417000       1.00800           0
     68563 W2       23273    TIP3     OH2      OT      -0.834000       15.9994           0
     68564 W2       23273    TIP3     H1       HT       0.417000       1.00800           0
     68565 W2       23273    TIP3     H2       HT       0.417000       1.00800           0
     68566 W2       23274    TIP3     OH2      OT      -0.834000       15.9994           0
     68567 W2       23274    TIP3     H1       HT       0.417000       1.00800           0
     68568 W2       23274    TIP3     H2       HT       0.417000       1.00800           0
     68569 W2       23275    TIP3     OH2      OT      -0.834000       15.9994           0
     68570 W2       23275    TIP3     H1       HT       0.417000       1.00800           0
     68571 W2       23275    TIP3     H2       HT       0.417000       1.00800           0
     68572 W2       23276    TIP3     OH2      OT      -0.834000       15.9994           0
     68573 W2       23276    TIP3     H1       HT       0.417000       1.00800           0
     68574 W2       23276    TIP3     H2       HT       0.417000       1.00800           0
     68575 W2       23279    TIP3     OH2      OT      -0.834000       15.9994           0
     68576 W2       23279    TIP3     H1       HT       0.417000       1.00800           0
     68577 W2       23279    TIP3     H2       HT       0.417000       1.00800           0
     68578 W2       23280    TIP3     OH2      OT      -0.834000       15.9994           0
     68579 W2       23280    TIP3     H1       HT       0.417000       1.00800           0
     68580 W2       23280    TIP3     H2       HT       0.417000       1.00800           0
     68581 W2       23281    TIP3     OH2      OT      -0.834000       15.9994           0
     68582 W2       23281    TIP3     H1       HT       0.417000       1.00800           0
     68583 W2       23281    TIP3     H2       HT       0.417000       1.00800           0
     68584 W2       23282    TIP3     OH2      OT      -0.834000       15.9994           0
     68585 W2       23282    TIP3     H1       HT       0.417000       1.00800           0
     68586 W2       23282    TIP3     H2       HT       0.417000       1.00800           0
     68587 W2       23283    TIP3     OH2      OT      -0.834000       15.9994           0
     68588 W2       23283    TIP3     H1       HT       0.417000       1.00800           0
     68589 W2       23283    TIP3     H2       HT       0.417000       1.00800           0
     68590 W2       23284    TIP3     OH2      OT      -0.834000       15.9994           0
     68591 W2       23284    TIP3     H1       HT       0.417000       1.00800           0
     68592 W2       23284    TIP3     H2       HT       0.417000       1.00800           0
     68593 W2       23286    TIP3     OH2      OT      -0.834000       15.9994           0
     68594 W2       23286    TIP3     H1       HT       0.417000       1.00800           0
     68595 W2       23286    TIP3     H2       HT       0.417000       1.00800           0
     68596 W2       23287    TIP3     OH2      OT      -0.834000       15.9994           0
     68597 W2       23287    TIP3     H1       HT       0.417000       1.00800           0
     68598 W2       23287    TIP3     H2       HT       0.417000       1.00800           0
     68599 W2       23288    TIP3     OH2      OT      -0.834000       15.9994           0
     68600 W2       23288    TIP3     H1       HT       0.417000       1.00800           0
     68601 W2       23288    TIP3     H2       HT       0.417000       1.00800           0
     68602 W2       23292    TIP3     OH2      OT      -0.834000       15.9994           0
     68603 W2       23292    TIP3     H1       HT       0.417000       1.00800           0
     68604 W2       23292    TIP3     H2       HT       0.417000       1.00800           0
     68605 W2       23294    TIP3     OH2      OT      -0.834000       15.9994           0
     68606 W2       23294    TIP3     H1       HT       0.417000       1.00800           0
     68607 W2       23294    TIP3     H2       HT       0.417000       1.00800           0
     68608 W2       23295    TIP3     OH2      OT      -0.834000       15.9994           0
     68609 W2       23295    TIP3     H1       HT       0.417000       1.00800           0
     68610 W2       23295    TIP3     H2       HT       0.417000       1.00800           0
     68611 W2       23296    TIP3     OH2      OT      -0.834000       15.9994           0
     68612 W2       23296    TIP3     H1       HT       0.417000       1.00800           0
     68613 W2       23296    TIP3     H2       HT       0.417000       1.00800           0
     68614 W2       23297    TIP3     OH2      OT      -0.834000       15.9994           0
     68615 W2       23297    TIP3     H1       HT       0.417000       1.00800           0
     68616 W2       23297    TIP3     H2       HT       0.417000       1.00800           0
     68617 W2       23298    TIP3     OH2      OT      -0.834000       15.9994           0
     68618 W2       23298    TIP3     H1       HT       0.417000       1.00800           0
     68619 W2       23298    TIP3     H2       HT       0.417000       1.00800           0
     68620 W2       23299    TIP3     OH2      OT      -0.834000       15.9994           0
     68621 W2       23299    TIP3     H1       HT       0.417000       1.00800           0
     68622 W2       23299    TIP3     H2       HT       0.417000       1.00800           0
     68623 W2       23300    TIP3     OH2      OT      -0.834000       15.9994           0
     68624 W2       23300    TIP3     H1       HT       0.417000       1.00800           0
     68625 W2       23300    TIP3     H2       HT       0.417000       1.00800           0
     68626 W2       23301    TIP3     OH2      OT      -0.834000       15.9994           0
     68627 W2       23301    TIP3     H1       HT       0.417000       1.00800           0
     68628 W2       23301    TIP3     H2       HT       0.417000       1.00800           0
     68629 W2       23302    TIP3     OH2      OT      -0.834000       15.9994           0
     68630 W2       23302    TIP3     H1       HT       0.417000       1.00800           0
     68631 W2       23302    TIP3     H2       HT       0.417000       1.00800           0
     68632 W2       23304    TIP3     OH2      OT      -0.834000       15.9994           0
     68633 W2       23304    TIP3     H1       HT       0.417000       1.00800           0
     68634 W2       23304    TIP3     H2       HT       0.417000       1.00800           0
     68635 W2       23306    TIP3     OH2      OT      -0.834000       15.9994           0
     68636 W2       23306    TIP3     H1       HT       0.417000       1.00800           0
     68637 W2       23306    TIP3     H2       HT       0.417000       1.00800           0
     68638 W2       23307    TIP3     OH2      OT      -0.834000       15.9994           0
     68639 W2       23307    TIP3     H1       HT       0.417000       1.00800           0
     68640 W2       23307    TIP3     H2       HT       0.417000       1.00800           0
     68641 W2       23308    TIP3     OH2      OT      -0.834000       15.9994           0
     68642 W2       23308    TIP3     H1       HT       0.417000       1.00800           0
     68643 W2       23308    TIP3     H2       HT       0.417000       1.00800           0
     68644 W2       23309    TIP3     OH2      OT      -0.834000       15.9994           0
     68645 W2       23309    TIP3     H1       HT       0.417000       1.00800           0
     68646 W2       23309    TIP3     H2       HT       0.417000       1.00800           0
     68647 W2       23310    TIP3     OH2      OT      -0.834000       15.9994           0
     68648 W2       23310    TIP3     H1       HT       0.417000       1.00800           0
     68649 W2       23310    TIP3     H2       HT       0.417000       1.00800           0
     68650 W2       23311    TIP3     OH2      OT      -0.834000       15.9994           0
     68651 W2       23311    TIP3     H1       HT       0.417000       1.00800           0
     68652 W2       23311    TIP3     H2       HT       0.417000       1.00800           0
     68653 W2       23312    TIP3     OH2      OT      -0.834000       15.9994           0
     68654 W2       23312    TIP3     H1       HT       0.417000       1.00800           0
     68655 W2       23312    TIP3     H2       HT       0.417000       1.00800           0
     68656 W2       23313    TIP3     OH2      OT      -0.834000       15.9994           0
     68657 W2       23313    TIP3     H1       HT       0.417000       1.00800           0
     68658 W2       23313    TIP3     H2       HT       0.417000       1.00800           0
     68659 W2       23314    TIP3     OH2      OT      -0.834000       15.9994           0
     68660 W2       23314    TIP3     H1       HT       0.417000       1.00800           0
     68661 W2       23314    TIP3     H2       HT       0.417000       1.00800           0
     68662 W2       23316    TIP3     OH2      OT      -0.834000       15.9994           0
     68663 W2       23316    TIP3     H1       HT       0.417000       1.00800           0
     68664 W2       23316    TIP3     H2       HT       0.417000       1.00800           0
     68665 W2       23317    TIP3     OH2      OT      -0.834000       15.9994           0
     68666 W2       23317    TIP3     H1       HT       0.417000       1.00800           0
     68667 W2       23317    TIP3     H2       HT       0.417000       1.00800           0
     68668 W2       23318    TIP3     OH2      OT      -0.834000       15.9994           0
     68669 W2       23318    TIP3     H1       HT       0.417000       1.00800           0
     68670 W2       23318    TIP3     H2       HT       0.417000       1.00800           0
     68671 W2       23320    TIP3     OH2      OT      -0.834000       15.9994           0
     68672 W2       23320    TIP3     H1       HT       0.417000       1.00800           0
     68673 W2       23320    TIP3     H2       HT       0.417000       1.00800           0
     68674 W2       23321    TIP3     OH2      OT      -0.834000       15.9994           0
     68675 W2       23321    TIP3     H1       HT       0.417000       1.00800           0
     68676 W2       23321    TIP3     H2       HT       0.417000       1.00800           0
     68677 W2       23322    TIP3     OH2      OT      -0.834000       15.9994           0
     68678 W2       23322    TIP3     H1       HT       0.417000       1.00800           0
     68679 W2       23322    TIP3     H2       HT       0.417000       1.00800           0
     68680 W2       23323    TIP3     OH2      OT      -0.834000       15.9994           0
     68681 W2       23323    TIP3     H1       HT       0.417000       1.00800           0
     68682 W2       23323    TIP3     H2       HT       0.417000       1.00800           0
     68683 W2       23324    TIP3     OH2      OT      -0.834000       15.9994           0
     68684 W2       23324    TIP3     H1       HT       0.417000       1.00800           0
     68685 W2       23324    TIP3     H2       HT       0.417000       1.00800           0
     68686 W2       23325    TIP3     OH2      OT      -0.834000       15.9994           0
     68687 W2       23325    TIP3     H1       HT       0.417000       1.00800           0
     68688 W2       23325    TIP3     H2       HT       0.417000       1.00800           0
     68689 W2       23328    TIP3     OH2      OT      -0.834000       15.9994           0
     68690 W2       23328    TIP3     H1       HT       0.417000       1.00800           0
     68691 W2       23328    TIP3     H2       HT       0.417000       1.00800           0
     68692 W2       23330    TIP3     OH2      OT      -0.834000       15.9994           0
     68693 W2       23330    TIP3     H1       HT       0.417000       1.00800           0
     68694 W2       23330    TIP3     H2       HT       0.417000       1.00800           0
     68695 W2       23332    TIP3     OH2      OT      -0.834000       15.9994           0
     68696 W2       23332    TIP3     H1       HT       0.417000       1.00800           0
     68697 W2       23332    TIP3     H2       HT       0.417000       1.00800           0
     68698 W2       23334    TIP3     OH2      OT      -0.834000       15.9994           0
     68699 W2       23334    TIP3     H1       HT       0.417000       1.00800           0
     68700 W2       23334    TIP3     H2       HT       0.417000       1.00800           0
     68701 W2       23337    TIP3     OH2      OT      -0.834000       15.9994           0
     68702 W2       23337    TIP3     H1       HT       0.417000       1.00800           0
     68703 W2       23337    TIP3     H2       HT       0.417000       1.00800           0
     68704 W2       23339    TIP3     OH2      OT      -0.834000       15.9994           0
     68705 W2       23339    TIP3     H1       HT       0.417000       1.00800           0
     68706 W2       23339    TIP3     H2       HT       0.417000       1.00800           0
     68707 W2       23341    TIP3     OH2      OT      -0.834000       15.9994           0
     68708 W2       23341    TIP3     H1       HT       0.417000       1.00800           0
     68709 W2       23341    TIP3     H2       HT       0.417000       1.00800           0
     68710 W2       23343    TIP3     OH2      OT      -0.834000       15.9994           0
     68711 W2       23343    TIP3     H1       HT       0.417000       1.00800           0
     68712 W2       23343    TIP3     H2       HT       0.417000       1.00800           0
     68713 W2       23355    TIP3     OH2      OT      -0.834000       15.9994           0
     68714 W2       23355    TIP3     H1       HT       0.417000       1.00800           0
     68715 W2       23355    TIP3     H2       HT       0.417000       1.00800           0
     68716 W2       23356    TIP3     OH2      OT      -0.834000       15.9994           0
     68717 W2       23356    TIP3     H1       HT       0.417000       1.00800           0
     68718 W2       23356    TIP3     H2       HT       0.417000       1.00800           0
     68719 W2       23357    TIP3     OH2      OT      -0.834000       15.9994           0
     68720 W2       23357    TIP3     H1       HT       0.417000       1.00800           0
     68721 W2       23357    TIP3     H2       HT       0.417000       1.00800           0
     68722 W2       23358    TIP3     OH2      OT      -0.834000       15.9994           0
     68723 W2       23358    TIP3     H1       HT       0.417000       1.00800           0
     68724 W2       23358    TIP3     H2       HT       0.417000       1.00800           0
     68725 W2       23359    TIP3     OH2      OT      -0.834000       15.9994           0
     68726 W2       23359    TIP3     H1       HT       0.417000       1.00800           0
     68727 W2       23359    TIP3     H2       HT       0.417000       1.00800           0
     68728 W2       23362    TIP3     OH2      OT      -0.834000       15.9994           0
     68729 W2       23362    TIP3     H1       HT       0.417000       1.00800           0
     68730 W2       23362    TIP3     H2       HT       0.417000       1.00800           0
     68731 W2       23363    TIP3     OH2      OT      -0.834000       15.9994           0
     68732 W2       23363    TIP3     H1       HT       0.417000       1.00800           0
     68733 W2       23363    TIP3     H2       HT       0.417000       1.00800           0
     68734 W2       23364    TIP3     OH2      OT      -0.834000       15.9994           0
     68735 W2       23364    TIP3     H1       HT       0.417000       1.00800           0
     68736 W2       23364    TIP3     H2       HT       0.417000       1.00800           0
     68737 W2       23365    TIP3     OH2      OT      -0.834000       15.9994           0
     68738 W2       23365    TIP3     H1       HT       0.417000       1.00800           0
     68739 W2       23365    TIP3     H2       HT       0.417000       1.00800           0
     68740 W2       23366    TIP3     OH2      OT      -0.834000       15.9994           0
     68741 W2       23366    TIP3     H1       HT       0.417000       1.00800           0
     68742 W2       23366    TIP3     H2       HT       0.417000       1.00800           0
     68743 W2       23367    TIP3     OH2      OT      -0.834000       15.9994           0
     68744 W2       23367    TIP3     H1       HT       0.417000       1.00800           0
     68745 W2       23367    TIP3     H2       HT       0.417000       1.00800           0
     68746 W2       23368    TIP3     OH2      OT      -0.834000       15.9994           0
     68747 W2       23368    TIP3     H1       HT       0.417000       1.00800           0
     68748 W2       23368    TIP3     H2       HT       0.417000       1.00800           0
     68749 W2       23369    TIP3     OH2      OT      -0.834000       15.9994           0
     68750 W2       23369    TIP3     H1       HT       0.417000       1.00800           0
     68751 W2       23369    TIP3     H2       HT       0.417000       1.00800           0
     68752 W2       23372    TIP3     OH2      OT      -0.834000       15.9994           0
     68753 W2       23372    TIP3     H1       HT       0.417000       1.00800           0
     68754 W2       23372    TIP3     H2       HT       0.417000       1.00800           0
     68755 W2       23373    TIP3     OH2      OT      -0.834000       15.9994           0
     68756 W2       23373    TIP3     H1       HT       0.417000       1.00800           0
     68757 W2       23373    TIP3     H2       HT       0.417000       1.00800           0
     68758 W2       23374    TIP3     OH2      OT      -0.834000       15.9994           0
     68759 W2       23374    TIP3     H1       HT       0.417000       1.00800           0
     68760 W2       23374    TIP3     H2       HT       0.417000       1.00800           0
     68761 W2       23375    TIP3     OH2      OT      -0.834000       15.9994           0
     68762 W2       23375    TIP3     H1       HT       0.417000       1.00800           0
     68763 W2       23375    TIP3     H2       HT       0.417000       1.00800           0
     68764 W2       23378    TIP3     OH2      OT      -0.834000       15.9994           0
     68765 W2       23378    TIP3     H1       HT       0.417000       1.00800           0
     68766 W2       23378    TIP3     H2       HT       0.417000       1.00800           0
     68767 W2       23379    TIP3     OH2      OT      -0.834000       15.9994           0
     68768 W2       23379    TIP3     H1       HT       0.417000       1.00800           0
     68769 W2       23379    TIP3     H2       HT       0.417000       1.00800           0
     68770 W2       23380    TIP3     OH2      OT      -0.834000       15.9994           0
     68771 W2       23380    TIP3     H1       HT       0.417000       1.00800           0
     68772 W2       23380    TIP3     H2       HT       0.417000       1.00800           0
     68773 W2       23382    TIP3     OH2      OT      -0.834000       15.9994           0
     68774 W2       23382    TIP3     H1       HT       0.417000       1.00800           0
     68775 W2       23382    TIP3     H2       HT       0.417000       1.00800           0
     68776 W2       23383    TIP3     OH2      OT      -0.834000       15.9994           0
     68777 W2       23383    TIP3     H1       HT       0.417000       1.00800           0
     68778 W2       23383    TIP3     H2       HT       0.417000       1.00800           0
     68779 W2       23384    TIP3     OH2      OT      -0.834000       15.9994           0
     68780 W2       23384    TIP3     H1       HT       0.417000       1.00800           0
     68781 W2       23384    TIP3     H2       HT       0.417000       1.00800           0
     68782 W2       23385    TIP3     OH2      OT      -0.834000       15.9994           0
     68783 W2       23385    TIP3     H1       HT       0.417000       1.00800           0
     68784 W2       23385    TIP3     H2       HT       0.417000       1.00800           0
     68785 W2       23387    TIP3     OH2      OT      -0.834000       15.9994           0
     68786 W2       23387    TIP3     H1       HT       0.417000       1.00800           0
     68787 W2       23387    TIP3     H2       HT       0.417000       1.00800           0
     68788 W2       23391    TIP3     OH2      OT      -0.834000       15.9994           0
     68789 W2       23391    TIP3     H1       HT       0.417000       1.00800           0
     68790 W2       23391    TIP3     H2       HT       0.417000       1.00800           0
     68791 W2       23392    TIP3     OH2      OT      -0.834000       15.9994           0
     68792 W2       23392    TIP3     H1       HT       0.417000       1.00800           0
     68793 W2       23392    TIP3     H2       HT       0.417000       1.00800           0
     68794 W2       23393    TIP3     OH2      OT      -0.834000       15.9994           0
     68795 W2       23393    TIP3     H1       HT       0.417000       1.00800           0
     68796 W2       23393    TIP3     H2       HT       0.417000       1.00800           0
     68797 W2       23394    TIP3     OH2      OT      -0.834000       15.9994           0
     68798 W2       23394    TIP3     H1       HT       0.417000       1.00800           0
     68799 W2       23394    TIP3     H2       HT       0.417000       1.00800           0
     68800 W2       23395    TIP3     OH2      OT      -0.834000       15.9994           0
     68801 W2       23395    TIP3     H1       HT       0.417000       1.00800           0
     68802 W2       23395    TIP3     H2       HT       0.417000       1.00800           0
     68803 W2       23396    TIP3     OH2      OT      -0.834000       15.9994           0
     68804 W2       23396    TIP3     H1       HT       0.417000       1.00800           0
     68805 W2       23396    TIP3     H2       HT       0.417000       1.00800           0
     68806 W2       23397    TIP3     OH2      OT      -0.834000       15.9994           0
     68807 W2       23397    TIP3     H1       HT       0.417000       1.00800           0
     68808 W2       23397    TIP3     H2       HT       0.417000       1.00800           0
     68809 W2       23398    TIP3     OH2      OT      -0.834000       15.9994           0
     68810 W2       23398    TIP3     H1       HT       0.417000       1.00800           0
     68811 W2       23398    TIP3     H2       HT       0.417000       1.00800           0
     68812 W2       23399    TIP3     OH2      OT      -0.834000       15.9994           0
     68813 W2       23399    TIP3     H1       HT       0.417000       1.00800           0
     68814 W2       23399    TIP3     H2       HT       0.417000       1.00800           0
     68815 W2       23400    TIP3     OH2      OT      -0.834000       15.9994           0
     68816 W2       23400    TIP3     H1       HT       0.417000       1.00800           0
     68817 W2       23400    TIP3     H2       HT       0.417000       1.00800           0
     68818 W2       23401    TIP3     OH2      OT      -0.834000       15.9994           0
     68819 W2       23401    TIP3     H1       HT       0.417000       1.00800           0
     68820 W2       23401    TIP3     H2       HT       0.417000       1.00800           0
     68821 W2       23402    TIP3     OH2      OT      -0.834000       15.9994           0
     68822 W2       23402    TIP3     H1       HT       0.417000       1.00800           0
     68823 W2       23402    TIP3     H2       HT       0.417000       1.00800           0
     68824 W2       23403    TIP3     OH2      OT      -0.834000       15.9994           0
     68825 W2       23403    TIP3     H1       HT       0.417000       1.00800           0
     68826 W2       23403    TIP3     H2       HT       0.417000       1.00800           0
     68827 W2       23404    TIP3     OH2      OT      -0.834000       15.9994           0
     68828 W2       23404    TIP3     H1       HT       0.417000       1.00800           0
     68829 W2       23404    TIP3     H2       HT       0.417000       1.00800           0
     68830 W2       23405    TIP3     OH2      OT      -0.834000       15.9994           0
     68831 W2       23405    TIP3     H1       HT       0.417000       1.00800           0
     68832 W2       23405    TIP3     H2       HT       0.417000       1.00800           0
     68833 W2       23406    TIP3     OH2      OT      -0.834000       15.9994           0
     68834 W2       23406    TIP3     H1       HT       0.417000       1.00800           0
     68835 W2       23406    TIP3     H2       HT       0.417000       1.00800           0
     68836 W2       23407    TIP3     OH2      OT      -0.834000       15.9994           0
     68837 W2       23407    TIP3     H1       HT       0.417000       1.00800           0
     68838 W2       23407    TIP3     H2       HT       0.417000       1.00800           0
     68839 W2       23408    TIP3     OH2      OT      -0.834000       15.9994           0
     68840 W2       23408    TIP3     H1       HT       0.417000       1.00800           0
     68841 W2       23408    TIP3     H2       HT       0.417000       1.00800           0
     68842 W2       23409    TIP3     OH2      OT      -0.834000       15.9994           0
     68843 W2       23409    TIP3     H1       HT       0.417000       1.00800           0
     68844 W2       23409    TIP3     H2       HT       0.417000       1.00800           0
     68845 W2       23410    TIP3     OH2      OT      -0.834000       15.9994           0
     68846 W2       23410    TIP3     H1       HT       0.417000       1.00800           0
     68847 W2       23410    TIP3     H2       HT       0.417000       1.00800           0
     68848 W2       23411    TIP3     OH2      OT      -0.834000       15.9994           0
     68849 W2       23411    TIP3     H1       HT       0.417000       1.00800           0
     68850 W2       23411    TIP3     H2       HT       0.417000       1.00800           0
     68851 W2       23414    TIP3     OH2      OT      -0.834000       15.9994           0
     68852 W2       23414    TIP3     H1       HT       0.417000       1.00800           0
     68853 W2       23414    TIP3     H2       HT       0.417000       1.00800           0
     68854 W2       23417    TIP3     OH2      OT      -0.834000       15.9994           0
     68855 W2       23417    TIP3     H1       HT       0.417000       1.00800           0
     68856 W2       23417    TIP3     H2       HT       0.417000       1.00800           0
     68857 W2       23418    TIP3     OH2      OT      -0.834000       15.9994           0
     68858 W2       23418    TIP3     H1       HT       0.417000       1.00800           0
     68859 W2       23418    TIP3     H2       HT       0.417000       1.00800           0
     68860 W2       23419    TIP3     OH2      OT      -0.834000       15.9994           0
     68861 W2       23419    TIP3     H1       HT       0.417000       1.00800           0
     68862 W2       23419    TIP3     H2       HT       0.417000       1.00800           0
     68863 W2       23420    TIP3     OH2      OT      -0.834000       15.9994           0
     68864 W2       23420    TIP3     H1       HT       0.417000       1.00800           0
     68865 W2       23420    TIP3     H2       HT       0.417000       1.00800           0
     68866 W2       23421    TIP3     OH2      OT      -0.834000       15.9994           0
     68867 W2       23421    TIP3     H1       HT       0.417000       1.00800           0
     68868 W2       23421    TIP3     H2       HT       0.417000       1.00800           0
     68869 W2       23422    TIP3     OH2      OT      -0.834000       15.9994           0
     68870 W2       23422    TIP3     H1       HT       0.417000       1.00800           0
     68871 W2       23422    TIP3     H2       HT       0.417000       1.00800           0
     68872 W2       23423    TIP3     OH2      OT      -0.834000       15.9994           0
     68873 W2       23423    TIP3     H1       HT       0.417000       1.00800           0
     68874 W2       23423    TIP3     H2       HT       0.417000       1.00800           0
     68875 W2       23424    TIP3     OH2      OT      -0.834000       15.9994           0
     68876 W2       23424    TIP3     H1       HT       0.417000       1.00800           0
     68877 W2       23424    TIP3     H2       HT       0.417000       1.00800           0
     68878 W2       23425    TIP3     OH2      OT      -0.834000       15.9994           0
     68879 W2       23425    TIP3     H1       HT       0.417000       1.00800           0
     68880 W2       23425    TIP3     H2       HT       0.417000       1.00800           0
     68881 W2       23426    TIP3     OH2      OT      -0.834000       15.9994           0
     68882 W2       23426    TIP3     H1       HT       0.417000       1.00800           0
     68883 W2       23426    TIP3     H2       HT       0.417000       1.00800           0
     68884 W2       23427    TIP3     OH2      OT      -0.834000       15.9994           0
     68885 W2       23427    TIP3     H1       HT       0.417000       1.00800           0
     68886 W2       23427    TIP3     H2       HT       0.417000       1.00800           0
     68887 W2       23428    TIP3     OH2      OT      -0.834000       15.9994           0
     68888 W2       23428    TIP3     H1       HT       0.417000       1.00800           0
     68889 W2       23428    TIP3     H2       HT       0.417000       1.00800           0
     68890 W2       23429    TIP3     OH2      OT      -0.834000       15.9994           0
     68891 W2       23429    TIP3     H1       HT       0.417000       1.00800           0
     68892 W2       23429    TIP3     H2       HT       0.417000       1.00800           0
     68893 W2       23430    TIP3     OH2      OT      -0.834000       15.9994           0
     68894 W2       23430    TIP3     H1       HT       0.417000       1.00800           0
     68895 W2       23430    TIP3     H2       HT       0.417000       1.00800           0
     68896 W2       23431    TIP3     OH2      OT      -0.834000       15.9994           0
     68897 W2       23431    TIP3     H1       HT       0.417000       1.00800           0
     68898 W2       23431    TIP3     H2       HT       0.417000       1.00800           0
     68899 W2       23433    TIP3     OH2      OT      -0.834000       15.9994           0
     68900 W2       23433    TIP3     H1       HT       0.417000       1.00800           0
     68901 W2       23433    TIP3     H2       HT       0.417000       1.00800           0
     68902 W2       23434    TIP3     OH2      OT      -0.834000       15.9994           0
     68903 W2       23434    TIP3     H1       HT       0.417000       1.00800           0
     68904 W2       23434    TIP3     H2       HT       0.417000       1.00800           0
     68905 W2       23435    TIP3     OH2      OT      -0.834000       15.9994           0
     68906 W2       23435    TIP3     H1       HT       0.417000       1.00800           0
     68907 W2       23435    TIP3     H2       HT       0.417000       1.00800           0
     68908 W2       23436    TIP3     OH2      OT      -0.834000       15.9994           0
     68909 W2       23436    TIP3     H1       HT       0.417000       1.00800           0
     68910 W2       23436    TIP3     H2       HT       0.417000       1.00800           0
     68911 W2       23437    TIP3     OH2      OT      -0.834000       15.9994           0
     68912 W2       23437    TIP3     H1       HT       0.417000       1.00800           0
     68913 W2       23437    TIP3     H2       HT       0.417000       1.00800           0
     68914 W2       23438    TIP3     OH2      OT      -0.834000       15.9994           0
     68915 W2       23438    TIP3     H1       HT       0.417000       1.00800           0
     68916 W2       23438    TIP3     H2       HT       0.417000       1.00800           0
     68917 W2       23439    TIP3     OH2      OT      -0.834000       15.9994           0
     68918 W2       23439    TIP3     H1       HT       0.417000       1.00800           0
     68919 W2       23439    TIP3     H2       HT       0.417000       1.00800           0
     68920 W2       23440    TIP3     OH2      OT      -0.834000       15.9994           0
     68921 W2       23440    TIP3     H1       HT       0.417000       1.00800           0
     68922 W2       23440    TIP3     H2       HT       0.417000       1.00800           0
     68923 W2       23441    TIP3     OH2      OT      -0.834000       15.9994           0
     68924 W2       23441    TIP3     H1       HT       0.417000       1.00800           0
     68925 W2       23441    TIP3     H2       HT       0.417000       1.00800           0
     68926 W2       23442    TIP3     OH2      OT      -0.834000       15.9994           0
     68927 W2       23442    TIP3     H1       HT       0.417000       1.00800           0
     68928 W2       23442    TIP3     H2       HT       0.417000       1.00800           0
     68929 W2       23443    TIP3     OH2      OT      -0.834000       15.9994           0
     68930 W2       23443    TIP3     H1       HT       0.417000       1.00800           0
     68931 W2       23443    TIP3     H2       HT       0.417000       1.00800           0
     68932 W2       23444    TIP3     OH2      OT      -0.834000       15.9994           0
     68933 W2       23444    TIP3     H1       HT       0.417000       1.00800           0
     68934 W2       23444    TIP3     H2       HT       0.417000       1.00800           0
     68935 W2       23446    TIP3     OH2      OT      -0.834000       15.9994           0
     68936 W2       23446    TIP3     H1       HT       0.417000       1.00800           0
     68937 W2       23446    TIP3     H2       HT       0.417000       1.00800           0
     68938 W2       23447    TIP3     OH2      OT      -0.834000       15.9994           0
     68939 W2       23447    TIP3     H1       HT       0.417000       1.00800           0
     68940 W2       23447    TIP3     H2       HT       0.417000       1.00800           0
     68941 W2       23448    TIP3     OH2      OT      -0.834000       15.9994           0
     68942 W2       23448    TIP3     H1       HT       0.417000       1.00800           0
     68943 W2       23448    TIP3     H2       HT       0.417000       1.00800           0
     68944 W2       23449    TIP3     OH2      OT      -0.834000       15.9994           0
     68945 W2       23449    TIP3     H1       HT       0.417000       1.00800           0
     68946 W2       23449    TIP3     H2       HT       0.417000       1.00800           0
     68947 W2       23451    TIP3     OH2      OT      -0.834000       15.9994           0
     68948 W2       23451    TIP3     H1       HT       0.417000       1.00800           0
     68949 W2       23451    TIP3     H2       HT       0.417000       1.00800           0
     68950 W2       23452    TIP3     OH2      OT      -0.834000       15.9994           0
     68951 W2       23452    TIP3     H1       HT       0.417000       1.00800           0
     68952 W2       23452    TIP3     H2       HT       0.417000       1.00800           0
     68953 W2       23453    TIP3     OH2      OT      -0.834000       15.9994           0
     68954 W2       23453    TIP3     H1       HT       0.417000       1.00800           0
     68955 W2       23453    TIP3     H2       HT       0.417000       1.00800           0
     68956 W2       23454    TIP3     OH2      OT      -0.834000       15.9994           0
     68957 W2       23454    TIP3     H1       HT       0.417000       1.00800           0
     68958 W2       23454    TIP3     H2       HT       0.417000       1.00800           0
     68959 W2       23456    TIP3     OH2      OT      -0.834000       15.9994           0
     68960 W2       23456    TIP3     H1       HT       0.417000       1.00800           0
     68961 W2       23456    TIP3     H2       HT       0.417000       1.00800           0
     68962 W2       23458    TIP3     OH2      OT      -0.834000       15.9994           0
     68963 W2       23458    TIP3     H1       HT       0.417000       1.00800           0
     68964 W2       23458    TIP3     H2       HT       0.417000       1.00800           0
     68965 W2       23460    TIP3     OH2      OT      -0.834000       15.9994           0
     68966 W2       23460    TIP3     H1       HT       0.417000       1.00800           0
     68967 W2       23460    TIP3     H2       HT       0.417000       1.00800           0
     68968 W2       23461    TIP3     OH2      OT      -0.834000       15.9994           0
     68969 W2       23461    TIP3     H1       HT       0.417000       1.00800           0
     68970 W2       23461    TIP3     H2       HT       0.417000       1.00800           0
     68971 W2       23462    TIP3     OH2      OT      -0.834000       15.9994           0
     68972 W2       23462    TIP3     H1       HT       0.417000       1.00800           0
     68973 W2       23462    TIP3     H2       HT       0.417000       1.00800           0
     68974 W2       23463    TIP3     OH2      OT      -0.834000       15.9994           0
     68975 W2       23463    TIP3     H1       HT       0.417000       1.00800           0
     68976 W2       23463    TIP3     H2       HT       0.417000       1.00800           0
     68977 W2       23464    TIP3     OH2      OT      -0.834000       15.9994           0
     68978 W2       23464    TIP3     H1       HT       0.417000       1.00800           0
     68979 W2       23464    TIP3     H2       HT       0.417000       1.00800           0
     68980 W2       23467    TIP3     OH2      OT      -0.834000       15.9994           0
     68981 W2       23467    TIP3     H1       HT       0.417000       1.00800           0
     68982 W2       23467    TIP3     H2       HT       0.417000       1.00800           0
     68983 W2       23468    TIP3     OH2      OT      -0.834000       15.9994           0
     68984 W2       23468    TIP3     H1       HT       0.417000       1.00800           0
     68985 W2       23468    TIP3     H2       HT       0.417000       1.00800           0
     68986 W2       23469    TIP3     OH2      OT      -0.834000       15.9994           0
     68987 W2       23469    TIP3     H1       HT       0.417000       1.00800           0
     68988 W2       23469    TIP3     H2       HT       0.417000       1.00800           0
     68989 W2       23470    TIP3     OH2      OT      -0.834000       15.9994           0
     68990 W2       23470    TIP3     H1       HT       0.417000       1.00800           0
     68991 W2       23470    TIP3     H2       HT       0.417000       1.00800           0
     68992 W2       23473    TIP3     OH2      OT      -0.834000       15.9994           0
     68993 W2       23473    TIP3     H1       HT       0.417000       1.00800           0
     68994 W2       23473    TIP3     H2       HT       0.417000       1.00800           0
     68995 W2       23476    TIP3     OH2      OT      -0.834000       15.9994           0
     68996 W2       23476    TIP3     H1       HT       0.417000       1.00800           0
     68997 W2       23476    TIP3     H2       HT       0.417000       1.00800           0
     68998 W2       23477    TIP3     OH2      OT      -0.834000       15.9994           0
     68999 W2       23477    TIP3     H1       HT       0.417000       1.00800           0
     69000 W2       23477    TIP3     H2       HT       0.417000       1.00800           0
     69001 W2       23478    TIP3     OH2      OT      -0.834000       15.9994           0
     69002 W2       23478    TIP3     H1       HT       0.417000       1.00800           0
     69003 W2       23478    TIP3     H2       HT       0.417000       1.00800           0
     69004 W2       23479    TIP3     OH2      OT      -0.834000       15.9994           0
     69005 W2       23479    TIP3     H1       HT       0.417000       1.00800           0
     69006 W2       23479    TIP3     H2       HT       0.417000       1.00800           0
     69007 W2       23480    TIP3     OH2      OT      -0.834000       15.9994           0
     69008 W2       23480    TIP3     H1       HT       0.417000       1.00800           0
     69009 W2       23480    TIP3     H2       HT       0.417000       1.00800           0
     69010 W2       23482    TIP3     OH2      OT      -0.834000       15.9994           0
     69011 W2       23482    TIP3     H1       HT       0.417000       1.00800           0
     69012 W2       23482    TIP3     H2       HT       0.417000       1.00800           0
     69013 W2       23483    TIP3     OH2      OT      -0.834000       15.9994           0
     69014 W2       23483    TIP3     H1       HT       0.417000       1.00800           0
     69015 W2       23483    TIP3     H2       HT       0.417000       1.00800           0
     69016 W2       23484    TIP3     OH2      OT      -0.834000       15.9994           0
     69017 W2       23484    TIP3     H1       HT       0.417000       1.00800           0
     69018 W2       23484    TIP3     H2       HT       0.417000       1.00800           0
     69019 W2       23485    TIP3     OH2      OT      -0.834000       15.9994           0
     69020 W2       23485    TIP3     H1       HT       0.417000       1.00800           0
     69021 W2       23485    TIP3     H2       HT       0.417000       1.00800           0
     69022 W2       23486    TIP3     OH2      OT      -0.834000       15.9994           0
     69023 W2       23486    TIP3     H1       HT       0.417000       1.00800           0
     69024 W2       23486    TIP3     H2       HT       0.417000       1.00800           0
     69025 W2       23487    TIP3     OH2      OT      -0.834000       15.9994           0
     69026 W2       23487    TIP3     H1       HT       0.417000       1.00800           0
     69027 W2       23487    TIP3     H2       HT       0.417000       1.00800           0
     69028 W2       23488    TIP3     OH2      OT      -0.834000       15.9994           0
     69029 W2       23488    TIP3     H1       HT       0.417000       1.00800           0
     69030 W2       23488    TIP3     H2       HT       0.417000       1.00800           0
     69031 W2       23489    TIP3     OH2      OT      -0.834000       15.9994           0
     69032 W2       23489    TIP3     H1       HT       0.417000       1.00800           0
     69033 W2       23489    TIP3     H2       HT       0.417000       1.00800           0
     69034 W2       23490    TIP3     OH2      OT      -0.834000       15.9994           0
     69035 W2       23490    TIP3     H1       HT       0.417000       1.00800           0
     69036 W2       23490    TIP3     H2       HT       0.417000       1.00800           0
     69037 W2       23491    TIP3     OH2      OT      -0.834000       15.9994           0
     69038 W2       23491    TIP3     H1       HT       0.417000       1.00800           0
     69039 W2       23491    TIP3     H2       HT       0.417000       1.00800           0
     69040 W2       23492    TIP3     OH2      OT      -0.834000       15.9994           0
     69041 W2       23492    TIP3     H1       HT       0.417000       1.00800           0
     69042 W2       23492    TIP3     H2       HT       0.417000       1.00800           0
     69043 W2       23495    TIP3     OH2      OT      -0.834000       15.9994           0
     69044 W2       23495    TIP3     H1       HT       0.417000       1.00800           0
     69045 W2       23495    TIP3     H2       HT       0.417000       1.00800           0
     69046 W2       23496    TIP3     OH2      OT      -0.834000       15.9994           0
     69047 W2       23496    TIP3     H1       HT       0.417000       1.00800           0
     69048 W2       23496    TIP3     H2       HT       0.417000       1.00800           0
     69049 W2       23497    TIP3     OH2      OT      -0.834000       15.9994           0
     69050 W2       23497    TIP3     H1       HT       0.417000       1.00800           0
     69051 W2       23497    TIP3     H2       HT       0.417000       1.00800           0
     69052 W2       23498    TIP3     OH2      OT      -0.834000       15.9994           0
     69053 W2       23498    TIP3     H1       HT       0.417000       1.00800           0
     69054 W2       23498    TIP3     H2       HT       0.417000       1.00800           0
     69055 W2       23499    TIP3     OH2      OT      -0.834000       15.9994           0
     69056 W2       23499    TIP3     H1       HT       0.417000       1.00800           0
     69057 W2       23499    TIP3     H2       HT       0.417000       1.00800           0
     69058 W2       23500    TIP3     OH2      OT      -0.834000       15.9994           0
     69059 W2       23500    TIP3     H1       HT       0.417000       1.00800           0
     69060 W2       23500    TIP3     H2       HT       0.417000       1.00800           0
     69061 W2       23502    TIP3     OH2      OT      -0.834000       15.9994           0
     69062 W2       23502    TIP3     H1       HT       0.417000       1.00800           0
     69063 W2       23502    TIP3     H2       HT       0.417000       1.00800           0
     69064 W2       23503    TIP3     OH2      OT      -0.834000       15.9994           0
     69065 W2       23503    TIP3     H1       HT       0.417000       1.00800           0
     69066 W2       23503    TIP3     H2       HT       0.417000       1.00800           0
     69067 W2       23504    TIP3     OH2      OT      -0.834000       15.9994           0
     69068 W2       23504    TIP3     H1       HT       0.417000       1.00800           0
     69069 W2       23504    TIP3     H2       HT       0.417000       1.00800           0
     69070 W2       23508    TIP3     OH2      OT      -0.834000       15.9994           0
     69071 W2       23508    TIP3     H1       HT       0.417000       1.00800           0
     69072 W2       23508    TIP3     H2       HT       0.417000       1.00800           0
     69073 W2       23510    TIP3     OH2      OT      -0.834000       15.9994           0
     69074 W2       23510    TIP3     H1       HT       0.417000       1.00800           0
     69075 W2       23510    TIP3     H2       HT       0.417000       1.00800           0
     69076 W2       23511    TIP3     OH2      OT      -0.834000       15.9994           0
     69077 W2       23511    TIP3     H1       HT       0.417000       1.00800           0
     69078 W2       23511    TIP3     H2       HT       0.417000       1.00800           0
     69079 W2       23512    TIP3     OH2      OT      -0.834000       15.9994           0
     69080 W2       23512    TIP3     H1       HT       0.417000       1.00800           0
     69081 W2       23512    TIP3     H2       HT       0.417000       1.00800           0
     69082 W2       23513    TIP3     OH2      OT      -0.834000       15.9994           0
     69083 W2       23513    TIP3     H1       HT       0.417000       1.00800           0
     69084 W2       23513    TIP3     H2       HT       0.417000       1.00800           0
     69085 W2       23514    TIP3     OH2      OT      -0.834000       15.9994           0
     69086 W2       23514    TIP3     H1       HT       0.417000       1.00800           0
     69087 W2       23514    TIP3     H2       HT       0.417000       1.00800           0
     69088 W2       23515    TIP3     OH2      OT      -0.834000       15.9994           0
     69089 W2       23515    TIP3     H1       HT       0.417000       1.00800           0
     69090 W2       23515    TIP3     H2       HT       0.417000       1.00800           0
     69091 W2       23516    TIP3     OH2      OT      -0.834000       15.9994           0
     69092 W2       23516    TIP3     H1       HT       0.417000       1.00800           0
     69093 W2       23516    TIP3     H2       HT       0.417000       1.00800           0
     69094 W2       23517    TIP3     OH2      OT      -0.834000       15.9994           0
     69095 W2       23517    TIP3     H1       HT       0.417000       1.00800           0
     69096 W2       23517    TIP3     H2       HT       0.417000       1.00800           0
     69097 W2       23518    TIP3     OH2      OT      -0.834000       15.9994           0
     69098 W2       23518    TIP3     H1       HT       0.417000       1.00800           0
     69099 W2       23518    TIP3     H2       HT       0.417000       1.00800           0
     69100 W2       23520    TIP3     OH2      OT      -0.834000       15.9994           0
     69101 W2       23520    TIP3     H1       HT       0.417000       1.00800           0
     69102 W2       23520    TIP3     H2       HT       0.417000       1.00800           0
     69103 W2       23522    TIP3     OH2      OT      -0.834000       15.9994           0
     69104 W2       23522    TIP3     H1       HT       0.417000       1.00800           0
     69105 W2       23522    TIP3     H2       HT       0.417000       1.00800           0
     69106 W2       23523    TIP3     OH2      OT      -0.834000       15.9994           0
     69107 W2       23523    TIP3     H1       HT       0.417000       1.00800           0
     69108 W2       23523    TIP3     H2       HT       0.417000       1.00800           0
     69109 W2       23524    TIP3     OH2      OT      -0.834000       15.9994           0
     69110 W2       23524    TIP3     H1       HT       0.417000       1.00800           0
     69111 W2       23524    TIP3     H2       HT       0.417000       1.00800           0
     69112 W2       23525    TIP3     OH2      OT      -0.834000       15.9994           0
     69113 W2       23525    TIP3     H1       HT       0.417000       1.00800           0
     69114 W2       23525    TIP3     H2       HT       0.417000       1.00800           0
     69115 W2       23526    TIP3     OH2      OT      -0.834000       15.9994           0
     69116 W2       23526    TIP3     H1       HT       0.417000       1.00800           0
     69117 W2       23526    TIP3     H2       HT       0.417000       1.00800           0
     69118 W2       23527    TIP3     OH2      OT      -0.834000       15.9994           0
     69119 W2       23527    TIP3     H1       HT       0.417000       1.00800           0
     69120 W2       23527    TIP3     H2       HT       0.417000       1.00800           0
     69121 W2       23528    TIP3     OH2      OT      -0.834000       15.9994           0
     69122 W2       23528    TIP3     H1       HT       0.417000       1.00800           0
     69123 W2       23528    TIP3     H2       HT       0.417000       1.00800           0
     69124 W2       23529    TIP3     OH2      OT      -0.834000       15.9994           0
     69125 W2       23529    TIP3     H1       HT       0.417000       1.00800           0
     69126 W2       23529    TIP3     H2       HT       0.417000       1.00800           0
     69127 W2       23530    TIP3     OH2      OT      -0.834000       15.9994           0
     69128 W2       23530    TIP3     H1       HT       0.417000       1.00800           0
     69129 W2       23530    TIP3     H2       HT       0.417000       1.00800           0
     69130 W2       23532    TIP3     OH2      OT      -0.834000       15.9994           0
     69131 W2       23532    TIP3     H1       HT       0.417000       1.00800           0
     69132 W2       23532    TIP3     H2       HT       0.417000       1.00800           0
     69133 W2       23533    TIP3     OH2      OT      -0.834000       15.9994           0
     69134 W2       23533    TIP3     H1       HT       0.417000       1.00800           0
     69135 W2       23533    TIP3     H2       HT       0.417000       1.00800           0
     69136 W2       23534    TIP3     OH2      OT      -0.834000       15.9994           0
     69137 W2       23534    TIP3     H1       HT       0.417000       1.00800           0
     69138 W2       23534    TIP3     H2       HT       0.417000       1.00800           0
     69139 W2       23536    TIP3     OH2      OT      -0.834000       15.9994           0
     69140 W2       23536    TIP3     H1       HT       0.417000       1.00800           0
     69141 W2       23536    TIP3     H2       HT       0.417000       1.00800           0
     69142 W2       23537    TIP3     OH2      OT      -0.834000       15.9994           0
     69143 W2       23537    TIP3     H1       HT       0.417000       1.00800           0
     69144 W2       23537    TIP3     H2       HT       0.417000       1.00800           0
     69145 W2       23538    TIP3     OH2      OT      -0.834000       15.9994           0
     69146 W2       23538    TIP3     H1       HT       0.417000       1.00800           0
     69147 W2       23538    TIP3     H2       HT       0.417000       1.00800           0
     69148 W2       23539    TIP3     OH2      OT      -0.834000       15.9994           0
     69149 W2       23539    TIP3     H1       HT       0.417000       1.00800           0
     69150 W2       23539    TIP3     H2       HT       0.417000       1.00800           0
     69151 W2       23540    TIP3     OH2      OT      -0.834000       15.9994           0
     69152 W2       23540    TIP3     H1       HT       0.417000       1.00800           0
     69153 W2       23540    TIP3     H2       HT       0.417000       1.00800           0
     69154 W2       23541    TIP3     OH2      OT      -0.834000       15.9994           0
     69155 W2       23541    TIP3     H1       HT       0.417000       1.00800           0
     69156 W2       23541    TIP3     H2       HT       0.417000       1.00800           0
     69157 W2       23544    TIP3     OH2      OT      -0.834000       15.9994           0
     69158 W2       23544    TIP3     H1       HT       0.417000       1.00800           0
     69159 W2       23544    TIP3     H2       HT       0.417000       1.00800           0
     69160 W2       23546    TIP3     OH2      OT      -0.834000       15.9994           0
     69161 W2       23546    TIP3     H1       HT       0.417000       1.00800           0
     69162 W2       23546    TIP3     H2       HT       0.417000       1.00800           0
     69163 W2       23548    TIP3     OH2      OT      -0.834000       15.9994           0
     69164 W2       23548    TIP3     H1       HT       0.417000       1.00800           0
     69165 W2       23548    TIP3     H2       HT       0.417000       1.00800           0
     69166 W2       23550    TIP3     OH2      OT      -0.834000       15.9994           0
     69167 W2       23550    TIP3     H1       HT       0.417000       1.00800           0
     69168 W2       23550    TIP3     H2       HT       0.417000       1.00800           0
     69169 W2       23553    TIP3     OH2      OT      -0.834000       15.9994           0
     69170 W2       23553    TIP3     H1       HT       0.417000       1.00800           0
     69171 W2       23553    TIP3     H2       HT       0.417000       1.00800           0
     69172 W2       23555    TIP3     OH2      OT      -0.834000       15.9994           0
     69173 W2       23555    TIP3     H1       HT       0.417000       1.00800           0
     69174 W2       23555    TIP3     H2       HT       0.417000       1.00800           0
     69175 W2       23557    TIP3     OH2      OT      -0.834000       15.9994           0
     69176 W2       23557    TIP3     H1       HT       0.417000       1.00800           0
     69177 W2       23557    TIP3     H2       HT       0.417000       1.00800           0
     69178 W2       23559    TIP3     OH2      OT      -0.834000       15.9994           0
     69179 W2       23559    TIP3     H1       HT       0.417000       1.00800           0
     69180 W2       23559    TIP3     H2       HT       0.417000       1.00800           0
     69181 W2       23571    TIP3     OH2      OT      -0.834000       15.9994           0
     69182 W2       23571    TIP3     H1       HT       0.417000       1.00800           0
     69183 W2       23571    TIP3     H2       HT       0.417000       1.00800           0
     69184 W2       23572    TIP3     OH2      OT      -0.834000       15.9994           0
     69185 W2       23572    TIP3     H1       HT       0.417000       1.00800           0
     69186 W2       23572    TIP3     H2       HT       0.417000       1.00800           0
     69187 W2       23573    TIP3     OH2      OT      -0.834000       15.9994           0
     69188 W2       23573    TIP3     H1       HT       0.417000       1.00800           0
     69189 W2       23573    TIP3     H2       HT       0.417000       1.00800           0
     69190 W2       23574    TIP3     OH2      OT      -0.834000       15.9994           0
     69191 W2       23574    TIP3     H1       HT       0.417000       1.00800           0
     69192 W2       23574    TIP3     H2       HT       0.417000       1.00800           0
     69193 W2       23575    TIP3     OH2      OT      -0.834000       15.9994           0
     69194 W2       23575    TIP3     H1       HT       0.417000       1.00800           0
     69195 W2       23575    TIP3     H2       HT       0.417000       1.00800           0
     69196 W2       23578    TIP3     OH2      OT      -0.834000       15.9994           0
     69197 W2       23578    TIP3     H1       HT       0.417000       1.00800           0
     69198 W2       23578    TIP3     H2       HT       0.417000       1.00800           0
     69199 W2       23579    TIP3     OH2      OT      -0.834000       15.9994           0
     69200 W2       23579    TIP3     H1       HT       0.417000       1.00800           0
     69201 W2       23579    TIP3     H2       HT       0.417000       1.00800           0
     69202 W2       23580    TIP3     OH2      OT      -0.834000       15.9994           0
     69203 W2       23580    TIP3     H1       HT       0.417000       1.00800           0
     69204 W2       23580    TIP3     H2       HT       0.417000       1.00800           0
     69205 W2       23581    TIP3     OH2      OT      -0.834000       15.9994           0
     69206 W2       23581    TIP3     H1       HT       0.417000       1.00800           0
     69207 W2       23581    TIP3     H2       HT       0.417000       1.00800           0
     69208 W2       23582    TIP3     OH2      OT      -0.834000       15.9994           0
     69209 W2       23582    TIP3     H1       HT       0.417000       1.00800           0
     69210 W2       23582    TIP3     H2       HT       0.417000       1.00800           0
     69211 W2       23583    TIP3     OH2      OT      -0.834000       15.9994           0
     69212 W2       23583    TIP3     H1       HT       0.417000       1.00800           0
     69213 W2       23583    TIP3     H2       HT       0.417000       1.00800           0
     69214 W2       23584    TIP3     OH2      OT      -0.834000       15.9994           0
     69215 W2       23584    TIP3     H1       HT       0.417000       1.00800           0
     69216 W2       23584    TIP3     H2       HT       0.417000       1.00800           0
     69217 W2       23585    TIP3     OH2      OT      -0.834000       15.9994           0
     69218 W2       23585    TIP3     H1       HT       0.417000       1.00800           0
     69219 W2       23585    TIP3     H2       HT       0.417000       1.00800           0
     69220 W2       23588    TIP3     OH2      OT      -0.834000       15.9994           0
     69221 W2       23588    TIP3     H1       HT       0.417000       1.00800           0
     69222 W2       23588    TIP3     H2       HT       0.417000       1.00800           0
     69223 W2       23589    TIP3     OH2      OT      -0.834000       15.9994           0
     69224 W2       23589    TIP3     H1       HT       0.417000       1.00800           0
     69225 W2       23589    TIP3     H2       HT       0.417000       1.00800           0
     69226 W2       23590    TIP3     OH2      OT      -0.834000       15.9994           0
     69227 W2       23590    TIP3     H1       HT       0.417000       1.00800           0
     69228 W2       23590    TIP3     H2       HT       0.417000       1.00800           0
     69229 W2       23591    TIP3     OH2      OT      -0.834000       15.9994           0
     69230 W2       23591    TIP3     H1       HT       0.417000       1.00800           0
     69231 W2       23591    TIP3     H2       HT       0.417000       1.00800           0
     69232 W2       23594    TIP3     OH2      OT      -0.834000       15.9994           0
     69233 W2       23594    TIP3     H1       HT       0.417000       1.00800           0
     69234 W2       23594    TIP3     H2       HT       0.417000       1.00800           0
     69235 W2       23595    TIP3     OH2      OT      -0.834000       15.9994           0
     69236 W2       23595    TIP3     H1       HT       0.417000       1.00800           0
     69237 W2       23595    TIP3     H2       HT       0.417000       1.00800           0
     69238 W2       23596    TIP3     OH2      OT      -0.834000       15.9994           0
     69239 W2       23596    TIP3     H1       HT       0.417000       1.00800           0
     69240 W2       23596    TIP3     H2       HT       0.417000       1.00800           0
     69241 W2       23598    TIP3     OH2      OT      -0.834000       15.9994           0
     69242 W2       23598    TIP3     H1       HT       0.417000       1.00800           0
     69243 W2       23598    TIP3     H2       HT       0.417000       1.00800           0
     69244 W2       23599    TIP3     OH2      OT      -0.834000       15.9994           0
     69245 W2       23599    TIP3     H1       HT       0.417000       1.00800           0
     69246 W2       23599    TIP3     H2       HT       0.417000       1.00800           0
     69247 W2       23600    TIP3     OH2      OT      -0.834000       15.9994           0
     69248 W2       23600    TIP3     H1       HT       0.417000       1.00800           0
     69249 W2       23600    TIP3     H2       HT       0.417000       1.00800           0
     69250 W2       23601    TIP3     OH2      OT      -0.834000       15.9994           0
     69251 W2       23601    TIP3     H1       HT       0.417000       1.00800           0
     69252 W2       23601    TIP3     H2       HT       0.417000       1.00800           0
     69253 W2       23603    TIP3     OH2      OT      -0.834000       15.9994           0
     69254 W2       23603    TIP3     H1       HT       0.417000       1.00800           0
     69255 W2       23603    TIP3     H2       HT       0.417000       1.00800           0
     69256 W2       23607    TIP3     OH2      OT      -0.834000       15.9994           0
     69257 W2       23607    TIP3     H1       HT       0.417000       1.00800           0
     69258 W2       23607    TIP3     H2       HT       0.417000       1.00800           0
     69259 W2       23608    TIP3     OH2      OT      -0.834000       15.9994           0
     69260 W2       23608    TIP3     H1       HT       0.417000       1.00800           0
     69261 W2       23608    TIP3     H2       HT       0.417000       1.00800           0
     69262 W2       23609    TIP3     OH2      OT      -0.834000       15.9994           0
     69263 W2       23609    TIP3     H1       HT       0.417000       1.00800           0
     69264 W2       23609    TIP3     H2       HT       0.417000       1.00800           0
     69265 W2       23610    TIP3     OH2      OT      -0.834000       15.9994           0
     69266 W2       23610    TIP3     H1       HT       0.417000       1.00800           0
     69267 W2       23610    TIP3     H2       HT       0.417000       1.00800           0
     69268 W2       23611    TIP3     OH2      OT      -0.834000       15.9994           0
     69269 W2       23611    TIP3     H1       HT       0.417000       1.00800           0
     69270 W2       23611    TIP3     H2       HT       0.417000       1.00800           0
     69271 W2       23612    TIP3     OH2      OT      -0.834000       15.9994           0
     69272 W2       23612    TIP3     H1       HT       0.417000       1.00800           0
     69273 W2       23612    TIP3     H2       HT       0.417000       1.00800           0
     69274 W2       23613    TIP3     OH2      OT      -0.834000       15.9994           0
     69275 W2       23613    TIP3     H1       HT       0.417000       1.00800           0
     69276 W2       23613    TIP3     H2       HT       0.417000       1.00800           0
     69277 W2       23614    TIP3     OH2      OT      -0.834000       15.9994           0
     69278 W2       23614    TIP3     H1       HT       0.417000       1.00800           0
     69279 W2       23614    TIP3     H2       HT       0.417000       1.00800           0
     69280 W2       23615    TIP3     OH2      OT      -0.834000       15.9994           0
     69281 W2       23615    TIP3     H1       HT       0.417000       1.00800           0
     69282 W2       23615    TIP3     H2       HT       0.417000       1.00800           0
     69283 W2       23616    TIP3     OH2      OT      -0.834000       15.9994           0
     69284 W2       23616    TIP3     H1       HT       0.417000       1.00800           0
     69285 W2       23616    TIP3     H2       HT       0.417000       1.00800           0
     69286 W2       23617    TIP3     OH2      OT      -0.834000       15.9994           0
     69287 W2       23617    TIP3     H1       HT       0.417000       1.00800           0
     69288 W2       23617    TIP3     H2       HT       0.417000       1.00800           0
     69289 W2       23618    TIP3     OH2      OT      -0.834000       15.9994           0
     69290 W2       23618    TIP3     H1       HT       0.417000       1.00800           0
     69291 W2       23618    TIP3     H2       HT       0.417000       1.00800           0
     69292 W2       23619    TIP3     OH2      OT      -0.834000       15.9994           0
     69293 W2       23619    TIP3     H1       HT       0.417000       1.00800           0
     69294 W2       23619    TIP3     H2       HT       0.417000       1.00800           0
     69295 W2       23620    TIP3     OH2      OT      -0.834000       15.9994           0
     69296 W2       23620    TIP3     H1       HT       0.417000       1.00800           0
     69297 W2       23620    TIP3     H2       HT       0.417000       1.00800           0
     69298 W2       23621    TIP3     OH2      OT      -0.834000       15.9994           0
     69299 W2       23621    TIP3     H1       HT       0.417000       1.00800           0
     69300 W2       23621    TIP3     H2       HT       0.417000       1.00800           0
     69301 W2       23622    TIP3     OH2      OT      -0.834000       15.9994           0
     69302 W2       23622    TIP3     H1       HT       0.417000       1.00800           0
     69303 W2       23622    TIP3     H2       HT       0.417000       1.00800           0
     69304 W2       23623    TIP3     OH2      OT      -0.834000       15.9994           0
     69305 W2       23623    TIP3     H1       HT       0.417000       1.00800           0
     69306 W2       23623    TIP3     H2       HT       0.417000       1.00800           0
     69307 W2       23624    TIP3     OH2      OT      -0.834000       15.9994           0
     69308 W2       23624    TIP3     H1       HT       0.417000       1.00800           0
     69309 W2       23624    TIP3     H2       HT       0.417000       1.00800           0
     69310 W2       23625    TIP3     OH2      OT      -0.834000       15.9994           0
     69311 W2       23625    TIP3     H1       HT       0.417000       1.00800           0
     69312 W2       23625    TIP3     H2       HT       0.417000       1.00800           0
     69313 W2       23626    TIP3     OH2      OT      -0.834000       15.9994           0
     69314 W2       23626    TIP3     H1       HT       0.417000       1.00800           0
     69315 W2       23626    TIP3     H2       HT       0.417000       1.00800           0
     69316 W2       23627    TIP3     OH2      OT      -0.834000       15.9994           0
     69317 W2       23627    TIP3     H1       HT       0.417000       1.00800           0
     69318 W2       23627    TIP3     H2       HT       0.417000       1.00800           0
     69319 W2       23630    TIP3     OH2      OT      -0.834000       15.9994           0
     69320 W2       23630    TIP3     H1       HT       0.417000       1.00800           0
     69321 W2       23630    TIP3     H2       HT       0.417000       1.00800           0
     69322 W2       23633    TIP3     OH2      OT      -0.834000       15.9994           0
     69323 W2       23633    TIP3     H1       HT       0.417000       1.00800           0
     69324 W2       23633    TIP3     H2       HT       0.417000       1.00800           0
     69325 W2       23634    TIP3     OH2      OT      -0.834000       15.9994           0
     69326 W2       23634    TIP3     H1       HT       0.417000       1.00800           0
     69327 W2       23634    TIP3     H2       HT       0.417000       1.00800           0
     69328 W2       23635    TIP3     OH2      OT      -0.834000       15.9994           0
     69329 W2       23635    TIP3     H1       HT       0.417000       1.00800           0
     69330 W2       23635    TIP3     H2       HT       0.417000       1.00800           0
     69331 W2       23636    TIP3     OH2      OT      -0.834000       15.9994           0
     69332 W2       23636    TIP3     H1       HT       0.417000       1.00800           0
     69333 W2       23636    TIP3     H2       HT       0.417000       1.00800           0
     69334 W2       23637    TIP3     OH2      OT      -0.834000       15.9994           0
     69335 W2       23637    TIP3     H1       HT       0.417000       1.00800           0
     69336 W2       23637    TIP3     H2       HT       0.417000       1.00800           0
     69337 W2       23638    TIP3     OH2      OT      -0.834000       15.9994           0
     69338 W2       23638    TIP3     H1       HT       0.417000       1.00800           0
     69339 W2       23638    TIP3     H2       HT       0.417000       1.00800           0
     69340 W2       23639    TIP3     OH2      OT      -0.834000       15.9994           0
     69341 W2       23639    TIP3     H1       HT       0.417000       1.00800           0
     69342 W2       23639    TIP3     H2       HT       0.417000       1.00800           0
     69343 W2       23640    TIP3     OH2      OT      -0.834000       15.9994           0
     69344 W2       23640    TIP3     H1       HT       0.417000       1.00800           0
     69345 W2       23640    TIP3     H2       HT       0.417000       1.00800           0
     69346 W2       23641    TIP3     OH2      OT      -0.834000       15.9994           0
     69347 W2       23641    TIP3     H1       HT       0.417000       1.00800           0
     69348 W2       23641    TIP3     H2       HT       0.417000       1.00800           0
     69349 W2       23642    TIP3     OH2      OT      -0.834000       15.9994           0
     69350 W2       23642    TIP3     H1       HT       0.417000       1.00800           0
     69351 W2       23642    TIP3     H2       HT       0.417000       1.00800           0
     69352 W2       23643    TIP3     OH2      OT      -0.834000       15.9994           0
     69353 W2       23643    TIP3     H1       HT       0.417000       1.00800           0
     69354 W2       23643    TIP3     H2       HT       0.417000       1.00800           0
     69355 W2       23644    TIP3     OH2      OT      -0.834000       15.9994           0
     69356 W2       23644    TIP3     H1       HT       0.417000       1.00800           0
     69357 W2       23644    TIP3     H2       HT       0.417000       1.00800           0
     69358 W2       23645    TIP3     OH2      OT      -0.834000       15.9994           0
     69359 W2       23645    TIP3     H1       HT       0.417000       1.00800           0
     69360 W2       23645    TIP3     H2       HT       0.417000       1.00800           0
     69361 W2       23646    TIP3     OH2      OT      -0.834000       15.9994           0
     69362 W2       23646    TIP3     H1       HT       0.417000       1.00800           0
     69363 W2       23646    TIP3     H2       HT       0.417000       1.00800           0
     69364 W2       23647    TIP3     OH2      OT      -0.834000       15.9994           0
     69365 W2       23647    TIP3     H1       HT       0.417000       1.00800           0
     69366 W2       23647    TIP3     H2       HT       0.417000       1.00800           0
     69367 W2       23649    TIP3     OH2      OT      -0.834000       15.9994           0
     69368 W2       23649    TIP3     H1       HT       0.417000       1.00800           0
     69369 W2       23649    TIP3     H2       HT       0.417000       1.00800           0
     69370 W2       23650    TIP3     OH2      OT      -0.834000       15.9994           0
     69371 W2       23650    TIP3     H1       HT       0.417000       1.00800           0
     69372 W2       23650    TIP3     H2       HT       0.417000       1.00800           0
     69373 W2       23651    TIP3     OH2      OT      -0.834000       15.9994           0
     69374 W2       23651    TIP3     H1       HT       0.417000       1.00800           0
     69375 W2       23651    TIP3     H2       HT       0.417000       1.00800           0
     69376 W2       23652    TIP3     OH2      OT      -0.834000       15.9994           0
     69377 W2       23652    TIP3     H1       HT       0.417000       1.00800           0
     69378 W2       23652    TIP3     H2       HT       0.417000       1.00800           0
     69379 W2       23653    TIP3     OH2      OT      -0.834000       15.9994           0
     69380 W2       23653    TIP3     H1       HT       0.417000       1.00800           0
     69381 W2       23653    TIP3     H2       HT       0.417000       1.00800           0
     69382 W2       23654    TIP3     OH2      OT      -0.834000       15.9994           0
     69383 W2       23654    TIP3     H1       HT       0.417000       1.00800           0
     69384 W2       23654    TIP3     H2       HT       0.417000       1.00800           0
     69385 W2       23655    TIP3     OH2      OT      -0.834000       15.9994           0
     69386 W2       23655    TIP3     H1       HT       0.417000       1.00800           0
     69387 W2       23655    TIP3     H2       HT       0.417000       1.00800           0
     69388 W2       23656    TIP3     OH2      OT      -0.834000       15.9994           0
     69389 W2       23656    TIP3     H1       HT       0.417000       1.00800           0
     69390 W2       23656    TIP3     H2       HT       0.417000       1.00800           0
     69391 W2       23657    TIP3     OH2      OT      -0.834000       15.9994           0
     69392 W2       23657    TIP3     H1       HT       0.417000       1.00800           0
     69393 W2       23657    TIP3     H2       HT       0.417000       1.00800           0
     69394 W2       23658    TIP3     OH2      OT      -0.834000       15.9994           0
     69395 W2       23658    TIP3     H1       HT       0.417000       1.00800           0
     69396 W2       23658    TIP3     H2       HT       0.417000       1.00800           0
     69397 W2       23659    TIP3     OH2      OT      -0.834000       15.9994           0
     69398 W2       23659    TIP3     H1       HT       0.417000       1.00800           0
     69399 W2       23659    TIP3     H2       HT       0.417000       1.00800           0
     69400 W2       23660    TIP3     OH2      OT      -0.834000       15.9994           0
     69401 W2       23660    TIP3     H1       HT       0.417000       1.00800           0
     69402 W2       23660    TIP3     H2       HT       0.417000       1.00800           0
     69403 W2       23662    TIP3     OH2      OT      -0.834000       15.9994           0
     69404 W2       23662    TIP3     H1       HT       0.417000       1.00800           0
     69405 W2       23662    TIP3     H2       HT       0.417000       1.00800           0
     69406 W2       23663    TIP3     OH2      OT      -0.834000       15.9994           0
     69407 W2       23663    TIP3     H1       HT       0.417000       1.00800           0
     69408 W2       23663    TIP3     H2       HT       0.417000       1.00800           0
     69409 W2       23664    TIP3     OH2      OT      -0.834000       15.9994           0
     69410 W2       23664    TIP3     H1       HT       0.417000       1.00800           0
     69411 W2       23664    TIP3     H2       HT       0.417000       1.00800           0
     69412 W2       23665    TIP3     OH2      OT      -0.834000       15.9994           0
     69413 W2       23665    TIP3     H1       HT       0.417000       1.00800           0
     69414 W2       23665    TIP3     H2       HT       0.417000       1.00800           0
     69415 W2       23667    TIP3     OH2      OT      -0.834000       15.9994           0
     69416 W2       23667    TIP3     H1       HT       0.417000       1.00800           0
     69417 W2       23667    TIP3     H2       HT       0.417000       1.00800           0
     69418 W2       23668    TIP3     OH2      OT      -0.834000       15.9994           0
     69419 W2       23668    TIP3     H1       HT       0.417000       1.00800           0
     69420 W2       23668    TIP3     H2       HT       0.417000       1.00800           0
     69421 W2       23669    TIP3     OH2      OT      -0.834000       15.9994           0
     69422 W2       23669    TIP3     H1       HT       0.417000       1.00800           0
     69423 W2       23669    TIP3     H2       HT       0.417000       1.00800           0
     69424 W2       23670    TIP3     OH2      OT      -0.834000       15.9994           0
     69425 W2       23670    TIP3     H1       HT       0.417000       1.00800           0
     69426 W2       23670    TIP3     H2       HT       0.417000       1.00800           0
     69427 W2       23672    TIP3     OH2      OT      -0.834000       15.9994           0
     69428 W2       23672    TIP3     H1       HT       0.417000       1.00800           0
     69429 W2       23672    TIP3     H2       HT       0.417000       1.00800           0
     69430 W2       23674    TIP3     OH2      OT      -0.834000       15.9994           0
     69431 W2       23674    TIP3     H1       HT       0.417000       1.00800           0
     69432 W2       23674    TIP3     H2       HT       0.417000       1.00800           0
     69433 W2       23676    TIP3     OH2      OT      -0.834000       15.9994           0
     69434 W2       23676    TIP3     H1       HT       0.417000       1.00800           0
     69435 W2       23676    TIP3     H2       HT       0.417000       1.00800           0
     69436 W2       23677    TIP3     OH2      OT      -0.834000       15.9994           0
     69437 W2       23677    TIP3     H1       HT       0.417000       1.00800           0
     69438 W2       23677    TIP3     H2       HT       0.417000       1.00800           0
     69439 W2       23678    TIP3     OH2      OT      -0.834000       15.9994           0
     69440 W2       23678    TIP3     H1       HT       0.417000       1.00800           0
     69441 W2       23678    TIP3     H2       HT       0.417000       1.00800           0
     69442 W2       23679    TIP3     OH2      OT      -0.834000       15.9994           0
     69443 W2       23679    TIP3     H1       HT       0.417000       1.00800           0
     69444 W2       23679    TIP3     H2       HT       0.417000       1.00800           0
     69445 W2       23680    TIP3     OH2      OT      -0.834000       15.9994           0
     69446 W2       23680    TIP3     H1       HT       0.417000       1.00800           0
     69447 W2       23680    TIP3     H2       HT       0.417000       1.00800           0
     69448 W2       23683    TIP3     OH2      OT      -0.834000       15.9994           0
     69449 W2       23683    TIP3     H1       HT       0.417000       1.00800           0
     69450 W2       23683    TIP3     H2       HT       0.417000       1.00800           0
     69451 W2       23684    TIP3     OH2      OT      -0.834000       15.9994           0
     69452 W2       23684    TIP3     H1       HT       0.417000       1.00800           0
     69453 W2       23684    TIP3     H2       HT       0.417000       1.00800           0
     69454 W2       23685    TIP3     OH2      OT      -0.834000       15.9994           0
     69455 W2       23685    TIP3     H1       HT       0.417000       1.00800           0
     69456 W2       23685    TIP3     H2       HT       0.417000       1.00800           0
     69457 W2       23686    TIP3     OH2      OT      -0.834000       15.9994           0
     69458 W2       23686    TIP3     H1       HT       0.417000       1.00800           0
     69459 W2       23686    TIP3     H2       HT       0.417000       1.00800           0
     69460 W2       23689    TIP3     OH2      OT      -0.834000       15.9994           0
     69461 W2       23689    TIP3     H1       HT       0.417000       1.00800           0
     69462 W2       23689    TIP3     H2       HT       0.417000       1.00800           0
     69463 W2       23692    TIP3     OH2      OT      -0.834000       15.9994           0
     69464 W2       23692    TIP3     H1       HT       0.417000       1.00800           0
     69465 W2       23692    TIP3     H2       HT       0.417000       1.00800           0
     69466 W2       23693    TIP3     OH2      OT      -0.834000       15.9994           0
     69467 W2       23693    TIP3     H1       HT       0.417000       1.00800           0
     69468 W2       23693    TIP3     H2       HT       0.417000       1.00800           0
     69469 W2       23694    TIP3     OH2      OT      -0.834000       15.9994           0
     69470 W2       23694    TIP3     H1       HT       0.417000       1.00800           0
     69471 W2       23694    TIP3     H2       HT       0.417000       1.00800           0
     69472 W2       23695    TIP3     OH2      OT      -0.834000       15.9994           0
     69473 W2       23695    TIP3     H1       HT       0.417000       1.00800           0
     69474 W2       23695    TIP3     H2       HT       0.417000       1.00800           0
     69475 W2       23696    TIP3     OH2      OT      -0.834000       15.9994           0
     69476 W2       23696    TIP3     H1       HT       0.417000       1.00800           0
     69477 W2       23696    TIP3     H2       HT       0.417000       1.00800           0
     69478 W2       23698    TIP3     OH2      OT      -0.834000       15.9994           0
     69479 W2       23698    TIP3     H1       HT       0.417000       1.00800           0
     69480 W2       23698    TIP3     H2       HT       0.417000       1.00800           0
     69481 W2       23699    TIP3     OH2      OT      -0.834000       15.9994           0
     69482 W2       23699    TIP3     H1       HT       0.417000       1.00800           0
     69483 W2       23699    TIP3     H2       HT       0.417000       1.00800           0
     69484 W2       23700    TIP3     OH2      OT      -0.834000       15.9994           0
     69485 W2       23700    TIP3     H1       HT       0.417000       1.00800           0
     69486 W2       23700    TIP3     H2       HT       0.417000       1.00800           0
     69487 W2       23701    TIP3     OH2      OT      -0.834000       15.9994           0
     69488 W2       23701    TIP3     H1       HT       0.417000       1.00800           0
     69489 W2       23701    TIP3     H2       HT       0.417000       1.00800           0
     69490 W2       23702    TIP3     OH2      OT      -0.834000       15.9994           0
     69491 W2       23702    TIP3     H1       HT       0.417000       1.00800           0
     69492 W2       23702    TIP3     H2       HT       0.417000       1.00800           0
     69493 W2       23703    TIP3     OH2      OT      -0.834000       15.9994           0
     69494 W2       23703    TIP3     H1       HT       0.417000       1.00800           0
     69495 W2       23703    TIP3     H2       HT       0.417000       1.00800           0
     69496 W2       23704    TIP3     OH2      OT      -0.834000       15.9994           0
     69497 W2       23704    TIP3     H1       HT       0.417000       1.00800           0
     69498 W2       23704    TIP3     H2       HT       0.417000       1.00800           0
     69499 W2       23705    TIP3     OH2      OT      -0.834000       15.9994           0
     69500 W2       23705    TIP3     H1       HT       0.417000       1.00800           0
     69501 W2       23705    TIP3     H2       HT       0.417000       1.00800           0
     69502 W2       23706    TIP3     OH2      OT      -0.834000       15.9994           0
     69503 W2       23706    TIP3     H1       HT       0.417000       1.00800           0
     69504 W2       23706    TIP3     H2       HT       0.417000       1.00800           0
     69505 W2       23707    TIP3     OH2      OT      -0.834000       15.9994           0
     69506 W2       23707    TIP3     H1       HT       0.417000       1.00800           0
     69507 W2       23707    TIP3     H2       HT       0.417000       1.00800           0
     69508 W2       23708    TIP3     OH2      OT      -0.834000       15.9994           0
     69509 W2       23708    TIP3     H1       HT       0.417000       1.00800           0
     69510 W2       23708    TIP3     H2       HT       0.417000       1.00800           0
     69511 W2       23711    TIP3     OH2      OT      -0.834000       15.9994           0
     69512 W2       23711    TIP3     H1       HT       0.417000       1.00800           0
     69513 W2       23711    TIP3     H2       HT       0.417000       1.00800           0
     69514 W2       23712    TIP3     OH2      OT      -0.834000       15.9994           0
     69515 W2       23712    TIP3     H1       HT       0.417000       1.00800           0
     69516 W2       23712    TIP3     H2       HT       0.417000       1.00800           0
     69517 W2       23713    TIP3     OH2      OT      -0.834000       15.9994           0
     69518 W2       23713    TIP3     H1       HT       0.417000       1.00800           0
     69519 W2       23713    TIP3     H2       HT       0.417000       1.00800           0
     69520 W2       23714    TIP3     OH2      OT      -0.834000       15.9994           0
     69521 W2       23714    TIP3     H1       HT       0.417000       1.00800           0
     69522 W2       23714    TIP3     H2       HT       0.417000       1.00800           0
     69523 W2       23715    TIP3     OH2      OT      -0.834000       15.9994           0
     69524 W2       23715    TIP3     H1       HT       0.417000       1.00800           0
     69525 W2       23715    TIP3     H2       HT       0.417000       1.00800           0
     69526 W2       23716    TIP3     OH2      OT      -0.834000       15.9994           0
     69527 W2       23716    TIP3     H1       HT       0.417000       1.00800           0
     69528 W2       23716    TIP3     H2       HT       0.417000       1.00800           0
     69529 W2       23718    TIP3     OH2      OT      -0.834000       15.9994           0
     69530 W2       23718    TIP3     H1       HT       0.417000       1.00800           0
     69531 W2       23718    TIP3     H2       HT       0.417000       1.00800           0
     69532 W2       23719    TIP3     OH2      OT      -0.834000       15.9994           0
     69533 W2       23719    TIP3     H1       HT       0.417000       1.00800           0
     69534 W2       23719    TIP3     H2       HT       0.417000       1.00800           0
     69535 W2       23720    TIP3     OH2      OT      -0.834000       15.9994           0
     69536 W2       23720    TIP3     H1       HT       0.417000       1.00800           0
     69537 W2       23720    TIP3     H2       HT       0.417000       1.00800           0
     69538 W2       23724    TIP3     OH2      OT      -0.834000       15.9994           0
     69539 W2       23724    TIP3     H1       HT       0.417000       1.00800           0
     69540 W2       23724    TIP3     H2       HT       0.417000       1.00800           0
     69541 W2       23726    TIP3     OH2      OT      -0.834000       15.9994           0
     69542 W2       23726    TIP3     H1       HT       0.417000       1.00800           0
     69543 W2       23726    TIP3     H2       HT       0.417000       1.00800           0
     69544 W2       23727    TIP3     OH2      OT      -0.834000       15.9994           0
     69545 W2       23727    TIP3     H1       HT       0.417000       1.00800           0
     69546 W2       23727    TIP3     H2       HT       0.417000       1.00800           0
     69547 W2       23728    TIP3     OH2      OT      -0.834000       15.9994           0
     69548 W2       23728    TIP3     H1       HT       0.417000       1.00800           0
     69549 W2       23728    TIP3     H2       HT       0.417000       1.00800           0
     69550 W2       23729    TIP3     OH2      OT      -0.834000       15.9994           0
     69551 W2       23729    TIP3     H1       HT       0.417000       1.00800           0
     69552 W2       23729    TIP3     H2       HT       0.417000       1.00800           0
     69553 W2       23730    TIP3     OH2      OT      -0.834000       15.9994           0
     69554 W2       23730    TIP3     H1       HT       0.417000       1.00800           0
     69555 W2       23730    TIP3     H2       HT       0.417000       1.00800           0
     69556 W2       23731    TIP3     OH2      OT      -0.834000       15.9994           0
     69557 W2       23731    TIP3     H1       HT       0.417000       1.00800           0
     69558 W2       23731    TIP3     H2       HT       0.417000       1.00800           0
     69559 W2       23732    TIP3     OH2      OT      -0.834000       15.9994           0
     69560 W2       23732    TIP3     H1       HT       0.417000       1.00800           0
     69561 W2       23732    TIP3     H2       HT       0.417000       1.00800           0
     69562 W2       23733    TIP3     OH2      OT      -0.834000       15.9994           0
     69563 W2       23733    TIP3     H1       HT       0.417000       1.00800           0
     69564 W2       23733    TIP3     H2       HT       0.417000       1.00800           0
     69565 W2       23734    TIP3     OH2      OT      -0.834000       15.9994           0
     69566 W2       23734    TIP3     H1       HT       0.417000       1.00800           0
     69567 W2       23734    TIP3     H2       HT       0.417000       1.00800           0
     69568 W2       23736    TIP3     OH2      OT      -0.834000       15.9994           0
     69569 W2       23736    TIP3     H1       HT       0.417000       1.00800           0
     69570 W2       23736    TIP3     H2       HT       0.417000       1.00800           0
     69571 W2       23738    TIP3     OH2      OT      -0.834000       15.9994           0
     69572 W2       23738    TIP3     H1       HT       0.417000       1.00800           0
     69573 W2       23738    TIP3     H2       HT       0.417000       1.00800           0
     69574 W2       23739    TIP3     OH2      OT      -0.834000       15.9994           0
     69575 W2       23739    TIP3     H1       HT       0.417000       1.00800           0
     69576 W2       23739    TIP3     H2       HT       0.417000       1.00800           0
     69577 W2       23740    TIP3     OH2      OT      -0.834000       15.9994           0
     69578 W2       23740    TIP3     H1       HT       0.417000       1.00800           0
     69579 W2       23740    TIP3     H2       HT       0.417000       1.00800           0
     69580 W2       23741    TIP3     OH2      OT      -0.834000       15.9994           0
     69581 W2       23741    TIP3     H1       HT       0.417000       1.00800           0
     69582 W2       23741    TIP3     H2       HT       0.417000       1.00800           0
     69583 W2       23742    TIP3     OH2      OT      -0.834000       15.9994           0
     69584 W2       23742    TIP3     H1       HT       0.417000       1.00800           0
     69585 W2       23742    TIP3     H2       HT       0.417000       1.00800           0
     69586 W2       23743    TIP3     OH2      OT      -0.834000       15.9994           0
     69587 W2       23743    TIP3     H1       HT       0.417000       1.00800           0
     69588 W2       23743    TIP3     H2       HT       0.417000       1.00800           0
     69589 W2       23744    TIP3     OH2      OT      -0.834000       15.9994           0
     69590 W2       23744    TIP3     H1       HT       0.417000       1.00800           0
     69591 W2       23744    TIP3     H2       HT       0.417000       1.00800           0
     69592 W2       23745    TIP3     OH2      OT      -0.834000       15.9994           0
     69593 W2       23745    TIP3     H1       HT       0.417000       1.00800           0
     69594 W2       23745    TIP3     H2       HT       0.417000       1.00800           0
     69595 W2       23746    TIP3     OH2      OT      -0.834000       15.9994           0
     69596 W2       23746    TIP3     H1       HT       0.417000       1.00800           0
     69597 W2       23746    TIP3     H2       HT       0.417000       1.00800           0
     69598 W2       23748    TIP3     OH2      OT      -0.834000       15.9994           0
     69599 W2       23748    TIP3     H1       HT       0.417000       1.00800           0
     69600 W2       23748    TIP3     H2       HT       0.417000       1.00800           0
     69601 W2       23749    TIP3     OH2      OT      -0.834000       15.9994           0
     69602 W2       23749    TIP3     H1       HT       0.417000       1.00800           0
     69603 W2       23749    TIP3     H2       HT       0.417000       1.00800           0
     69604 W2       23750    TIP3     OH2      OT      -0.834000       15.9994           0
     69605 W2       23750    TIP3     H1       HT       0.417000       1.00800           0
     69606 W2       23750    TIP3     H2       HT       0.417000       1.00800           0
     69607 W2       23752    TIP3     OH2      OT      -0.834000       15.9994           0
     69608 W2       23752    TIP3     H1       HT       0.417000       1.00800           0
     69609 W2       23752    TIP3     H2       HT       0.417000       1.00800           0
     69610 W2       23753    TIP3     OH2      OT      -0.834000       15.9994           0
     69611 W2       23753    TIP3     H1       HT       0.417000       1.00800           0
     69612 W2       23753    TIP3     H2       HT       0.417000       1.00800           0
     69613 W2       23754    TIP3     OH2      OT      -0.834000       15.9994           0
     69614 W2       23754    TIP3     H1       HT       0.417000       1.00800           0
     69615 W2       23754    TIP3     H2       HT       0.417000       1.00800           0
     69616 W2       23755    TIP3     OH2      OT      -0.834000       15.9994           0
     69617 W2       23755    TIP3     H1       HT       0.417000       1.00800           0
     69618 W2       23755    TIP3     H2       HT       0.417000       1.00800           0
     69619 W2       23756    TIP3     OH2      OT      -0.834000       15.9994           0
     69620 W2       23756    TIP3     H1       HT       0.417000       1.00800           0
     69621 W2       23756    TIP3     H2       HT       0.417000       1.00800           0
     69622 W2       23757    TIP3     OH2      OT      -0.834000       15.9994           0
     69623 W2       23757    TIP3     H1       HT       0.417000       1.00800           0
     69624 W2       23757    TIP3     H2       HT       0.417000       1.00800           0
     69625 W2       23760    TIP3     OH2      OT      -0.834000       15.9994           0
     69626 W2       23760    TIP3     H1       HT       0.417000       1.00800           0
     69627 W2       23760    TIP3     H2       HT       0.417000       1.00800           0
     69628 W2       23762    TIP3     OH2      OT      -0.834000       15.9994           0
     69629 W2       23762    TIP3     H1       HT       0.417000       1.00800           0
     69630 W2       23762    TIP3     H2       HT       0.417000       1.00800           0
     69631 W2       23764    TIP3     OH2      OT      -0.834000       15.9994           0
     69632 W2       23764    TIP3     H1       HT       0.417000       1.00800           0
     69633 W2       23764    TIP3     H2       HT       0.417000       1.00800           0
     69634 W2       23766    TIP3     OH2      OT      -0.834000       15.9994           0
     69635 W2       23766    TIP3     H1       HT       0.417000       1.00800           0
     69636 W2       23766    TIP3     H2       HT       0.417000       1.00800           0
     69637 W2       23769    TIP3     OH2      OT      -0.834000       15.9994           0
     69638 W2       23769    TIP3     H1       HT       0.417000       1.00800           0
     69639 W2       23769    TIP3     H2       HT       0.417000       1.00800           0
     69640 W2       23771    TIP3     OH2      OT      -0.834000       15.9994           0
     69641 W2       23771    TIP3     H1       HT       0.417000       1.00800           0
     69642 W2       23771    TIP3     H2       HT       0.417000       1.00800           0
     69643 W2       23773    TIP3     OH2      OT      -0.834000       15.9994           0
     69644 W2       23773    TIP3     H1       HT       0.417000       1.00800           0
     69645 W2       23773    TIP3     H2       HT       0.417000       1.00800           0
     69646 W2       23775    TIP3     OH2      OT      -0.834000       15.9994           0
     69647 W2       23775    TIP3     H1       HT       0.417000       1.00800           0
     69648 W2       23775    TIP3     H2       HT       0.417000       1.00800           0
     69649 W2       23787    TIP3     OH2      OT      -0.834000       15.9994           0
     69650 W2       23787    TIP3     H1       HT       0.417000       1.00800           0
     69651 W2       23787    TIP3     H2       HT       0.417000       1.00800           0
     69652 W2       23788    TIP3     OH2      OT      -0.834000       15.9994           0
     69653 W2       23788    TIP3     H1       HT       0.417000       1.00800           0
     69654 W2       23788    TIP3     H2       HT       0.417000       1.00800           0
     69655 W2       23789    TIP3     OH2      OT      -0.834000       15.9994           0
     69656 W2       23789    TIP3     H1       HT       0.417000       1.00800           0
     69657 W2       23789    TIP3     H2       HT       0.417000       1.00800           0
     69658 W2       23790    TIP3     OH2      OT      -0.834000       15.9994           0
     69659 W2       23790    TIP3     H1       HT       0.417000       1.00800           0
     69660 W2       23790    TIP3     H2       HT       0.417000       1.00800           0
     69661 W2       23791    TIP3     OH2      OT      -0.834000       15.9994           0
     69662 W2       23791    TIP3     H1       HT       0.417000       1.00800           0
     69663 W2       23791    TIP3     H2       HT       0.417000       1.00800           0
     69664 W2       23794    TIP3     OH2      OT      -0.834000       15.9994           0
     69665 W2       23794    TIP3     H1       HT       0.417000       1.00800           0
     69666 W2       23794    TIP3     H2       HT       0.417000       1.00800           0
     69667 W2       23795    TIP3     OH2      OT      -0.834000       15.9994           0
     69668 W2       23795    TIP3     H1       HT       0.417000       1.00800           0
     69669 W2       23795    TIP3     H2       HT       0.417000       1.00800           0
     69670 W2       23796    TIP3     OH2      OT      -0.834000       15.9994           0
     69671 W2       23796    TIP3     H1       HT       0.417000       1.00800           0
     69672 W2       23796    TIP3     H2       HT       0.417000       1.00800           0
     69673 W2       23797    TIP3     OH2      OT      -0.834000       15.9994           0
     69674 W2       23797    TIP3     H1       HT       0.417000       1.00800           0
     69675 W2       23797    TIP3     H2       HT       0.417000       1.00800           0
     69676 W2       23798    TIP3     OH2      OT      -0.834000       15.9994           0
     69677 W2       23798    TIP3     H1       HT       0.417000       1.00800           0
     69678 W2       23798    TIP3     H2       HT       0.417000       1.00800           0
     69679 W2       23799    TIP3     OH2      OT      -0.834000       15.9994           0
     69680 W2       23799    TIP3     H1       HT       0.417000       1.00800           0
     69681 W2       23799    TIP3     H2       HT       0.417000       1.00800           0
     69682 W2       23800    TIP3     OH2      OT      -0.834000       15.9994           0
     69683 W2       23800    TIP3     H1       HT       0.417000       1.00800           0
     69684 W2       23800    TIP3     H2       HT       0.417000       1.00800           0
     69685 W2       23801    TIP3     OH2      OT      -0.834000       15.9994           0
     69686 W2       23801    TIP3     H1       HT       0.417000       1.00800           0
     69687 W2       23801    TIP3     H2       HT       0.417000       1.00800           0
     69688 W2       23804    TIP3     OH2      OT      -0.834000       15.9994           0
     69689 W2       23804    TIP3     H1       HT       0.417000       1.00800           0
     69690 W2       23804    TIP3     H2       HT       0.417000       1.00800           0
     69691 W2       23805    TIP3     OH2      OT      -0.834000       15.9994           0
     69692 W2       23805    TIP3     H1       HT       0.417000       1.00800           0
     69693 W2       23805    TIP3     H2       HT       0.417000       1.00800           0
     69694 W2       23806    TIP3     OH2      OT      -0.834000       15.9994           0
     69695 W2       23806    TIP3     H1       HT       0.417000       1.00800           0
     69696 W2       23806    TIP3     H2       HT       0.417000       1.00800           0
     69697 W2       23807    TIP3     OH2      OT      -0.834000       15.9994           0
     69698 W2       23807    TIP3     H1       HT       0.417000       1.00800           0
     69699 W2       23807    TIP3     H2       HT       0.417000       1.00800           0
     69700 W2       23810    TIP3     OH2      OT      -0.834000       15.9994           0
     69701 W2       23810    TIP3     H1       HT       0.417000       1.00800           0
     69702 W2       23810    TIP3     H2       HT       0.417000       1.00800           0
     69703 W2       23811    TIP3     OH2      OT      -0.834000       15.9994           0
     69704 W2       23811    TIP3     H1       HT       0.417000       1.00800           0
     69705 W2       23811    TIP3     H2       HT       0.417000       1.00800           0
     69706 W2       23812    TIP3     OH2      OT      -0.834000       15.9994           0
     69707 W2       23812    TIP3     H1       HT       0.417000       1.00800           0
     69708 W2       23812    TIP3     H2       HT       0.417000       1.00800           0
     69709 W2       23814    TIP3     OH2      OT      -0.834000       15.9994           0
     69710 W2       23814    TIP3     H1       HT       0.417000       1.00800           0
     69711 W2       23814    TIP3     H2       HT       0.417000       1.00800           0
     69712 W2       23815    TIP3     OH2      OT      -0.834000       15.9994           0
     69713 W2       23815    TIP3     H1       HT       0.417000       1.00800           0
     69714 W2       23815    TIP3     H2       HT       0.417000       1.00800           0
     69715 W2       23816    TIP3     OH2      OT      -0.834000       15.9994           0
     69716 W2       23816    TIP3     H1       HT       0.417000       1.00800           0
     69717 W2       23816    TIP3     H2       HT       0.417000       1.00800           0
     69718 W2       23817    TIP3     OH2      OT      -0.834000       15.9994           0
     69719 W2       23817    TIP3     H1       HT       0.417000       1.00800           0
     69720 W2       23817    TIP3     H2       HT       0.417000       1.00800           0
     69721 W2       23819    TIP3     OH2      OT      -0.834000       15.9994           0
     69722 W2       23819    TIP3     H1       HT       0.417000       1.00800           0
     69723 W2       23819    TIP3     H2       HT       0.417000       1.00800           0
     69724 W2       23823    TIP3     OH2      OT      -0.834000       15.9994           0
     69725 W2       23823    TIP3     H1       HT       0.417000       1.00800           0
     69726 W2       23823    TIP3     H2       HT       0.417000       1.00800           0
     69727 W2       23824    TIP3     OH2      OT      -0.834000       15.9994           0
     69728 W2       23824    TIP3     H1       HT       0.417000       1.00800           0
     69729 W2       23824    TIP3     H2       HT       0.417000       1.00800           0
     69730 W2       23825    TIP3     OH2      OT      -0.834000       15.9994           0
     69731 W2       23825    TIP3     H1       HT       0.417000       1.00800           0
     69732 W2       23825    TIP3     H2       HT       0.417000       1.00800           0
     69733 W2       23826    TIP3     OH2      OT      -0.834000       15.9994           0
     69734 W2       23826    TIP3     H1       HT       0.417000       1.00800           0
     69735 W2       23826    TIP3     H2       HT       0.417000       1.00800           0
     69736 W2       23827    TIP3     OH2      OT      -0.834000       15.9994           0
     69737 W2       23827    TIP3     H1       HT       0.417000       1.00800           0
     69738 W2       23827    TIP3     H2       HT       0.417000       1.00800           0
     69739 W2       23828    TIP3     OH2      OT      -0.834000       15.9994           0
     69740 W2       23828    TIP3     H1       HT       0.417000       1.00800           0
     69741 W2       23828    TIP3     H2       HT       0.417000       1.00800           0
     69742 W2       23829    TIP3     OH2      OT      -0.834000       15.9994           0
     69743 W2       23829    TIP3     H1       HT       0.417000       1.00800           0
     69744 W2       23829    TIP3     H2       HT       0.417000       1.00800           0
     69745 W2       23830    TIP3     OH2      OT      -0.834000       15.9994           0
     69746 W2       23830    TIP3     H1       HT       0.417000       1.00800           0
     69747 W2       23830    TIP3     H2       HT       0.417000       1.00800           0
     69748 W2       23831    TIP3     OH2      OT      -0.834000       15.9994           0
     69749 W2       23831    TIP3     H1       HT       0.417000       1.00800           0
     69750 W2       23831    TIP3     H2       HT       0.417000       1.00800           0
     69751 W2       23832    TIP3     OH2      OT      -0.834000       15.9994           0
     69752 W2       23832    TIP3     H1       HT       0.417000       1.00800           0
     69753 W2       23832    TIP3     H2       HT       0.417000       1.00800           0
     69754 W2       23833    TIP3     OH2      OT      -0.834000       15.9994           0
     69755 W2       23833    TIP3     H1       HT       0.417000       1.00800           0
     69756 W2       23833    TIP3     H2       HT       0.417000       1.00800           0
     69757 W2       23834    TIP3     OH2      OT      -0.834000       15.9994           0
     69758 W2       23834    TIP3     H1       HT       0.417000       1.00800           0
     69759 W2       23834    TIP3     H2       HT       0.417000       1.00800           0
     69760 W2       23835    TIP3     OH2      OT      -0.834000       15.9994           0
     69761 W2       23835    TIP3     H1       HT       0.417000       1.00800           0
     69762 W2       23835    TIP3     H2       HT       0.417000       1.00800           0
     69763 W2       23836    TIP3     OH2      OT      -0.834000       15.9994           0
     69764 W2       23836    TIP3     H1       HT       0.417000       1.00800           0
     69765 W2       23836    TIP3     H2       HT       0.417000       1.00800           0
     69766 W2       23837    TIP3     OH2      OT      -0.834000       15.9994           0
     69767 W2       23837    TIP3     H1       HT       0.417000       1.00800           0
     69768 W2       23837    TIP3     H2       HT       0.417000       1.00800           0
     69769 W2       23838    TIP3     OH2      OT      -0.834000       15.9994           0
     69770 W2       23838    TIP3     H1       HT       0.417000       1.00800           0
     69771 W2       23838    TIP3     H2       HT       0.417000       1.00800           0
     69772 W2       23839    TIP3     OH2      OT      -0.834000       15.9994           0
     69773 W2       23839    TIP3     H1       HT       0.417000       1.00800           0
     69774 W2       23839    TIP3     H2       HT       0.417000       1.00800           0
     69775 W2       23840    TIP3     OH2      OT      -0.834000       15.9994           0
     69776 W2       23840    TIP3     H1       HT       0.417000       1.00800           0
     69777 W2       23840    TIP3     H2       HT       0.417000       1.00800           0
     69778 W2       23841    TIP3     OH2      OT      -0.834000       15.9994           0
     69779 W2       23841    TIP3     H1       HT       0.417000       1.00800           0
     69780 W2       23841    TIP3     H2       HT       0.417000       1.00800           0
     69781 W2       23842    TIP3     OH2      OT      -0.834000       15.9994           0
     69782 W2       23842    TIP3     H1       HT       0.417000       1.00800           0
     69783 W2       23842    TIP3     H2       HT       0.417000       1.00800           0
     69784 W2       23843    TIP3     OH2      OT      -0.834000       15.9994           0
     69785 W2       23843    TIP3     H1       HT       0.417000       1.00800           0
     69786 W2       23843    TIP3     H2       HT       0.417000       1.00800           0
     69787 W2       23846    TIP3     OH2      OT      -0.834000       15.9994           0
     69788 W2       23846    TIP3     H1       HT       0.417000       1.00800           0
     69789 W2       23846    TIP3     H2       HT       0.417000       1.00800           0
     69790 W2       23849    TIP3     OH2      OT      -0.834000       15.9994           0
     69791 W2       23849    TIP3     H1       HT       0.417000       1.00800           0
     69792 W2       23849    TIP3     H2       HT       0.417000       1.00800           0
     69793 W2       23850    TIP3     OH2      OT      -0.834000       15.9994           0
     69794 W2       23850    TIP3     H1       HT       0.417000       1.00800           0
     69795 W2       23850    TIP3     H2       HT       0.417000       1.00800           0
     69796 W2       23851    TIP3     OH2      OT      -0.834000       15.9994           0
     69797 W2       23851    TIP3     H1       HT       0.417000       1.00800           0
     69798 W2       23851    TIP3     H2       HT       0.417000       1.00800           0
     69799 W2       23852    TIP3     OH2      OT      -0.834000       15.9994           0
     69800 W2       23852    TIP3     H1       HT       0.417000       1.00800           0
     69801 W2       23852    TIP3     H2       HT       0.417000       1.00800           0
     69802 W2       23853    TIP3     OH2      OT      -0.834000       15.9994           0
     69803 W2       23853    TIP3     H1       HT       0.417000       1.00800           0
     69804 W2       23853    TIP3     H2       HT       0.417000       1.00800           0
     69805 W2       23854    TIP3     OH2      OT      -0.834000       15.9994           0
     69806 W2       23854    TIP3     H1       HT       0.417000       1.00800           0
     69807 W2       23854    TIP3     H2       HT       0.417000       1.00800           0
     69808 W2       23855    TIP3     OH2      OT      -0.834000       15.9994           0
     69809 W2       23855    TIP3     H1       HT       0.417000       1.00800           0
     69810 W2       23855    TIP3     H2       HT       0.417000       1.00800           0
     69811 W2       23856    TIP3     OH2      OT      -0.834000       15.9994           0
     69812 W2       23856    TIP3     H1       HT       0.417000       1.00800           0
     69813 W2       23856    TIP3     H2       HT       0.417000       1.00800           0
     69814 W2       23857    TIP3     OH2      OT      -0.834000       15.9994           0
     69815 W2       23857    TIP3     H1       HT       0.417000       1.00800           0
     69816 W2       23857    TIP3     H2       HT       0.417000       1.00800           0
     69817 W2       23858    TIP3     OH2      OT      -0.834000       15.9994           0
     69818 W2       23858    TIP3     H1       HT       0.417000       1.00800           0
     69819 W2       23858    TIP3     H2       HT       0.417000       1.00800           0
     69820 W2       23859    TIP3     OH2      OT      -0.834000       15.9994           0
     69821 W2       23859    TIP3     H1       HT       0.417000       1.00800           0
     69822 W2       23859    TIP3     H2       HT       0.417000       1.00800           0
     69823 W2       23860    TIP3     OH2      OT      -0.834000       15.9994           0
     69824 W2       23860    TIP3     H1       HT       0.417000       1.00800           0
     69825 W2       23860    TIP3     H2       HT       0.417000       1.00800           0
     69826 W2       23861    TIP3     OH2      OT      -0.834000       15.9994           0
     69827 W2       23861    TIP3     H1       HT       0.417000       1.00800           0
     69828 W2       23861    TIP3     H2       HT       0.417000       1.00800           0
     69829 W2       23862    TIP3     OH2      OT      -0.834000       15.9994           0
     69830 W2       23862    TIP3     H1       HT       0.417000       1.00800           0
     69831 W2       23862    TIP3     H2       HT       0.417000       1.00800           0
     69832 W2       23863    TIP3     OH2      OT      -0.834000       15.9994           0
     69833 W2       23863    TIP3     H1       HT       0.417000       1.00800           0
     69834 W2       23863    TIP3     H2       HT       0.417000       1.00800           0
     69835 W2       23865    TIP3     OH2      OT      -0.834000       15.9994           0
     69836 W2       23865    TIP3     H1       HT       0.417000       1.00800           0
     69837 W2       23865    TIP3     H2       HT       0.417000       1.00800           0
     69838 W2       23866    TIP3     OH2      OT      -0.834000       15.9994           0
     69839 W2       23866    TIP3     H1       HT       0.417000       1.00800           0
     69840 W2       23866    TIP3     H2       HT       0.417000       1.00800           0
     69841 W2       23867    TIP3     OH2      OT      -0.834000       15.9994           0
     69842 W2       23867    TIP3     H1       HT       0.417000       1.00800           0
     69843 W2       23867    TIP3     H2       HT       0.417000       1.00800           0
     69844 W2       23868    TIP3     OH2      OT      -0.834000       15.9994           0
     69845 W2       23868    TIP3     H1       HT       0.417000       1.00800           0
     69846 W2       23868    TIP3     H2       HT       0.417000       1.00800           0
     69847 W2       23869    TIP3     OH2      OT      -0.834000       15.9994           0
     69848 W2       23869    TIP3     H1       HT       0.417000       1.00800           0
     69849 W2       23869    TIP3     H2       HT       0.417000       1.00800           0
     69850 W2       23870    TIP3     OH2      OT      -0.834000       15.9994           0
     69851 W2       23870    TIP3     H1       HT       0.417000       1.00800           0
     69852 W2       23870    TIP3     H2       HT       0.417000       1.00800           0
     69853 W2       23871    TIP3     OH2      OT      -0.834000       15.9994           0
     69854 W2       23871    TIP3     H1       HT       0.417000       1.00800           0
     69855 W2       23871    TIP3     H2       HT       0.417000       1.00800           0
     69856 W2       23872    TIP3     OH2      OT      -0.834000       15.9994           0
     69857 W2       23872    TIP3     H1       HT       0.417000       1.00800           0
     69858 W2       23872    TIP3     H2       HT       0.417000       1.00800           0
     69859 W2       23873    TIP3     OH2      OT      -0.834000       15.9994           0
     69860 W2       23873    TIP3     H1       HT       0.417000       1.00800           0
     69861 W2       23873    TIP3     H2       HT       0.417000       1.00800           0
     69862 W2       23874    TIP3     OH2      OT      -0.834000       15.9994           0
     69863 W2       23874    TIP3     H1       HT       0.417000       1.00800           0
     69864 W2       23874    TIP3     H2       HT       0.417000       1.00800           0
     69865 W2       23875    TIP3     OH2      OT      -0.834000       15.9994           0
     69866 W2       23875    TIP3     H1       HT       0.417000       1.00800           0
     69867 W2       23875    TIP3     H2       HT       0.417000       1.00800           0
     69868 W2       23876    TIP3     OH2      OT      -0.834000       15.9994           0
     69869 W2       23876    TIP3     H1       HT       0.417000       1.00800           0
     69870 W2       23876    TIP3     H2       HT       0.417000       1.00800           0
     69871 W2       23878    TIP3     OH2      OT      -0.834000       15.9994           0
     69872 W2       23878    TIP3     H1       HT       0.417000       1.00800           0
     69873 W2       23878    TIP3     H2       HT       0.417000       1.00800           0
     69874 W2       23879    TIP3     OH2      OT      -0.834000       15.9994           0
     69875 W2       23879    TIP3     H1       HT       0.417000       1.00800           0
     69876 W2       23879    TIP3     H2       HT       0.417000       1.00800           0
     69877 W2       23880    TIP3     OH2      OT      -0.834000       15.9994           0
     69878 W2       23880    TIP3     H1       HT       0.417000       1.00800           0
     69879 W2       23880    TIP3     H2       HT       0.417000       1.00800           0
     69880 W2       23881    TIP3     OH2      OT      -0.834000       15.9994           0
     69881 W2       23881    TIP3     H1       HT       0.417000       1.00800           0
     69882 W2       23881    TIP3     H2       HT       0.417000       1.00800           0
     69883 W2       23883    TIP3     OH2      OT      -0.834000       15.9994           0
     69884 W2       23883    TIP3     H1       HT       0.417000       1.00800           0
     69885 W2       23883    TIP3     H2       HT       0.417000       1.00800           0
     69886 W2       23884    TIP3     OH2      OT      -0.834000       15.9994           0
     69887 W2       23884    TIP3     H1       HT       0.417000       1.00800           0
     69888 W2       23884    TIP3     H2       HT       0.417000       1.00800           0
     69889 W2       23885    TIP3     OH2      OT      -0.834000       15.9994           0
     69890 W2       23885    TIP3     H1       HT       0.417000       1.00800           0
     69891 W2       23885    TIP3     H2       HT       0.417000       1.00800           0
     69892 W2       23886    TIP3     OH2      OT      -0.834000       15.9994           0
     69893 W2       23886    TIP3     H1       HT       0.417000       1.00800           0
     69894 W2       23886    TIP3     H2       HT       0.417000       1.00800           0
     69895 W2       23888    TIP3     OH2      OT      -0.834000       15.9994           0
     69896 W2       23888    TIP3     H1       HT       0.417000       1.00800           0
     69897 W2       23888    TIP3     H2       HT       0.417000       1.00800           0
     69898 W2       23890    TIP3     OH2      OT      -0.834000       15.9994           0
     69899 W2       23890    TIP3     H1       HT       0.417000       1.00800           0
     69900 W2       23890    TIP3     H2       HT       0.417000       1.00800           0
     69901 W2       23892    TIP3     OH2      OT      -0.834000       15.9994           0
     69902 W2       23892    TIP3     H1       HT       0.417000       1.00800           0
     69903 W2       23892    TIP3     H2       HT       0.417000       1.00800           0
     69904 W2       23893    TIP3     OH2      OT      -0.834000       15.9994           0
     69905 W2       23893    TIP3     H1       HT       0.417000       1.00800           0
     69906 W2       23893    TIP3     H2       HT       0.417000       1.00800           0
     69907 W2       23894    TIP3     OH2      OT      -0.834000       15.9994           0
     69908 W2       23894    TIP3     H1       HT       0.417000       1.00800           0
     69909 W2       23894    TIP3     H2       HT       0.417000       1.00800           0
     69910 W2       23895    TIP3     OH2      OT      -0.834000       15.9994           0
     69911 W2       23895    TIP3     H1       HT       0.417000       1.00800           0
     69912 W2       23895    TIP3     H2       HT       0.417000       1.00800           0
     69913 W2       23896    TIP3     OH2      OT      -0.834000       15.9994           0
     69914 W2       23896    TIP3     H1       HT       0.417000       1.00800           0
     69915 W2       23896    TIP3     H2       HT       0.417000       1.00800           0
     69916 W2       23899    TIP3     OH2      OT      -0.834000       15.9994           0
     69917 W2       23899    TIP3     H1       HT       0.417000       1.00800           0
     69918 W2       23899    TIP3     H2       HT       0.417000       1.00800           0
     69919 W2       23900    TIP3     OH2      OT      -0.834000       15.9994           0
     69920 W2       23900    TIP3     H1       HT       0.417000       1.00800           0
     69921 W2       23900    TIP3     H2       HT       0.417000       1.00800           0
     69922 W2       23901    TIP3     OH2      OT      -0.834000       15.9994           0
     69923 W2       23901    TIP3     H1       HT       0.417000       1.00800           0
     69924 W2       23901    TIP3     H2       HT       0.417000       1.00800           0
     69925 W2       23902    TIP3     OH2      OT      -0.834000       15.9994           0
     69926 W2       23902    TIP3     H1       HT       0.417000       1.00800           0
     69927 W2       23902    TIP3     H2       HT       0.417000       1.00800           0
     69928 W2       23905    TIP3     OH2      OT      -0.834000       15.9994           0
     69929 W2       23905    TIP3     H1       HT       0.417000       1.00800           0
     69930 W2       23905    TIP3     H2       HT       0.417000       1.00800           0
     69931 W2       23908    TIP3     OH2      OT      -0.834000       15.9994           0
     69932 W2       23908    TIP3     H1       HT       0.417000       1.00800           0
     69933 W2       23908    TIP3     H2       HT       0.417000       1.00800           0
     69934 W2       23909    TIP3     OH2      OT      -0.834000       15.9994           0
     69935 W2       23909    TIP3     H1       HT       0.417000       1.00800           0
     69936 W2       23909    TIP3     H2       HT       0.417000       1.00800           0
     69937 W2       23910    TIP3     OH2      OT      -0.834000       15.9994           0
     69938 W2       23910    TIP3     H1       HT       0.417000       1.00800           0
     69939 W2       23910    TIP3     H2       HT       0.417000       1.00800           0
     69940 W2       23911    TIP3     OH2      OT      -0.834000       15.9994           0
     69941 W2       23911    TIP3     H1       HT       0.417000       1.00800           0
     69942 W2       23911    TIP3     H2       HT       0.417000       1.00800           0
     69943 W2       23912    TIP3     OH2      OT      -0.834000       15.9994           0
     69944 W2       23912    TIP3     H1       HT       0.417000       1.00800           0
     69945 W2       23912    TIP3     H2       HT       0.417000       1.00800           0
     69946 W2       23914    TIP3     OH2      OT      -0.834000       15.9994           0
     69947 W2       23914    TIP3     H1       HT       0.417000       1.00800           0
     69948 W2       23914    TIP3     H2       HT       0.417000       1.00800           0
     69949 W2       23915    TIP3     OH2      OT      -0.834000       15.9994           0
     69950 W2       23915    TIP3     H1       HT       0.417000       1.00800           0
     69951 W2       23915    TIP3     H2       HT       0.417000       1.00800           0
     69952 W2       23916    TIP3     OH2      OT      -0.834000       15.9994           0
     69953 W2       23916    TIP3     H1       HT       0.417000       1.00800           0
     69954 W2       23916    TIP3     H2       HT       0.417000       1.00800           0
     69955 W2       23917    TIP3     OH2      OT      -0.834000       15.9994           0
     69956 W2       23917    TIP3     H1       HT       0.417000       1.00800           0
     69957 W2       23917    TIP3     H2       HT       0.417000       1.00800           0
     69958 W2       23918    TIP3     OH2      OT      -0.834000       15.9994           0
     69959 W2       23918    TIP3     H1       HT       0.417000       1.00800           0
     69960 W2       23918    TIP3     H2       HT       0.417000       1.00800           0
     69961 W2       23919    TIP3     OH2      OT      -0.834000       15.9994           0
     69962 W2       23919    TIP3     H1       HT       0.417000       1.00800           0
     69963 W2       23919    TIP3     H2       HT       0.417000       1.00800           0
     69964 W2       23920    TIP3     OH2      OT      -0.834000       15.9994           0
     69965 W2       23920    TIP3     H1       HT       0.417000       1.00800           0
     69966 W2       23920    TIP3     H2       HT       0.417000       1.00800           0
     69967 W2       23921    TIP3     OH2      OT      -0.834000       15.9994           0
     69968 W2       23921    TIP3     H1       HT       0.417000       1.00800           0
     69969 W2       23921    TIP3     H2       HT       0.417000       1.00800           0
     69970 W2       23922    TIP3     OH2      OT      -0.834000       15.9994           0
     69971 W2       23922    TIP3     H1       HT       0.417000       1.00800           0
     69972 W2       23922    TIP3     H2       HT       0.417000       1.00800           0
     69973 W2       23923    TIP3     OH2      OT      -0.834000       15.9994           0
     69974 W2       23923    TIP3     H1       HT       0.417000       1.00800           0
     69975 W2       23923    TIP3     H2       HT       0.417000       1.00800           0
     69976 W2       23924    TIP3     OH2      OT      -0.834000       15.9994           0
     69977 W2       23924    TIP3     H1       HT       0.417000       1.00800           0
     69978 W2       23924    TIP3     H2       HT       0.417000       1.00800           0
     69979 W2       23927    TIP3     OH2      OT      -0.834000       15.9994           0
     69980 W2       23927    TIP3     H1       HT       0.417000       1.00800           0
     69981 W2       23927    TIP3     H2       HT       0.417000       1.00800           0
     69982 W2       23928    TIP3     OH2      OT      -0.834000       15.9994           0
     69983 W2       23928    TIP3     H1       HT       0.417000       1.00800           0
     69984 W2       23928    TIP3     H2       HT       0.417000       1.00800           0
     69985 W2       23929    TIP3     OH2      OT      -0.834000       15.9994           0
     69986 W2       23929    TIP3     H1       HT       0.417000       1.00800           0
     69987 W2       23929    TIP3     H2       HT       0.417000       1.00800           0
     69988 W2       23930    TIP3     OH2      OT      -0.834000       15.9994           0
     69989 W2       23930    TIP3     H1       HT       0.417000       1.00800           0
     69990 W2       23930    TIP3     H2       HT       0.417000       1.00800           0
     69991 W2       23931    TIP3     OH2      OT      -0.834000       15.9994           0
     69992 W2       23931    TIP3     H1       HT       0.417000       1.00800           0
     69993 W2       23931    TIP3     H2       HT       0.417000       1.00800           0
     69994 W2       23932    TIP3     OH2      OT      -0.834000       15.9994           0
     69995 W2       23932    TIP3     H1       HT       0.417000       1.00800           0
     69996 W2       23932    TIP3     H2       HT       0.417000       1.00800           0
     69997 W2       23934    TIP3     OH2      OT      -0.834000       15.9994           0
     69998 W2       23934    TIP3     H1       HT       0.417000       1.00800           0
     69999 W2       23934    TIP3     H2       HT       0.417000       1.00800           0
     70000 W2       23935    TIP3     OH2      OT      -0.834000       15.9994           0
     70001 W2       23935    TIP3     H1       HT       0.417000       1.00800           0
     70002 W2       23935    TIP3     H2       HT       0.417000       1.00800           0
     70003 W2       23936    TIP3     OH2      OT      -0.834000       15.9994           0
     70004 W2       23936    TIP3     H1       HT       0.417000       1.00800           0
     70005 W2       23936    TIP3     H2       HT       0.417000       1.00800           0
     70006 W2       23940    TIP3     OH2      OT      -0.834000       15.9994           0
     70007 W2       23940    TIP3     H1       HT       0.417000       1.00800           0
     70008 W2       23940    TIP3     H2       HT       0.417000       1.00800           0
     70009 W2       23942    TIP3     OH2      OT      -0.834000       15.9994           0
     70010 W2       23942    TIP3     H1       HT       0.417000       1.00800           0
     70011 W2       23942    TIP3     H2       HT       0.417000       1.00800           0
     70012 W2       23943    TIP3     OH2      OT      -0.834000       15.9994           0
     70013 W2       23943    TIP3     H1       HT       0.417000       1.00800           0
     70014 W2       23943    TIP3     H2       HT       0.417000       1.00800           0
     70015 W2       23944    TIP3     OH2      OT      -0.834000       15.9994           0
     70016 W2       23944    TIP3     H1       HT       0.417000       1.00800           0
     70017 W2       23944    TIP3     H2       HT       0.417000       1.00800           0
     70018 W2       23945    TIP3     OH2      OT      -0.834000       15.9994           0
     70019 W2       23945    TIP3     H1       HT       0.417000       1.00800           0
     70020 W2       23945    TIP3     H2       HT       0.417000       1.00800           0
     70021 W2       23946    TIP3     OH2      OT      -0.834000       15.9994           0
     70022 W2       23946    TIP3     H1       HT       0.417000       1.00800           0
     70023 W2       23946    TIP3     H2       HT       0.417000       1.00800           0
     70024 W2       23947    TIP3     OH2      OT      -0.834000       15.9994           0
     70025 W2       23947    TIP3     H1       HT       0.417000       1.00800           0
     70026 W2       23947    TIP3     H2       HT       0.417000       1.00800           0
     70027 W2       23948    TIP3     OH2      OT      -0.834000       15.9994           0
     70028 W2       23948    TIP3     H1       HT       0.417000       1.00800           0
     70029 W2       23948    TIP3     H2       HT       0.417000       1.00800           0
     70030 W2       23949    TIP3     OH2      OT      -0.834000       15.9994           0
     70031 W2       23949    TIP3     H1       HT       0.417000       1.00800           0
     70032 W2       23949    TIP3     H2       HT       0.417000       1.00800           0
     70033 W2       23950    TIP3     OH2      OT      -0.834000       15.9994           0
     70034 W2       23950    TIP3     H1       HT       0.417000       1.00800           0
     70035 W2       23950    TIP3     H2       HT       0.417000       1.00800           0
     70036 W2       23952    TIP3     OH2      OT      -0.834000       15.9994           0
     70037 W2       23952    TIP3     H1       HT       0.417000       1.00800           0
     70038 W2       23952    TIP3     H2       HT       0.417000       1.00800           0
     70039 W2       23954    TIP3     OH2      OT      -0.834000       15.9994           0
     70040 W2       23954    TIP3     H1       HT       0.417000       1.00800           0
     70041 W2       23954    TIP3     H2       HT       0.417000       1.00800           0
     70042 W2       23955    TIP3     OH2      OT      -0.834000       15.9994           0
     70043 W2       23955    TIP3     H1       HT       0.417000       1.00800           0
     70044 W2       23955    TIP3     H2       HT       0.417000       1.00800           0
     70045 W2       23956    TIP3     OH2      OT      -0.834000       15.9994           0
     70046 W2       23956    TIP3     H1       HT       0.417000       1.00800           0
     70047 W2       23956    TIP3     H2       HT       0.417000       1.00800           0
     70048 W2       23957    TIP3     OH2      OT      -0.834000       15.9994           0
     70049 W2       23957    TIP3     H1       HT       0.417000       1.00800           0
     70050 W2       23957    TIP3     H2       HT       0.417000       1.00800           0
     70051 W2       23958    TIP3     OH2      OT      -0.834000       15.9994           0
     70052 W2       23958    TIP3     H1       HT       0.417000       1.00800           0
     70053 W2       23958    TIP3     H2       HT       0.417000       1.00800           0
     70054 W2       23959    TIP3     OH2      OT      -0.834000       15.9994           0
     70055 W2       23959    TIP3     H1       HT       0.417000       1.00800           0
     70056 W2       23959    TIP3     H2       HT       0.417000       1.00800           0
     70057 W2       23960    TIP3     OH2      OT      -0.834000       15.9994           0
     70058 W2       23960    TIP3     H1       HT       0.417000       1.00800           0
     70059 W2       23960    TIP3     H2       HT       0.417000       1.00800           0
     70060 W2       23961    TIP3     OH2      OT      -0.834000       15.9994           0
     70061 W2       23961    TIP3     H1       HT       0.417000       1.00800           0
     70062 W2       23961    TIP3     H2       HT       0.417000       1.00800           0
     70063 W2       23962    TIP3     OH2      OT      -0.834000       15.9994           0
     70064 W2       23962    TIP3     H1       HT       0.417000       1.00800           0
     70065 W2       23962    TIP3     H2       HT       0.417000       1.00800           0
     70066 W2       23964    TIP3     OH2      OT      -0.834000       15.9994           0
     70067 W2       23964    TIP3     H1       HT       0.417000       1.00800           0
     70068 W2       23964    TIP3     H2       HT       0.417000       1.00800           0
     70069 W2       23965    TIP3     OH2      OT      -0.834000       15.9994           0
     70070 W2       23965    TIP3     H1       HT       0.417000       1.00800           0
     70071 W2       23965    TIP3     H2       HT       0.417000       1.00800           0
     70072 W2       23966    TIP3     OH2      OT      -0.834000       15.9994           0
     70073 W2       23966    TIP3     H1       HT       0.417000       1.00800           0
     70074 W2       23966    TIP3     H2       HT       0.417000       1.00800           0
     70075 W2       23968    TIP3     OH2      OT      -0.834000       15.9994           0
     70076 W2       23968    TIP3     H1       HT       0.417000       1.00800           0
     70077 W2       23968    TIP3     H2       HT       0.417000       1.00800           0
     70078 W2       23969    TIP3     OH2      OT      -0.834000       15.9994           0
     70079 W2       23969    TIP3     H1       HT       0.417000       1.00800           0
     70080 W2       23969    TIP3     H2       HT       0.417000       1.00800           0
     70081 W2       23970    TIP3     OH2      OT      -0.834000       15.9994           0
     70082 W2       23970    TIP3     H1       HT       0.417000       1.00800           0
     70083 W2       23970    TIP3     H2       HT       0.417000       1.00800           0
     70084 W2       23971    TIP3     OH2      OT      -0.834000       15.9994           0
     70085 W2       23971    TIP3     H1       HT       0.417000       1.00800           0
     70086 W2       23971    TIP3     H2       HT       0.417000       1.00800           0
     70087 W2       23972    TIP3     OH2      OT      -0.834000       15.9994           0
     70088 W2       23972    TIP3     H1       HT       0.417000       1.00800           0
     70089 W2       23972    TIP3     H2       HT       0.417000       1.00800           0
     70090 W2       23973    TIP3     OH2      OT      -0.834000       15.9994           0
     70091 W2       23973    TIP3     H1       HT       0.417000       1.00800           0
     70092 W2       23973    TIP3     H2       HT       0.417000       1.00800           0
     70093 W2       23976    TIP3     OH2      OT      -0.834000       15.9994           0
     70094 W2       23976    TIP3     H1       HT       0.417000       1.00800           0
     70095 W2       23976    TIP3     H2       HT       0.417000       1.00800           0
     70096 W2       23978    TIP3     OH2      OT      -0.834000       15.9994           0
     70097 W2       23978    TIP3     H1       HT       0.417000       1.00800           0
     70098 W2       23978    TIP3     H2       HT       0.417000       1.00800           0
     70099 W2       23980    TIP3     OH2      OT      -0.834000       15.9994           0
     70100 W2       23980    TIP3     H1       HT       0.417000       1.00800           0
     70101 W2       23980    TIP3     H2       HT       0.417000       1.00800           0
     70102 W2       23982    TIP3     OH2      OT      -0.834000       15.9994           0
     70103 W2       23982    TIP3     H1       HT       0.417000       1.00800           0
     70104 W2       23982    TIP3     H2       HT       0.417000       1.00800           0
     70105 W2       23985    TIP3     OH2      OT      -0.834000       15.9994           0
     70106 W2       23985    TIP3     H1       HT       0.417000       1.00800           0
     70107 W2       23985    TIP3     H2       HT       0.417000       1.00800           0
     70108 W2       23987    TIP3     OH2      OT      -0.834000       15.9994           0
     70109 W2       23987    TIP3     H1       HT       0.417000       1.00800           0
     70110 W2       23987    TIP3     H2       HT       0.417000       1.00800           0
     70111 W2       23989    TIP3     OH2      OT      -0.834000       15.9994           0
     70112 W2       23989    TIP3     H1       HT       0.417000       1.00800           0
     70113 W2       23989    TIP3     H2       HT       0.417000       1.00800           0
     70114 W2       23991    TIP3     OH2      OT      -0.834000       15.9994           0
     70115 W2       23991    TIP3     H1       HT       0.417000       1.00800           0
     70116 W2       23991    TIP3     H2       HT       0.417000       1.00800           0
     70117 W2       24003    TIP3     OH2      OT      -0.834000       15.9994           0
     70118 W2       24003    TIP3     H1       HT       0.417000       1.00800           0
     70119 W2       24003    TIP3     H2       HT       0.417000       1.00800           0
     70120 W2       24004    TIP3     OH2      OT      -0.834000       15.9994           0
     70121 W2       24004    TIP3     H1       HT       0.417000       1.00800           0
     70122 W2       24004    TIP3     H2       HT       0.417000       1.00800           0
     70123 W2       24005    TIP3     OH2      OT      -0.834000       15.9994           0
     70124 W2       24005    TIP3     H1       HT       0.417000       1.00800           0
     70125 W2       24005    TIP3     H2       HT       0.417000       1.00800           0
     70126 W2       24006    TIP3     OH2      OT      -0.834000       15.9994           0
     70127 W2       24006    TIP3     H1       HT       0.417000       1.00800           0
     70128 W2       24006    TIP3     H2       HT       0.417000       1.00800           0
     70129 W2       24007    TIP3     OH2      OT      -0.834000       15.9994           0
     70130 W2       24007    TIP3     H1       HT       0.417000       1.00800           0
     70131 W2       24007    TIP3     H2       HT       0.417000       1.00800           0
     70132 W2       24010    TIP3     OH2      OT      -0.834000       15.9994           0
     70133 W2       24010    TIP3     H1       HT       0.417000       1.00800           0
     70134 W2       24010    TIP3     H2       HT       0.417000       1.00800           0
     70135 W2       24011    TIP3     OH2      OT      -0.834000       15.9994           0
     70136 W2       24011    TIP3     H1       HT       0.417000       1.00800           0
     70137 W2       24011    TIP3     H2       HT       0.417000       1.00800           0
     70138 W2       24012    TIP3     OH2      OT      -0.834000       15.9994           0
     70139 W2       24012    TIP3     H1       HT       0.417000       1.00800           0
     70140 W2       24012    TIP3     H2       HT       0.417000       1.00800           0
     70141 W2       24013    TIP3     OH2      OT      -0.834000       15.9994           0
     70142 W2       24013    TIP3     H1       HT       0.417000       1.00800           0
     70143 W2       24013    TIP3     H2       HT       0.417000       1.00800           0
     70144 W2       24014    TIP3     OH2      OT      -0.834000       15.9994           0
     70145 W2       24014    TIP3     H1       HT       0.417000       1.00800           0
     70146 W2       24014    TIP3     H2       HT       0.417000       1.00800           0
     70147 W2       24015    TIP3     OH2      OT      -0.834000       15.9994           0
     70148 W2       24015    TIP3     H1       HT       0.417000       1.00800           0
     70149 W2       24015    TIP3     H2       HT       0.417000       1.00800           0
     70150 W2       24016    TIP3     OH2      OT      -0.834000       15.9994           0
     70151 W2       24016    TIP3     H1       HT       0.417000       1.00800           0
     70152 W2       24016    TIP3     H2       HT       0.417000       1.00800           0
     70153 W2       24017    TIP3     OH2      OT      -0.834000       15.9994           0
     70154 W2       24017    TIP3     H1       HT       0.417000       1.00800           0
     70155 W2       24017    TIP3     H2       HT       0.417000       1.00800           0
     70156 W2       24020    TIP3     OH2      OT      -0.834000       15.9994           0
     70157 W2       24020    TIP3     H1       HT       0.417000       1.00800           0
     70158 W2       24020    TIP3     H2       HT       0.417000       1.00800           0
     70159 W2       24021    TIP3     OH2      OT      -0.834000       15.9994           0
     70160 W2       24021    TIP3     H1       HT       0.417000       1.00800           0
     70161 W2       24021    TIP3     H2       HT       0.417000       1.00800           0
     70162 W2       24022    TIP3     OH2      OT      -0.834000       15.9994           0
     70163 W2       24022    TIP3     H1       HT       0.417000       1.00800           0
     70164 W2       24022    TIP3     H2       HT       0.417000       1.00800           0
     70165 W2       24023    TIP3     OH2      OT      -0.834000       15.9994           0
     70166 W2       24023    TIP3     H1       HT       0.417000       1.00800           0
     70167 W2       24023    TIP3     H2       HT       0.417000       1.00800           0
     70168 W2       24026    TIP3     OH2      OT      -0.834000       15.9994           0
     70169 W2       24026    TIP3     H1       HT       0.417000       1.00800           0
     70170 W2       24026    TIP3     H2       HT       0.417000       1.00800           0
     70171 W2       24027    TIP3     OH2      OT      -0.834000       15.9994           0
     70172 W2       24027    TIP3     H1       HT       0.417000       1.00800           0
     70173 W2       24027    TIP3     H2       HT       0.417000       1.00800           0
     70174 W2       24028    TIP3     OH2      OT      -0.834000       15.9994           0
     70175 W2       24028    TIP3     H1       HT       0.417000       1.00800           0
     70176 W2       24028    TIP3     H2       HT       0.417000       1.00800           0
     70177 W2       24030    TIP3     OH2      OT      -0.834000       15.9994           0
     70178 W2       24030    TIP3     H1       HT       0.417000       1.00800           0
     70179 W2       24030    TIP3     H2       HT       0.417000       1.00800           0
     70180 W2       24031    TIP3     OH2      OT      -0.834000       15.9994           0
     70181 W2       24031    TIP3     H1       HT       0.417000       1.00800           0
     70182 W2       24031    TIP3     H2       HT       0.417000       1.00800           0
     70183 W2       24032    TIP3     OH2      OT      -0.834000       15.9994           0
     70184 W2       24032    TIP3     H1       HT       0.417000       1.00800           0
     70185 W2       24032    TIP3     H2       HT       0.417000       1.00800           0
     70186 W2       24033    TIP3     OH2      OT      -0.834000       15.9994           0
     70187 W2       24033    TIP3     H1       HT       0.417000       1.00800           0
     70188 W2       24033    TIP3     H2       HT       0.417000       1.00800           0
     70189 W2       24035    TIP3     OH2      OT      -0.834000       15.9994           0
     70190 W2       24035    TIP3     H1       HT       0.417000       1.00800           0
     70191 W2       24035    TIP3     H2       HT       0.417000       1.00800           0
     70192 W2       24039    TIP3     OH2      OT      -0.834000       15.9994           0
     70193 W2       24039    TIP3     H1       HT       0.417000       1.00800           0
     70194 W2       24039    TIP3     H2       HT       0.417000       1.00800           0
     70195 W2       24040    TIP3     OH2      OT      -0.834000       15.9994           0
     70196 W2       24040    TIP3     H1       HT       0.417000       1.00800           0
     70197 W2       24040    TIP3     H2       HT       0.417000       1.00800           0
     70198 W2       24041    TIP3     OH2      OT      -0.834000       15.9994           0
     70199 W2       24041    TIP3     H1       HT       0.417000       1.00800           0
     70200 W2       24041    TIP3     H2       HT       0.417000       1.00800           0
     70201 W2       24042    TIP3     OH2      OT      -0.834000       15.9994           0
     70202 W2       24042    TIP3     H1       HT       0.417000       1.00800           0
     70203 W2       24042    TIP3     H2       HT       0.417000       1.00800           0
     70204 W2       24043    TIP3     OH2      OT      -0.834000       15.9994           0
     70205 W2       24043    TIP3     H1       HT       0.417000       1.00800           0
     70206 W2       24043    TIP3     H2       HT       0.417000       1.00800           0
     70207 W2       24044    TIP3     OH2      OT      -0.834000       15.9994           0
     70208 W2       24044    TIP3     H1       HT       0.417000       1.00800           0
     70209 W2       24044    TIP3     H2       HT       0.417000       1.00800           0
     70210 W2       24045    TIP3     OH2      OT      -0.834000       15.9994           0
     70211 W2       24045    TIP3     H1       HT       0.417000       1.00800           0
     70212 W2       24045    TIP3     H2       HT       0.417000       1.00800           0
     70213 W2       24046    TIP3     OH2      OT      -0.834000       15.9994           0
     70214 W2       24046    TIP3     H1       HT       0.417000       1.00800           0
     70215 W2       24046    TIP3     H2       HT       0.417000       1.00800           0
     70216 W2       24047    TIP3     OH2      OT      -0.834000       15.9994           0
     70217 W2       24047    TIP3     H1       HT       0.417000       1.00800           0
     70218 W2       24047    TIP3     H2       HT       0.417000       1.00800           0
     70219 W2       24048    TIP3     OH2      OT      -0.834000       15.9994           0
     70220 W2       24048    TIP3     H1       HT       0.417000       1.00800           0
     70221 W2       24048    TIP3     H2       HT       0.417000       1.00800           0
     70222 W2       24049    TIP3     OH2      OT      -0.834000       15.9994           0
     70223 W2       24049    TIP3     H1       HT       0.417000       1.00800           0
     70224 W2       24049    TIP3     H2       HT       0.417000       1.00800           0
     70225 W2       24050    TIP3     OH2      OT      -0.834000       15.9994           0
     70226 W2       24050    TIP3     H1       HT       0.417000       1.00800           0
     70227 W2       24050    TIP3     H2       HT       0.417000       1.00800           0
     70228 W2       24051    TIP3     OH2      OT      -0.834000       15.9994           0
     70229 W2       24051    TIP3     H1       HT       0.417000       1.00800           0
     70230 W2       24051    TIP3     H2       HT       0.417000       1.00800           0
     70231 W2       24052    TIP3     OH2      OT      -0.834000       15.9994           0
     70232 W2       24052    TIP3     H1       HT       0.417000       1.00800           0
     70233 W2       24052    TIP3     H2       HT       0.417000       1.00800           0
     70234 W2       24053    TIP3     OH2      OT      -0.834000       15.9994           0
     70235 W2       24053    TIP3     H1       HT       0.417000       1.00800           0
     70236 W2       24053    TIP3     H2       HT       0.417000       1.00800           0
     70237 W2       24054    TIP3     OH2      OT      -0.834000       15.9994           0
     70238 W2       24054    TIP3     H1       HT       0.417000       1.00800           0
     70239 W2       24054    TIP3     H2       HT       0.417000       1.00800           0
     70240 W2       24055    TIP3     OH2      OT      -0.834000       15.9994           0
     70241 W2       24055    TIP3     H1       HT       0.417000       1.00800           0
     70242 W2       24055    TIP3     H2       HT       0.417000       1.00800           0
     70243 W2       24056    TIP3     OH2      OT      -0.834000       15.9994           0
     70244 W2       24056    TIP3     H1       HT       0.417000       1.00800           0
     70245 W2       24056    TIP3     H2       HT       0.417000       1.00800           0
     70246 W2       24057    TIP3     OH2      OT      -0.834000       15.9994           0
     70247 W2       24057    TIP3     H1       HT       0.417000       1.00800           0
     70248 W2       24057    TIP3     H2       HT       0.417000       1.00800           0
     70249 W2       24058    TIP3     OH2      OT      -0.834000       15.9994           0
     70250 W2       24058    TIP3     H1       HT       0.417000       1.00800           0
     70251 W2       24058    TIP3     H2       HT       0.417000       1.00800           0
     70252 W2       24059    TIP3     OH2      OT      -0.834000       15.9994           0
     70253 W2       24059    TIP3     H1       HT       0.417000       1.00800           0
     70254 W2       24059    TIP3     H2       HT       0.417000       1.00800           0
     70255 W2       24062    TIP3     OH2      OT      -0.834000       15.9994           0
     70256 W2       24062    TIP3     H1       HT       0.417000       1.00800           0
     70257 W2       24062    TIP3     H2       HT       0.417000       1.00800           0
     70258 W2       24065    TIP3     OH2      OT      -0.834000       15.9994           0
     70259 W2       24065    TIP3     H1       HT       0.417000       1.00800           0
     70260 W2       24065    TIP3     H2       HT       0.417000       1.00800           0
     70261 W2       24066    TIP3     OH2      OT      -0.834000       15.9994           0
     70262 W2       24066    TIP3     H1       HT       0.417000       1.00800           0
     70263 W2       24066    TIP3     H2       HT       0.417000       1.00800           0
     70264 W2       24067    TIP3     OH2      OT      -0.834000       15.9994           0
     70265 W2       24067    TIP3     H1       HT       0.417000       1.00800           0
     70266 W2       24067    TIP3     H2       HT       0.417000       1.00800           0
     70267 W2       24068    TIP3     OH2      OT      -0.834000       15.9994           0
     70268 W2       24068    TIP3     H1       HT       0.417000       1.00800           0
     70269 W2       24068    TIP3     H2       HT       0.417000       1.00800           0
     70270 W2       24069    TIP3     OH2      OT      -0.834000       15.9994           0
     70271 W2       24069    TIP3     H1       HT       0.417000       1.00800           0
     70272 W2       24069    TIP3     H2       HT       0.417000       1.00800           0
     70273 W2       24070    TIP3     OH2      OT      -0.834000       15.9994           0
     70274 W2       24070    TIP3     H1       HT       0.417000       1.00800           0
     70275 W2       24070    TIP3     H2       HT       0.417000       1.00800           0
     70276 W2       24071    TIP3     OH2      OT      -0.834000       15.9994           0
     70277 W2       24071    TIP3     H1       HT       0.417000       1.00800           0
     70278 W2       24071    TIP3     H2       HT       0.417000       1.00800           0
     70279 W2       24072    TIP3     OH2      OT      -0.834000       15.9994           0
     70280 W2       24072    TIP3     H1       HT       0.417000       1.00800           0
     70281 W2       24072    TIP3     H2       HT       0.417000       1.00800           0
     70282 W2       24073    TIP3     OH2      OT      -0.834000       15.9994           0
     70283 W2       24073    TIP3     H1       HT       0.417000       1.00800           0
     70284 W2       24073    TIP3     H2       HT       0.417000       1.00800           0
     70285 W2       24074    TIP3     OH2      OT      -0.834000       15.9994           0
     70286 W2       24074    TIP3     H1       HT       0.417000       1.00800           0
     70287 W2       24074    TIP3     H2       HT       0.417000       1.00800           0
     70288 W2       24075    TIP3     OH2      OT      -0.834000       15.9994           0
     70289 W2       24075    TIP3     H1       HT       0.417000       1.00800           0
     70290 W2       24075    TIP3     H2       HT       0.417000       1.00800           0
     70291 W2       24076    TIP3     OH2      OT      -0.834000       15.9994           0
     70292 W2       24076    TIP3     H1       HT       0.417000       1.00800           0
     70293 W2       24076    TIP3     H2       HT       0.417000       1.00800           0
     70294 W2       24077    TIP3     OH2      OT      -0.834000       15.9994           0
     70295 W2       24077    TIP3     H1       HT       0.417000       1.00800           0
     70296 W2       24077    TIP3     H2       HT       0.417000       1.00800           0
     70297 W2       24078    TIP3     OH2      OT      -0.834000       15.9994           0
     70298 W2       24078    TIP3     H1       HT       0.417000       1.00800           0
     70299 W2       24078    TIP3     H2       HT       0.417000       1.00800           0
     70300 W2       24079    TIP3     OH2      OT      -0.834000       15.9994           0
     70301 W2       24079    TIP3     H1       HT       0.417000       1.00800           0
     70302 W2       24079    TIP3     H2       HT       0.417000       1.00800           0
     70303 W2       24080    TIP3     OH2      OT      -0.834000       15.9994           0
     70304 W2       24080    TIP3     H1       HT       0.417000       1.00800           0
     70305 W2       24080    TIP3     H2       HT       0.417000       1.00800           0
     70306 W2       24081    TIP3     OH2      OT      -0.834000       15.9994           0
     70307 W2       24081    TIP3     H1       HT       0.417000       1.00800           0
     70308 W2       24081    TIP3     H2       HT       0.417000       1.00800           0
     70309 W2       24082    TIP3     OH2      OT      -0.834000       15.9994           0
     70310 W2       24082    TIP3     H1       HT       0.417000       1.00800           0
     70311 W2       24082    TIP3     H2       HT       0.417000       1.00800           0
     70312 W2       24083    TIP3     OH2      OT      -0.834000       15.9994           0
     70313 W2       24083    TIP3     H1       HT       0.417000       1.00800           0
     70314 W2       24083    TIP3     H2       HT       0.417000       1.00800           0
     70315 W2       24084    TIP3     OH2      OT      -0.834000       15.9994           0
     70316 W2       24084    TIP3     H1       HT       0.417000       1.00800           0
     70317 W2       24084    TIP3     H2       HT       0.417000       1.00800           0
     70318 W2       24085    TIP3     OH2      OT      -0.834000       15.9994           0
     70319 W2       24085    TIP3     H1       HT       0.417000       1.00800           0
     70320 W2       24085    TIP3     H2       HT       0.417000       1.00800           0
     70321 W2       24086    TIP3     OH2      OT      -0.834000       15.9994           0
     70322 W2       24086    TIP3     H1       HT       0.417000       1.00800           0
     70323 W2       24086    TIP3     H2       HT       0.417000       1.00800           0
     70324 W2       24087    TIP3     OH2      OT      -0.834000       15.9994           0
     70325 W2       24087    TIP3     H1       HT       0.417000       1.00800           0
     70326 W2       24087    TIP3     H2       HT       0.417000       1.00800           0
     70327 W2       24088    TIP3     OH2      OT      -0.834000       15.9994           0
     70328 W2       24088    TIP3     H1       HT       0.417000       1.00800           0
     70329 W2       24088    TIP3     H2       HT       0.417000       1.00800           0
     70330 W2       24089    TIP3     OH2      OT      -0.834000       15.9994           0
     70331 W2       24089    TIP3     H1       HT       0.417000       1.00800           0
     70332 W2       24089    TIP3     H2       HT       0.417000       1.00800           0
     70333 W2       24090    TIP3     OH2      OT      -0.834000       15.9994           0
     70334 W2       24090    TIP3     H1       HT       0.417000       1.00800           0
     70335 W2       24090    TIP3     H2       HT       0.417000       1.00800           0
     70336 W2       24092    TIP3     OH2      OT      -0.834000       15.9994           0
     70337 W2       24092    TIP3     H1       HT       0.417000       1.00800           0
     70338 W2       24092    TIP3     H2       HT       0.417000       1.00800           0
     70339 W2       24093    TIP3     OH2      OT      -0.834000       15.9994           0
     70340 W2       24093    TIP3     H1       HT       0.417000       1.00800           0
     70341 W2       24093    TIP3     H2       HT       0.417000       1.00800           0
     70342 W2       24094    TIP3     OH2      OT      -0.834000       15.9994           0
     70343 W2       24094    TIP3     H1       HT       0.417000       1.00800           0
     70344 W2       24094    TIP3     H2       HT       0.417000       1.00800           0
     70345 W2       24095    TIP3     OH2      OT      -0.834000       15.9994           0
     70346 W2       24095    TIP3     H1       HT       0.417000       1.00800           0
     70347 W2       24095    TIP3     H2       HT       0.417000       1.00800           0
     70348 W2       24097    TIP3     OH2      OT      -0.834000       15.9994           0
     70349 W2       24097    TIP3     H1       HT       0.417000       1.00800           0
     70350 W2       24097    TIP3     H2       HT       0.417000       1.00800           0
     70351 W2       24099    TIP3     OH2      OT      -0.834000       15.9994           0
     70352 W2       24099    TIP3     H1       HT       0.417000       1.00800           0
     70353 W2       24099    TIP3     H2       HT       0.417000       1.00800           0
     70354 W2       24101    TIP3     OH2      OT      -0.834000       15.9994           0
     70355 W2       24101    TIP3     H1       HT       0.417000       1.00800           0
     70356 W2       24101    TIP3     H2       HT       0.417000       1.00800           0
     70357 W2       24102    TIP3     OH2      OT      -0.834000       15.9994           0
     70358 W2       24102    TIP3     H1       HT       0.417000       1.00800           0
     70359 W2       24102    TIP3     H2       HT       0.417000       1.00800           0
     70360 W2       24103    TIP3     OH2      OT      -0.834000       15.9994           0
     70361 W2       24103    TIP3     H1       HT       0.417000       1.00800           0
     70362 W2       24103    TIP3     H2       HT       0.417000       1.00800           0
     70363 W2       24105    TIP3     OH2      OT      -0.834000       15.9994           0
     70364 W2       24105    TIP3     H1       HT       0.417000       1.00800           0
     70365 W2       24105    TIP3     H2       HT       0.417000       1.00800           0
     70366 W2       24106    TIP3     OH2      OT      -0.834000       15.9994           0
     70367 W2       24106    TIP3     H1       HT       0.417000       1.00800           0
     70368 W2       24106    TIP3     H2       HT       0.417000       1.00800           0
     70369 W2       24107    TIP3     OH2      OT      -0.834000       15.9994           0
     70370 W2       24107    TIP3     H1       HT       0.417000       1.00800           0
     70371 W2       24107    TIP3     H2       HT       0.417000       1.00800           0
     70372 W2       24108    TIP3     OH2      OT      -0.834000       15.9994           0
     70373 W2       24108    TIP3     H1       HT       0.417000       1.00800           0
     70374 W2       24108    TIP3     H2       HT       0.417000       1.00800           0
     70375 W2       24110    TIP3     OH2      OT      -0.834000       15.9994           0
     70376 W2       24110    TIP3     H1       HT       0.417000       1.00800           0
     70377 W2       24110    TIP3     H2       HT       0.417000       1.00800           0
     70378 W2       24113    TIP3     OH2      OT      -0.834000       15.9994           0
     70379 W2       24113    TIP3     H1       HT       0.417000       1.00800           0
     70380 W2       24113    TIP3     H2       HT       0.417000       1.00800           0
     70381 W2       24114    TIP3     OH2      OT      -0.834000       15.9994           0
     70382 W2       24114    TIP3     H1       HT       0.417000       1.00800           0
     70383 W2       24114    TIP3     H2       HT       0.417000       1.00800           0
     70384 W2       24115    TIP3     OH2      OT      -0.834000       15.9994           0
     70385 W2       24115    TIP3     H1       HT       0.417000       1.00800           0
     70386 W2       24115    TIP3     H2       HT       0.417000       1.00800           0
     70387 W2       24116    TIP3     OH2      OT      -0.834000       15.9994           0
     70388 W2       24116    TIP3     H1       HT       0.417000       1.00800           0
     70389 W2       24116    TIP3     H2       HT       0.417000       1.00800           0
     70390 W2       24117    TIP3     OH2      OT      -0.834000       15.9994           0
     70391 W2       24117    TIP3     H1       HT       0.417000       1.00800           0
     70392 W2       24117    TIP3     H2       HT       0.417000       1.00800           0
     70393 W2       24119    TIP3     OH2      OT      -0.834000       15.9994           0
     70394 W2       24119    TIP3     H1       HT       0.417000       1.00800           0
     70395 W2       24119    TIP3     H2       HT       0.417000       1.00800           0
     70396 W2       24120    TIP3     OH2      OT      -0.834000       15.9994           0
     70397 W2       24120    TIP3     H1       HT       0.417000       1.00800           0
     70398 W2       24120    TIP3     H2       HT       0.417000       1.00800           0
     70399 W2       24121    TIP3     OH2      OT      -0.834000       15.9994           0
     70400 W2       24121    TIP3     H1       HT       0.417000       1.00800           0
     70401 W2       24121    TIP3     H2       HT       0.417000       1.00800           0
     70402 W2       24122    TIP3     OH2      OT      -0.834000       15.9994           0
     70403 W2       24122    TIP3     H1       HT       0.417000       1.00800           0
     70404 W2       24122    TIP3     H2       HT       0.417000       1.00800           0
     70405 W2       24123    TIP3     OH2      OT      -0.834000       15.9994           0
     70406 W2       24123    TIP3     H1       HT       0.417000       1.00800           0
     70407 W2       24123    TIP3     H2       HT       0.417000       1.00800           0
     70408 W2       24124    TIP3     OH2      OT      -0.834000       15.9994           0
     70409 W2       24124    TIP3     H1       HT       0.417000       1.00800           0
     70410 W2       24124    TIP3     H2       HT       0.417000       1.00800           0
     70411 W2       24125    TIP3     OH2      OT      -0.834000       15.9994           0
     70412 W2       24125    TIP3     H1       HT       0.417000       1.00800           0
     70413 W2       24125    TIP3     H2       HT       0.417000       1.00800           0
     70414 W2       24126    TIP3     OH2      OT      -0.834000       15.9994           0
     70415 W2       24126    TIP3     H1       HT       0.417000       1.00800           0
     70416 W2       24126    TIP3     H2       HT       0.417000       1.00800           0
     70417 W2       24127    TIP3     OH2      OT      -0.834000       15.9994           0
     70418 W2       24127    TIP3     H1       HT       0.417000       1.00800           0
     70419 W2       24127    TIP3     H2       HT       0.417000       1.00800           0
     70420 W2       24128    TIP3     OH2      OT      -0.834000       15.9994           0
     70421 W2       24128    TIP3     H1       HT       0.417000       1.00800           0
     70422 W2       24128    TIP3     H2       HT       0.417000       1.00800           0
     70423 W2       24129    TIP3     OH2      OT      -0.834000       15.9994           0
     70424 W2       24129    TIP3     H1       HT       0.417000       1.00800           0
     70425 W2       24129    TIP3     H2       HT       0.417000       1.00800           0
     70426 W2       24131    TIP3     OH2      OT      -0.834000       15.9994           0
     70427 W2       24131    TIP3     H1       HT       0.417000       1.00800           0
     70428 W2       24131    TIP3     H2       HT       0.417000       1.00800           0
     70429 W2       24132    TIP3     OH2      OT      -0.834000       15.9994           0
     70430 W2       24132    TIP3     H1       HT       0.417000       1.00800           0
     70431 W2       24132    TIP3     H2       HT       0.417000       1.00800           0
     70432 W2       24133    TIP3     OH2      OT      -0.834000       15.9994           0
     70433 W2       24133    TIP3     H1       HT       0.417000       1.00800           0
     70434 W2       24133    TIP3     H2       HT       0.417000       1.00800           0
     70435 W2       24134    TIP3     OH2      OT      -0.834000       15.9994           0
     70436 W2       24134    TIP3     H1       HT       0.417000       1.00800           0
     70437 W2       24134    TIP3     H2       HT       0.417000       1.00800           0
     70438 W2       24135    TIP3     OH2      OT      -0.834000       15.9994           0
     70439 W2       24135    TIP3     H1       HT       0.417000       1.00800           0
     70440 W2       24135    TIP3     H2       HT       0.417000       1.00800           0
     70441 W2       24137    TIP3     OH2      OT      -0.834000       15.9994           0
     70442 W2       24137    TIP3     H1       HT       0.417000       1.00800           0
     70443 W2       24137    TIP3     H2       HT       0.417000       1.00800           0
     70444 W2       24138    TIP3     OH2      OT      -0.834000       15.9994           0
     70445 W2       24138    TIP3     H1       HT       0.417000       1.00800           0
     70446 W2       24138    TIP3     H2       HT       0.417000       1.00800           0
     70447 W2       24139    TIP3     OH2      OT      -0.834000       15.9994           0
     70448 W2       24139    TIP3     H1       HT       0.417000       1.00800           0
     70449 W2       24139    TIP3     H2       HT       0.417000       1.00800           0
     70450 W2       24143    TIP3     OH2      OT      -0.834000       15.9994           0
     70451 W2       24143    TIP3     H1       HT       0.417000       1.00800           0
     70452 W2       24143    TIP3     H2       HT       0.417000       1.00800           0
     70453 W2       24144    TIP3     OH2      OT      -0.834000       15.9994           0
     70454 W2       24144    TIP3     H1       HT       0.417000       1.00800           0
     70455 W2       24144    TIP3     H2       HT       0.417000       1.00800           0
     70456 W2       24145    TIP3     OH2      OT      -0.834000       15.9994           0
     70457 W2       24145    TIP3     H1       HT       0.417000       1.00800           0
     70458 W2       24145    TIP3     H2       HT       0.417000       1.00800           0
     70459 W2       24146    TIP3     OH2      OT      -0.834000       15.9994           0
     70460 W2       24146    TIP3     H1       HT       0.417000       1.00800           0
     70461 W2       24146    TIP3     H2       HT       0.417000       1.00800           0
     70462 W2       24147    TIP3     OH2      OT      -0.834000       15.9994           0
     70463 W2       24147    TIP3     H1       HT       0.417000       1.00800           0
     70464 W2       24147    TIP3     H2       HT       0.417000       1.00800           0
     70465 W2       24148    TIP3     OH2      OT      -0.834000       15.9994           0
     70466 W2       24148    TIP3     H1       HT       0.417000       1.00800           0
     70467 W2       24148    TIP3     H2       HT       0.417000       1.00800           0
     70468 W2       24149    TIP3     OH2      OT      -0.834000       15.9994           0
     70469 W2       24149    TIP3     H1       HT       0.417000       1.00800           0
     70470 W2       24149    TIP3     H2       HT       0.417000       1.00800           0
     70471 W2       24150    TIP3     OH2      OT      -0.834000       15.9994           0
     70472 W2       24150    TIP3     H1       HT       0.417000       1.00800           0
     70473 W2       24150    TIP3     H2       HT       0.417000       1.00800           0
     70474 W2       24153    TIP3     OH2      OT      -0.834000       15.9994           0
     70475 W2       24153    TIP3     H1       HT       0.417000       1.00800           0
     70476 W2       24153    TIP3     H2       HT       0.417000       1.00800           0
     70477 W2       24154    TIP3     OH2      OT      -0.834000       15.9994           0
     70478 W2       24154    TIP3     H1       HT       0.417000       1.00800           0
     70479 W2       24154    TIP3     H2       HT       0.417000       1.00800           0
     70480 W2       24155    TIP3     OH2      OT      -0.834000       15.9994           0
     70481 W2       24155    TIP3     H1       HT       0.417000       1.00800           0
     70482 W2       24155    TIP3     H2       HT       0.417000       1.00800           0
     70483 W2       24156    TIP3     OH2      OT      -0.834000       15.9994           0
     70484 W2       24156    TIP3     H1       HT       0.417000       1.00800           0
     70485 W2       24156    TIP3     H2       HT       0.417000       1.00800           0
     70486 W2       24157    TIP3     OH2      OT      -0.834000       15.9994           0
     70487 W2       24157    TIP3     H1       HT       0.417000       1.00800           0
     70488 W2       24157    TIP3     H2       HT       0.417000       1.00800           0
     70489 W2       24158    TIP3     OH2      OT      -0.834000       15.9994           0
     70490 W2       24158    TIP3     H1       HT       0.417000       1.00800           0
     70491 W2       24158    TIP3     H2       HT       0.417000       1.00800           0
     70492 W2       24159    TIP3     OH2      OT      -0.834000       15.9994           0
     70493 W2       24159    TIP3     H1       HT       0.417000       1.00800           0
     70494 W2       24159    TIP3     H2       HT       0.417000       1.00800           0
     70495 W2       24160    TIP3     OH2      OT      -0.834000       15.9994           0
     70496 W2       24160    TIP3     H1       HT       0.417000       1.00800           0
     70497 W2       24160    TIP3     H2       HT       0.417000       1.00800           0
     70498 W2       24161    TIP3     OH2      OT      -0.834000       15.9994           0
     70499 W2       24161    TIP3     H1       HT       0.417000       1.00800           0
     70500 W2       24161    TIP3     H2       HT       0.417000       1.00800           0
     70501 W2       24163    TIP3     OH2      OT      -0.834000       15.9994           0
     70502 W2       24163    TIP3     H1       HT       0.417000       1.00800           0
     70503 W2       24163    TIP3     H2       HT       0.417000       1.00800           0
     70504 W2       24164    TIP3     OH2      OT      -0.834000       15.9994           0
     70505 W2       24164    TIP3     H1       HT       0.417000       1.00800           0
     70506 W2       24164    TIP3     H2       HT       0.417000       1.00800           0
     70507 W2       24165    TIP3     OH2      OT      -0.834000       15.9994           0
     70508 W2       24165    TIP3     H1       HT       0.417000       1.00800           0
     70509 W2       24165    TIP3     H2       HT       0.417000       1.00800           0
     70510 W2       24166    TIP3     OH2      OT      -0.834000       15.9994           0
     70511 W2       24166    TIP3     H1       HT       0.417000       1.00800           0
     70512 W2       24166    TIP3     H2       HT       0.417000       1.00800           0
     70513 W2       24167    TIP3     OH2      OT      -0.834000       15.9994           0
     70514 W2       24167    TIP3     H1       HT       0.417000       1.00800           0
     70515 W2       24167    TIP3     H2       HT       0.417000       1.00800           0
     70516 W2       24168    TIP3     OH2      OT      -0.834000       15.9994           0
     70517 W2       24168    TIP3     H1       HT       0.417000       1.00800           0
     70518 W2       24168    TIP3     H2       HT       0.417000       1.00800           0
     70519 W2       24169    TIP3     OH2      OT      -0.834000       15.9994           0
     70520 W2       24169    TIP3     H1       HT       0.417000       1.00800           0
     70521 W2       24169    TIP3     H2       HT       0.417000       1.00800           0
     70522 W2       24170    TIP3     OH2      OT      -0.834000       15.9994           0
     70523 W2       24170    TIP3     H1       HT       0.417000       1.00800           0
     70524 W2       24170    TIP3     H2       HT       0.417000       1.00800           0
     70525 W2       24173    TIP3     OH2      OT      -0.834000       15.9994           0
     70526 W2       24173    TIP3     H1       HT       0.417000       1.00800           0
     70527 W2       24173    TIP3     H2       HT       0.417000       1.00800           0
     70528 W2       24175    TIP3     OH2      OT      -0.834000       15.9994           0
     70529 W2       24175    TIP3     H1       HT       0.417000       1.00800           0
     70530 W2       24175    TIP3     H2       HT       0.417000       1.00800           0
     70531 W2       24177    TIP3     OH2      OT      -0.834000       15.9994           0
     70532 W2       24177    TIP3     H1       HT       0.417000       1.00800           0
     70533 W2       24177    TIP3     H2       HT       0.417000       1.00800           0
     70534 W2       24179    TIP3     OH2      OT      -0.834000       15.9994           0
     70535 W2       24179    TIP3     H1       HT       0.417000       1.00800           0
     70536 W2       24179    TIP3     H2       HT       0.417000       1.00800           0
     70537 W2       24182    TIP3     OH2      OT      -0.834000       15.9994           0
     70538 W2       24182    TIP3     H1       HT       0.417000       1.00800           0
     70539 W2       24182    TIP3     H2       HT       0.417000       1.00800           0
     70540 W2       24184    TIP3     OH2      OT      -0.834000       15.9994           0
     70541 W2       24184    TIP3     H1       HT       0.417000       1.00800           0
     70542 W2       24184    TIP3     H2       HT       0.417000       1.00800           0
     70543 W2       24187    TIP3     OH2      OT      -0.834000       15.9994           0
     70544 W2       24187    TIP3     H1       HT       0.417000       1.00800           0
     70545 W2       24187    TIP3     H2       HT       0.417000       1.00800           0
     70546 W2       24199    TIP3     OH2      OT      -0.834000       15.9994           0
     70547 W2       24199    TIP3     H1       HT       0.417000       1.00800           0
     70548 W2       24199    TIP3     H2       HT       0.417000       1.00800           0
     70549 W2       24200    TIP3     OH2      OT      -0.834000       15.9994           0
     70550 W2       24200    TIP3     H1       HT       0.417000       1.00800           0
     70551 W2       24200    TIP3     H2       HT       0.417000       1.00800           0
     70552 W2       24201    TIP3     OH2      OT      -0.834000       15.9994           0
     70553 W2       24201    TIP3     H1       HT       0.417000       1.00800           0
     70554 W2       24201    TIP3     H2       HT       0.417000       1.00800           0
     70555 W2       24202    TIP3     OH2      OT      -0.834000       15.9994           0
     70556 W2       24202    TIP3     H1       HT       0.417000       1.00800           0
     70557 W2       24202    TIP3     H2       HT       0.417000       1.00800           0
     70558 W2       24203    TIP3     OH2      OT      -0.834000       15.9994           0
     70559 W2       24203    TIP3     H1       HT       0.417000       1.00800           0
     70560 W2       24203    TIP3     H2       HT       0.417000       1.00800           0
     70561 W2       24205    TIP3     OH2      OT      -0.834000       15.9994           0
     70562 W2       24205    TIP3     H1       HT       0.417000       1.00800           0
     70563 W2       24205    TIP3     H2       HT       0.417000       1.00800           0
     70564 W2       24206    TIP3     OH2      OT      -0.834000       15.9994           0
     70565 W2       24206    TIP3     H1       HT       0.417000       1.00800           0
     70566 W2       24206    TIP3     H2       HT       0.417000       1.00800           0
     70567 W2       24207    TIP3     OH2      OT      -0.834000       15.9994           0
     70568 W2       24207    TIP3     H1       HT       0.417000       1.00800           0
     70569 W2       24207    TIP3     H2       HT       0.417000       1.00800           0
     70570 W2       24208    TIP3     OH2      OT      -0.834000       15.9994           0
     70571 W2       24208    TIP3     H1       HT       0.417000       1.00800           0
     70572 W2       24208    TIP3     H2       HT       0.417000       1.00800           0
     70573 W2       24210    TIP3     OH2      OT      -0.834000       15.9994           0
     70574 W2       24210    TIP3     H1       HT       0.417000       1.00800           0
     70575 W2       24210    TIP3     H2       HT       0.417000       1.00800           0
     70576 W2       24213    TIP3     OH2      OT      -0.834000       15.9994           0
     70577 W2       24213    TIP3     H1       HT       0.417000       1.00800           0
     70578 W2       24213    TIP3     H2       HT       0.417000       1.00800           0
     70579 W2       24214    TIP3     OH2      OT      -0.834000       15.9994           0
     70580 W2       24214    TIP3     H1       HT       0.417000       1.00800           0
     70581 W2       24214    TIP3     H2       HT       0.417000       1.00800           0
     70582 W2       24215    TIP3     OH2      OT      -0.834000       15.9994           0
     70583 W2       24215    TIP3     H1       HT       0.417000       1.00800           0
     70584 W2       24215    TIP3     H2       HT       0.417000       1.00800           0
     70585 W2       24216    TIP3     OH2      OT      -0.834000       15.9994           0
     70586 W2       24216    TIP3     H1       HT       0.417000       1.00800           0
     70587 W2       24216    TIP3     H2       HT       0.417000       1.00800           0
     70588 W2       24217    TIP3     OH2      OT      -0.834000       15.9994           0
     70589 W2       24217    TIP3     H1       HT       0.417000       1.00800           0
     70590 W2       24217    TIP3     H2       HT       0.417000       1.00800           0
     70591 W2       24218    TIP3     OH2      OT      -0.834000       15.9994           0
     70592 W2       24218    TIP3     H1       HT       0.417000       1.00800           0
     70593 W2       24218    TIP3     H2       HT       0.417000       1.00800           0
     70594 W2       24219    TIP3     OH2      OT      -0.834000       15.9994           0
     70595 W2       24219    TIP3     H1       HT       0.417000       1.00800           0
     70596 W2       24219    TIP3     H2       HT       0.417000       1.00800           0
     70597 W2       24220    TIP3     OH2      OT      -0.834000       15.9994           0
     70598 W2       24220    TIP3     H1       HT       0.417000       1.00800           0
     70599 W2       24220    TIP3     H2       HT       0.417000       1.00800           0
     70600 W2       24221    TIP3     OH2      OT      -0.834000       15.9994           0
     70601 W2       24221    TIP3     H1       HT       0.417000       1.00800           0
     70602 W2       24221    TIP3     H2       HT       0.417000       1.00800           0
     70603 W2       24222    TIP3     OH2      OT      -0.834000       15.9994           0
     70604 W2       24222    TIP3     H1       HT       0.417000       1.00800           0
     70605 W2       24222    TIP3     H2       HT       0.417000       1.00800           0
     70606 W2       24223    TIP3     OH2      OT      -0.834000       15.9994           0
     70607 W2       24223    TIP3     H1       HT       0.417000       1.00800           0
     70608 W2       24223    TIP3     H2       HT       0.417000       1.00800           0
     70609 W2       24224    TIP3     OH2      OT      -0.834000       15.9994           0
     70610 W2       24224    TIP3     H1       HT       0.417000       1.00800           0
     70611 W2       24224    TIP3     H2       HT       0.417000       1.00800           0
     70612 W2       24225    TIP3     OH2      OT      -0.834000       15.9994           0
     70613 W2       24225    TIP3     H1       HT       0.417000       1.00800           0
     70614 W2       24225    TIP3     H2       HT       0.417000       1.00800           0
     70615 W2       24226    TIP3     OH2      OT      -0.834000       15.9994           0
     70616 W2       24226    TIP3     H1       HT       0.417000       1.00800           0
     70617 W2       24226    TIP3     H2       HT       0.417000       1.00800           0
     70618 W2       24227    TIP3     OH2      OT      -0.834000       15.9994           0
     70619 W2       24227    TIP3     H1       HT       0.417000       1.00800           0
     70620 W2       24227    TIP3     H2       HT       0.417000       1.00800           0
     70621 W2       24228    TIP3     OH2      OT      -0.834000       15.9994           0
     70622 W2       24228    TIP3     H1       HT       0.417000       1.00800           0
     70623 W2       24228    TIP3     H2       HT       0.417000       1.00800           0
     70624 W2       24229    TIP3     OH2      OT      -0.834000       15.9994           0
     70625 W2       24229    TIP3     H1       HT       0.417000       1.00800           0
     70626 W2       24229    TIP3     H2       HT       0.417000       1.00800           0
     70627 W2       24232    TIP3     OH2      OT      -0.834000       15.9994           0
     70628 W2       24232    TIP3     H1       HT       0.417000       1.00800           0
     70629 W2       24232    TIP3     H2       HT       0.417000       1.00800           0
     70630 W2       24234    TIP3     OH2      OT      -0.834000       15.9994           0
     70631 W2       24234    TIP3     H1       HT       0.417000       1.00800           0
     70632 W2       24234    TIP3     H2       HT       0.417000       1.00800           0
     70633 W2       24235    TIP3     OH2      OT      -0.834000       15.9994           0
     70634 W2       24235    TIP3     H1       HT       0.417000       1.00800           0
     70635 W2       24235    TIP3     H2       HT       0.417000       1.00800           0
     70636 W2       24236    TIP3     OH2      OT      -0.834000       15.9994           0
     70637 W2       24236    TIP3     H1       HT       0.417000       1.00800           0
     70638 W2       24236    TIP3     H2       HT       0.417000       1.00800           0
     70639 W2       24237    TIP3     OH2      OT      -0.834000       15.9994           0
     70640 W2       24237    TIP3     H1       HT       0.417000       1.00800           0
     70641 W2       24237    TIP3     H2       HT       0.417000       1.00800           0
     70642 W2       24238    TIP3     OH2      OT      -0.834000       15.9994           0
     70643 W2       24238    TIP3     H1       HT       0.417000       1.00800           0
     70644 W2       24238    TIP3     H2       HT       0.417000       1.00800           0
     70645 W2       24239    TIP3     OH2      OT      -0.834000       15.9994           0
     70646 W2       24239    TIP3     H1       HT       0.417000       1.00800           0
     70647 W2       24239    TIP3     H2       HT       0.417000       1.00800           0
     70648 W2       24240    TIP3     OH2      OT      -0.834000       15.9994           0
     70649 W2       24240    TIP3     H1       HT       0.417000       1.00800           0
     70650 W2       24240    TIP3     H2       HT       0.417000       1.00800           0
     70651 W2       24241    TIP3     OH2      OT      -0.834000       15.9994           0
     70652 W2       24241    TIP3     H1       HT       0.417000       1.00800           0
     70653 W2       24241    TIP3     H2       HT       0.417000       1.00800           0
     70654 W2       24242    TIP3     OH2      OT      -0.834000       15.9994           0
     70655 W2       24242    TIP3     H1       HT       0.417000       1.00800           0
     70656 W2       24242    TIP3     H2       HT       0.417000       1.00800           0
     70657 W2       24243    TIP3     OH2      OT      -0.834000       15.9994           0
     70658 W2       24243    TIP3     H1       HT       0.417000       1.00800           0
     70659 W2       24243    TIP3     H2       HT       0.417000       1.00800           0
     70660 W2       24244    TIP3     OH2      OT      -0.834000       15.9994           0
     70661 W2       24244    TIP3     H1       HT       0.417000       1.00800           0
     70662 W2       24244    TIP3     H2       HT       0.417000       1.00800           0
     70663 W2       24245    TIP3     OH2      OT      -0.834000       15.9994           0
     70664 W2       24245    TIP3     H1       HT       0.417000       1.00800           0
     70665 W2       24245    TIP3     H2       HT       0.417000       1.00800           0
     70666 W2       24246    TIP3     OH2      OT      -0.834000       15.9994           0
     70667 W2       24246    TIP3     H1       HT       0.417000       1.00800           0
     70668 W2       24246    TIP3     H2       HT       0.417000       1.00800           0
     70669 W2       24247    TIP3     OH2      OT      -0.834000       15.9994           0
     70670 W2       24247    TIP3     H1       HT       0.417000       1.00800           0
     70671 W2       24247    TIP3     H2       HT       0.417000       1.00800           0
     70672 W2       24248    TIP3     OH2      OT      -0.834000       15.9994           0
     70673 W2       24248    TIP3     H1       HT       0.417000       1.00800           0
     70674 W2       24248    TIP3     H2       HT       0.417000       1.00800           0
     70675 W2       24250    TIP3     OH2      OT      -0.834000       15.9994           0
     70676 W2       24250    TIP3     H1       HT       0.417000       1.00800           0
     70677 W2       24250    TIP3     H2       HT       0.417000       1.00800           0
     70678 W2       24251    TIP3     OH2      OT      -0.834000       15.9994           0
     70679 W2       24251    TIP3     H1       HT       0.417000       1.00800           0
     70680 W2       24251    TIP3     H2       HT       0.417000       1.00800           0
     70681 W2       24252    TIP3     OH2      OT      -0.834000       15.9994           0
     70682 W2       24252    TIP3     H1       HT       0.417000       1.00800           0
     70683 W2       24252    TIP3     H2       HT       0.417000       1.00800           0
     70684 W2       24253    TIP3     OH2      OT      -0.834000       15.9994           0
     70685 W2       24253    TIP3     H1       HT       0.417000       1.00800           0
     70686 W2       24253    TIP3     H2       HT       0.417000       1.00800           0
     70687 W2       24254    TIP3     OH2      OT      -0.834000       15.9994           0
     70688 W2       24254    TIP3     H1       HT       0.417000       1.00800           0
     70689 W2       24254    TIP3     H2       HT       0.417000       1.00800           0
     70690 W2       24255    TIP3     OH2      OT      -0.834000       15.9994           0
     70691 W2       24255    TIP3     H1       HT       0.417000       1.00800           0
     70692 W2       24255    TIP3     H2       HT       0.417000       1.00800           0
     70693 W2       24256    TIP3     OH2      OT      -0.834000       15.9994           0
     70694 W2       24256    TIP3     H1       HT       0.417000       1.00800           0
     70695 W2       24256    TIP3     H2       HT       0.417000       1.00800           0
     70696 W2       24257    TIP3     OH2      OT      -0.834000       15.9994           0
     70697 W2       24257    TIP3     H1       HT       0.417000       1.00800           0
     70698 W2       24257    TIP3     H2       HT       0.417000       1.00800           0
     70699 W2       24258    TIP3     OH2      OT      -0.834000       15.9994           0
     70700 W2       24258    TIP3     H1       HT       0.417000       1.00800           0
     70701 W2       24258    TIP3     H2       HT       0.417000       1.00800           0
     70702 W2       24259    TIP3     OH2      OT      -0.834000       15.9994           0
     70703 W2       24259    TIP3     H1       HT       0.417000       1.00800           0
     70704 W2       24259    TIP3     H2       HT       0.417000       1.00800           0
     70705 W2       24260    TIP3     OH2      OT      -0.834000       15.9994           0
     70706 W2       24260    TIP3     H1       HT       0.417000       1.00800           0
     70707 W2       24260    TIP3     H2       HT       0.417000       1.00800           0
     70708 W2       24261    TIP3     OH2      OT      -0.834000       15.9994           0
     70709 W2       24261    TIP3     H1       HT       0.417000       1.00800           0
     70710 W2       24261    TIP3     H2       HT       0.417000       1.00800           0
     70711 W2       24263    TIP3     OH2      OT      -0.834000       15.9994           0
     70712 W2       24263    TIP3     H1       HT       0.417000       1.00800           0
     70713 W2       24263    TIP3     H2       HT       0.417000       1.00800           0
     70714 W2       24264    TIP3     OH2      OT      -0.834000       15.9994           0
     70715 W2       24264    TIP3     H1       HT       0.417000       1.00800           0
     70716 W2       24264    TIP3     H2       HT       0.417000       1.00800           0
     70717 W2       24265    TIP3     OH2      OT      -0.834000       15.9994           0
     70718 W2       24265    TIP3     H1       HT       0.417000       1.00800           0
     70719 W2       24265    TIP3     H2       HT       0.417000       1.00800           0
     70720 W2       24266    TIP3     OH2      OT      -0.834000       15.9994           0
     70721 W2       24266    TIP3     H1       HT       0.417000       1.00800           0
     70722 W2       24266    TIP3     H2       HT       0.417000       1.00800           0
     70723 W2       24268    TIP3     OH2      OT      -0.834000       15.9994           0
     70724 W2       24268    TIP3     H1       HT       0.417000       1.00800           0
     70725 W2       24268    TIP3     H2       HT       0.417000       1.00800           0
     70726 W2       24269    TIP3     OH2      OT      -0.834000       15.9994           0
     70727 W2       24269    TIP3     H1       HT       0.417000       1.00800           0
     70728 W2       24269    TIP3     H2       HT       0.417000       1.00800           0
     70729 W2       24270    TIP3     OH2      OT      -0.834000       15.9994           0
     70730 W2       24270    TIP3     H1       HT       0.417000       1.00800           0
     70731 W2       24270    TIP3     H2       HT       0.417000       1.00800           0
     70732 W2       24271    TIP3     OH2      OT      -0.834000       15.9994           0
     70733 W2       24271    TIP3     H1       HT       0.417000       1.00800           0
     70734 W2       24271    TIP3     H2       HT       0.417000       1.00800           0
     70735 W2       24273    TIP3     OH2      OT      -0.834000       15.9994           0
     70736 W2       24273    TIP3     H1       HT       0.417000       1.00800           0
     70737 W2       24273    TIP3     H2       HT       0.417000       1.00800           0
     70738 W2       24275    TIP3     OH2      OT      -0.834000       15.9994           0
     70739 W2       24275    TIP3     H1       HT       0.417000       1.00800           0
     70740 W2       24275    TIP3     H2       HT       0.417000       1.00800           0
     70741 W2       24277    TIP3     OH2      OT      -0.834000       15.9994           0
     70742 W2       24277    TIP3     H1       HT       0.417000       1.00800           0
     70743 W2       24277    TIP3     H2       HT       0.417000       1.00800           0
     70744 W2       24278    TIP3     OH2      OT      -0.834000       15.9994           0
     70745 W2       24278    TIP3     H1       HT       0.417000       1.00800           0
     70746 W2       24278    TIP3     H2       HT       0.417000       1.00800           0
     70747 W2       24279    TIP3     OH2      OT      -0.834000       15.9994           0
     70748 W2       24279    TIP3     H1       HT       0.417000       1.00800           0
     70749 W2       24279    TIP3     H2       HT       0.417000       1.00800           0
     70750 W2       24280    TIP3     OH2      OT      -0.834000       15.9994           0
     70751 W2       24280    TIP3     H1       HT       0.417000       1.00800           0
     70752 W2       24280    TIP3     H2       HT       0.417000       1.00800           0
     70753 W2       24281    TIP3     OH2      OT      -0.834000       15.9994           0
     70754 W2       24281    TIP3     H1       HT       0.417000       1.00800           0
     70755 W2       24281    TIP3     H2       HT       0.417000       1.00800           0
     70756 W2       24284    TIP3     OH2      OT      -0.834000       15.9994           0
     70757 W2       24284    TIP3     H1       HT       0.417000       1.00800           0
     70758 W2       24284    TIP3     H2       HT       0.417000       1.00800           0
     70759 W2       24285    TIP3     OH2      OT      -0.834000       15.9994           0
     70760 W2       24285    TIP3     H1       HT       0.417000       1.00800           0
     70761 W2       24285    TIP3     H2       HT       0.417000       1.00800           0
     70762 W2       24286    TIP3     OH2      OT      -0.834000       15.9994           0
     70763 W2       24286    TIP3     H1       HT       0.417000       1.00800           0
     70764 W2       24286    TIP3     H2       HT       0.417000       1.00800           0
     70765 W2       24287    TIP3     OH2      OT      -0.834000       15.9994           0
     70766 W2       24287    TIP3     H1       HT       0.417000       1.00800           0
     70767 W2       24287    TIP3     H2       HT       0.417000       1.00800           0
     70768 W2       24290    TIP3     OH2      OT      -0.834000       15.9994           0
     70769 W2       24290    TIP3     H1       HT       0.417000       1.00800           0
     70770 W2       24290    TIP3     H2       HT       0.417000       1.00800           0
     70771 W2       24293    TIP3     OH2      OT      -0.834000       15.9994           0
     70772 W2       24293    TIP3     H1       HT       0.417000       1.00800           0
     70773 W2       24293    TIP3     H2       HT       0.417000       1.00800           0
     70774 W2       24294    TIP3     OH2      OT      -0.834000       15.9994           0
     70775 W2       24294    TIP3     H1       HT       0.417000       1.00800           0
     70776 W2       24294    TIP3     H2       HT       0.417000       1.00800           0
     70777 W2       24295    TIP3     OH2      OT      -0.834000       15.9994           0
     70778 W2       24295    TIP3     H1       HT       0.417000       1.00800           0
     70779 W2       24295    TIP3     H2       HT       0.417000       1.00800           0
     70780 W2       24296    TIP3     OH2      OT      -0.834000       15.9994           0
     70781 W2       24296    TIP3     H1       HT       0.417000       1.00800           0
     70782 W2       24296    TIP3     H2       HT       0.417000       1.00800           0
     70783 W2       24297    TIP3     OH2      OT      -0.834000       15.9994           0
     70784 W2       24297    TIP3     H1       HT       0.417000       1.00800           0
     70785 W2       24297    TIP3     H2       HT       0.417000       1.00800           0
     70786 W2       24299    TIP3     OH2      OT      -0.834000       15.9994           0
     70787 W2       24299    TIP3     H1       HT       0.417000       1.00800           0
     70788 W2       24299    TIP3     H2       HT       0.417000       1.00800           0
     70789 W2       24300    TIP3     OH2      OT      -0.834000       15.9994           0
     70790 W2       24300    TIP3     H1       HT       0.417000       1.00800           0
     70791 W2       24300    TIP3     H2       HT       0.417000       1.00800           0
     70792 W2       24301    TIP3     OH2      OT      -0.834000       15.9994           0
     70793 W2       24301    TIP3     H1       HT       0.417000       1.00800           0
     70794 W2       24301    TIP3     H2       HT       0.417000       1.00800           0
     70795 W2       24302    TIP3     OH2      OT      -0.834000       15.9994           0
     70796 W2       24302    TIP3     H1       HT       0.417000       1.00800           0
     70797 W2       24302    TIP3     H2       HT       0.417000       1.00800           0
     70798 W2       24303    TIP3     OH2      OT      -0.834000       15.9994           0
     70799 W2       24303    TIP3     H1       HT       0.417000       1.00800           0
     70800 W2       24303    TIP3     H2       HT       0.417000       1.00800           0
     70801 W2       24304    TIP3     OH2      OT      -0.834000       15.9994           0
     70802 W2       24304    TIP3     H1       HT       0.417000       1.00800           0
     70803 W2       24304    TIP3     H2       HT       0.417000       1.00800           0
     70804 W2       24305    TIP3     OH2      OT      -0.834000       15.9994           0
     70805 W2       24305    TIP3     H1       HT       0.417000       1.00800           0
     70806 W2       24305    TIP3     H2       HT       0.417000       1.00800           0
     70807 W2       24306    TIP3     OH2      OT      -0.834000       15.9994           0
     70808 W2       24306    TIP3     H1       HT       0.417000       1.00800           0
     70809 W2       24306    TIP3     H2       HT       0.417000       1.00800           0
     70810 W2       24307    TIP3     OH2      OT      -0.834000       15.9994           0
     70811 W2       24307    TIP3     H1       HT       0.417000       1.00800           0
     70812 W2       24307    TIP3     H2       HT       0.417000       1.00800           0
     70813 W2       24308    TIP3     OH2      OT      -0.834000       15.9994           0
     70814 W2       24308    TIP3     H1       HT       0.417000       1.00800           0
     70815 W2       24308    TIP3     H2       HT       0.417000       1.00800           0
     70816 W2       24309    TIP3     OH2      OT      -0.834000       15.9994           0
     70817 W2       24309    TIP3     H1       HT       0.417000       1.00800           0
     70818 W2       24309    TIP3     H2       HT       0.417000       1.00800           0
     70819 W2       24312    TIP3     OH2      OT      -0.834000       15.9994           0
     70820 W2       24312    TIP3     H1       HT       0.417000       1.00800           0
     70821 W2       24312    TIP3     H2       HT       0.417000       1.00800           0
     70822 W2       24313    TIP3     OH2      OT      -0.834000       15.9994           0
     70823 W2       24313    TIP3     H1       HT       0.417000       1.00800           0
     70824 W2       24313    TIP3     H2       HT       0.417000       1.00800           0
     70825 W2       24314    TIP3     OH2      OT      -0.834000       15.9994           0
     70826 W2       24314    TIP3     H1       HT       0.417000       1.00800           0
     70827 W2       24314    TIP3     H2       HT       0.417000       1.00800           0
     70828 W2       24315    TIP3     OH2      OT      -0.834000       15.9994           0
     70829 W2       24315    TIP3     H1       HT       0.417000       1.00800           0
     70830 W2       24315    TIP3     H2       HT       0.417000       1.00800           0
     70831 W2       24316    TIP3     OH2      OT      -0.834000       15.9994           0
     70832 W2       24316    TIP3     H1       HT       0.417000       1.00800           0
     70833 W2       24316    TIP3     H2       HT       0.417000       1.00800           0
     70834 W2       24317    TIP3     OH2      OT      -0.834000       15.9994           0
     70835 W2       24317    TIP3     H1       HT       0.417000       1.00800           0
     70836 W2       24317    TIP3     H2       HT       0.417000       1.00800           0
     70837 W2       24319    TIP3     OH2      OT      -0.834000       15.9994           0
     70838 W2       24319    TIP3     H1       HT       0.417000       1.00800           0
     70839 W2       24319    TIP3     H2       HT       0.417000       1.00800           0
     70840 W2       24320    TIP3     OH2      OT      -0.834000       15.9994           0
     70841 W2       24320    TIP3     H1       HT       0.417000       1.00800           0
     70842 W2       24320    TIP3     H2       HT       0.417000       1.00800           0
     70843 W2       24321    TIP3     OH2      OT      -0.834000       15.9994           0
     70844 W2       24321    TIP3     H1       HT       0.417000       1.00800           0
     70845 W2       24321    TIP3     H2       HT       0.417000       1.00800           0
     70846 W2       24325    TIP3     OH2      OT      -0.834000       15.9994           0
     70847 W2       24325    TIP3     H1       HT       0.417000       1.00800           0
     70848 W2       24325    TIP3     H2       HT       0.417000       1.00800           0
     70849 W2       24327    TIP3     OH2      OT      -0.834000       15.9994           0
     70850 W2       24327    TIP3     H1       HT       0.417000       1.00800           0
     70851 W2       24327    TIP3     H2       HT       0.417000       1.00800           0
     70852 W2       24328    TIP3     OH2      OT      -0.834000       15.9994           0
     70853 W2       24328    TIP3     H1       HT       0.417000       1.00800           0
     70854 W2       24328    TIP3     H2       HT       0.417000       1.00800           0
     70855 W2       24329    TIP3     OH2      OT      -0.834000       15.9994           0
     70856 W2       24329    TIP3     H1       HT       0.417000       1.00800           0
     70857 W2       24329    TIP3     H2       HT       0.417000       1.00800           0
     70858 W2       24330    TIP3     OH2      OT      -0.834000       15.9994           0
     70859 W2       24330    TIP3     H1       HT       0.417000       1.00800           0
     70860 W2       24330    TIP3     H2       HT       0.417000       1.00800           0
     70861 W2       24331    TIP3     OH2      OT      -0.834000       15.9994           0
     70862 W2       24331    TIP3     H1       HT       0.417000       1.00800           0
     70863 W2       24331    TIP3     H2       HT       0.417000       1.00800           0
     70864 W2       24332    TIP3     OH2      OT      -0.834000       15.9994           0
     70865 W2       24332    TIP3     H1       HT       0.417000       1.00800           0
     70866 W2       24332    TIP3     H2       HT       0.417000       1.00800           0
     70867 W2       24333    TIP3     OH2      OT      -0.834000       15.9994           0
     70868 W2       24333    TIP3     H1       HT       0.417000       1.00800           0
     70869 W2       24333    TIP3     H2       HT       0.417000       1.00800           0
     70870 W2       24334    TIP3     OH2      OT      -0.834000       15.9994           0
     70871 W2       24334    TIP3     H1       HT       0.417000       1.00800           0
     70872 W2       24334    TIP3     H2       HT       0.417000       1.00800           0
     70873 W2       24335    TIP3     OH2      OT      -0.834000       15.9994           0
     70874 W2       24335    TIP3     H1       HT       0.417000       1.00800           0
     70875 W2       24335    TIP3     H2       HT       0.417000       1.00800           0
     70876 W2       24337    TIP3     OH2      OT      -0.834000       15.9994           0
     70877 W2       24337    TIP3     H1       HT       0.417000       1.00800           0
     70878 W2       24337    TIP3     H2       HT       0.417000       1.00800           0
     70879 W2       24339    TIP3     OH2      OT      -0.834000       15.9994           0
     70880 W2       24339    TIP3     H1       HT       0.417000       1.00800           0
     70881 W2       24339    TIP3     H2       HT       0.417000       1.00800           0
     70882 W2       24340    TIP3     OH2      OT      -0.834000       15.9994           0
     70883 W2       24340    TIP3     H1       HT       0.417000       1.00800           0
     70884 W2       24340    TIP3     H2       HT       0.417000       1.00800           0
     70885 W2       24341    TIP3     OH2      OT      -0.834000       15.9994           0
     70886 W2       24341    TIP3     H1       HT       0.417000       1.00800           0
     70887 W2       24341    TIP3     H2       HT       0.417000       1.00800           0
     70888 W2       24342    TIP3     OH2      OT      -0.834000       15.9994           0
     70889 W2       24342    TIP3     H1       HT       0.417000       1.00800           0
     70890 W2       24342    TIP3     H2       HT       0.417000       1.00800           0
     70891 W2       24343    TIP3     OH2      OT      -0.834000       15.9994           0
     70892 W2       24343    TIP3     H1       HT       0.417000       1.00800           0
     70893 W2       24343    TIP3     H2       HT       0.417000       1.00800           0
     70894 W2       24344    TIP3     OH2      OT      -0.834000       15.9994           0
     70895 W2       24344    TIP3     H1       HT       0.417000       1.00800           0
     70896 W2       24344    TIP3     H2       HT       0.417000       1.00800           0
     70897 W2       24345    TIP3     OH2      OT      -0.834000       15.9994           0
     70898 W2       24345    TIP3     H1       HT       0.417000       1.00800           0
     70899 W2       24345    TIP3     H2       HT       0.417000       1.00800           0
     70900 W2       24346    TIP3     OH2      OT      -0.834000       15.9994           0
     70901 W2       24346    TIP3     H1       HT       0.417000       1.00800           0
     70902 W2       24346    TIP3     H2       HT       0.417000       1.00800           0
     70903 W2       24347    TIP3     OH2      OT      -0.834000       15.9994           0
     70904 W2       24347    TIP3     H1       HT       0.417000       1.00800           0
     70905 W2       24347    TIP3     H2       HT       0.417000       1.00800           0
     70906 W2       24349    TIP3     OH2      OT      -0.834000       15.9994           0
     70907 W2       24349    TIP3     H1       HT       0.417000       1.00800           0
     70908 W2       24349    TIP3     H2       HT       0.417000       1.00800           0
     70909 W2       24350    TIP3     OH2      OT      -0.834000       15.9994           0
     70910 W2       24350    TIP3     H1       HT       0.417000       1.00800           0
     70911 W2       24350    TIP3     H2       HT       0.417000       1.00800           0
     70912 W2       24351    TIP3     OH2      OT      -0.834000       15.9994           0
     70913 W2       24351    TIP3     H1       HT       0.417000       1.00800           0
     70914 W2       24351    TIP3     H2       HT       0.417000       1.00800           0
     70915 W2       24353    TIP3     OH2      OT      -0.834000       15.9994           0
     70916 W2       24353    TIP3     H1       HT       0.417000       1.00800           0
     70917 W2       24353    TIP3     H2       HT       0.417000       1.00800           0
     70918 W2       24354    TIP3     OH2      OT      -0.834000       15.9994           0
     70919 W2       24354    TIP3     H1       HT       0.417000       1.00800           0
     70920 W2       24354    TIP3     H2       HT       0.417000       1.00800           0
     70921 W2       24355    TIP3     OH2      OT      -0.834000       15.9994           0
     70922 W2       24355    TIP3     H1       HT       0.417000       1.00800           0
     70923 W2       24355    TIP3     H2       HT       0.417000       1.00800           0
     70924 W2       24356    TIP3     OH2      OT      -0.834000       15.9994           0
     70925 W2       24356    TIP3     H1       HT       0.417000       1.00800           0
     70926 W2       24356    TIP3     H2       HT       0.417000       1.00800           0
     70927 W2       24357    TIP3     OH2      OT      -0.834000       15.9994           0
     70928 W2       24357    TIP3     H1       HT       0.417000       1.00800           0
     70929 W2       24357    TIP3     H2       HT       0.417000       1.00800           0
     70930 W2       24358    TIP3     OH2      OT      -0.834000       15.9994           0
     70931 W2       24358    TIP3     H1       HT       0.417000       1.00800           0
     70932 W2       24358    TIP3     H2       HT       0.417000       1.00800           0
     70933 W2       24361    TIP3     OH2      OT      -0.834000       15.9994           0
     70934 W2       24361    TIP3     H1       HT       0.417000       1.00800           0
     70935 W2       24361    TIP3     H2       HT       0.417000       1.00800           0
     70936 W2       24363    TIP3     OH2      OT      -0.834000       15.9994           0
     70937 W2       24363    TIP3     H1       HT       0.417000       1.00800           0
     70938 W2       24363    TIP3     H2       HT       0.417000       1.00800           0
     70939 W2       24365    TIP3     OH2      OT      -0.834000       15.9994           0
     70940 W2       24365    TIP3     H1       HT       0.417000       1.00800           0
     70941 W2       24365    TIP3     H2       HT       0.417000       1.00800           0
     70942 W2       24367    TIP3     OH2      OT      -0.834000       15.9994           0
     70943 W2       24367    TIP3     H1       HT       0.417000       1.00800           0
     70944 W2       24367    TIP3     H2       HT       0.417000       1.00800           0
     70945 W2       24370    TIP3     OH2      OT      -0.834000       15.9994           0
     70946 W2       24370    TIP3     H1       HT       0.417000       1.00800           0
     70947 W2       24370    TIP3     H2       HT       0.417000       1.00800           0
     70948 W2       24372    TIP3     OH2      OT      -0.834000       15.9994           0
     70949 W2       24372    TIP3     H1       HT       0.417000       1.00800           0
     70950 W2       24372    TIP3     H2       HT       0.417000       1.00800           0
     70951 W2       24374    TIP3     OH2      OT      -0.834000       15.9994           0
     70952 W2       24374    TIP3     H1       HT       0.417000       1.00800           0
     70953 W2       24374    TIP3     H2       HT       0.417000       1.00800           0
     70954 W2       24376    TIP3     OH2      OT      -0.834000       15.9994           0
     70955 W2       24376    TIP3     H1       HT       0.417000       1.00800           0
     70956 W2       24376    TIP3     H2       HT       0.417000       1.00800           0
     70957 W2       24388    TIP3     OH2      OT      -0.834000       15.9994           0
     70958 W2       24388    TIP3     H1       HT       0.417000       1.00800           0
     70959 W2       24388    TIP3     H2       HT       0.417000       1.00800           0
     70960 W2       24389    TIP3     OH2      OT      -0.834000       15.9994           0
     70961 W2       24389    TIP3     H1       HT       0.417000       1.00800           0
     70962 W2       24389    TIP3     H2       HT       0.417000       1.00800           0
     70963 W2       24390    TIP3     OH2      OT      -0.834000       15.9994           0
     70964 W2       24390    TIP3     H1       HT       0.417000       1.00800           0
     70965 W2       24390    TIP3     H2       HT       0.417000       1.00800           0
     70966 W2       24391    TIP3     OH2      OT      -0.834000       15.9994           0
     70967 W2       24391    TIP3     H1       HT       0.417000       1.00800           0
     70968 W2       24391    TIP3     H2       HT       0.417000       1.00800           0
     70969 W2       24392    TIP3     OH2      OT      -0.834000       15.9994           0
     70970 W2       24392    TIP3     H1       HT       0.417000       1.00800           0
     70971 W2       24392    TIP3     H2       HT       0.417000       1.00800           0
     70972 W2       24395    TIP3     OH2      OT      -0.834000       15.9994           0
     70973 W2       24395    TIP3     H1       HT       0.417000       1.00800           0
     70974 W2       24395    TIP3     H2       HT       0.417000       1.00800           0
     70975 W2       24396    TIP3     OH2      OT      -0.834000       15.9994           0
     70976 W2       24396    TIP3     H1       HT       0.417000       1.00800           0
     70977 W2       24396    TIP3     H2       HT       0.417000       1.00800           0
     70978 W2       24397    TIP3     OH2      OT      -0.834000       15.9994           0
     70979 W2       24397    TIP3     H1       HT       0.417000       1.00800           0
     70980 W2       24397    TIP3     H2       HT       0.417000       1.00800           0
     70981 W2       24398    TIP3     OH2      OT      -0.834000       15.9994           0
     70982 W2       24398    TIP3     H1       HT       0.417000       1.00800           0
     70983 W2       24398    TIP3     H2       HT       0.417000       1.00800           0
     70984 W2       24399    TIP3     OH2      OT      -0.834000       15.9994           0
     70985 W2       24399    TIP3     H1       HT       0.417000       1.00800           0
     70986 W2       24399    TIP3     H2       HT       0.417000       1.00800           0
     70987 W2       24400    TIP3     OH2      OT      -0.834000       15.9994           0
     70988 W2       24400    TIP3     H1       HT       0.417000       1.00800           0
     70989 W2       24400    TIP3     H2       HT       0.417000       1.00800           0
     70990 W2       24401    TIP3     OH2      OT      -0.834000       15.9994           0
     70991 W2       24401    TIP3     H1       HT       0.417000       1.00800           0
     70992 W2       24401    TIP3     H2       HT       0.417000       1.00800           0
     70993 W2       24402    TIP3     OH2      OT      -0.834000       15.9994           0
     70994 W2       24402    TIP3     H1       HT       0.417000       1.00800           0
     70995 W2       24402    TIP3     H2       HT       0.417000       1.00800           0
     70996 W2       24405    TIP3     OH2      OT      -0.834000       15.9994           0
     70997 W2       24405    TIP3     H1       HT       0.417000       1.00800           0
     70998 W2       24405    TIP3     H2       HT       0.417000       1.00800           0
     70999 W2       24406    TIP3     OH2      OT      -0.834000       15.9994           0
     71000 W2       24406    TIP3     H1       HT       0.417000       1.00800           0
     71001 W2       24406    TIP3     H2       HT       0.417000       1.00800           0
     71002 W2       24407    TIP3     OH2      OT      -0.834000       15.9994           0
     71003 W2       24407    TIP3     H1       HT       0.417000       1.00800           0
     71004 W2       24407    TIP3     H2       HT       0.417000       1.00800           0
     71005 W2       24408    TIP3     OH2      OT      -0.834000       15.9994           0
     71006 W2       24408    TIP3     H1       HT       0.417000       1.00800           0
     71007 W2       24408    TIP3     H2       HT       0.417000       1.00800           0
     71008 W2       24411    TIP3     OH2      OT      -0.834000       15.9994           0
     71009 W2       24411    TIP3     H1       HT       0.417000       1.00800           0
     71010 W2       24411    TIP3     H2       HT       0.417000       1.00800           0
     71011 W2       24412    TIP3     OH2      OT      -0.834000       15.9994           0
     71012 W2       24412    TIP3     H1       HT       0.417000       1.00800           0
     71013 W2       24412    TIP3     H2       HT       0.417000       1.00800           0
     71014 W2       24413    TIP3     OH2      OT      -0.834000       15.9994           0
     71015 W2       24413    TIP3     H1       HT       0.417000       1.00800           0
     71016 W2       24413    TIP3     H2       HT       0.417000       1.00800           0
     71017 W2       24415    TIP3     OH2      OT      -0.834000       15.9994           0
     71018 W2       24415    TIP3     H1       HT       0.417000       1.00800           0
     71019 W2       24415    TIP3     H2       HT       0.417000       1.00800           0
     71020 W2       24416    TIP3     OH2      OT      -0.834000       15.9994           0
     71021 W2       24416    TIP3     H1       HT       0.417000       1.00800           0
     71022 W2       24416    TIP3     H2       HT       0.417000       1.00800           0
     71023 W2       24417    TIP3     OH2      OT      -0.834000       15.9994           0
     71024 W2       24417    TIP3     H1       HT       0.417000       1.00800           0
     71025 W2       24417    TIP3     H2       HT       0.417000       1.00800           0
     71026 W2       24418    TIP3     OH2      OT      -0.834000       15.9994           0
     71027 W2       24418    TIP3     H1       HT       0.417000       1.00800           0
     71028 W2       24418    TIP3     H2       HT       0.417000       1.00800           0
     71029 W2       24420    TIP3     OH2      OT      -0.834000       15.9994           0
     71030 W2       24420    TIP3     H1       HT       0.417000       1.00800           0
     71031 W2       24420    TIP3     H2       HT       0.417000       1.00800           0
     71032 W2       24424    TIP3     OH2      OT      -0.834000       15.9994           0
     71033 W2       24424    TIP3     H1       HT       0.417000       1.00800           0
     71034 W2       24424    TIP3     H2       HT       0.417000       1.00800           0
     71035 W2       24425    TIP3     OH2      OT      -0.834000       15.9994           0
     71036 W2       24425    TIP3     H1       HT       0.417000       1.00800           0
     71037 W2       24425    TIP3     H2       HT       0.417000       1.00800           0
     71038 W2       24426    TIP3     OH2      OT      -0.834000       15.9994           0
     71039 W2       24426    TIP3     H1       HT       0.417000       1.00800           0
     71040 W2       24426    TIP3     H2       HT       0.417000       1.00800           0
     71041 W2       24427    TIP3     OH2      OT      -0.834000       15.9994           0
     71042 W2       24427    TIP3     H1       HT       0.417000       1.00800           0
     71043 W2       24427    TIP3     H2       HT       0.417000       1.00800           0
     71044 W2       24428    TIP3     OH2      OT      -0.834000       15.9994           0
     71045 W2       24428    TIP3     H1       HT       0.417000       1.00800           0
     71046 W2       24428    TIP3     H2       HT       0.417000       1.00800           0
     71047 W2       24429    TIP3     OH2      OT      -0.834000       15.9994           0
     71048 W2       24429    TIP3     H1       HT       0.417000       1.00800           0
     71049 W2       24429    TIP3     H2       HT       0.417000       1.00800           0
     71050 W2       24430    TIP3     OH2      OT      -0.834000       15.9994           0
     71051 W2       24430    TIP3     H1       HT       0.417000       1.00800           0
     71052 W2       24430    TIP3     H2       HT       0.417000       1.00800           0
     71053 W2       24431    TIP3     OH2      OT      -0.834000       15.9994           0
     71054 W2       24431    TIP3     H1       HT       0.417000       1.00800           0
     71055 W2       24431    TIP3     H2       HT       0.417000       1.00800           0
     71056 W2       24432    TIP3     OH2      OT      -0.834000       15.9994           0
     71057 W2       24432    TIP3     H1       HT       0.417000       1.00800           0
     71058 W2       24432    TIP3     H2       HT       0.417000       1.00800           0
     71059 W2       24433    TIP3     OH2      OT      -0.834000       15.9994           0
     71060 W2       24433    TIP3     H1       HT       0.417000       1.00800           0
     71061 W2       24433    TIP3     H2       HT       0.417000       1.00800           0
     71062 W2       24434    TIP3     OH2      OT      -0.834000       15.9994           0
     71063 W2       24434    TIP3     H1       HT       0.417000       1.00800           0
     71064 W2       24434    TIP3     H2       HT       0.417000       1.00800           0
     71065 W2       24435    TIP3     OH2      OT      -0.834000       15.9994           0
     71066 W2       24435    TIP3     H1       HT       0.417000       1.00800           0
     71067 W2       24435    TIP3     H2       HT       0.417000       1.00800           0
     71068 W2       24436    TIP3     OH2      OT      -0.834000       15.9994           0
     71069 W2       24436    TIP3     H1       HT       0.417000       1.00800           0
     71070 W2       24436    TIP3     H2       HT       0.417000       1.00800           0
     71071 W2       24437    TIP3     OH2      OT      -0.834000       15.9994           0
     71072 W2       24437    TIP3     H1       HT       0.417000       1.00800           0
     71073 W2       24437    TIP3     H2       HT       0.417000       1.00800           0
     71074 W2       24438    TIP3     OH2      OT      -0.834000       15.9994           0
     71075 W2       24438    TIP3     H1       HT       0.417000       1.00800           0
     71076 W2       24438    TIP3     H2       HT       0.417000       1.00800           0
     71077 W2       24439    TIP3     OH2      OT      -0.834000       15.9994           0
     71078 W2       24439    TIP3     H1       HT       0.417000       1.00800           0
     71079 W2       24439    TIP3     H2       HT       0.417000       1.00800           0
     71080 W2       24440    TIP3     OH2      OT      -0.834000       15.9994           0
     71081 W2       24440    TIP3     H1       HT       0.417000       1.00800           0
     71082 W2       24440    TIP3     H2       HT       0.417000       1.00800           0
     71083 W2       24441    TIP3     OH2      OT      -0.834000       15.9994           0
     71084 W2       24441    TIP3     H1       HT       0.417000       1.00800           0
     71085 W2       24441    TIP3     H2       HT       0.417000       1.00800           0
     71086 W2       24442    TIP3     OH2      OT      -0.834000       15.9994           0
     71087 W2       24442    TIP3     H1       HT       0.417000       1.00800           0
     71088 W2       24442    TIP3     H2       HT       0.417000       1.00800           0
     71089 W2       24443    TIP3     OH2      OT      -0.834000       15.9994           0
     71090 W2       24443    TIP3     H1       HT       0.417000       1.00800           0
     71091 W2       24443    TIP3     H2       HT       0.417000       1.00800           0
     71092 W2       24444    TIP3     OH2      OT      -0.834000       15.9994           0
     71093 W2       24444    TIP3     H1       HT       0.417000       1.00800           0
     71094 W2       24444    TIP3     H2       HT       0.417000       1.00800           0
     71095 W2       24447    TIP3     OH2      OT      -0.834000       15.9994           0
     71096 W2       24447    TIP3     H1       HT       0.417000       1.00800           0
     71097 W2       24447    TIP3     H2       HT       0.417000       1.00800           0
     71098 W2       24450    TIP3     OH2      OT      -0.834000       15.9994           0
     71099 W2       24450    TIP3     H1       HT       0.417000       1.00800           0
     71100 W2       24450    TIP3     H2       HT       0.417000       1.00800           0
     71101 W2       24451    TIP3     OH2      OT      -0.834000       15.9994           0
     71102 W2       24451    TIP3     H1       HT       0.417000       1.00800           0
     71103 W2       24451    TIP3     H2       HT       0.417000       1.00800           0
     71104 W2       24452    TIP3     OH2      OT      -0.834000       15.9994           0
     71105 W2       24452    TIP3     H1       HT       0.417000       1.00800           0
     71106 W2       24452    TIP3     H2       HT       0.417000       1.00800           0
     71107 W2       24453    TIP3     OH2      OT      -0.834000       15.9994           0
     71108 W2       24453    TIP3     H1       HT       0.417000       1.00800           0
     71109 W2       24453    TIP3     H2       HT       0.417000       1.00800           0
     71110 W2       24454    TIP3     OH2      OT      -0.834000       15.9994           0
     71111 W2       24454    TIP3     H1       HT       0.417000       1.00800           0
     71112 W2       24454    TIP3     H2       HT       0.417000       1.00800           0
     71113 W2       24455    TIP3     OH2      OT      -0.834000       15.9994           0
     71114 W2       24455    TIP3     H1       HT       0.417000       1.00800           0
     71115 W2       24455    TIP3     H2       HT       0.417000       1.00800           0
     71116 W2       24456    TIP3     OH2      OT      -0.834000       15.9994           0
     71117 W2       24456    TIP3     H1       HT       0.417000       1.00800           0
     71118 W2       24456    TIP3     H2       HT       0.417000       1.00800           0
     71119 W2       24457    TIP3     OH2      OT      -0.834000       15.9994           0
     71120 W2       24457    TIP3     H1       HT       0.417000       1.00800           0
     71121 W2       24457    TIP3     H2       HT       0.417000       1.00800           0
     71122 W2       24458    TIP3     OH2      OT      -0.834000       15.9994           0
     71123 W2       24458    TIP3     H1       HT       0.417000       1.00800           0
     71124 W2       24458    TIP3     H2       HT       0.417000       1.00800           0
     71125 W2       24459    TIP3     OH2      OT      -0.834000       15.9994           0
     71126 W2       24459    TIP3     H1       HT       0.417000       1.00800           0
     71127 W2       24459    TIP3     H2       HT       0.417000       1.00800           0
     71128 W2       24460    TIP3     OH2      OT      -0.834000       15.9994           0
     71129 W2       24460    TIP3     H1       HT       0.417000       1.00800           0
     71130 W2       24460    TIP3     H2       HT       0.417000       1.00800           0
     71131 W2       24461    TIP3     OH2      OT      -0.834000       15.9994           0
     71132 W2       24461    TIP3     H1       HT       0.417000       1.00800           0
     71133 W2       24461    TIP3     H2       HT       0.417000       1.00800           0
     71134 W2       24462    TIP3     OH2      OT      -0.834000       15.9994           0
     71135 W2       24462    TIP3     H1       HT       0.417000       1.00800           0
     71136 W2       24462    TIP3     H2       HT       0.417000       1.00800           0
     71137 W2       24463    TIP3     OH2      OT      -0.834000       15.9994           0
     71138 W2       24463    TIP3     H1       HT       0.417000       1.00800           0
     71139 W2       24463    TIP3     H2       HT       0.417000       1.00800           0
     71140 W2       24464    TIP3     OH2      OT      -0.834000       15.9994           0
     71141 W2       24464    TIP3     H1       HT       0.417000       1.00800           0
     71142 W2       24464    TIP3     H2       HT       0.417000       1.00800           0
     71143 W2       24466    TIP3     OH2      OT      -0.834000       15.9994           0
     71144 W2       24466    TIP3     H1       HT       0.417000       1.00800           0
     71145 W2       24466    TIP3     H2       HT       0.417000       1.00800           0
     71146 W2       24467    TIP3     OH2      OT      -0.834000       15.9994           0
     71147 W2       24467    TIP3     H1       HT       0.417000       1.00800           0
     71148 W2       24467    TIP3     H2       HT       0.417000       1.00800           0
     71149 W2       24468    TIP3     OH2      OT      -0.834000       15.9994           0
     71150 W2       24468    TIP3     H1       HT       0.417000       1.00800           0
     71151 W2       24468    TIP3     H2       HT       0.417000       1.00800           0
     71152 W2       24469    TIP3     OH2      OT      -0.834000       15.9994           0
     71153 W2       24469    TIP3     H1       HT       0.417000       1.00800           0
     71154 W2       24469    TIP3     H2       HT       0.417000       1.00800           0
     71155 W2       24470    TIP3     OH2      OT      -0.834000       15.9994           0
     71156 W2       24470    TIP3     H1       HT       0.417000       1.00800           0
     71157 W2       24470    TIP3     H2       HT       0.417000       1.00800           0
     71158 W2       24471    TIP3     OH2      OT      -0.834000       15.9994           0
     71159 W2       24471    TIP3     H1       HT       0.417000       1.00800           0
     71160 W2       24471    TIP3     H2       HT       0.417000       1.00800           0
     71161 W2       24472    TIP3     OH2      OT      -0.834000       15.9994           0
     71162 W2       24472    TIP3     H1       HT       0.417000       1.00800           0
     71163 W2       24472    TIP3     H2       HT       0.417000       1.00800           0
     71164 W2       24473    TIP3     OH2      OT      -0.834000       15.9994           0
     71165 W2       24473    TIP3     H1       HT       0.417000       1.00800           0
     71166 W2       24473    TIP3     H2       HT       0.417000       1.00800           0
     71167 W2       24474    TIP3     OH2      OT      -0.834000       15.9994           0
     71168 W2       24474    TIP3     H1       HT       0.417000       1.00800           0
     71169 W2       24474    TIP3     H2       HT       0.417000       1.00800           0
     71170 W2       24475    TIP3     OH2      OT      -0.834000       15.9994           0
     71171 W2       24475    TIP3     H1       HT       0.417000       1.00800           0
     71172 W2       24475    TIP3     H2       HT       0.417000       1.00800           0
     71173 W2       24476    TIP3     OH2      OT      -0.834000       15.9994           0
     71174 W2       24476    TIP3     H1       HT       0.417000       1.00800           0
     71175 W2       24476    TIP3     H2       HT       0.417000       1.00800           0
     71176 W2       24477    TIP3     OH2      OT      -0.834000       15.9994           0
     71177 W2       24477    TIP3     H1       HT       0.417000       1.00800           0
     71178 W2       24477    TIP3     H2       HT       0.417000       1.00800           0
     71179 W2       24479    TIP3     OH2      OT      -0.834000       15.9994           0
     71180 W2       24479    TIP3     H1       HT       0.417000       1.00800           0
     71181 W2       24479    TIP3     H2       HT       0.417000       1.00800           0
     71182 W2       24480    TIP3     OH2      OT      -0.834000       15.9994           0
     71183 W2       24480    TIP3     H1       HT       0.417000       1.00800           0
     71184 W2       24480    TIP3     H2       HT       0.417000       1.00800           0
     71185 W2       24481    TIP3     OH2      OT      -0.834000       15.9994           0
     71186 W2       24481    TIP3     H1       HT       0.417000       1.00800           0
     71187 W2       24481    TIP3     H2       HT       0.417000       1.00800           0
     71188 W2       24482    TIP3     OH2      OT      -0.834000       15.9994           0
     71189 W2       24482    TIP3     H1       HT       0.417000       1.00800           0
     71190 W2       24482    TIP3     H2       HT       0.417000       1.00800           0
     71191 W2       24484    TIP3     OH2      OT      -0.834000       15.9994           0
     71192 W2       24484    TIP3     H1       HT       0.417000       1.00800           0
     71193 W2       24484    TIP3     H2       HT       0.417000       1.00800           0
     71194 W2       24485    TIP3     OH2      OT      -0.834000       15.9994           0
     71195 W2       24485    TIP3     H1       HT       0.417000       1.00800           0
     71196 W2       24485    TIP3     H2       HT       0.417000       1.00800           0
     71197 W2       24486    TIP3     OH2      OT      -0.834000       15.9994           0
     71198 W2       24486    TIP3     H1       HT       0.417000       1.00800           0
     71199 W2       24486    TIP3     H2       HT       0.417000       1.00800           0
     71200 W2       24487    TIP3     OH2      OT      -0.834000       15.9994           0
     71201 W2       24487    TIP3     H1       HT       0.417000       1.00800           0
     71202 W2       24487    TIP3     H2       HT       0.417000       1.00800           0
     71203 W2       24489    TIP3     OH2      OT      -0.834000       15.9994           0
     71204 W2       24489    TIP3     H1       HT       0.417000       1.00800           0
     71205 W2       24489    TIP3     H2       HT       0.417000       1.00800           0
     71206 W2       24491    TIP3     OH2      OT      -0.834000       15.9994           0
     71207 W2       24491    TIP3     H1       HT       0.417000       1.00800           0
     71208 W2       24491    TIP3     H2       HT       0.417000       1.00800           0
     71209 W2       24493    TIP3     OH2      OT      -0.834000       15.9994           0
     71210 W2       24493    TIP3     H1       HT       0.417000       1.00800           0
     71211 W2       24493    TIP3     H2       HT       0.417000       1.00800           0
     71212 W2       24494    TIP3     OH2      OT      -0.834000       15.9994           0
     71213 W2       24494    TIP3     H1       HT       0.417000       1.00800           0
     71214 W2       24494    TIP3     H2       HT       0.417000       1.00800           0
     71215 W2       24495    TIP3     OH2      OT      -0.834000       15.9994           0
     71216 W2       24495    TIP3     H1       HT       0.417000       1.00800           0
     71217 W2       24495    TIP3     H2       HT       0.417000       1.00800           0
     71218 W2       24496    TIP3     OH2      OT      -0.834000       15.9994           0
     71219 W2       24496    TIP3     H1       HT       0.417000       1.00800           0
     71220 W2       24496    TIP3     H2       HT       0.417000       1.00800           0
     71221 W2       24497    TIP3     OH2      OT      -0.834000       15.9994           0
     71222 W2       24497    TIP3     H1       HT       0.417000       1.00800           0
     71223 W2       24497    TIP3     H2       HT       0.417000       1.00800           0
     71224 W2       24500    TIP3     OH2      OT      -0.834000       15.9994           0
     71225 W2       24500    TIP3     H1       HT       0.417000       1.00800           0
     71226 W2       24500    TIP3     H2       HT       0.417000       1.00800           0
     71227 W2       24501    TIP3     OH2      OT      -0.834000       15.9994           0
     71228 W2       24501    TIP3     H1       HT       0.417000       1.00800           0
     71229 W2       24501    TIP3     H2       HT       0.417000       1.00800           0
     71230 W2       24502    TIP3     OH2      OT      -0.834000       15.9994           0
     71231 W2       24502    TIP3     H1       HT       0.417000       1.00800           0
     71232 W2       24502    TIP3     H2       HT       0.417000       1.00800           0
     71233 W2       24503    TIP3     OH2      OT      -0.834000       15.9994           0
     71234 W2       24503    TIP3     H1       HT       0.417000       1.00800           0
     71235 W2       24503    TIP3     H2       HT       0.417000       1.00800           0
     71236 W2       24506    TIP3     OH2      OT      -0.834000       15.9994           0
     71237 W2       24506    TIP3     H1       HT       0.417000       1.00800           0
     71238 W2       24506    TIP3     H2       HT       0.417000       1.00800           0
     71239 W2       24509    TIP3     OH2      OT      -0.834000       15.9994           0
     71240 W2       24509    TIP3     H1       HT       0.417000       1.00800           0
     71241 W2       24509    TIP3     H2       HT       0.417000       1.00800           0
     71242 W2       24510    TIP3     OH2      OT      -0.834000       15.9994           0
     71243 W2       24510    TIP3     H1       HT       0.417000       1.00800           0
     71244 W2       24510    TIP3     H2       HT       0.417000       1.00800           0
     71245 W2       24511    TIP3     OH2      OT      -0.834000       15.9994           0
     71246 W2       24511    TIP3     H1       HT       0.417000       1.00800           0
     71247 W2       24511    TIP3     H2       HT       0.417000       1.00800           0
     71248 W2       24512    TIP3     OH2      OT      -0.834000       15.9994           0
     71249 W2       24512    TIP3     H1       HT       0.417000       1.00800           0
     71250 W2       24512    TIP3     H2       HT       0.417000       1.00800           0
     71251 W2       24513    TIP3     OH2      OT      -0.834000       15.9994           0
     71252 W2       24513    TIP3     H1       HT       0.417000       1.00800           0
     71253 W2       24513    TIP3     H2       HT       0.417000       1.00800           0
     71254 W2       24515    TIP3     OH2      OT      -0.834000       15.9994           0
     71255 W2       24515    TIP3     H1       HT       0.417000       1.00800           0
     71256 W2       24515    TIP3     H2       HT       0.417000       1.00800           0
     71257 W2       24516    TIP3     OH2      OT      -0.834000       15.9994           0
     71258 W2       24516    TIP3     H1       HT       0.417000       1.00800           0
     71259 W2       24516    TIP3     H2       HT       0.417000       1.00800           0
     71260 W2       24517    TIP3     OH2      OT      -0.834000       15.9994           0
     71261 W2       24517    TIP3     H1       HT       0.417000       1.00800           0
     71262 W2       24517    TIP3     H2       HT       0.417000       1.00800           0
     71263 W2       24518    TIP3     OH2      OT      -0.834000       15.9994           0
     71264 W2       24518    TIP3     H1       HT       0.417000       1.00800           0
     71265 W2       24518    TIP3     H2       HT       0.417000       1.00800           0
     71266 W2       24519    TIP3     OH2      OT      -0.834000       15.9994           0
     71267 W2       24519    TIP3     H1       HT       0.417000       1.00800           0
     71268 W2       24519    TIP3     H2       HT       0.417000       1.00800           0
     71269 W2       24520    TIP3     OH2      OT      -0.834000       15.9994           0
     71270 W2       24520    TIP3     H1       HT       0.417000       1.00800           0
     71271 W2       24520    TIP3     H2       HT       0.417000       1.00800           0
     71272 W2       24521    TIP3     OH2      OT      -0.834000       15.9994           0
     71273 W2       24521    TIP3     H1       HT       0.417000       1.00800           0
     71274 W2       24521    TIP3     H2       HT       0.417000       1.00800           0
     71275 W2       24522    TIP3     OH2      OT      -0.834000       15.9994           0
     71276 W2       24522    TIP3     H1       HT       0.417000       1.00800           0
     71277 W2       24522    TIP3     H2       HT       0.417000       1.00800           0
     71278 W2       24523    TIP3     OH2      OT      -0.834000       15.9994           0
     71279 W2       24523    TIP3     H1       HT       0.417000       1.00800           0
     71280 W2       24523    TIP3     H2       HT       0.417000       1.00800           0
     71281 W2       24524    TIP3     OH2      OT      -0.834000       15.9994           0
     71282 W2       24524    TIP3     H1       HT       0.417000       1.00800           0
     71283 W2       24524    TIP3     H2       HT       0.417000       1.00800           0
     71284 W2       24525    TIP3     OH2      OT      -0.834000       15.9994           0
     71285 W2       24525    TIP3     H1       HT       0.417000       1.00800           0
     71286 W2       24525    TIP3     H2       HT       0.417000       1.00800           0
     71287 W2       24528    TIP3     OH2      OT      -0.834000       15.9994           0
     71288 W2       24528    TIP3     H1       HT       0.417000       1.00800           0
     71289 W2       24528    TIP3     H2       HT       0.417000       1.00800           0
     71290 W2       24529    TIP3     OH2      OT      -0.834000       15.9994           0
     71291 W2       24529    TIP3     H1       HT       0.417000       1.00800           0
     71292 W2       24529    TIP3     H2       HT       0.417000       1.00800           0
     71293 W2       24530    TIP3     OH2      OT      -0.834000       15.9994           0
     71294 W2       24530    TIP3     H1       HT       0.417000       1.00800           0
     71295 W2       24530    TIP3     H2       HT       0.417000       1.00800           0
     71296 W2       24531    TIP3     OH2      OT      -0.834000       15.9994           0
     71297 W2       24531    TIP3     H1       HT       0.417000       1.00800           0
     71298 W2       24531    TIP3     H2       HT       0.417000       1.00800           0
     71299 W2       24532    TIP3     OH2      OT      -0.834000       15.9994           0
     71300 W2       24532    TIP3     H1       HT       0.417000       1.00800           0
     71301 W2       24532    TIP3     H2       HT       0.417000       1.00800           0
     71302 W2       24533    TIP3     OH2      OT      -0.834000       15.9994           0
     71303 W2       24533    TIP3     H1       HT       0.417000       1.00800           0
     71304 W2       24533    TIP3     H2       HT       0.417000       1.00800           0
     71305 W2       24535    TIP3     OH2      OT      -0.834000       15.9994           0
     71306 W2       24535    TIP3     H1       HT       0.417000       1.00800           0
     71307 W2       24535    TIP3     H2       HT       0.417000       1.00800           0
     71308 W2       24536    TIP3     OH2      OT      -0.834000       15.9994           0
     71309 W2       24536    TIP3     H1       HT       0.417000       1.00800           0
     71310 W2       24536    TIP3     H2       HT       0.417000       1.00800           0
     71311 W2       24537    TIP3     OH2      OT      -0.834000       15.9994           0
     71312 W2       24537    TIP3     H1       HT       0.417000       1.00800           0
     71313 W2       24537    TIP3     H2       HT       0.417000       1.00800           0
     71314 W2       24541    TIP3     OH2      OT      -0.834000       15.9994           0
     71315 W2       24541    TIP3     H1       HT       0.417000       1.00800           0
     71316 W2       24541    TIP3     H2       HT       0.417000       1.00800           0
     71317 W2       24543    TIP3     OH2      OT      -0.834000       15.9994           0
     71318 W2       24543    TIP3     H1       HT       0.417000       1.00800           0
     71319 W2       24543    TIP3     H2       HT       0.417000       1.00800           0
     71320 W2       24544    TIP3     OH2      OT      -0.834000       15.9994           0
     71321 W2       24544    TIP3     H1       HT       0.417000       1.00800           0
     71322 W2       24544    TIP3     H2       HT       0.417000       1.00800           0
     71323 W2       24545    TIP3     OH2      OT      -0.834000       15.9994           0
     71324 W2       24545    TIP3     H1       HT       0.417000       1.00800           0
     71325 W2       24545    TIP3     H2       HT       0.417000       1.00800           0
     71326 W2       24546    TIP3     OH2      OT      -0.834000       15.9994           0
     71327 W2       24546    TIP3     H1       HT       0.417000       1.00800           0
     71328 W2       24546    TIP3     H2       HT       0.417000       1.00800           0
     71329 W2       24547    TIP3     OH2      OT      -0.834000       15.9994           0
     71330 W2       24547    TIP3     H1       HT       0.417000       1.00800           0
     71331 W2       24547    TIP3     H2       HT       0.417000       1.00800           0
     71332 W2       24548    TIP3     OH2      OT      -0.834000       15.9994           0
     71333 W2       24548    TIP3     H1       HT       0.417000       1.00800           0
     71334 W2       24548    TIP3     H2       HT       0.417000       1.00800           0
     71335 W2       24549    TIP3     OH2      OT      -0.834000       15.9994           0
     71336 W2       24549    TIP3     H1       HT       0.417000       1.00800           0
     71337 W2       24549    TIP3     H2       HT       0.417000       1.00800           0
     71338 W2       24550    TIP3     OH2      OT      -0.834000       15.9994           0
     71339 W2       24550    TIP3     H1       HT       0.417000       1.00800           0
     71340 W2       24550    TIP3     H2       HT       0.417000       1.00800           0
     71341 W2       24551    TIP3     OH2      OT      -0.834000       15.9994           0
     71342 W2       24551    TIP3     H1       HT       0.417000       1.00800           0
     71343 W2       24551    TIP3     H2       HT       0.417000       1.00800           0
     71344 W2       24553    TIP3     OH2      OT      -0.834000       15.9994           0
     71345 W2       24553    TIP3     H1       HT       0.417000       1.00800           0
     71346 W2       24553    TIP3     H2       HT       0.417000       1.00800           0
     71347 W2       24555    TIP3     OH2      OT      -0.834000       15.9994           0
     71348 W2       24555    TIP3     H1       HT       0.417000       1.00800           0
     71349 W2       24555    TIP3     H2       HT       0.417000       1.00800           0
     71350 W2       24556    TIP3     OH2      OT      -0.834000       15.9994           0
     71351 W2       24556    TIP3     H1       HT       0.417000       1.00800           0
     71352 W2       24556    TIP3     H2       HT       0.417000       1.00800           0
     71353 W2       24557    TIP3     OH2      OT      -0.834000       15.9994           0
     71354 W2       24557    TIP3     H1       HT       0.417000       1.00800           0
     71355 W2       24557    TIP3     H2       HT       0.417000       1.00800           0
     71356 W2       24558    TIP3     OH2      OT      -0.834000       15.9994           0
     71357 W2       24558    TIP3     H1       HT       0.417000       1.00800           0
     71358 W2       24558    TIP3     H2       HT       0.417000       1.00800           0
     71359 W2       24559    TIP3     OH2      OT      -0.834000       15.9994           0
     71360 W2       24559    TIP3     H1       HT       0.417000       1.00800           0
     71361 W2       24559    TIP3     H2       HT       0.417000       1.00800           0
     71362 W2       24560    TIP3     OH2      OT      -0.834000       15.9994           0
     71363 W2       24560    TIP3     H1       HT       0.417000       1.00800           0
     71364 W2       24560    TIP3     H2       HT       0.417000       1.00800           0
     71365 W2       24561    TIP3     OH2      OT      -0.834000       15.9994           0
     71366 W2       24561    TIP3     H1       HT       0.417000       1.00800           0
     71367 W2       24561    TIP3     H2       HT       0.417000       1.00800           0
     71368 W2       24562    TIP3     OH2      OT      -0.834000       15.9994           0
     71369 W2       24562    TIP3     H1       HT       0.417000       1.00800           0
     71370 W2       24562    TIP3     H2       HT       0.417000       1.00800           0
     71371 W2       24563    TIP3     OH2      OT      -0.834000       15.9994           0
     71372 W2       24563    TIP3     H1       HT       0.417000       1.00800           0
     71373 W2       24563    TIP3     H2       HT       0.417000       1.00800           0
     71374 W2       24565    TIP3     OH2      OT      -0.834000       15.9994           0
     71375 W2       24565    TIP3     H1       HT       0.417000       1.00800           0
     71376 W2       24565    TIP3     H2       HT       0.417000       1.00800           0
     71377 W2       24566    TIP3     OH2      OT      -0.834000       15.9994           0
     71378 W2       24566    TIP3     H1       HT       0.417000       1.00800           0
     71379 W2       24566    TIP3     H2       HT       0.417000       1.00800           0
     71380 W2       24567    TIP3     OH2      OT      -0.834000       15.9994           0
     71381 W2       24567    TIP3     H1       HT       0.417000       1.00800           0
     71382 W2       24567    TIP3     H2       HT       0.417000       1.00800           0
     71383 W2       24569    TIP3     OH2      OT      -0.834000       15.9994           0
     71384 W2       24569    TIP3     H1       HT       0.417000       1.00800           0
     71385 W2       24569    TIP3     H2       HT       0.417000       1.00800           0
     71386 W2       24570    TIP3     OH2      OT      -0.834000       15.9994           0
     71387 W2       24570    TIP3     H1       HT       0.417000       1.00800           0
     71388 W2       24570    TIP3     H2       HT       0.417000       1.00800           0
     71389 W2       24571    TIP3     OH2      OT      -0.834000       15.9994           0
     71390 W2       24571    TIP3     H1       HT       0.417000       1.00800           0
     71391 W2       24571    TIP3     H2       HT       0.417000       1.00800           0
     71392 W2       24572    TIP3     OH2      OT      -0.834000       15.9994           0
     71393 W2       24572    TIP3     H1       HT       0.417000       1.00800           0
     71394 W2       24572    TIP3     H2       HT       0.417000       1.00800           0
     71395 W2       24573    TIP3     OH2      OT      -0.834000       15.9994           0
     71396 W2       24573    TIP3     H1       HT       0.417000       1.00800           0
     71397 W2       24573    TIP3     H2       HT       0.417000       1.00800           0
     71398 W2       24574    TIP3     OH2      OT      -0.834000       15.9994           0
     71399 W2       24574    TIP3     H1       HT       0.417000       1.00800           0
     71400 W2       24574    TIP3     H2       HT       0.417000       1.00800           0
     71401 W2       24577    TIP3     OH2      OT      -0.834000       15.9994           0
     71402 W2       24577    TIP3     H1       HT       0.417000       1.00800           0
     71403 W2       24577    TIP3     H2       HT       0.417000       1.00800           0
     71404 W2       24579    TIP3     OH2      OT      -0.834000       15.9994           0
     71405 W2       24579    TIP3     H1       HT       0.417000       1.00800           0
     71406 W2       24579    TIP3     H2       HT       0.417000       1.00800           0
     71407 W2       24581    TIP3     OH2      OT      -0.834000       15.9994           0
     71408 W2       24581    TIP3     H1       HT       0.417000       1.00800           0
     71409 W2       24581    TIP3     H2       HT       0.417000       1.00800           0
     71410 W2       24583    TIP3     OH2      OT      -0.834000       15.9994           0
     71411 W2       24583    TIP3     H1       HT       0.417000       1.00800           0
     71412 W2       24583    TIP3     H2       HT       0.417000       1.00800           0
     71413 W2       24586    TIP3     OH2      OT      -0.834000       15.9994           0
     71414 W2       24586    TIP3     H1       HT       0.417000       1.00800           0
     71415 W2       24586    TIP3     H2       HT       0.417000       1.00800           0
     71416 W2       24588    TIP3     OH2      OT      -0.834000       15.9994           0
     71417 W2       24588    TIP3     H1       HT       0.417000       1.00800           0
     71418 W2       24588    TIP3     H2       HT       0.417000       1.00800           0
     71419 W2       24590    TIP3     OH2      OT      -0.834000       15.9994           0
     71420 W2       24590    TIP3     H1       HT       0.417000       1.00800           0
     71421 W2       24590    TIP3     H2       HT       0.417000       1.00800           0
     71422 W2       24592    TIP3     OH2      OT      -0.834000       15.9994           0
     71423 W2       24592    TIP3     H1       HT       0.417000       1.00800           0
     71424 W2       24592    TIP3     H2       HT       0.417000       1.00800           0
     71425 W2       24604    TIP3     OH2      OT      -0.834000       15.9994           0
     71426 W2       24604    TIP3     H1       HT       0.417000       1.00800           0
     71427 W2       24604    TIP3     H2       HT       0.417000       1.00800           0
     71428 W2       24605    TIP3     OH2      OT      -0.834000       15.9994           0
     71429 W2       24605    TIP3     H1       HT       0.417000       1.00800           0
     71430 W2       24605    TIP3     H2       HT       0.417000       1.00800           0
     71431 W2       24606    TIP3     OH2      OT      -0.834000       15.9994           0
     71432 W2       24606    TIP3     H1       HT       0.417000       1.00800           0
     71433 W2       24606    TIP3     H2       HT       0.417000       1.00800           0
     71434 W2       24607    TIP3     OH2      OT      -0.834000       15.9994           0
     71435 W2       24607    TIP3     H1       HT       0.417000       1.00800           0
     71436 W2       24607    TIP3     H2       HT       0.417000       1.00800           0
     71437 W2       24608    TIP3     OH2      OT      -0.834000       15.9994           0
     71438 W2       24608    TIP3     H1       HT       0.417000       1.00800           0
     71439 W2       24608    TIP3     H2       HT       0.417000       1.00800           0
     71440 W2       24611    TIP3     OH2      OT      -0.834000       15.9994           0
     71441 W2       24611    TIP3     H1       HT       0.417000       1.00800           0
     71442 W2       24611    TIP3     H2       HT       0.417000       1.00800           0
     71443 W2       24612    TIP3     OH2      OT      -0.834000       15.9994           0
     71444 W2       24612    TIP3     H1       HT       0.417000       1.00800           0
     71445 W2       24612    TIP3     H2       HT       0.417000       1.00800           0
     71446 W2       24613    TIP3     OH2      OT      -0.834000       15.9994           0
     71447 W2       24613    TIP3     H1       HT       0.417000       1.00800           0
     71448 W2       24613    TIP3     H2       HT       0.417000       1.00800           0
     71449 W2       24614    TIP3     OH2      OT      -0.834000       15.9994           0
     71450 W2       24614    TIP3     H1       HT       0.417000       1.00800           0
     71451 W2       24614    TIP3     H2       HT       0.417000       1.00800           0
     71452 W2       24615    TIP3     OH2      OT      -0.834000       15.9994           0
     71453 W2       24615    TIP3     H1       HT       0.417000       1.00800           0
     71454 W2       24615    TIP3     H2       HT       0.417000       1.00800           0
     71455 W2       24616    TIP3     OH2      OT      -0.834000       15.9994           0
     71456 W2       24616    TIP3     H1       HT       0.417000       1.00800           0
     71457 W2       24616    TIP3     H2       HT       0.417000       1.00800           0
     71458 W2       24617    TIP3     OH2      OT      -0.834000       15.9994           0
     71459 W2       24617    TIP3     H1       HT       0.417000       1.00800           0
     71460 W2       24617    TIP3     H2       HT       0.417000       1.00800           0
     71461 W2       24618    TIP3     OH2      OT      -0.834000       15.9994           0
     71462 W2       24618    TIP3     H1       HT       0.417000       1.00800           0
     71463 W2       24618    TIP3     H2       HT       0.417000       1.00800           0
     71464 W2       24621    TIP3     OH2      OT      -0.834000       15.9994           0
     71465 W2       24621    TIP3     H1       HT       0.417000       1.00800           0
     71466 W2       24621    TIP3     H2       HT       0.417000       1.00800           0
     71467 W2       24622    TIP3     OH2      OT      -0.834000       15.9994           0
     71468 W2       24622    TIP3     H1       HT       0.417000       1.00800           0
     71469 W2       24622    TIP3     H2       HT       0.417000       1.00800           0
     71470 W2       24623    TIP3     OH2      OT      -0.834000       15.9994           0
     71471 W2       24623    TIP3     H1       HT       0.417000       1.00800           0
     71472 W2       24623    TIP3     H2       HT       0.417000       1.00800           0
     71473 W2       24624    TIP3     OH2      OT      -0.834000       15.9994           0
     71474 W2       24624    TIP3     H1       HT       0.417000       1.00800           0
     71475 W2       24624    TIP3     H2       HT       0.417000       1.00800           0
     71476 W2       24627    TIP3     OH2      OT      -0.834000       15.9994           0
     71477 W2       24627    TIP3     H1       HT       0.417000       1.00800           0
     71478 W2       24627    TIP3     H2       HT       0.417000       1.00800           0
     71479 W2       24628    TIP3     OH2      OT      -0.834000       15.9994           0
     71480 W2       24628    TIP3     H1       HT       0.417000       1.00800           0
     71481 W2       24628    TIP3     H2       HT       0.417000       1.00800           0
     71482 W2       24629    TIP3     OH2      OT      -0.834000       15.9994           0
     71483 W2       24629    TIP3     H1       HT       0.417000       1.00800           0
     71484 W2       24629    TIP3     H2       HT       0.417000       1.00800           0
     71485 W2       24631    TIP3     OH2      OT      -0.834000       15.9994           0
     71486 W2       24631    TIP3     H1       HT       0.417000       1.00800           0
     71487 W2       24631    TIP3     H2       HT       0.417000       1.00800           0
     71488 W2       24632    TIP3     OH2      OT      -0.834000       15.9994           0
     71489 W2       24632    TIP3     H1       HT       0.417000       1.00800           0
     71490 W2       24632    TIP3     H2       HT       0.417000       1.00800           0
     71491 W2       24633    TIP3     OH2      OT      -0.834000       15.9994           0
     71492 W2       24633    TIP3     H1       HT       0.417000       1.00800           0
     71493 W2       24633    TIP3     H2       HT       0.417000       1.00800           0
     71494 W2       24634    TIP3     OH2      OT      -0.834000       15.9994           0
     71495 W2       24634    TIP3     H1       HT       0.417000       1.00800           0
     71496 W2       24634    TIP3     H2       HT       0.417000       1.00800           0
     71497 W2       24636    TIP3     OH2      OT      -0.834000       15.9994           0
     71498 W2       24636    TIP3     H1       HT       0.417000       1.00800           0
     71499 W2       24636    TIP3     H2       HT       0.417000       1.00800           0
     71500 W2       24640    TIP3     OH2      OT      -0.834000       15.9994           0
     71501 W2       24640    TIP3     H1       HT       0.417000       1.00800           0
     71502 W2       24640    TIP3     H2       HT       0.417000       1.00800           0
     71503 W2       24641    TIP3     OH2      OT      -0.834000       15.9994           0
     71504 W2       24641    TIP3     H1       HT       0.417000       1.00800           0
     71505 W2       24641    TIP3     H2       HT       0.417000       1.00800           0
     71506 W2       24642    TIP3     OH2      OT      -0.834000       15.9994           0
     71507 W2       24642    TIP3     H1       HT       0.417000       1.00800           0
     71508 W2       24642    TIP3     H2       HT       0.417000       1.00800           0
     71509 W2       24643    TIP3     OH2      OT      -0.834000       15.9994           0
     71510 W2       24643    TIP3     H1       HT       0.417000       1.00800           0
     71511 W2       24643    TIP3     H2       HT       0.417000       1.00800           0
     71512 W2       24644    TIP3     OH2      OT      -0.834000       15.9994           0
     71513 W2       24644    TIP3     H1       HT       0.417000       1.00800           0
     71514 W2       24644    TIP3     H2       HT       0.417000       1.00800           0
     71515 W2       24645    TIP3     OH2      OT      -0.834000       15.9994           0
     71516 W2       24645    TIP3     H1       HT       0.417000       1.00800           0
     71517 W2       24645    TIP3     H2       HT       0.417000       1.00800           0
     71518 W2       24646    TIP3     OH2      OT      -0.834000       15.9994           0
     71519 W2       24646    TIP3     H1       HT       0.417000       1.00800           0
     71520 W2       24646    TIP3     H2       HT       0.417000       1.00800           0
     71521 W2       24647    TIP3     OH2      OT      -0.834000       15.9994           0
     71522 W2       24647    TIP3     H1       HT       0.417000       1.00800           0
     71523 W2       24647    TIP3     H2       HT       0.417000       1.00800           0
     71524 W2       24648    TIP3     OH2      OT      -0.834000       15.9994           0
     71525 W2       24648    TIP3     H1       HT       0.417000       1.00800           0
     71526 W2       24648    TIP3     H2       HT       0.417000       1.00800           0
     71527 W2       24649    TIP3     OH2      OT      -0.834000       15.9994           0
     71528 W2       24649    TIP3     H1       HT       0.417000       1.00800           0
     71529 W2       24649    TIP3     H2       HT       0.417000       1.00800           0
     71530 W2       24650    TIP3     OH2      OT      -0.834000       15.9994           0
     71531 W2       24650    TIP3     H1       HT       0.417000       1.00800           0
     71532 W2       24650    TIP3     H2       HT       0.417000       1.00800           0
     71533 W2       24651    TIP3     OH2      OT      -0.834000       15.9994           0
     71534 W2       24651    TIP3     H1       HT       0.417000       1.00800           0
     71535 W2       24651    TIP3     H2       HT       0.417000       1.00800           0
     71536 W2       24652    TIP3     OH2      OT      -0.834000       15.9994           0
     71537 W2       24652    TIP3     H1       HT       0.417000       1.00800           0
     71538 W2       24652    TIP3     H2       HT       0.417000       1.00800           0
     71539 W2       24653    TIP3     OH2      OT      -0.834000       15.9994           0
     71540 W2       24653    TIP3     H1       HT       0.417000       1.00800           0
     71541 W2       24653    TIP3     H2       HT       0.417000       1.00800           0
     71542 W2       24654    TIP3     OH2      OT      -0.834000       15.9994           0
     71543 W2       24654    TIP3     H1       HT       0.417000       1.00800           0
     71544 W2       24654    TIP3     H2       HT       0.417000       1.00800           0
     71545 W2       24655    TIP3     OH2      OT      -0.834000       15.9994           0
     71546 W2       24655    TIP3     H1       HT       0.417000       1.00800           0
     71547 W2       24655    TIP3     H2       HT       0.417000       1.00800           0
     71548 W2       24656    TIP3     OH2      OT      -0.834000       15.9994           0
     71549 W2       24656    TIP3     H1       HT       0.417000       1.00800           0
     71550 W2       24656    TIP3     H2       HT       0.417000       1.00800           0
     71551 W2       24657    TIP3     OH2      OT      -0.834000       15.9994           0
     71552 W2       24657    TIP3     H1       HT       0.417000       1.00800           0
     71553 W2       24657    TIP3     H2       HT       0.417000       1.00800           0
     71554 W2       24658    TIP3     OH2      OT      -0.834000       15.9994           0
     71555 W2       24658    TIP3     H1       HT       0.417000       1.00800           0
     71556 W2       24658    TIP3     H2       HT       0.417000       1.00800           0
     71557 W2       24659    TIP3     OH2      OT      -0.834000       15.9994           0
     71558 W2       24659    TIP3     H1       HT       0.417000       1.00800           0
     71559 W2       24659    TIP3     H2       HT       0.417000       1.00800           0
     71560 W2       24660    TIP3     OH2      OT      -0.834000       15.9994           0
     71561 W2       24660    TIP3     H1       HT       0.417000       1.00800           0
     71562 W2       24660    TIP3     H2       HT       0.417000       1.00800           0
     71563 W2       24663    TIP3     OH2      OT      -0.834000       15.9994           0
     71564 W2       24663    TIP3     H1       HT       0.417000       1.00800           0
     71565 W2       24663    TIP3     H2       HT       0.417000       1.00800           0
     71566 W2       24666    TIP3     OH2      OT      -0.834000       15.9994           0
     71567 W2       24666    TIP3     H1       HT       0.417000       1.00800           0
     71568 W2       24666    TIP3     H2       HT       0.417000       1.00800           0
     71569 W2       24667    TIP3     OH2      OT      -0.834000       15.9994           0
     71570 W2       24667    TIP3     H1       HT       0.417000       1.00800           0
     71571 W2       24667    TIP3     H2       HT       0.417000       1.00800           0
     71572 W2       24668    TIP3     OH2      OT      -0.834000       15.9994           0
     71573 W2       24668    TIP3     H1       HT       0.417000       1.00800           0
     71574 W2       24668    TIP3     H2       HT       0.417000       1.00800           0
     71575 W2       24669    TIP3     OH2      OT      -0.834000       15.9994           0
     71576 W2       24669    TIP3     H1       HT       0.417000       1.00800           0
     71577 W2       24669    TIP3     H2       HT       0.417000       1.00800           0
     71578 W2       24670    TIP3     OH2      OT      -0.834000       15.9994           0
     71579 W2       24670    TIP3     H1       HT       0.417000       1.00800           0
     71580 W2       24670    TIP3     H2       HT       0.417000       1.00800           0
     71581 W2       24671    TIP3     OH2      OT      -0.834000       15.9994           0
     71582 W2       24671    TIP3     H1       HT       0.417000       1.00800           0
     71583 W2       24671    TIP3     H2       HT       0.417000       1.00800           0
     71584 W2       24672    TIP3     OH2      OT      -0.834000       15.9994           0
     71585 W2       24672    TIP3     H1       HT       0.417000       1.00800           0
     71586 W2       24672    TIP3     H2       HT       0.417000       1.00800           0
     71587 W2       24673    TIP3     OH2      OT      -0.834000       15.9994           0
     71588 W2       24673    TIP3     H1       HT       0.417000       1.00800           0
     71589 W2       24673    TIP3     H2       HT       0.417000       1.00800           0
     71590 W2       24674    TIP3     OH2      OT      -0.834000       15.9994           0
     71591 W2       24674    TIP3     H1       HT       0.417000       1.00800           0
     71592 W2       24674    TIP3     H2       HT       0.417000       1.00800           0
     71593 W2       24675    TIP3     OH2      OT      -0.834000       15.9994           0
     71594 W2       24675    TIP3     H1       HT       0.417000       1.00800           0
     71595 W2       24675    TIP3     H2       HT       0.417000       1.00800           0
     71596 W2       24676    TIP3     OH2      OT      -0.834000       15.9994           0
     71597 W2       24676    TIP3     H1       HT       0.417000       1.00800           0
     71598 W2       24676    TIP3     H2       HT       0.417000       1.00800           0
     71599 W2       24677    TIP3     OH2      OT      -0.834000       15.9994           0
     71600 W2       24677    TIP3     H1       HT       0.417000       1.00800           0
     71601 W2       24677    TIP3     H2       HT       0.417000       1.00800           0
     71602 W2       24678    TIP3     OH2      OT      -0.834000       15.9994           0
     71603 W2       24678    TIP3     H1       HT       0.417000       1.00800           0
     71604 W2       24678    TIP3     H2       HT       0.417000       1.00800           0
     71605 W2       24679    TIP3     OH2      OT      -0.834000       15.9994           0
     71606 W2       24679    TIP3     H1       HT       0.417000       1.00800           0
     71607 W2       24679    TIP3     H2       HT       0.417000       1.00800           0
     71608 W2       24680    TIP3     OH2      OT      -0.834000       15.9994           0
     71609 W2       24680    TIP3     H1       HT       0.417000       1.00800           0
     71610 W2       24680    TIP3     H2       HT       0.417000       1.00800           0
     71611 W2       24682    TIP3     OH2      OT      -0.834000       15.9994           0
     71612 W2       24682    TIP3     H1       HT       0.417000       1.00800           0
     71613 W2       24682    TIP3     H2       HT       0.417000       1.00800           0
     71614 W2       24683    TIP3     OH2      OT      -0.834000       15.9994           0
     71615 W2       24683    TIP3     H1       HT       0.417000       1.00800           0
     71616 W2       24683    TIP3     H2       HT       0.417000       1.00800           0
     71617 W2       24684    TIP3     OH2      OT      -0.834000       15.9994           0
     71618 W2       24684    TIP3     H1       HT       0.417000       1.00800           0
     71619 W2       24684    TIP3     H2       HT       0.417000       1.00800           0
     71620 W2       24685    TIP3     OH2      OT      -0.834000       15.9994           0
     71621 W2       24685    TIP3     H1       HT       0.417000       1.00800           0
     71622 W2       24685    TIP3     H2       HT       0.417000       1.00800           0
     71623 W2       24686    TIP3     OH2      OT      -0.834000       15.9994           0
     71624 W2       24686    TIP3     H1       HT       0.417000       1.00800           0
     71625 W2       24686    TIP3     H2       HT       0.417000       1.00800           0
     71626 W2       24687    TIP3     OH2      OT      -0.834000       15.9994           0
     71627 W2       24687    TIP3     H1       HT       0.417000       1.00800           0
     71628 W2       24687    TIP3     H2       HT       0.417000       1.00800           0
     71629 W2       24688    TIP3     OH2      OT      -0.834000       15.9994           0
     71630 W2       24688    TIP3     H1       HT       0.417000       1.00800           0
     71631 W2       24688    TIP3     H2       HT       0.417000       1.00800           0
     71632 W2       24689    TIP3     OH2      OT      -0.834000       15.9994           0
     71633 W2       24689    TIP3     H1       HT       0.417000       1.00800           0
     71634 W2       24689    TIP3     H2       HT       0.417000       1.00800           0
     71635 W2       24690    TIP3     OH2      OT      -0.834000       15.9994           0
     71636 W2       24690    TIP3     H1       HT       0.417000       1.00800           0
     71637 W2       24690    TIP3     H2       HT       0.417000       1.00800           0
     71638 W2       24691    TIP3     OH2      OT      -0.834000       15.9994           0
     71639 W2       24691    TIP3     H1       HT       0.417000       1.00800           0
     71640 W2       24691    TIP3     H2       HT       0.417000       1.00800           0
     71641 W2       24692    TIP3     OH2      OT      -0.834000       15.9994           0
     71642 W2       24692    TIP3     H1       HT       0.417000       1.00800           0
     71643 W2       24692    TIP3     H2       HT       0.417000       1.00800           0
     71644 W2       24693    TIP3     OH2      OT      -0.834000       15.9994           0
     71645 W2       24693    TIP3     H1       HT       0.417000       1.00800           0
     71646 W2       24693    TIP3     H2       HT       0.417000       1.00800           0
     71647 W2       24695    TIP3     OH2      OT      -0.834000       15.9994           0
     71648 W2       24695    TIP3     H1       HT       0.417000       1.00800           0
     71649 W2       24695    TIP3     H2       HT       0.417000       1.00800           0
     71650 W2       24696    TIP3     OH2      OT      -0.834000       15.9994           0
     71651 W2       24696    TIP3     H1       HT       0.417000       1.00800           0
     71652 W2       24696    TIP3     H2       HT       0.417000       1.00800           0
     71653 W2       24697    TIP3     OH2      OT      -0.834000       15.9994           0
     71654 W2       24697    TIP3     H1       HT       0.417000       1.00800           0
     71655 W2       24697    TIP3     H2       HT       0.417000       1.00800           0
     71656 W2       24698    TIP3     OH2      OT      -0.834000       15.9994           0
     71657 W2       24698    TIP3     H1       HT       0.417000       1.00800           0
     71658 W2       24698    TIP3     H2       HT       0.417000       1.00800           0
     71659 W2       24700    TIP3     OH2      OT      -0.834000       15.9994           0
     71660 W2       24700    TIP3     H1       HT       0.417000       1.00800           0
     71661 W2       24700    TIP3     H2       HT       0.417000       1.00800           0
     71662 W2       24701    TIP3     OH2      OT      -0.834000       15.9994           0
     71663 W2       24701    TIP3     H1       HT       0.417000       1.00800           0
     71664 W2       24701    TIP3     H2       HT       0.417000       1.00800           0
     71665 W2       24702    TIP3     OH2      OT      -0.834000       15.9994           0
     71666 W2       24702    TIP3     H1       HT       0.417000       1.00800           0
     71667 W2       24702    TIP3     H2       HT       0.417000       1.00800           0
     71668 W2       24703    TIP3     OH2      OT      -0.834000       15.9994           0
     71669 W2       24703    TIP3     H1       HT       0.417000       1.00800           0
     71670 W2       24703    TIP3     H2       HT       0.417000       1.00800           0
     71671 W2       24705    TIP3     OH2      OT      -0.834000       15.9994           0
     71672 W2       24705    TIP3     H1       HT       0.417000       1.00800           0
     71673 W2       24705    TIP3     H2       HT       0.417000       1.00800           0
     71674 W2       24707    TIP3     OH2      OT      -0.834000       15.9994           0
     71675 W2       24707    TIP3     H1       HT       0.417000       1.00800           0
     71676 W2       24707    TIP3     H2       HT       0.417000       1.00800           0
     71677 W2       24709    TIP3     OH2      OT      -0.834000       15.9994           0
     71678 W2       24709    TIP3     H1       HT       0.417000       1.00800           0
     71679 W2       24709    TIP3     H2       HT       0.417000       1.00800           0
     71680 W2       24710    TIP3     OH2      OT      -0.834000       15.9994           0
     71681 W2       24710    TIP3     H1       HT       0.417000       1.00800           0
     71682 W2       24710    TIP3     H2       HT       0.417000       1.00800           0
     71683 W2       24711    TIP3     OH2      OT      -0.834000       15.9994           0
     71684 W2       24711    TIP3     H1       HT       0.417000       1.00800           0
     71685 W2       24711    TIP3     H2       HT       0.417000       1.00800           0
     71686 W2       24712    TIP3     OH2      OT      -0.834000       15.9994           0
     71687 W2       24712    TIP3     H1       HT       0.417000       1.00800           0
     71688 W2       24712    TIP3     H2       HT       0.417000       1.00800           0
     71689 W2       24713    TIP3     OH2      OT      -0.834000       15.9994           0
     71690 W2       24713    TIP3     H1       HT       0.417000       1.00800           0
     71691 W2       24713    TIP3     H2       HT       0.417000       1.00800           0
     71692 W2       24716    TIP3     OH2      OT      -0.834000       15.9994           0
     71693 W2       24716    TIP3     H1       HT       0.417000       1.00800           0
     71694 W2       24716    TIP3     H2       HT       0.417000       1.00800           0
     71695 W2       24717    TIP3     OH2      OT      -0.834000       15.9994           0
     71696 W2       24717    TIP3     H1       HT       0.417000       1.00800           0
     71697 W2       24717    TIP3     H2       HT       0.417000       1.00800           0
     71698 W2       24718    TIP3     OH2      OT      -0.834000       15.9994           0
     71699 W2       24718    TIP3     H1       HT       0.417000       1.00800           0
     71700 W2       24718    TIP3     H2       HT       0.417000       1.00800           0
     71701 W2       24719    TIP3     OH2      OT      -0.834000       15.9994           0
     71702 W2       24719    TIP3     H1       HT       0.417000       1.00800           0
     71703 W2       24719    TIP3     H2       HT       0.417000       1.00800           0
     71704 W2       24722    TIP3     OH2      OT      -0.834000       15.9994           0
     71705 W2       24722    TIP3     H1       HT       0.417000       1.00800           0
     71706 W2       24722    TIP3     H2       HT       0.417000       1.00800           0
     71707 W2       24725    TIP3     OH2      OT      -0.834000       15.9994           0
     71708 W2       24725    TIP3     H1       HT       0.417000       1.00800           0
     71709 W2       24725    TIP3     H2       HT       0.417000       1.00800           0
     71710 W2       24726    TIP3     OH2      OT      -0.834000       15.9994           0
     71711 W2       24726    TIP3     H1       HT       0.417000       1.00800           0
     71712 W2       24726    TIP3     H2       HT       0.417000       1.00800           0
     71713 W2       24727    TIP3     OH2      OT      -0.834000       15.9994           0
     71714 W2       24727    TIP3     H1       HT       0.417000       1.00800           0
     71715 W2       24727    TIP3     H2       HT       0.417000       1.00800           0
     71716 W2       24728    TIP3     OH2      OT      -0.834000       15.9994           0
     71717 W2       24728    TIP3     H1       HT       0.417000       1.00800           0
     71718 W2       24728    TIP3     H2       HT       0.417000       1.00800           0
     71719 W2       24729    TIP3     OH2      OT      -0.834000       15.9994           0
     71720 W2       24729    TIP3     H1       HT       0.417000       1.00800           0
     71721 W2       24729    TIP3     H2       HT       0.417000       1.00800           0
     71722 W2       24731    TIP3     OH2      OT      -0.834000       15.9994           0
     71723 W2       24731    TIP3     H1       HT       0.417000       1.00800           0
     71724 W2       24731    TIP3     H2       HT       0.417000       1.00800           0
     71725 W2       24732    TIP3     OH2      OT      -0.834000       15.9994           0
     71726 W2       24732    TIP3     H1       HT       0.417000       1.00800           0
     71727 W2       24732    TIP3     H2       HT       0.417000       1.00800           0
     71728 W2       24733    TIP3     OH2      OT      -0.834000       15.9994           0
     71729 W2       24733    TIP3     H1       HT       0.417000       1.00800           0
     71730 W2       24733    TIP3     H2       HT       0.417000       1.00800           0
     71731 W2       24734    TIP3     OH2      OT      -0.834000       15.9994           0
     71732 W2       24734    TIP3     H1       HT       0.417000       1.00800           0
     71733 W2       24734    TIP3     H2       HT       0.417000       1.00800           0
     71734 W2       24735    TIP3     OH2      OT      -0.834000       15.9994           0
     71735 W2       24735    TIP3     H1       HT       0.417000       1.00800           0
     71736 W2       24735    TIP3     H2       HT       0.417000       1.00800           0
     71737 W2       24736    TIP3     OH2      OT      -0.834000       15.9994           0
     71738 W2       24736    TIP3     H1       HT       0.417000       1.00800           0
     71739 W2       24736    TIP3     H2       HT       0.417000       1.00800           0
     71740 W2       24737    TIP3     OH2      OT      -0.834000       15.9994           0
     71741 W2       24737    TIP3     H1       HT       0.417000       1.00800           0
     71742 W2       24737    TIP3     H2       HT       0.417000       1.00800           0
     71743 W2       24738    TIP3     OH2      OT      -0.834000       15.9994           0
     71744 W2       24738    TIP3     H1       HT       0.417000       1.00800           0
     71745 W2       24738    TIP3     H2       HT       0.417000       1.00800           0
     71746 W2       24739    TIP3     OH2      OT      -0.834000       15.9994           0
     71747 W2       24739    TIP3     H1       HT       0.417000       1.00800           0
     71748 W2       24739    TIP3     H2       HT       0.417000       1.00800           0
     71749 W2       24740    TIP3     OH2      OT      -0.834000       15.9994           0
     71750 W2       24740    TIP3     H1       HT       0.417000       1.00800           0
     71751 W2       24740    TIP3     H2       HT       0.417000       1.00800           0
     71752 W2       24741    TIP3     OH2      OT      -0.834000       15.9994           0
     71753 W2       24741    TIP3     H1       HT       0.417000       1.00800           0
     71754 W2       24741    TIP3     H2       HT       0.417000       1.00800           0
     71755 W2       24744    TIP3     OH2      OT      -0.834000       15.9994           0
     71756 W2       24744    TIP3     H1       HT       0.417000       1.00800           0
     71757 W2       24744    TIP3     H2       HT       0.417000       1.00800           0
     71758 W2       24745    TIP3     OH2      OT      -0.834000       15.9994           0
     71759 W2       24745    TIP3     H1       HT       0.417000       1.00800           0
     71760 W2       24745    TIP3     H2       HT       0.417000       1.00800           0
     71761 W2       24746    TIP3     OH2      OT      -0.834000       15.9994           0
     71762 W2       24746    TIP3     H1       HT       0.417000       1.00800           0
     71763 W2       24746    TIP3     H2       HT       0.417000       1.00800           0
     71764 W2       24747    TIP3     OH2      OT      -0.834000       15.9994           0
     71765 W2       24747    TIP3     H1       HT       0.417000       1.00800           0
     71766 W2       24747    TIP3     H2       HT       0.417000       1.00800           0
     71767 W2       24748    TIP3     OH2      OT      -0.834000       15.9994           0
     71768 W2       24748    TIP3     H1       HT       0.417000       1.00800           0
     71769 W2       24748    TIP3     H2       HT       0.417000       1.00800           0
     71770 W2       24749    TIP3     OH2      OT      -0.834000       15.9994           0
     71771 W2       24749    TIP3     H1       HT       0.417000       1.00800           0
     71772 W2       24749    TIP3     H2       HT       0.417000       1.00800           0
     71773 W2       24751    TIP3     OH2      OT      -0.834000       15.9994           0
     71774 W2       24751    TIP3     H1       HT       0.417000       1.00800           0
     71775 W2       24751    TIP3     H2       HT       0.417000       1.00800           0
     71776 W2       24752    TIP3     OH2      OT      -0.834000       15.9994           0
     71777 W2       24752    TIP3     H1       HT       0.417000       1.00800           0
     71778 W2       24752    TIP3     H2       HT       0.417000       1.00800           0
     71779 W2       24753    TIP3     OH2      OT      -0.834000       15.9994           0
     71780 W2       24753    TIP3     H1       HT       0.417000       1.00800           0
     71781 W2       24753    TIP3     H2       HT       0.417000       1.00800           0
     71782 W2       24757    TIP3     OH2      OT      -0.834000       15.9994           0
     71783 W2       24757    TIP3     H1       HT       0.417000       1.00800           0
     71784 W2       24757    TIP3     H2       HT       0.417000       1.00800           0
     71785 W2       24759    TIP3     OH2      OT      -0.834000       15.9994           0
     71786 W2       24759    TIP3     H1       HT       0.417000       1.00800           0
     71787 W2       24759    TIP3     H2       HT       0.417000       1.00800           0
     71788 W2       24760    TIP3     OH2      OT      -0.834000       15.9994           0
     71789 W2       24760    TIP3     H1       HT       0.417000       1.00800           0
     71790 W2       24760    TIP3     H2       HT       0.417000       1.00800           0
     71791 W2       24761    TIP3     OH2      OT      -0.834000       15.9994           0
     71792 W2       24761    TIP3     H1       HT       0.417000       1.00800           0
     71793 W2       24761    TIP3     H2       HT       0.417000       1.00800           0
     71794 W2       24762    TIP3     OH2      OT      -0.834000       15.9994           0
     71795 W2       24762    TIP3     H1       HT       0.417000       1.00800           0
     71796 W2       24762    TIP3     H2       HT       0.417000       1.00800           0
     71797 W2       24763    TIP3     OH2      OT      -0.834000       15.9994           0
     71798 W2       24763    TIP3     H1       HT       0.417000       1.00800           0
     71799 W2       24763    TIP3     H2       HT       0.417000       1.00800           0
     71800 W2       24764    TIP3     OH2      OT      -0.834000       15.9994           0
     71801 W2       24764    TIP3     H1       HT       0.417000       1.00800           0
     71802 W2       24764    TIP3     H2       HT       0.417000       1.00800           0
     71803 W2       24765    TIP3     OH2      OT      -0.834000       15.9994           0
     71804 W2       24765    TIP3     H1       HT       0.417000       1.00800           0
     71805 W2       24765    TIP3     H2       HT       0.417000       1.00800           0
     71806 W2       24766    TIP3     OH2      OT      -0.834000       15.9994           0
     71807 W2       24766    TIP3     H1       HT       0.417000       1.00800           0
     71808 W2       24766    TIP3     H2       HT       0.417000       1.00800           0
     71809 W2       24767    TIP3     OH2      OT      -0.834000       15.9994           0
     71810 W2       24767    TIP3     H1       HT       0.417000       1.00800           0
     71811 W2       24767    TIP3     H2       HT       0.417000       1.00800           0
     71812 W2       24769    TIP3     OH2      OT      -0.834000       15.9994           0
     71813 W2       24769    TIP3     H1       HT       0.417000       1.00800           0
     71814 W2       24769    TIP3     H2       HT       0.417000       1.00800           0
     71815 W2       24771    TIP3     OH2      OT      -0.834000       15.9994           0
     71816 W2       24771    TIP3     H1       HT       0.417000       1.00800           0
     71817 W2       24771    TIP3     H2       HT       0.417000       1.00800           0
     71818 W2       24772    TIP3     OH2      OT      -0.834000       15.9994           0
     71819 W2       24772    TIP3     H1       HT       0.417000       1.00800           0
     71820 W2       24772    TIP3     H2       HT       0.417000       1.00800           0
     71821 W2       24773    TIP3     OH2      OT      -0.834000       15.9994           0
     71822 W2       24773    TIP3     H1       HT       0.417000       1.00800           0
     71823 W2       24773    TIP3     H2       HT       0.417000       1.00800           0
     71824 W2       24774    TIP3     OH2      OT      -0.834000       15.9994           0
     71825 W2       24774    TIP3     H1       HT       0.417000       1.00800           0
     71826 W2       24774    TIP3     H2       HT       0.417000       1.00800           0
     71827 W2       24775    TIP3     OH2      OT      -0.834000       15.9994           0
     71828 W2       24775    TIP3     H1       HT       0.417000       1.00800           0
     71829 W2       24775    TIP3     H2       HT       0.417000       1.00800           0
     71830 W2       24776    TIP3     OH2      OT      -0.834000       15.9994           0
     71831 W2       24776    TIP3     H1       HT       0.417000       1.00800           0
     71832 W2       24776    TIP3     H2       HT       0.417000       1.00800           0
     71833 W2       24777    TIP3     OH2      OT      -0.834000       15.9994           0
     71834 W2       24777    TIP3     H1       HT       0.417000       1.00800           0
     71835 W2       24777    TIP3     H2       HT       0.417000       1.00800           0
     71836 W2       24778    TIP3     OH2      OT      -0.834000       15.9994           0
     71837 W2       24778    TIP3     H1       HT       0.417000       1.00800           0
     71838 W2       24778    TIP3     H2       HT       0.417000       1.00800           0
     71839 W2       24779    TIP3     OH2      OT      -0.834000       15.9994           0
     71840 W2       24779    TIP3     H1       HT       0.417000       1.00800           0
     71841 W2       24779    TIP3     H2       HT       0.417000       1.00800           0
     71842 W2       24781    TIP3     OH2      OT      -0.834000       15.9994           0
     71843 W2       24781    TIP3     H1       HT       0.417000       1.00800           0
     71844 W2       24781    TIP3     H2       HT       0.417000       1.00800           0
     71845 W2       24782    TIP3     OH2      OT      -0.834000       15.9994           0
     71846 W2       24782    TIP3     H1       HT       0.417000       1.00800           0
     71847 W2       24782    TIP3     H2       HT       0.417000       1.00800           0
     71848 W2       24783    TIP3     OH2      OT      -0.834000       15.9994           0
     71849 W2       24783    TIP3     H1       HT       0.417000       1.00800           0
     71850 W2       24783    TIP3     H2       HT       0.417000       1.00800           0
     71851 W2       24785    TIP3     OH2      OT      -0.834000       15.9994           0
     71852 W2       24785    TIP3     H1       HT       0.417000       1.00800           0
     71853 W2       24785    TIP3     H2       HT       0.417000       1.00800           0
     71854 W2       24786    TIP3     OH2      OT      -0.834000       15.9994           0
     71855 W2       24786    TIP3     H1       HT       0.417000       1.00800           0
     71856 W2       24786    TIP3     H2       HT       0.417000       1.00800           0
     71857 W2       24787    TIP3     OH2      OT      -0.834000       15.9994           0
     71858 W2       24787    TIP3     H1       HT       0.417000       1.00800           0
     71859 W2       24787    TIP3     H2       HT       0.417000       1.00800           0
     71860 W2       24788    TIP3     OH2      OT      -0.834000       15.9994           0
     71861 W2       24788    TIP3     H1       HT       0.417000       1.00800           0
     71862 W2       24788    TIP3     H2       HT       0.417000       1.00800           0
     71863 W2       24789    TIP3     OH2      OT      -0.834000       15.9994           0
     71864 W2       24789    TIP3     H1       HT       0.417000       1.00800           0
     71865 W2       24789    TIP3     H2       HT       0.417000       1.00800           0
     71866 W2       24790    TIP3     OH2      OT      -0.834000       15.9994           0
     71867 W2       24790    TIP3     H1       HT       0.417000       1.00800           0
     71868 W2       24790    TIP3     H2       HT       0.417000       1.00800           0
     71869 W2       24793    TIP3     OH2      OT      -0.834000       15.9994           0
     71870 W2       24793    TIP3     H1       HT       0.417000       1.00800           0
     71871 W2       24793    TIP3     H2       HT       0.417000       1.00800           0
     71872 W2       24795    TIP3     OH2      OT      -0.834000       15.9994           0
     71873 W2       24795    TIP3     H1       HT       0.417000       1.00800           0
     71874 W2       24795    TIP3     H2       HT       0.417000       1.00800           0
     71875 W2       24797    TIP3     OH2      OT      -0.834000       15.9994           0
     71876 W2       24797    TIP3     H1       HT       0.417000       1.00800           0
     71877 W2       24797    TIP3     H2       HT       0.417000       1.00800           0
     71878 W2       24799    TIP3     OH2      OT      -0.834000       15.9994           0
     71879 W2       24799    TIP3     H1       HT       0.417000       1.00800           0
     71880 W2       24799    TIP3     H2       HT       0.417000       1.00800           0
     71881 W2       24802    TIP3     OH2      OT      -0.834000       15.9994           0
     71882 W2       24802    TIP3     H1       HT       0.417000       1.00800           0
     71883 W2       24802    TIP3     H2       HT       0.417000       1.00800           0
     71884 W2       24804    TIP3     OH2      OT      -0.834000       15.9994           0
     71885 W2       24804    TIP3     H1       HT       0.417000       1.00800           0
     71886 W2       24804    TIP3     H2       HT       0.417000       1.00800           0
     71887 W2       24806    TIP3     OH2      OT      -0.834000       15.9994           0
     71888 W2       24806    TIP3     H1       HT       0.417000       1.00800           0
     71889 W2       24806    TIP3     H2       HT       0.417000       1.00800           0
     71890 W2       24808    TIP3     OH2      OT      -0.834000       15.9994           0
     71891 W2       24808    TIP3     H1       HT       0.417000       1.00800           0
     71892 W2       24808    TIP3     H2       HT       0.417000       1.00800           0
     71893 W2       24820    TIP3     OH2      OT      -0.834000       15.9994           0
     71894 W2       24820    TIP3     H1       HT       0.417000       1.00800           0
     71895 W2       24820    TIP3     H2       HT       0.417000       1.00800           0
     71896 W2       24821    TIP3     OH2      OT      -0.834000       15.9994           0
     71897 W2       24821    TIP3     H1       HT       0.417000       1.00800           0
     71898 W2       24821    TIP3     H2       HT       0.417000       1.00800           0
     71899 W2       24822    TIP3     OH2      OT      -0.834000       15.9994           0
     71900 W2       24822    TIP3     H1       HT       0.417000       1.00800           0
     71901 W2       24822    TIP3     H2       HT       0.417000       1.00800           0
     71902 W2       24823    TIP3     OH2      OT      -0.834000       15.9994           0
     71903 W2       24823    TIP3     H1       HT       0.417000       1.00800           0
     71904 W2       24823    TIP3     H2       HT       0.417000       1.00800           0
     71905 W2       24824    TIP3     OH2      OT      -0.834000       15.9994           0
     71906 W2       24824    TIP3     H1       HT       0.417000       1.00800           0
     71907 W2       24824    TIP3     H2       HT       0.417000       1.00800           0
     71908 W2       24827    TIP3     OH2      OT      -0.834000       15.9994           0
     71909 W2       24827    TIP3     H1       HT       0.417000       1.00800           0
     71910 W2       24827    TIP3     H2       HT       0.417000       1.00800           0
     71911 W2       24828    TIP3     OH2      OT      -0.834000       15.9994           0
     71912 W2       24828    TIP3     H1       HT       0.417000       1.00800           0
     71913 W2       24828    TIP3     H2       HT       0.417000       1.00800           0
     71914 W2       24829    TIP3     OH2      OT      -0.834000       15.9994           0
     71915 W2       24829    TIP3     H1       HT       0.417000       1.00800           0
     71916 W2       24829    TIP3     H2       HT       0.417000       1.00800           0
     71917 W2       24830    TIP3     OH2      OT      -0.834000       15.9994           0
     71918 W2       24830    TIP3     H1       HT       0.417000       1.00800           0
     71919 W2       24830    TIP3     H2       HT       0.417000       1.00800           0
     71920 W2       24831    TIP3     OH2      OT      -0.834000       15.9994           0
     71921 W2       24831    TIP3     H1       HT       0.417000       1.00800           0
     71922 W2       24831    TIP3     H2       HT       0.417000       1.00800           0
     71923 W2       24832    TIP3     OH2      OT      -0.834000       15.9994           0
     71924 W2       24832    TIP3     H1       HT       0.417000       1.00800           0
     71925 W2       24832    TIP3     H2       HT       0.417000       1.00800           0
     71926 W2       24833    TIP3     OH2      OT      -0.834000       15.9994           0
     71927 W2       24833    TIP3     H1       HT       0.417000       1.00800           0
     71928 W2       24833    TIP3     H2       HT       0.417000       1.00800           0
     71929 W2       24834    TIP3     OH2      OT      -0.834000       15.9994           0
     71930 W2       24834    TIP3     H1       HT       0.417000       1.00800           0
     71931 W2       24834    TIP3     H2       HT       0.417000       1.00800           0
     71932 W2       24837    TIP3     OH2      OT      -0.834000       15.9994           0
     71933 W2       24837    TIP3     H1       HT       0.417000       1.00800           0
     71934 W2       24837    TIP3     H2       HT       0.417000       1.00800           0
     71935 W2       24838    TIP3     OH2      OT      -0.834000       15.9994           0
     71936 W2       24838    TIP3     H1       HT       0.417000       1.00800           0
     71937 W2       24838    TIP3     H2       HT       0.417000       1.00800           0
     71938 W2       24839    TIP3     OH2      OT      -0.834000       15.9994           0
     71939 W2       24839    TIP3     H1       HT       0.417000       1.00800           0
     71940 W2       24839    TIP3     H2       HT       0.417000       1.00800           0
     71941 W2       24840    TIP3     OH2      OT      -0.834000       15.9994           0
     71942 W2       24840    TIP3     H1       HT       0.417000       1.00800           0
     71943 W2       24840    TIP3     H2       HT       0.417000       1.00800           0
     71944 W2       24843    TIP3     OH2      OT      -0.834000       15.9994           0
     71945 W2       24843    TIP3     H1       HT       0.417000       1.00800           0
     71946 W2       24843    TIP3     H2       HT       0.417000       1.00800           0
     71947 W2       24844    TIP3     OH2      OT      -0.834000       15.9994           0
     71948 W2       24844    TIP3     H1       HT       0.417000       1.00800           0
     71949 W2       24844    TIP3     H2       HT       0.417000       1.00800           0
     71950 W2       24845    TIP3     OH2      OT      -0.834000       15.9994           0
     71951 W2       24845    TIP3     H1       HT       0.417000       1.00800           0
     71952 W2       24845    TIP3     H2       HT       0.417000       1.00800           0
     71953 W2       24847    TIP3     OH2      OT      -0.834000       15.9994           0
     71954 W2       24847    TIP3     H1       HT       0.417000       1.00800           0
     71955 W2       24847    TIP3     H2       HT       0.417000       1.00800           0
     71956 W2       24848    TIP3     OH2      OT      -0.834000       15.9994           0
     71957 W2       24848    TIP3     H1       HT       0.417000       1.00800           0
     71958 W2       24848    TIP3     H2       HT       0.417000       1.00800           0
     71959 W2       24849    TIP3     OH2      OT      -0.834000       15.9994           0
     71960 W2       24849    TIP3     H1       HT       0.417000       1.00800           0
     71961 W2       24849    TIP3     H2       HT       0.417000       1.00800           0
     71962 W2       24850    TIP3     OH2      OT      -0.834000       15.9994           0
     71963 W2       24850    TIP3     H1       HT       0.417000       1.00800           0
     71964 W2       24850    TIP3     H2       HT       0.417000       1.00800           0
     71965 W2       24852    TIP3     OH2      OT      -0.834000       15.9994           0
     71966 W2       24852    TIP3     H1       HT       0.417000       1.00800           0
     71967 W2       24852    TIP3     H2       HT       0.417000       1.00800           0
     71968 W2       24856    TIP3     OH2      OT      -0.834000       15.9994           0
     71969 W2       24856    TIP3     H1       HT       0.417000       1.00800           0
     71970 W2       24856    TIP3     H2       HT       0.417000       1.00800           0
     71971 W2       24857    TIP3     OH2      OT      -0.834000       15.9994           0
     71972 W2       24857    TIP3     H1       HT       0.417000       1.00800           0
     71973 W2       24857    TIP3     H2       HT       0.417000       1.00800           0
     71974 W2       24858    TIP3     OH2      OT      -0.834000       15.9994           0
     71975 W2       24858    TIP3     H1       HT       0.417000       1.00800           0
     71976 W2       24858    TIP3     H2       HT       0.417000       1.00800           0
     71977 W2       24859    TIP3     OH2      OT      -0.834000       15.9994           0
     71978 W2       24859    TIP3     H1       HT       0.417000       1.00800           0
     71979 W2       24859    TIP3     H2       HT       0.417000       1.00800           0
     71980 W2       24860    TIP3     OH2      OT      -0.834000       15.9994           0
     71981 W2       24860    TIP3     H1       HT       0.417000       1.00800           0
     71982 W2       24860    TIP3     H2       HT       0.417000       1.00800           0
     71983 W2       24861    TIP3     OH2      OT      -0.834000       15.9994           0
     71984 W2       24861    TIP3     H1       HT       0.417000       1.00800           0
     71985 W2       24861    TIP3     H2       HT       0.417000       1.00800           0
     71986 W2       24862    TIP3     OH2      OT      -0.834000       15.9994           0
     71987 W2       24862    TIP3     H1       HT       0.417000       1.00800           0
     71988 W2       24862    TIP3     H2       HT       0.417000       1.00800           0
     71989 W2       24863    TIP3     OH2      OT      -0.834000       15.9994           0
     71990 W2       24863    TIP3     H1       HT       0.417000       1.00800           0
     71991 W2       24863    TIP3     H2       HT       0.417000       1.00800           0
     71992 W2       24864    TIP3     OH2      OT      -0.834000       15.9994           0
     71993 W2       24864    TIP3     H1       HT       0.417000       1.00800           0
     71994 W2       24864    TIP3     H2       HT       0.417000       1.00800           0
     71995 W2       24865    TIP3     OH2      OT      -0.834000       15.9994           0
     71996 W2       24865    TIP3     H1       HT       0.417000       1.00800           0
     71997 W2       24865    TIP3     H2       HT       0.417000       1.00800           0
     71998 W2       24866    TIP3     OH2      OT      -0.834000       15.9994           0
     71999 W2       24866    TIP3     H1       HT       0.417000       1.00800           0
     72000 W2       24866    TIP3     H2       HT       0.417000       1.00800           0
     72001 W2       24867    TIP3     OH2      OT      -0.834000       15.9994           0
     72002 W2       24867    TIP3     H1       HT       0.417000       1.00800           0
     72003 W2       24867    TIP3     H2       HT       0.417000       1.00800           0
     72004 W2       24868    TIP3     OH2      OT      -0.834000       15.9994           0
     72005 W2       24868    TIP3     H1       HT       0.417000       1.00800           0
     72006 W2       24868    TIP3     H2       HT       0.417000       1.00800           0
     72007 W2       24869    TIP3     OH2      OT      -0.834000       15.9994           0
     72008 W2       24869    TIP3     H1       HT       0.417000       1.00800           0
     72009 W2       24869    TIP3     H2       HT       0.417000       1.00800           0
     72010 W2       24870    TIP3     OH2      OT      -0.834000       15.9994           0
     72011 W2       24870    TIP3     H1       HT       0.417000       1.00800           0
     72012 W2       24870    TIP3     H2       HT       0.417000       1.00800           0
     72013 W2       24871    TIP3     OH2      OT      -0.834000       15.9994           0
     72014 W2       24871    TIP3     H1       HT       0.417000       1.00800           0
     72015 W2       24871    TIP3     H2       HT       0.417000       1.00800           0
     72016 W2       24872    TIP3     OH2      OT      -0.834000       15.9994           0
     72017 W2       24872    TIP3     H1       HT       0.417000       1.00800           0
     72018 W2       24872    TIP3     H2       HT       0.417000       1.00800           0
     72019 W2       24873    TIP3     OH2      OT      -0.834000       15.9994           0
     72020 W2       24873    TIP3     H1       HT       0.417000       1.00800           0
     72021 W2       24873    TIP3     H2       HT       0.417000       1.00800           0
     72022 W2       24874    TIP3     OH2      OT      -0.834000       15.9994           0
     72023 W2       24874    TIP3     H1       HT       0.417000       1.00800           0
     72024 W2       24874    TIP3     H2       HT       0.417000       1.00800           0
     72025 W2       24875    TIP3     OH2      OT      -0.834000       15.9994           0
     72026 W2       24875    TIP3     H1       HT       0.417000       1.00800           0
     72027 W2       24875    TIP3     H2       HT       0.417000       1.00800           0
     72028 W2       24876    TIP3     OH2      OT      -0.834000       15.9994           0
     72029 W2       24876    TIP3     H1       HT       0.417000       1.00800           0
     72030 W2       24876    TIP3     H2       HT       0.417000       1.00800           0
     72031 W2       24879    TIP3     OH2      OT      -0.834000       15.9994           0
     72032 W2       24879    TIP3     H1       HT       0.417000       1.00800           0
     72033 W2       24879    TIP3     H2       HT       0.417000       1.00800           0
     72034 W2       24882    TIP3     OH2      OT      -0.834000       15.9994           0
     72035 W2       24882    TIP3     H1       HT       0.417000       1.00800           0
     72036 W2       24882    TIP3     H2       HT       0.417000       1.00800           0
     72037 W2       24883    TIP3     OH2      OT      -0.834000       15.9994           0
     72038 W2       24883    TIP3     H1       HT       0.417000       1.00800           0
     72039 W2       24883    TIP3     H2       HT       0.417000       1.00800           0
     72040 W2       24884    TIP3     OH2      OT      -0.834000       15.9994           0
     72041 W2       24884    TIP3     H1       HT       0.417000       1.00800           0
     72042 W2       24884    TIP3     H2       HT       0.417000       1.00800           0
     72043 W2       24885    TIP3     OH2      OT      -0.834000       15.9994           0
     72044 W2       24885    TIP3     H1       HT       0.417000       1.00800           0
     72045 W2       24885    TIP3     H2       HT       0.417000       1.00800           0
     72046 W2       24886    TIP3     OH2      OT      -0.834000       15.9994           0
     72047 W2       24886    TIP3     H1       HT       0.417000       1.00800           0
     72048 W2       24886    TIP3     H2       HT       0.417000       1.00800           0
     72049 W2       24887    TIP3     OH2      OT      -0.834000       15.9994           0
     72050 W2       24887    TIP3     H1       HT       0.417000       1.00800           0
     72051 W2       24887    TIP3     H2       HT       0.417000       1.00800           0
     72052 W2       24888    TIP3     OH2      OT      -0.834000       15.9994           0
     72053 W2       24888    TIP3     H1       HT       0.417000       1.00800           0
     72054 W2       24888    TIP3     H2       HT       0.417000       1.00800           0
     72055 W2       24889    TIP3     OH2      OT      -0.834000       15.9994           0
     72056 W2       24889    TIP3     H1       HT       0.417000       1.00800           0
     72057 W2       24889    TIP3     H2       HT       0.417000       1.00800           0
     72058 W2       24890    TIP3     OH2      OT      -0.834000       15.9994           0
     72059 W2       24890    TIP3     H1       HT       0.417000       1.00800           0
     72060 W2       24890    TIP3     H2       HT       0.417000       1.00800           0
     72061 W2       24891    TIP3     OH2      OT      -0.834000       15.9994           0
     72062 W2       24891    TIP3     H1       HT       0.417000       1.00800           0
     72063 W2       24891    TIP3     H2       HT       0.417000       1.00800           0
     72064 W2       24892    TIP3     OH2      OT      -0.834000       15.9994           0
     72065 W2       24892    TIP3     H1       HT       0.417000       1.00800           0
     72066 W2       24892    TIP3     H2       HT       0.417000       1.00800           0
     72067 W2       24893    TIP3     OH2      OT      -0.834000       15.9994           0
     72068 W2       24893    TIP3     H1       HT       0.417000       1.00800           0
     72069 W2       24893    TIP3     H2       HT       0.417000       1.00800           0
     72070 W2       24894    TIP3     OH2      OT      -0.834000       15.9994           0
     72071 W2       24894    TIP3     H1       HT       0.417000       1.00800           0
     72072 W2       24894    TIP3     H2       HT       0.417000       1.00800           0
     72073 W2       24895    TIP3     OH2      OT      -0.834000       15.9994           0
     72074 W2       24895    TIP3     H1       HT       0.417000       1.00800           0
     72075 W2       24895    TIP3     H2       HT       0.417000       1.00800           0
     72076 W2       24896    TIP3     OH2      OT      -0.834000       15.9994           0
     72077 W2       24896    TIP3     H1       HT       0.417000       1.00800           0
     72078 W2       24896    TIP3     H2       HT       0.417000       1.00800           0
     72079 W2       24898    TIP3     OH2      OT      -0.834000       15.9994           0
     72080 W2       24898    TIP3     H1       HT       0.417000       1.00800           0
     72081 W2       24898    TIP3     H2       HT       0.417000       1.00800           0
     72082 W2       24899    TIP3     OH2      OT      -0.834000       15.9994           0
     72083 W2       24899    TIP3     H1       HT       0.417000       1.00800           0
     72084 W2       24899    TIP3     H2       HT       0.417000       1.00800           0
     72085 W2       24900    TIP3     OH2      OT      -0.834000       15.9994           0
     72086 W2       24900    TIP3     H1       HT       0.417000       1.00800           0
     72087 W2       24900    TIP3     H2       HT       0.417000       1.00800           0
     72088 W2       24901    TIP3     OH2      OT      -0.834000       15.9994           0
     72089 W2       24901    TIP3     H1       HT       0.417000       1.00800           0
     72090 W2       24901    TIP3     H2       HT       0.417000       1.00800           0
     72091 W2       24902    TIP3     OH2      OT      -0.834000       15.9994           0
     72092 W2       24902    TIP3     H1       HT       0.417000       1.00800           0
     72093 W2       24902    TIP3     H2       HT       0.417000       1.00800           0
     72094 W2       24903    TIP3     OH2      OT      -0.834000       15.9994           0
     72095 W2       24903    TIP3     H1       HT       0.417000       1.00800           0
     72096 W2       24903    TIP3     H2       HT       0.417000       1.00800           0
     72097 W2       24904    TIP3     OH2      OT      -0.834000       15.9994           0
     72098 W2       24904    TIP3     H1       HT       0.417000       1.00800           0
     72099 W2       24904    TIP3     H2       HT       0.417000       1.00800           0
     72100 W2       24905    TIP3     OH2      OT      -0.834000       15.9994           0
     72101 W2       24905    TIP3     H1       HT       0.417000       1.00800           0
     72102 W2       24905    TIP3     H2       HT       0.417000       1.00800           0
     72103 W2       24906    TIP3     OH2      OT      -0.834000       15.9994           0
     72104 W2       24906    TIP3     H1       HT       0.417000       1.00800           0
     72105 W2       24906    TIP3     H2       HT       0.417000       1.00800           0
     72106 W2       24907    TIP3     OH2      OT      -0.834000       15.9994           0
     72107 W2       24907    TIP3     H1       HT       0.417000       1.00800           0
     72108 W2       24907    TIP3     H2       HT       0.417000       1.00800           0
     72109 W2       24908    TIP3     OH2      OT      -0.834000       15.9994           0
     72110 W2       24908    TIP3     H1       HT       0.417000       1.00800           0
     72111 W2       24908    TIP3     H2       HT       0.417000       1.00800           0
     72112 W2       24909    TIP3     OH2      OT      -0.834000       15.9994           0
     72113 W2       24909    TIP3     H1       HT       0.417000       1.00800           0
     72114 W2       24909    TIP3     H2       HT       0.417000       1.00800           0
     72115 W2       24911    TIP3     OH2      OT      -0.834000       15.9994           0
     72116 W2       24911    TIP3     H1       HT       0.417000       1.00800           0
     72117 W2       24911    TIP3     H2       HT       0.417000       1.00800           0
     72118 W2       24912    TIP3     OH2      OT      -0.834000       15.9994           0
     72119 W2       24912    TIP3     H1       HT       0.417000       1.00800           0
     72120 W2       24912    TIP3     H2       HT       0.417000       1.00800           0
     72121 W2       24913    TIP3     OH2      OT      -0.834000       15.9994           0
     72122 W2       24913    TIP3     H1       HT       0.417000       1.00800           0
     72123 W2       24913    TIP3     H2       HT       0.417000       1.00800           0
     72124 W2       24914    TIP3     OH2      OT      -0.834000       15.9994           0
     72125 W2       24914    TIP3     H1       HT       0.417000       1.00800           0
     72126 W2       24914    TIP3     H2       HT       0.417000       1.00800           0
     72127 W2       24916    TIP3     OH2      OT      -0.834000       15.9994           0
     72128 W2       24916    TIP3     H1       HT       0.417000       1.00800           0
     72129 W2       24916    TIP3     H2       HT       0.417000       1.00800           0
     72130 W2       24917    TIP3     OH2      OT      -0.834000       15.9994           0
     72131 W2       24917    TIP3     H1       HT       0.417000       1.00800           0
     72132 W2       24917    TIP3     H2       HT       0.417000       1.00800           0
     72133 W2       24918    TIP3     OH2      OT      -0.834000       15.9994           0
     72134 W2       24918    TIP3     H1       HT       0.417000       1.00800           0
     72135 W2       24918    TIP3     H2       HT       0.417000       1.00800           0
     72136 W2       24919    TIP3     OH2      OT      -0.834000       15.9994           0
     72137 W2       24919    TIP3     H1       HT       0.417000       1.00800           0
     72138 W2       24919    TIP3     H2       HT       0.417000       1.00800           0
     72139 W2       24921    TIP3     OH2      OT      -0.834000       15.9994           0
     72140 W2       24921    TIP3     H1       HT       0.417000       1.00800           0
     72141 W2       24921    TIP3     H2       HT       0.417000       1.00800           0
     72142 W2       24923    TIP3     OH2      OT      -0.834000       15.9994           0
     72143 W2       24923    TIP3     H1       HT       0.417000       1.00800           0
     72144 W2       24923    TIP3     H2       HT       0.417000       1.00800           0
     72145 W2       24925    TIP3     OH2      OT      -0.834000       15.9994           0
     72146 W2       24925    TIP3     H1       HT       0.417000       1.00800           0
     72147 W2       24925    TIP3     H2       HT       0.417000       1.00800           0
     72148 W2       24926    TIP3     OH2      OT      -0.834000       15.9994           0
     72149 W2       24926    TIP3     H1       HT       0.417000       1.00800           0
     72150 W2       24926    TIP3     H2       HT       0.417000       1.00800           0
     72151 W2       24927    TIP3     OH2      OT      -0.834000       15.9994           0
     72152 W2       24927    TIP3     H1       HT       0.417000       1.00800           0
     72153 W2       24927    TIP3     H2       HT       0.417000       1.00800           0
     72154 W2       24928    TIP3     OH2      OT      -0.834000       15.9994           0
     72155 W2       24928    TIP3     H1       HT       0.417000       1.00800           0
     72156 W2       24928    TIP3     H2       HT       0.417000       1.00800           0
     72157 W2       24929    TIP3     OH2      OT      -0.834000       15.9994           0
     72158 W2       24929    TIP3     H1       HT       0.417000       1.00800           0
     72159 W2       24929    TIP3     H2       HT       0.417000       1.00800           0
     72160 W2       24932    TIP3     OH2      OT      -0.834000       15.9994           0
     72161 W2       24932    TIP3     H1       HT       0.417000       1.00800           0
     72162 W2       24932    TIP3     H2       HT       0.417000       1.00800           0
     72163 W2       24933    TIP3     OH2      OT      -0.834000       15.9994           0
     72164 W2       24933    TIP3     H1       HT       0.417000       1.00800           0
     72165 W2       24933    TIP3     H2       HT       0.417000       1.00800           0
     72166 W2       24934    TIP3     OH2      OT      -0.834000       15.9994           0
     72167 W2       24934    TIP3     H1       HT       0.417000       1.00800           0
     72168 W2       24934    TIP3     H2       HT       0.417000       1.00800           0
     72169 W2       24935    TIP3     OH2      OT      -0.834000       15.9994           0
     72170 W2       24935    TIP3     H1       HT       0.417000       1.00800           0
     72171 W2       24935    TIP3     H2       HT       0.417000       1.00800           0
     72172 W2       24938    TIP3     OH2      OT      -0.834000       15.9994           0
     72173 W2       24938    TIP3     H1       HT       0.417000       1.00800           0
     72174 W2       24938    TIP3     H2       HT       0.417000       1.00800           0
     72175 W2       24941    TIP3     OH2      OT      -0.834000       15.9994           0
     72176 W2       24941    TIP3     H1       HT       0.417000       1.00800           0
     72177 W2       24941    TIP3     H2       HT       0.417000       1.00800           0
     72178 W2       24942    TIP3     OH2      OT      -0.834000       15.9994           0
     72179 W2       24942    TIP3     H1       HT       0.417000       1.00800           0
     72180 W2       24942    TIP3     H2       HT       0.417000       1.00800           0
     72181 W2       24943    TIP3     OH2      OT      -0.834000       15.9994           0
     72182 W2       24943    TIP3     H1       HT       0.417000       1.00800           0
     72183 W2       24943    TIP3     H2       HT       0.417000       1.00800           0
     72184 W2       24944    TIP3     OH2      OT      -0.834000       15.9994           0
     72185 W2       24944    TIP3     H1       HT       0.417000       1.00800           0
     72186 W2       24944    TIP3     H2       HT       0.417000       1.00800           0
     72187 W2       24945    TIP3     OH2      OT      -0.834000       15.9994           0
     72188 W2       24945    TIP3     H1       HT       0.417000       1.00800           0
     72189 W2       24945    TIP3     H2       HT       0.417000       1.00800           0
     72190 W2       24947    TIP3     OH2      OT      -0.834000       15.9994           0
     72191 W2       24947    TIP3     H1       HT       0.417000       1.00800           0
     72192 W2       24947    TIP3     H2       HT       0.417000       1.00800           0
     72193 W2       24948    TIP3     OH2      OT      -0.834000       15.9994           0
     72194 W2       24948    TIP3     H1       HT       0.417000       1.00800           0
     72195 W2       24948    TIP3     H2       HT       0.417000       1.00800           0
     72196 W2       24949    TIP3     OH2      OT      -0.834000       15.9994           0
     72197 W2       24949    TIP3     H1       HT       0.417000       1.00800           0
     72198 W2       24949    TIP3     H2       HT       0.417000       1.00800           0
     72199 W2       24950    TIP3     OH2      OT      -0.834000       15.9994           0
     72200 W2       24950    TIP3     H1       HT       0.417000       1.00800           0
     72201 W2       24950    TIP3     H2       HT       0.417000       1.00800           0
     72202 W2       24951    TIP3     OH2      OT      -0.834000       15.9994           0
     72203 W2       24951    TIP3     H1       HT       0.417000       1.00800           0
     72204 W2       24951    TIP3     H2       HT       0.417000       1.00800           0
     72205 W2       24952    TIP3     OH2      OT      -0.834000       15.9994           0
     72206 W2       24952    TIP3     H1       HT       0.417000       1.00800           0
     72207 W2       24952    TIP3     H2       HT       0.417000       1.00800           0
     72208 W2       24953    TIP3     OH2      OT      -0.834000       15.9994           0
     72209 W2       24953    TIP3     H1       HT       0.417000       1.00800           0
     72210 W2       24953    TIP3     H2       HT       0.417000       1.00800           0
     72211 W2       24954    TIP3     OH2      OT      -0.834000       15.9994           0
     72212 W2       24954    TIP3     H1       HT       0.417000       1.00800           0
     72213 W2       24954    TIP3     H2       HT       0.417000       1.00800           0
     72214 W2       24955    TIP3     OH2      OT      -0.834000       15.9994           0
     72215 W2       24955    TIP3     H1       HT       0.417000       1.00800           0
     72216 W2       24955    TIP3     H2       HT       0.417000       1.00800           0
     72217 W2       24956    TIP3     OH2      OT      -0.834000       15.9994           0
     72218 W2       24956    TIP3     H1       HT       0.417000       1.00800           0
     72219 W2       24956    TIP3     H2       HT       0.417000       1.00800           0
     72220 W2       24957    TIP3     OH2      OT      -0.834000       15.9994           0
     72221 W2       24957    TIP3     H1       HT       0.417000       1.00800           0
     72222 W2       24957    TIP3     H2       HT       0.417000       1.00800           0
     72223 W2       24960    TIP3     OH2      OT      -0.834000       15.9994           0
     72224 W2       24960    TIP3     H1       HT       0.417000       1.00800           0
     72225 W2       24960    TIP3     H2       HT       0.417000       1.00800           0
     72226 W2       24961    TIP3     OH2      OT      -0.834000       15.9994           0
     72227 W2       24961    TIP3     H1       HT       0.417000       1.00800           0
     72228 W2       24961    TIP3     H2       HT       0.417000       1.00800           0
     72229 W2       24962    TIP3     OH2      OT      -0.834000       15.9994           0
     72230 W2       24962    TIP3     H1       HT       0.417000       1.00800           0
     72231 W2       24962    TIP3     H2       HT       0.417000       1.00800           0
     72232 W2       24963    TIP3     OH2      OT      -0.834000       15.9994           0
     72233 W2       24963    TIP3     H1       HT       0.417000       1.00800           0
     72234 W2       24963    TIP3     H2       HT       0.417000       1.00800           0
     72235 W2       24964    TIP3     OH2      OT      -0.834000       15.9994           0
     72236 W2       24964    TIP3     H1       HT       0.417000       1.00800           0
     72237 W2       24964    TIP3     H2       HT       0.417000       1.00800           0
     72238 W2       24965    TIP3     OH2      OT      -0.834000       15.9994           0
     72239 W2       24965    TIP3     H1       HT       0.417000       1.00800           0
     72240 W2       24965    TIP3     H2       HT       0.417000       1.00800           0
     72241 W2       24967    TIP3     OH2      OT      -0.834000       15.9994           0
     72242 W2       24967    TIP3     H1       HT       0.417000       1.00800           0
     72243 W2       24967    TIP3     H2       HT       0.417000       1.00800           0
     72244 W2       24968    TIP3     OH2      OT      -0.834000       15.9994           0
     72245 W2       24968    TIP3     H1       HT       0.417000       1.00800           0
     72246 W2       24968    TIP3     H2       HT       0.417000       1.00800           0
     72247 W2       24969    TIP3     OH2      OT      -0.834000       15.9994           0
     72248 W2       24969    TIP3     H1       HT       0.417000       1.00800           0
     72249 W2       24969    TIP3     H2       HT       0.417000       1.00800           0
     72250 W2       24973    TIP3     OH2      OT      -0.834000       15.9994           0
     72251 W2       24973    TIP3     H1       HT       0.417000       1.00800           0
     72252 W2       24973    TIP3     H2       HT       0.417000       1.00800           0
     72253 W2       24975    TIP3     OH2      OT      -0.834000       15.9994           0
     72254 W2       24975    TIP3     H1       HT       0.417000       1.00800           0
     72255 W2       24975    TIP3     H2       HT       0.417000       1.00800           0
     72256 W2       24976    TIP3     OH2      OT      -0.834000       15.9994           0
     72257 W2       24976    TIP3     H1       HT       0.417000       1.00800           0
     72258 W2       24976    TIP3     H2       HT       0.417000       1.00800           0
     72259 W2       24977    TIP3     OH2      OT      -0.834000       15.9994           0
     72260 W2       24977    TIP3     H1       HT       0.417000       1.00800           0
     72261 W2       24977    TIP3     H2       HT       0.417000       1.00800           0
     72262 W2       24978    TIP3     OH2      OT      -0.834000       15.9994           0
     72263 W2       24978    TIP3     H1       HT       0.417000       1.00800           0
     72264 W2       24978    TIP3     H2       HT       0.417000       1.00800           0
     72265 W2       24979    TIP3     OH2      OT      -0.834000       15.9994           0
     72266 W2       24979    TIP3     H1       HT       0.417000       1.00800           0
     72267 W2       24979    TIP3     H2       HT       0.417000       1.00800           0
     72268 W2       24980    TIP3     OH2      OT      -0.834000       15.9994           0
     72269 W2       24980    TIP3     H1       HT       0.417000       1.00800           0
     72270 W2       24980    TIP3     H2       HT       0.417000       1.00800           0
     72271 W2       24981    TIP3     OH2      OT      -0.834000       15.9994           0
     72272 W2       24981    TIP3     H1       HT       0.417000       1.00800           0
     72273 W2       24981    TIP3     H2       HT       0.417000       1.00800           0
     72274 W2       24982    TIP3     OH2      OT      -0.834000       15.9994           0
     72275 W2       24982    TIP3     H1       HT       0.417000       1.00800           0
     72276 W2       24982    TIP3     H2       HT       0.417000       1.00800           0
     72277 W2       24983    TIP3     OH2      OT      -0.834000       15.9994           0
     72278 W2       24983    TIP3     H1       HT       0.417000       1.00800           0
     72279 W2       24983    TIP3     H2       HT       0.417000       1.00800           0
     72280 W2       24985    TIP3     OH2      OT      -0.834000       15.9994           0
     72281 W2       24985    TIP3     H1       HT       0.417000       1.00800           0
     72282 W2       24985    TIP3     H2       HT       0.417000       1.00800           0
     72283 W2       24987    TIP3     OH2      OT      -0.834000       15.9994           0
     72284 W2       24987    TIP3     H1       HT       0.417000       1.00800           0
     72285 W2       24987    TIP3     H2       HT       0.417000       1.00800           0
     72286 W2       24988    TIP3     OH2      OT      -0.834000       15.9994           0
     72287 W2       24988    TIP3     H1       HT       0.417000       1.00800           0
     72288 W2       24988    TIP3     H2       HT       0.417000       1.00800           0
     72289 W2       24989    TIP3     OH2      OT      -0.834000       15.9994           0
     72290 W2       24989    TIP3     H1       HT       0.417000       1.00800           0
     72291 W2       24989    TIP3     H2       HT       0.417000       1.00800           0
     72292 W2       24990    TIP3     OH2      OT      -0.834000       15.9994           0
     72293 W2       24990    TIP3     H1       HT       0.417000       1.00800           0
     72294 W2       24990    TIP3     H2       HT       0.417000       1.00800           0
     72295 W2       24991    TIP3     OH2      OT      -0.834000       15.9994           0
     72296 W2       24991    TIP3     H1       HT       0.417000       1.00800           0
     72297 W2       24991    TIP3     H2       HT       0.417000       1.00800           0
     72298 W2       24992    TIP3     OH2      OT      -0.834000       15.9994           0
     72299 W2       24992    TIP3     H1       HT       0.417000       1.00800           0
     72300 W2       24992    TIP3     H2       HT       0.417000       1.00800           0
     72301 W2       24993    TIP3     OH2      OT      -0.834000       15.9994           0
     72302 W2       24993    TIP3     H1       HT       0.417000       1.00800           0
     72303 W2       24993    TIP3     H2       HT       0.417000       1.00800           0
     72304 W2       24994    TIP3     OH2      OT      -0.834000       15.9994           0
     72305 W2       24994    TIP3     H1       HT       0.417000       1.00800           0
     72306 W2       24994    TIP3     H2       HT       0.417000       1.00800           0
     72307 W2       24995    TIP3     OH2      OT      -0.834000       15.9994           0
     72308 W2       24995    TIP3     H1       HT       0.417000       1.00800           0
     72309 W2       24995    TIP3     H2       HT       0.417000       1.00800           0
     72310 W2       24997    TIP3     OH2      OT      -0.834000       15.9994           0
     72311 W2       24997    TIP3     H1       HT       0.417000       1.00800           0
     72312 W2       24997    TIP3     H2       HT       0.417000       1.00800           0
     72313 W2       24998    TIP3     OH2      OT      -0.834000       15.9994           0
     72314 W2       24998    TIP3     H1       HT       0.417000       1.00800           0
     72315 W2       24998    TIP3     H2       HT       0.417000       1.00800           0
     72316 W2       24999    TIP3     OH2      OT      -0.834000       15.9994           0
     72317 W2       24999    TIP3     H1       HT       0.417000       1.00800           0
     72318 W2       24999    TIP3     H2       HT       0.417000       1.00800           0
     72319 W2       25001    TIP3     OH2      OT      -0.834000       15.9994           0
     72320 W2       25001    TIP3     H1       HT       0.417000       1.00800           0
     72321 W2       25001    TIP3     H2       HT       0.417000       1.00800           0
     72322 W2       25002    TIP3     OH2      OT      -0.834000       15.9994           0
     72323 W2       25002    TIP3     H1       HT       0.417000       1.00800           0
     72324 W2       25002    TIP3     H2       HT       0.417000       1.00800           0
     72325 W2       25003    TIP3     OH2      OT      -0.834000       15.9994           0
     72326 W2       25003    TIP3     H1       HT       0.417000       1.00800           0
     72327 W2       25003    TIP3     H2       HT       0.417000       1.00800           0
     72328 W2       25004    TIP3     OH2      OT      -0.834000       15.9994           0
     72329 W2       25004    TIP3     H1       HT       0.417000       1.00800           0
     72330 W2       25004    TIP3     H2       HT       0.417000       1.00800           0
     72331 W2       25005    TIP3     OH2      OT      -0.834000       15.9994           0
     72332 W2       25005    TIP3     H1       HT       0.417000       1.00800           0
     72333 W2       25005    TIP3     H2       HT       0.417000       1.00800           0
     72334 W2       25006    TIP3     OH2      OT      -0.834000       15.9994           0
     72335 W2       25006    TIP3     H1       HT       0.417000       1.00800           0
     72336 W2       25006    TIP3     H2       HT       0.417000       1.00800           0
     72337 W2       25009    TIP3     OH2      OT      -0.834000       15.9994           0
     72338 W2       25009    TIP3     H1       HT       0.417000       1.00800           0
     72339 W2       25009    TIP3     H2       HT       0.417000       1.00800           0
     72340 W2       25011    TIP3     OH2      OT      -0.834000       15.9994           0
     72341 W2       25011    TIP3     H1       HT       0.417000       1.00800           0
     72342 W2       25011    TIP3     H2       HT       0.417000       1.00800           0
     72343 W2       25013    TIP3     OH2      OT      -0.834000       15.9994           0
     72344 W2       25013    TIP3     H1       HT       0.417000       1.00800           0
     72345 W2       25013    TIP3     H2       HT       0.417000       1.00800           0
     72346 W2       25015    TIP3     OH2      OT      -0.834000       15.9994           0
     72347 W2       25015    TIP3     H1       HT       0.417000       1.00800           0
     72348 W2       25015    TIP3     H2       HT       0.417000       1.00800           0
     72349 W2       25018    TIP3     OH2      OT      -0.834000       15.9994           0
     72350 W2       25018    TIP3     H1       HT       0.417000       1.00800           0
     72351 W2       25018    TIP3     H2       HT       0.417000       1.00800           0
     72352 W2       25020    TIP3     OH2      OT      -0.834000       15.9994           0
     72353 W2       25020    TIP3     H1       HT       0.417000       1.00800           0
     72354 W2       25020    TIP3     H2       HT       0.417000       1.00800           0
     72355 W2       25022    TIP3     OH2      OT      -0.834000       15.9994           0
     72356 W2       25022    TIP3     H1       HT       0.417000       1.00800           0
     72357 W2       25022    TIP3     H2       HT       0.417000       1.00800           0
     72358 W2       25024    TIP3     OH2      OT      -0.834000       15.9994           0
     72359 W2       25024    TIP3     H1       HT       0.417000       1.00800           0
     72360 W2       25024    TIP3     H2       HT       0.417000       1.00800           0
     72361 W2       25036    TIP3     OH2      OT      -0.834000       15.9994           0
     72362 W2       25036    TIP3     H1       HT       0.417000       1.00800           0
     72363 W2       25036    TIP3     H2       HT       0.417000       1.00800           0
     72364 W2       25037    TIP3     OH2      OT      -0.834000       15.9994           0
     72365 W2       25037    TIP3     H1       HT       0.417000       1.00800           0
     72366 W2       25037    TIP3     H2       HT       0.417000       1.00800           0
     72367 W2       25038    TIP3     OH2      OT      -0.834000       15.9994           0
     72368 W2       25038    TIP3     H1       HT       0.417000       1.00800           0
     72369 W2       25038    TIP3     H2       HT       0.417000       1.00800           0
     72370 W2       25039    TIP3     OH2      OT      -0.834000       15.9994           0
     72371 W2       25039    TIP3     H1       HT       0.417000       1.00800           0
     72372 W2       25039    TIP3     H2       HT       0.417000       1.00800           0
     72373 W2       25040    TIP3     OH2      OT      -0.834000       15.9994           0
     72374 W2       25040    TIP3     H1       HT       0.417000       1.00800           0
     72375 W2       25040    TIP3     H2       HT       0.417000       1.00800           0
     72376 W2       25043    TIP3     OH2      OT      -0.834000       15.9994           0
     72377 W2       25043    TIP3     H1       HT       0.417000       1.00800           0
     72378 W2       25043    TIP3     H2       HT       0.417000       1.00800           0
     72379 W2       25044    TIP3     OH2      OT      -0.834000       15.9994           0
     72380 W2       25044    TIP3     H1       HT       0.417000       1.00800           0
     72381 W2       25044    TIP3     H2       HT       0.417000       1.00800           0
     72382 W2       25045    TIP3     OH2      OT      -0.834000       15.9994           0
     72383 W2       25045    TIP3     H1       HT       0.417000       1.00800           0
     72384 W2       25045    TIP3     H2       HT       0.417000       1.00800           0
     72385 W2       25046    TIP3     OH2      OT      -0.834000       15.9994           0
     72386 W2       25046    TIP3     H1       HT       0.417000       1.00800           0
     72387 W2       25046    TIP3     H2       HT       0.417000       1.00800           0
     72388 W2       25047    TIP3     OH2      OT      -0.834000       15.9994           0
     72389 W2       25047    TIP3     H1       HT       0.417000       1.00800           0
     72390 W2       25047    TIP3     H2       HT       0.417000       1.00800           0
     72391 W2       25048    TIP3     OH2      OT      -0.834000       15.9994           0
     72392 W2       25048    TIP3     H1       HT       0.417000       1.00800           0
     72393 W2       25048    TIP3     H2       HT       0.417000       1.00800           0
     72394 W2       25049    TIP3     OH2      OT      -0.834000       15.9994           0
     72395 W2       25049    TIP3     H1       HT       0.417000       1.00800           0
     72396 W2       25049    TIP3     H2       HT       0.417000       1.00800           0
     72397 W2       25050    TIP3     OH2      OT      -0.834000       15.9994           0
     72398 W2       25050    TIP3     H1       HT       0.417000       1.00800           0
     72399 W2       25050    TIP3     H2       HT       0.417000       1.00800           0
     72400 W2       25053    TIP3     OH2      OT      -0.834000       15.9994           0
     72401 W2       25053    TIP3     H1       HT       0.417000       1.00800           0
     72402 W2       25053    TIP3     H2       HT       0.417000       1.00800           0
     72403 W2       25054    TIP3     OH2      OT      -0.834000       15.9994           0
     72404 W2       25054    TIP3     H1       HT       0.417000       1.00800           0
     72405 W2       25054    TIP3     H2       HT       0.417000       1.00800           0
     72406 W2       25055    TIP3     OH2      OT      -0.834000       15.9994           0
     72407 W2       25055    TIP3     H1       HT       0.417000       1.00800           0
     72408 W2       25055    TIP3     H2       HT       0.417000       1.00800           0
     72409 W2       25056    TIP3     OH2      OT      -0.834000       15.9994           0
     72410 W2       25056    TIP3     H1       HT       0.417000       1.00800           0
     72411 W2       25056    TIP3     H2       HT       0.417000       1.00800           0
     72412 W2       25059    TIP3     OH2      OT      -0.834000       15.9994           0
     72413 W2       25059    TIP3     H1       HT       0.417000       1.00800           0
     72414 W2       25059    TIP3     H2       HT       0.417000       1.00800           0
     72415 W2       25060    TIP3     OH2      OT      -0.834000       15.9994           0
     72416 W2       25060    TIP3     H1       HT       0.417000       1.00800           0
     72417 W2       25060    TIP3     H2       HT       0.417000       1.00800           0
     72418 W2       25061    TIP3     OH2      OT      -0.834000       15.9994           0
     72419 W2       25061    TIP3     H1       HT       0.417000       1.00800           0
     72420 W2       25061    TIP3     H2       HT       0.417000       1.00800           0
     72421 W2       25063    TIP3     OH2      OT      -0.834000       15.9994           0
     72422 W2       25063    TIP3     H1       HT       0.417000       1.00800           0
     72423 W2       25063    TIP3     H2       HT       0.417000       1.00800           0
     72424 W2       25064    TIP3     OH2      OT      -0.834000       15.9994           0
     72425 W2       25064    TIP3     H1       HT       0.417000       1.00800           0
     72426 W2       25064    TIP3     H2       HT       0.417000       1.00800           0
     72427 W2       25065    TIP3     OH2      OT      -0.834000       15.9994           0
     72428 W2       25065    TIP3     H1       HT       0.417000       1.00800           0
     72429 W2       25065    TIP3     H2       HT       0.417000       1.00800           0
     72430 W2       25066    TIP3     OH2      OT      -0.834000       15.9994           0
     72431 W2       25066    TIP3     H1       HT       0.417000       1.00800           0
     72432 W2       25066    TIP3     H2       HT       0.417000       1.00800           0
     72433 W2       25068    TIP3     OH2      OT      -0.834000       15.9994           0
     72434 W2       25068    TIP3     H1       HT       0.417000       1.00800           0
     72435 W2       25068    TIP3     H2       HT       0.417000       1.00800           0
     72436 W2       25072    TIP3     OH2      OT      -0.834000       15.9994           0
     72437 W2       25072    TIP3     H1       HT       0.417000       1.00800           0
     72438 W2       25072    TIP3     H2       HT       0.417000       1.00800           0
     72439 W2       25073    TIP3     OH2      OT      -0.834000       15.9994           0
     72440 W2       25073    TIP3     H1       HT       0.417000       1.00800           0
     72441 W2       25073    TIP3     H2       HT       0.417000       1.00800           0
     72442 W2       25074    TIP3     OH2      OT      -0.834000       15.9994           0
     72443 W2       25074    TIP3     H1       HT       0.417000       1.00800           0
     72444 W2       25074    TIP3     H2       HT       0.417000       1.00800           0
     72445 W2       25075    TIP3     OH2      OT      -0.834000       15.9994           0
     72446 W2       25075    TIP3     H1       HT       0.417000       1.00800           0
     72447 W2       25075    TIP3     H2       HT       0.417000       1.00800           0
     72448 W2       25076    TIP3     OH2      OT      -0.834000       15.9994           0
     72449 W2       25076    TIP3     H1       HT       0.417000       1.00800           0
     72450 W2       25076    TIP3     H2       HT       0.417000       1.00800           0
     72451 W2       25077    TIP3     OH2      OT      -0.834000       15.9994           0
     72452 W2       25077    TIP3     H1       HT       0.417000       1.00800           0
     72453 W2       25077    TIP3     H2       HT       0.417000       1.00800           0
     72454 W2       25078    TIP3     OH2      OT      -0.834000       15.9994           0
     72455 W2       25078    TIP3     H1       HT       0.417000       1.00800           0
     72456 W2       25078    TIP3     H2       HT       0.417000       1.00800           0
     72457 W2       25079    TIP3     OH2      OT      -0.834000       15.9994           0
     72458 W2       25079    TIP3     H1       HT       0.417000       1.00800           0
     72459 W2       25079    TIP3     H2       HT       0.417000       1.00800           0
     72460 W2       25080    TIP3     OH2      OT      -0.834000       15.9994           0
     72461 W2       25080    TIP3     H1       HT       0.417000       1.00800           0
     72462 W2       25080    TIP3     H2       HT       0.417000       1.00800           0
     72463 W2       25081    TIP3     OH2      OT      -0.834000       15.9994           0
     72464 W2       25081    TIP3     H1       HT       0.417000       1.00800           0
     72465 W2       25081    TIP3     H2       HT       0.417000       1.00800           0
     72466 W2       25082    TIP3     OH2      OT      -0.834000       15.9994           0
     72467 W2       25082    TIP3     H1       HT       0.417000       1.00800           0
     72468 W2       25082    TIP3     H2       HT       0.417000       1.00800           0
     72469 W2       25083    TIP3     OH2      OT      -0.834000       15.9994           0
     72470 W2       25083    TIP3     H1       HT       0.417000       1.00800           0
     72471 W2       25083    TIP3     H2       HT       0.417000       1.00800           0
     72472 W2       25084    TIP3     OH2      OT      -0.834000       15.9994           0
     72473 W2       25084    TIP3     H1       HT       0.417000       1.00800           0
     72474 W2       25084    TIP3     H2       HT       0.417000       1.00800           0
     72475 W2       25085    TIP3     OH2      OT      -0.834000       15.9994           0
     72476 W2       25085    TIP3     H1       HT       0.417000       1.00800           0
     72477 W2       25085    TIP3     H2       HT       0.417000       1.00800           0
     72478 W2       25086    TIP3     OH2      OT      -0.834000       15.9994           0
     72479 W2       25086    TIP3     H1       HT       0.417000       1.00800           0
     72480 W2       25086    TIP3     H2       HT       0.417000       1.00800           0
     72481 W2       25087    TIP3     OH2      OT      -0.834000       15.9994           0
     72482 W2       25087    TIP3     H1       HT       0.417000       1.00800           0
     72483 W2       25087    TIP3     H2       HT       0.417000       1.00800           0
     72484 W2       25088    TIP3     OH2      OT      -0.834000       15.9994           0
     72485 W2       25088    TIP3     H1       HT       0.417000       1.00800           0
     72486 W2       25088    TIP3     H2       HT       0.417000       1.00800           0
     72487 W2       25089    TIP3     OH2      OT      -0.834000       15.9994           0
     72488 W2       25089    TIP3     H1       HT       0.417000       1.00800           0
     72489 W2       25089    TIP3     H2       HT       0.417000       1.00800           0
     72490 W2       25090    TIP3     OH2      OT      -0.834000       15.9994           0
     72491 W2       25090    TIP3     H1       HT       0.417000       1.00800           0
     72492 W2       25090    TIP3     H2       HT       0.417000       1.00800           0
     72493 W2       25091    TIP3     OH2      OT      -0.834000       15.9994           0
     72494 W2       25091    TIP3     H1       HT       0.417000       1.00800           0
     72495 W2       25091    TIP3     H2       HT       0.417000       1.00800           0
     72496 W2       25092    TIP3     OH2      OT      -0.834000       15.9994           0
     72497 W2       25092    TIP3     H1       HT       0.417000       1.00800           0
     72498 W2       25092    TIP3     H2       HT       0.417000       1.00800           0
     72499 W2       25095    TIP3     OH2      OT      -0.834000       15.9994           0
     72500 W2       25095    TIP3     H1       HT       0.417000       1.00800           0
     72501 W2       25095    TIP3     H2       HT       0.417000       1.00800           0
     72502 W2       25098    TIP3     OH2      OT      -0.834000       15.9994           0
     72503 W2       25098    TIP3     H1       HT       0.417000       1.00800           0
     72504 W2       25098    TIP3     H2       HT       0.417000       1.00800           0
     72505 W2       25099    TIP3     OH2      OT      -0.834000       15.9994           0
     72506 W2       25099    TIP3     H1       HT       0.417000       1.00800           0
     72507 W2       25099    TIP3     H2       HT       0.417000       1.00800           0
     72508 W2       25100    TIP3     OH2      OT      -0.834000       15.9994           0
     72509 W2       25100    TIP3     H1       HT       0.417000       1.00800           0
     72510 W2       25100    TIP3     H2       HT       0.417000       1.00800           0
     72511 W2       25101    TIP3     OH2      OT      -0.834000       15.9994           0
     72512 W2       25101    TIP3     H1       HT       0.417000       1.00800           0
     72513 W2       25101    TIP3     H2       HT       0.417000       1.00800           0
     72514 W2       25102    TIP3     OH2      OT      -0.834000       15.9994           0
     72515 W2       25102    TIP3     H1       HT       0.417000       1.00800           0
     72516 W2       25102    TIP3     H2       HT       0.417000       1.00800           0
     72517 W2       25103    TIP3     OH2      OT      -0.834000       15.9994           0
     72518 W2       25103    TIP3     H1       HT       0.417000       1.00800           0
     72519 W2       25103    TIP3     H2       HT       0.417000       1.00800           0
     72520 W2       25104    TIP3     OH2      OT      -0.834000       15.9994           0
     72521 W2       25104    TIP3     H1       HT       0.417000       1.00800           0
     72522 W2       25104    TIP3     H2       HT       0.417000       1.00800           0
     72523 W2       25105    TIP3     OH2      OT      -0.834000       15.9994           0
     72524 W2       25105    TIP3     H1       HT       0.417000       1.00800           0
     72525 W2       25105    TIP3     H2       HT       0.417000       1.00800           0
     72526 W2       25106    TIP3     OH2      OT      -0.834000       15.9994           0
     72527 W2       25106    TIP3     H1       HT       0.417000       1.00800           0
     72528 W2       25106    TIP3     H2       HT       0.417000       1.00800           0
     72529 W2       25107    TIP3     OH2      OT      -0.834000       15.9994           0
     72530 W2       25107    TIP3     H1       HT       0.417000       1.00800           0
     72531 W2       25107    TIP3     H2       HT       0.417000       1.00800           0
     72532 W2       25108    TIP3     OH2      OT      -0.834000       15.9994           0
     72533 W2       25108    TIP3     H1       HT       0.417000       1.00800           0
     72534 W2       25108    TIP3     H2       HT       0.417000       1.00800           0
     72535 W2       25109    TIP3     OH2      OT      -0.834000       15.9994           0
     72536 W2       25109    TIP3     H1       HT       0.417000       1.00800           0
     72537 W2       25109    TIP3     H2       HT       0.417000       1.00800           0
     72538 W2       25110    TIP3     OH2      OT      -0.834000       15.9994           0
     72539 W2       25110    TIP3     H1       HT       0.417000       1.00800           0
     72540 W2       25110    TIP3     H2       HT       0.417000       1.00800           0
     72541 W2       25111    TIP3     OH2      OT      -0.834000       15.9994           0
     72542 W2       25111    TIP3     H1       HT       0.417000       1.00800           0
     72543 W2       25111    TIP3     H2       HT       0.417000       1.00800           0
     72544 W2       25112    TIP3     OH2      OT      -0.834000       15.9994           0
     72545 W2       25112    TIP3     H1       HT       0.417000       1.00800           0
     72546 W2       25112    TIP3     H2       HT       0.417000       1.00800           0
     72547 W2       25114    TIP3     OH2      OT      -0.834000       15.9994           0
     72548 W2       25114    TIP3     H1       HT       0.417000       1.00800           0
     72549 W2       25114    TIP3     H2       HT       0.417000       1.00800           0
     72550 W2       25115    TIP3     OH2      OT      -0.834000       15.9994           0
     72551 W2       25115    TIP3     H1       HT       0.417000       1.00800           0
     72552 W2       25115    TIP3     H2       HT       0.417000       1.00800           0
     72553 W2       25116    TIP3     OH2      OT      -0.834000       15.9994           0
     72554 W2       25116    TIP3     H1       HT       0.417000       1.00800           0
     72555 W2       25116    TIP3     H2       HT       0.417000       1.00800           0
     72556 W2       25117    TIP3     OH2      OT      -0.834000       15.9994           0
     72557 W2       25117    TIP3     H1       HT       0.417000       1.00800           0
     72558 W2       25117    TIP3     H2       HT       0.417000       1.00800           0
     72559 W2       25118    TIP3     OH2      OT      -0.834000       15.9994           0
     72560 W2       25118    TIP3     H1       HT       0.417000       1.00800           0
     72561 W2       25118    TIP3     H2       HT       0.417000       1.00800           0
     72562 W2       25119    TIP3     OH2      OT      -0.834000       15.9994           0
     72563 W2       25119    TIP3     H1       HT       0.417000       1.00800           0
     72564 W2       25119    TIP3     H2       HT       0.417000       1.00800           0
     72565 W2       25120    TIP3     OH2      OT      -0.834000       15.9994           0
     72566 W2       25120    TIP3     H1       HT       0.417000       1.00800           0
     72567 W2       25120    TIP3     H2       HT       0.417000       1.00800           0
     72568 W2       25121    TIP3     OH2      OT      -0.834000       15.9994           0
     72569 W2       25121    TIP3     H1       HT       0.417000       1.00800           0
     72570 W2       25121    TIP3     H2       HT       0.417000       1.00800           0
     72571 W2       25122    TIP3     OH2      OT      -0.834000       15.9994           0
     72572 W2       25122    TIP3     H1       HT       0.417000       1.00800           0
     72573 W2       25122    TIP3     H2       HT       0.417000       1.00800           0
     72574 W2       25123    TIP3     OH2      OT      -0.834000       15.9994           0
     72575 W2       25123    TIP3     H1       HT       0.417000       1.00800           0
     72576 W2       25123    TIP3     H2       HT       0.417000       1.00800           0
     72577 W2       25124    TIP3     OH2      OT      -0.834000       15.9994           0
     72578 W2       25124    TIP3     H1       HT       0.417000       1.00800           0
     72579 W2       25124    TIP3     H2       HT       0.417000       1.00800           0
     72580 W2       25125    TIP3     OH2      OT      -0.834000       15.9994           0
     72581 W2       25125    TIP3     H1       HT       0.417000       1.00800           0
     72582 W2       25125    TIP3     H2       HT       0.417000       1.00800           0
     72583 W2       25127    TIP3     OH2      OT      -0.834000       15.9994           0
     72584 W2       25127    TIP3     H1       HT       0.417000       1.00800           0
     72585 W2       25127    TIP3     H2       HT       0.417000       1.00800           0
     72586 W2       25128    TIP3     OH2      OT      -0.834000       15.9994           0
     72587 W2       25128    TIP3     H1       HT       0.417000       1.00800           0
     72588 W2       25128    TIP3     H2       HT       0.417000       1.00800           0
     72589 W2       25129    TIP3     OH2      OT      -0.834000       15.9994           0
     72590 W2       25129    TIP3     H1       HT       0.417000       1.00800           0
     72591 W2       25129    TIP3     H2       HT       0.417000       1.00800           0
     72592 W2       25130    TIP3     OH2      OT      -0.834000       15.9994           0
     72593 W2       25130    TIP3     H1       HT       0.417000       1.00800           0
     72594 W2       25130    TIP3     H2       HT       0.417000       1.00800           0
     72595 W2       25132    TIP3     OH2      OT      -0.834000       15.9994           0
     72596 W2       25132    TIP3     H1       HT       0.417000       1.00800           0
     72597 W2       25132    TIP3     H2       HT       0.417000       1.00800           0
     72598 W2       25133    TIP3     OH2      OT      -0.834000       15.9994           0
     72599 W2       25133    TIP3     H1       HT       0.417000       1.00800           0
     72600 W2       25133    TIP3     H2       HT       0.417000       1.00800           0
     72601 W2       25134    TIP3     OH2      OT      -0.834000       15.9994           0
     72602 W2       25134    TIP3     H1       HT       0.417000       1.00800           0
     72603 W2       25134    TIP3     H2       HT       0.417000       1.00800           0
     72604 W2       25135    TIP3     OH2      OT      -0.834000       15.9994           0
     72605 W2       25135    TIP3     H1       HT       0.417000       1.00800           0
     72606 W2       25135    TIP3     H2       HT       0.417000       1.00800           0
     72607 W2       25137    TIP3     OH2      OT      -0.834000       15.9994           0
     72608 W2       25137    TIP3     H1       HT       0.417000       1.00800           0
     72609 W2       25137    TIP3     H2       HT       0.417000       1.00800           0
     72610 W2       25139    TIP3     OH2      OT      -0.834000       15.9994           0
     72611 W2       25139    TIP3     H1       HT       0.417000       1.00800           0
     72612 W2       25139    TIP3     H2       HT       0.417000       1.00800           0
     72613 W2       25141    TIP3     OH2      OT      -0.834000       15.9994           0
     72614 W2       25141    TIP3     H1       HT       0.417000       1.00800           0
     72615 W2       25141    TIP3     H2       HT       0.417000       1.00800           0
     72616 W2       25142    TIP3     OH2      OT      -0.834000       15.9994           0
     72617 W2       25142    TIP3     H1       HT       0.417000       1.00800           0
     72618 W2       25142    TIP3     H2       HT       0.417000       1.00800           0
     72619 W2       25143    TIP3     OH2      OT      -0.834000       15.9994           0
     72620 W2       25143    TIP3     H1       HT       0.417000       1.00800           0
     72621 W2       25143    TIP3     H2       HT       0.417000       1.00800           0
     72622 W2       25144    TIP3     OH2      OT      -0.834000       15.9994           0
     72623 W2       25144    TIP3     H1       HT       0.417000       1.00800           0
     72624 W2       25144    TIP3     H2       HT       0.417000       1.00800           0
     72625 W2       25145    TIP3     OH2      OT      -0.834000       15.9994           0
     72626 W2       25145    TIP3     H1       HT       0.417000       1.00800           0
     72627 W2       25145    TIP3     H2       HT       0.417000       1.00800           0
     72628 W2       25148    TIP3     OH2      OT      -0.834000       15.9994           0
     72629 W2       25148    TIP3     H1       HT       0.417000       1.00800           0
     72630 W2       25148    TIP3     H2       HT       0.417000       1.00800           0
     72631 W2       25149    TIP3     OH2      OT      -0.834000       15.9994           0
     72632 W2       25149    TIP3     H1       HT       0.417000       1.00800           0
     72633 W2       25149    TIP3     H2       HT       0.417000       1.00800           0
     72634 W2       25150    TIP3     OH2      OT      -0.834000       15.9994           0
     72635 W2       25150    TIP3     H1       HT       0.417000       1.00800           0
     72636 W2       25150    TIP3     H2       HT       0.417000       1.00800           0
     72637 W2       25151    TIP3     OH2      OT      -0.834000       15.9994           0
     72638 W2       25151    TIP3     H1       HT       0.417000       1.00800           0
     72639 W2       25151    TIP3     H2       HT       0.417000       1.00800           0
     72640 W2       25154    TIP3     OH2      OT      -0.834000       15.9994           0
     72641 W2       25154    TIP3     H1       HT       0.417000       1.00800           0
     72642 W2       25154    TIP3     H2       HT       0.417000       1.00800           0
     72643 W2       25157    TIP3     OH2      OT      -0.834000       15.9994           0
     72644 W2       25157    TIP3     H1       HT       0.417000       1.00800           0
     72645 W2       25157    TIP3     H2       HT       0.417000       1.00800           0
     72646 W2       25158    TIP3     OH2      OT      -0.834000       15.9994           0
     72647 W2       25158    TIP3     H1       HT       0.417000       1.00800           0
     72648 W2       25158    TIP3     H2       HT       0.417000       1.00800           0
     72649 W2       25159    TIP3     OH2      OT      -0.834000       15.9994           0
     72650 W2       25159    TIP3     H1       HT       0.417000       1.00800           0
     72651 W2       25159    TIP3     H2       HT       0.417000       1.00800           0
     72652 W2       25160    TIP3     OH2      OT      -0.834000       15.9994           0
     72653 W2       25160    TIP3     H1       HT       0.417000       1.00800           0
     72654 W2       25160    TIP3     H2       HT       0.417000       1.00800           0
     72655 W2       25161    TIP3     OH2      OT      -0.834000       15.9994           0
     72656 W2       25161    TIP3     H1       HT       0.417000       1.00800           0
     72657 W2       25161    TIP3     H2       HT       0.417000       1.00800           0
     72658 W2       25163    TIP3     OH2      OT      -0.834000       15.9994           0
     72659 W2       25163    TIP3     H1       HT       0.417000       1.00800           0
     72660 W2       25163    TIP3     H2       HT       0.417000       1.00800           0
     72661 W2       25164    TIP3     OH2      OT      -0.834000       15.9994           0
     72662 W2       25164    TIP3     H1       HT       0.417000       1.00800           0
     72663 W2       25164    TIP3     H2       HT       0.417000       1.00800           0
     72664 W2       25165    TIP3     OH2      OT      -0.834000       15.9994           0
     72665 W2       25165    TIP3     H1       HT       0.417000       1.00800           0
     72666 W2       25165    TIP3     H2       HT       0.417000       1.00800           0
     72667 W2       25166    TIP3     OH2      OT      -0.834000       15.9994           0
     72668 W2       25166    TIP3     H1       HT       0.417000       1.00800           0
     72669 W2       25166    TIP3     H2       HT       0.417000       1.00800           0
     72670 W2       25167    TIP3     OH2      OT      -0.834000       15.9994           0
     72671 W2       25167    TIP3     H1       HT       0.417000       1.00800           0
     72672 W2       25167    TIP3     H2       HT       0.417000       1.00800           0
     72673 W2       25168    TIP3     OH2      OT      -0.834000       15.9994           0
     72674 W2       25168    TIP3     H1       HT       0.417000       1.00800           0
     72675 W2       25168    TIP3     H2       HT       0.417000       1.00800           0
     72676 W2       25169    TIP3     OH2      OT      -0.834000       15.9994           0
     72677 W2       25169    TIP3     H1       HT       0.417000       1.00800           0
     72678 W2       25169    TIP3     H2       HT       0.417000       1.00800           0
     72679 W2       25170    TIP3     OH2      OT      -0.834000       15.9994           0
     72680 W2       25170    TIP3     H1       HT       0.417000       1.00800           0
     72681 W2       25170    TIP3     H2       HT       0.417000       1.00800           0
     72682 W2       25171    TIP3     OH2      OT      -0.834000       15.9994           0
     72683 W2       25171    TIP3     H1       HT       0.417000       1.00800           0
     72684 W2       25171    TIP3     H2       HT       0.417000       1.00800           0
     72685 W2       25172    TIP3     OH2      OT      -0.834000       15.9994           0
     72686 W2       25172    TIP3     H1       HT       0.417000       1.00800           0
     72687 W2       25172    TIP3     H2       HT       0.417000       1.00800           0
     72688 W2       25173    TIP3     OH2      OT      -0.834000       15.9994           0
     72689 W2       25173    TIP3     H1       HT       0.417000       1.00800           0
     72690 W2       25173    TIP3     H2       HT       0.417000       1.00800           0
     72691 W2       25176    TIP3     OH2      OT      -0.834000       15.9994           0
     72692 W2       25176    TIP3     H1       HT       0.417000       1.00800           0
     72693 W2       25176    TIP3     H2       HT       0.417000       1.00800           0
     72694 W2       25177    TIP3     OH2      OT      -0.834000       15.9994           0
     72695 W2       25177    TIP3     H1       HT       0.417000       1.00800           0
     72696 W2       25177    TIP3     H2       HT       0.417000       1.00800           0
     72697 W2       25178    TIP3     OH2      OT      -0.834000       15.9994           0
     72698 W2       25178    TIP3     H1       HT       0.417000       1.00800           0
     72699 W2       25178    TIP3     H2       HT       0.417000       1.00800           0
     72700 W2       25179    TIP3     OH2      OT      -0.834000       15.9994           0
     72701 W2       25179    TIP3     H1       HT       0.417000       1.00800           0
     72702 W2       25179    TIP3     H2       HT       0.417000       1.00800           0
     72703 W2       25180    TIP3     OH2      OT      -0.834000       15.9994           0
     72704 W2       25180    TIP3     H1       HT       0.417000       1.00800           0
     72705 W2       25180    TIP3     H2       HT       0.417000       1.00800           0
     72706 W2       25181    TIP3     OH2      OT      -0.834000       15.9994           0
     72707 W2       25181    TIP3     H1       HT       0.417000       1.00800           0
     72708 W2       25181    TIP3     H2       HT       0.417000       1.00800           0
     72709 W2       25183    TIP3     OH2      OT      -0.834000       15.9994           0
     72710 W2       25183    TIP3     H1       HT       0.417000       1.00800           0
     72711 W2       25183    TIP3     H2       HT       0.417000       1.00800           0
     72712 W2       25184    TIP3     OH2      OT      -0.834000       15.9994           0
     72713 W2       25184    TIP3     H1       HT       0.417000       1.00800           0
     72714 W2       25184    TIP3     H2       HT       0.417000       1.00800           0
     72715 W2       25185    TIP3     OH2      OT      -0.834000       15.9994           0
     72716 W2       25185    TIP3     H1       HT       0.417000       1.00800           0
     72717 W2       25185    TIP3     H2       HT       0.417000       1.00800           0
     72718 W2       25189    TIP3     OH2      OT      -0.834000       15.9994           0
     72719 W2       25189    TIP3     H1       HT       0.417000       1.00800           0
     72720 W2       25189    TIP3     H2       HT       0.417000       1.00800           0
     72721 W2       25191    TIP3     OH2      OT      -0.834000       15.9994           0
     72722 W2       25191    TIP3     H1       HT       0.417000       1.00800           0
     72723 W2       25191    TIP3     H2       HT       0.417000       1.00800           0
     72724 W2       25192    TIP3     OH2      OT      -0.834000       15.9994           0
     72725 W2       25192    TIP3     H1       HT       0.417000       1.00800           0
     72726 W2       25192    TIP3     H2       HT       0.417000       1.00800           0
     72727 W2       25193    TIP3     OH2      OT      -0.834000       15.9994           0
     72728 W2       25193    TIP3     H1       HT       0.417000       1.00800           0
     72729 W2       25193    TIP3     H2       HT       0.417000       1.00800           0
     72730 W2       25194    TIP3     OH2      OT      -0.834000       15.9994           0
     72731 W2       25194    TIP3     H1       HT       0.417000       1.00800           0
     72732 W2       25194    TIP3     H2       HT       0.417000       1.00800           0
     72733 W2       25195    TIP3     OH2      OT      -0.834000       15.9994           0
     72734 W2       25195    TIP3     H1       HT       0.417000       1.00800           0
     72735 W2       25195    TIP3     H2       HT       0.417000       1.00800           0
     72736 W2       25196    TIP3     OH2      OT      -0.834000       15.9994           0
     72737 W2       25196    TIP3     H1       HT       0.417000       1.00800           0
     72738 W2       25196    TIP3     H2       HT       0.417000       1.00800           0
     72739 W2       25197    TIP3     OH2      OT      -0.834000       15.9994           0
     72740 W2       25197    TIP3     H1       HT       0.417000       1.00800           0
     72741 W2       25197    TIP3     H2       HT       0.417000       1.00800           0
     72742 W2       25198    TIP3     OH2      OT      -0.834000       15.9994           0
     72743 W2       25198    TIP3     H1       HT       0.417000       1.00800           0
     72744 W2       25198    TIP3     H2       HT       0.417000       1.00800           0
     72745 W2       25199    TIP3     OH2      OT      -0.834000       15.9994           0
     72746 W2       25199    TIP3     H1       HT       0.417000       1.00800           0
     72747 W2       25199    TIP3     H2       HT       0.417000       1.00800           0
     72748 W2       25201    TIP3     OH2      OT      -0.834000       15.9994           0
     72749 W2       25201    TIP3     H1       HT       0.417000       1.00800           0
     72750 W2       25201    TIP3     H2       HT       0.417000       1.00800           0
     72751 W2       25203    TIP3     OH2      OT      -0.834000       15.9994           0
     72752 W2       25203    TIP3     H1       HT       0.417000       1.00800           0
     72753 W2       25203    TIP3     H2       HT       0.417000       1.00800           0
     72754 W2       25204    TIP3     OH2      OT      -0.834000       15.9994           0
     72755 W2       25204    TIP3     H1       HT       0.417000       1.00800           0
     72756 W2       25204    TIP3     H2       HT       0.417000       1.00800           0
     72757 W2       25205    TIP3     OH2      OT      -0.834000       15.9994           0
     72758 W2       25205    TIP3     H1       HT       0.417000       1.00800           0
     72759 W2       25205    TIP3     H2       HT       0.417000       1.00800           0
     72760 W2       25206    TIP3     OH2      OT      -0.834000       15.9994           0
     72761 W2       25206    TIP3     H1       HT       0.417000       1.00800           0
     72762 W2       25206    TIP3     H2       HT       0.417000       1.00800           0
     72763 W2       25207    TIP3     OH2      OT      -0.834000       15.9994           0
     72764 W2       25207    TIP3     H1       HT       0.417000       1.00800           0
     72765 W2       25207    TIP3     H2       HT       0.417000       1.00800           0
     72766 W2       25208    TIP3     OH2      OT      -0.834000       15.9994           0
     72767 W2       25208    TIP3     H1       HT       0.417000       1.00800           0
     72768 W2       25208    TIP3     H2       HT       0.417000       1.00800           0
     72769 W2       25209    TIP3     OH2      OT      -0.834000       15.9994           0
     72770 W2       25209    TIP3     H1       HT       0.417000       1.00800           0
     72771 W2       25209    TIP3     H2       HT       0.417000       1.00800           0
     72772 W2       25210    TIP3     OH2      OT      -0.834000       15.9994           0
     72773 W2       25210    TIP3     H1       HT       0.417000       1.00800           0
     72774 W2       25210    TIP3     H2       HT       0.417000       1.00800           0
     72775 W2       25211    TIP3     OH2      OT      -0.834000       15.9994           0
     72776 W2       25211    TIP3     H1       HT       0.417000       1.00800           0
     72777 W2       25211    TIP3     H2       HT       0.417000       1.00800           0
     72778 W2       25213    TIP3     OH2      OT      -0.834000       15.9994           0
     72779 W2       25213    TIP3     H1       HT       0.417000       1.00800           0
     72780 W2       25213    TIP3     H2       HT       0.417000       1.00800           0
     72781 W2       25214    TIP3     OH2      OT      -0.834000       15.9994           0
     72782 W2       25214    TIP3     H1       HT       0.417000       1.00800           0
     72783 W2       25214    TIP3     H2       HT       0.417000       1.00800           0
     72784 W2       25215    TIP3     OH2      OT      -0.834000       15.9994           0
     72785 W2       25215    TIP3     H1       HT       0.417000       1.00800           0
     72786 W2       25215    TIP3     H2       HT       0.417000       1.00800           0
     72787 W2       25217    TIP3     OH2      OT      -0.834000       15.9994           0
     72788 W2       25217    TIP3     H1       HT       0.417000       1.00800           0
     72789 W2       25217    TIP3     H2       HT       0.417000       1.00800           0
     72790 W2       25218    TIP3     OH2      OT      -0.834000       15.9994           0
     72791 W2       25218    TIP3     H1       HT       0.417000       1.00800           0
     72792 W2       25218    TIP3     H2       HT       0.417000       1.00800           0
     72793 W2       25219    TIP3     OH2      OT      -0.834000       15.9994           0
     72794 W2       25219    TIP3     H1       HT       0.417000       1.00800           0
     72795 W2       25219    TIP3     H2       HT       0.417000       1.00800           0
     72796 W2       25220    TIP3     OH2      OT      -0.834000       15.9994           0
     72797 W2       25220    TIP3     H1       HT       0.417000       1.00800           0
     72798 W2       25220    TIP3     H2       HT       0.417000       1.00800           0
     72799 W2       25221    TIP3     OH2      OT      -0.834000       15.9994           0
     72800 W2       25221    TIP3     H1       HT       0.417000       1.00800           0
     72801 W2       25221    TIP3     H2       HT       0.417000       1.00800           0
     72802 W2       25222    TIP3     OH2      OT      -0.834000       15.9994           0
     72803 W2       25222    TIP3     H1       HT       0.417000       1.00800           0
     72804 W2       25222    TIP3     H2       HT       0.417000       1.00800           0
     72805 W2       25225    TIP3     OH2      OT      -0.834000       15.9994           0
     72806 W2       25225    TIP3     H1       HT       0.417000       1.00800           0
     72807 W2       25225    TIP3     H2       HT       0.417000       1.00800           0
     72808 W2       25227    TIP3     OH2      OT      -0.834000       15.9994           0
     72809 W2       25227    TIP3     H1       HT       0.417000       1.00800           0
     72810 W2       25227    TIP3     H2       HT       0.417000       1.00800           0
     72811 W2       25229    TIP3     OH2      OT      -0.834000       15.9994           0
     72812 W2       25229    TIP3     H1       HT       0.417000       1.00800           0
     72813 W2       25229    TIP3     H2       HT       0.417000       1.00800           0
     72814 W2       25231    TIP3     OH2      OT      -0.834000       15.9994           0
     72815 W2       25231    TIP3     H1       HT       0.417000       1.00800           0
     72816 W2       25231    TIP3     H2       HT       0.417000       1.00800           0
     72817 W2       25234    TIP3     OH2      OT      -0.834000       15.9994           0
     72818 W2       25234    TIP3     H1       HT       0.417000       1.00800           0
     72819 W2       25234    TIP3     H2       HT       0.417000       1.00800           0
     72820 W2       25236    TIP3     OH2      OT      -0.834000       15.9994           0
     72821 W2       25236    TIP3     H1       HT       0.417000       1.00800           0
     72822 W2       25236    TIP3     H2       HT       0.417000       1.00800           0
     72823 W2       25238    TIP3     OH2      OT      -0.834000       15.9994           0
     72824 W2       25238    TIP3     H1       HT       0.417000       1.00800           0
     72825 W2       25238    TIP3     H2       HT       0.417000       1.00800           0
     72826 W2       25240    TIP3     OH2      OT      -0.834000       15.9994           0
     72827 W2       25240    TIP3     H1       HT       0.417000       1.00800           0
     72828 W2       25240    TIP3     H2       HT       0.417000       1.00800           0
     72829 W2       25252    TIP3     OH2      OT      -0.834000       15.9994           0
     72830 W2       25252    TIP3     H1       HT       0.417000       1.00800           0
     72831 W2       25252    TIP3     H2       HT       0.417000       1.00800           0
     72832 W2       25253    TIP3     OH2      OT      -0.834000       15.9994           0
     72833 W2       25253    TIP3     H1       HT       0.417000       1.00800           0
     72834 W2       25253    TIP3     H2       HT       0.417000       1.00800           0
     72835 W2       25254    TIP3     OH2      OT      -0.834000       15.9994           0
     72836 W2       25254    TIP3     H1       HT       0.417000       1.00800           0
     72837 W2       25254    TIP3     H2       HT       0.417000       1.00800           0
     72838 W2       25255    TIP3     OH2      OT      -0.834000       15.9994           0
     72839 W2       25255    TIP3     H1       HT       0.417000       1.00800           0
     72840 W2       25255    TIP3     H2       HT       0.417000       1.00800           0
     72841 W2       25256    TIP3     OH2      OT      -0.834000       15.9994           0
     72842 W2       25256    TIP3     H1       HT       0.417000       1.00800           0
     72843 W2       25256    TIP3     H2       HT       0.417000       1.00800           0
     72844 W2       25259    TIP3     OH2      OT      -0.834000       15.9994           0
     72845 W2       25259    TIP3     H1       HT       0.417000       1.00800           0
     72846 W2       25259    TIP3     H2       HT       0.417000       1.00800           0
     72847 W2       25260    TIP3     OH2      OT      -0.834000       15.9994           0
     72848 W2       25260    TIP3     H1       HT       0.417000       1.00800           0
     72849 W2       25260    TIP3     H2       HT       0.417000       1.00800           0
     72850 W2       25261    TIP3     OH2      OT      -0.834000       15.9994           0
     72851 W2       25261    TIP3     H1       HT       0.417000       1.00800           0
     72852 W2       25261    TIP3     H2       HT       0.417000       1.00800           0
     72853 W2       25262    TIP3     OH2      OT      -0.834000       15.9994           0
     72854 W2       25262    TIP3     H1       HT       0.417000       1.00800           0
     72855 W2       25262    TIP3     H2       HT       0.417000       1.00800           0
     72856 W2       25263    TIP3     OH2      OT      -0.834000       15.9994           0
     72857 W2       25263    TIP3     H1       HT       0.417000       1.00800           0
     72858 W2       25263    TIP3     H2       HT       0.417000       1.00800           0
     72859 W2       25264    TIP3     OH2      OT      -0.834000       15.9994           0
     72860 W2       25264    TIP3     H1       HT       0.417000       1.00800           0
     72861 W2       25264    TIP3     H2       HT       0.417000       1.00800           0
     72862 W2       25265    TIP3     OH2      OT      -0.834000       15.9994           0
     72863 W2       25265    TIP3     H1       HT       0.417000       1.00800           0
     72864 W2       25265    TIP3     H2       HT       0.417000       1.00800           0
     72865 W2       25266    TIP3     OH2      OT      -0.834000       15.9994           0
     72866 W2       25266    TIP3     H1       HT       0.417000       1.00800           0
     72867 W2       25266    TIP3     H2       HT       0.417000       1.00800           0
     72868 W2       25269    TIP3     OH2      OT      -0.834000       15.9994           0
     72869 W2       25269    TIP3     H1       HT       0.417000       1.00800           0
     72870 W2       25269    TIP3     H2       HT       0.417000       1.00800           0
     72871 W2       25270    TIP3     OH2      OT      -0.834000       15.9994           0
     72872 W2       25270    TIP3     H1       HT       0.417000       1.00800           0
     72873 W2       25270    TIP3     H2       HT       0.417000       1.00800           0
     72874 W2       25271    TIP3     OH2      OT      -0.834000       15.9994           0
     72875 W2       25271    TIP3     H1       HT       0.417000       1.00800           0
     72876 W2       25271    TIP3     H2       HT       0.417000       1.00800           0
     72877 W2       25272    TIP3     OH2      OT      -0.834000       15.9994           0
     72878 W2       25272    TIP3     H1       HT       0.417000       1.00800           0
     72879 W2       25272    TIP3     H2       HT       0.417000       1.00800           0
     72880 W2       25275    TIP3     OH2      OT      -0.834000       15.9994           0
     72881 W2       25275    TIP3     H1       HT       0.417000       1.00800           0
     72882 W2       25275    TIP3     H2       HT       0.417000       1.00800           0
     72883 W2       25276    TIP3     OH2      OT      -0.834000       15.9994           0
     72884 W2       25276    TIP3     H1       HT       0.417000       1.00800           0
     72885 W2       25276    TIP3     H2       HT       0.417000       1.00800           0
     72886 W2       25277    TIP3     OH2      OT      -0.834000       15.9994           0
     72887 W2       25277    TIP3     H1       HT       0.417000       1.00800           0
     72888 W2       25277    TIP3     H2       HT       0.417000       1.00800           0
     72889 W2       25279    TIP3     OH2      OT      -0.834000       15.9994           0
     72890 W2       25279    TIP3     H1       HT       0.417000       1.00800           0
     72891 W2       25279    TIP3     H2       HT       0.417000       1.00800           0
     72892 W2       25280    TIP3     OH2      OT      -0.834000       15.9994           0
     72893 W2       25280    TIP3     H1       HT       0.417000       1.00800           0
     72894 W2       25280    TIP3     H2       HT       0.417000       1.00800           0
     72895 W2       25281    TIP3     OH2      OT      -0.834000       15.9994           0
     72896 W2       25281    TIP3     H1       HT       0.417000       1.00800           0
     72897 W2       25281    TIP3     H2       HT       0.417000       1.00800           0
     72898 W2       25282    TIP3     OH2      OT      -0.834000       15.9994           0
     72899 W2       25282    TIP3     H1       HT       0.417000       1.00800           0
     72900 W2       25282    TIP3     H2       HT       0.417000       1.00800           0
     72901 W2       25284    TIP3     OH2      OT      -0.834000       15.9994           0
     72902 W2       25284    TIP3     H1       HT       0.417000       1.00800           0
     72903 W2       25284    TIP3     H2       HT       0.417000       1.00800           0
     72904 W2       25288    TIP3     OH2      OT      -0.834000       15.9994           0
     72905 W2       25288    TIP3     H1       HT       0.417000       1.00800           0
     72906 W2       25288    TIP3     H2       HT       0.417000       1.00800           0
     72907 W2       25289    TIP3     OH2      OT      -0.834000       15.9994           0
     72908 W2       25289    TIP3     H1       HT       0.417000       1.00800           0
     72909 W2       25289    TIP3     H2       HT       0.417000       1.00800           0
     72910 W2       25290    TIP3     OH2      OT      -0.834000       15.9994           0
     72911 W2       25290    TIP3     H1       HT       0.417000       1.00800           0
     72912 W2       25290    TIP3     H2       HT       0.417000       1.00800           0
     72913 W2       25291    TIP3     OH2      OT      -0.834000       15.9994           0
     72914 W2       25291    TIP3     H1       HT       0.417000       1.00800           0
     72915 W2       25291    TIP3     H2       HT       0.417000       1.00800           0
     72916 W2       25292    TIP3     OH2      OT      -0.834000       15.9994           0
     72917 W2       25292    TIP3     H1       HT       0.417000       1.00800           0
     72918 W2       25292    TIP3     H2       HT       0.417000       1.00800           0
     72919 W2       25293    TIP3     OH2      OT      -0.834000       15.9994           0
     72920 W2       25293    TIP3     H1       HT       0.417000       1.00800           0
     72921 W2       25293    TIP3     H2       HT       0.417000       1.00800           0
     72922 W2       25294    TIP3     OH2      OT      -0.834000       15.9994           0
     72923 W2       25294    TIP3     H1       HT       0.417000       1.00800           0
     72924 W2       25294    TIP3     H2       HT       0.417000       1.00800           0
     72925 W2       25295    TIP3     OH2      OT      -0.834000       15.9994           0
     72926 W2       25295    TIP3     H1       HT       0.417000       1.00800           0
     72927 W2       25295    TIP3     H2       HT       0.417000       1.00800           0
     72928 W2       25296    TIP3     OH2      OT      -0.834000       15.9994           0
     72929 W2       25296    TIP3     H1       HT       0.417000       1.00800           0
     72930 W2       25296    TIP3     H2       HT       0.417000       1.00800           0
     72931 W2       25297    TIP3     OH2      OT      -0.834000       15.9994           0
     72932 W2       25297    TIP3     H1       HT       0.417000       1.00800           0
     72933 W2       25297    TIP3     H2       HT       0.417000       1.00800           0
     72934 W2       25298    TIP3     OH2      OT      -0.834000       15.9994           0
     72935 W2       25298    TIP3     H1       HT       0.417000       1.00800           0
     72936 W2       25298    TIP3     H2       HT       0.417000       1.00800           0
     72937 W2       25299    TIP3     OH2      OT      -0.834000       15.9994           0
     72938 W2       25299    TIP3     H1       HT       0.417000       1.00800           0
     72939 W2       25299    TIP3     H2       HT       0.417000       1.00800           0
     72940 W2       25300    TIP3     OH2      OT      -0.834000       15.9994           0
     72941 W2       25300    TIP3     H1       HT       0.417000       1.00800           0
     72942 W2       25300    TIP3     H2       HT       0.417000       1.00800           0
     72943 W2       25301    TIP3     OH2      OT      -0.834000       15.9994           0
     72944 W2       25301    TIP3     H1       HT       0.417000       1.00800           0
     72945 W2       25301    TIP3     H2       HT       0.417000       1.00800           0
     72946 W2       25302    TIP3     OH2      OT      -0.834000       15.9994           0
     72947 W2       25302    TIP3     H1       HT       0.417000       1.00800           0
     72948 W2       25302    TIP3     H2       HT       0.417000       1.00800           0
     72949 W2       25303    TIP3     OH2      OT      -0.834000       15.9994           0
     72950 W2       25303    TIP3     H1       HT       0.417000       1.00800           0
     72951 W2       25303    TIP3     H2       HT       0.417000       1.00800           0
     72952 W2       25304    TIP3     OH2      OT      -0.834000       15.9994           0
     72953 W2       25304    TIP3     H1       HT       0.417000       1.00800           0
     72954 W2       25304    TIP3     H2       HT       0.417000       1.00800           0
     72955 W2       25305    TIP3     OH2      OT      -0.834000       15.9994           0
     72956 W2       25305    TIP3     H1       HT       0.417000       1.00800           0
     72957 W2       25305    TIP3     H2       HT       0.417000       1.00800           0
     72958 W2       25306    TIP3     OH2      OT      -0.834000       15.9994           0
     72959 W2       25306    TIP3     H1       HT       0.417000       1.00800           0
     72960 W2       25306    TIP3     H2       HT       0.417000       1.00800           0
     72961 W2       25307    TIP3     OH2      OT      -0.834000       15.9994           0
     72962 W2       25307    TIP3     H1       HT       0.417000       1.00800           0
     72963 W2       25307    TIP3     H2       HT       0.417000       1.00800           0
     72964 W2       25308    TIP3     OH2      OT      -0.834000       15.9994           0
     72965 W2       25308    TIP3     H1       HT       0.417000       1.00800           0
     72966 W2       25308    TIP3     H2       HT       0.417000       1.00800           0
     72967 W2       25311    TIP3     OH2      OT      -0.834000       15.9994           0
     72968 W2       25311    TIP3     H1       HT       0.417000       1.00800           0
     72969 W2       25311    TIP3     H2       HT       0.417000       1.00800           0
     72970 W2       25314    TIP3     OH2      OT      -0.834000       15.9994           0
     72971 W2       25314    TIP3     H1       HT       0.417000       1.00800           0
     72972 W2       25314    TIP3     H2       HT       0.417000       1.00800           0
     72973 W2       25315    TIP3     OH2      OT      -0.834000       15.9994           0
     72974 W2       25315    TIP3     H1       HT       0.417000       1.00800           0
     72975 W2       25315    TIP3     H2       HT       0.417000       1.00800           0
     72976 W2       25316    TIP3     OH2      OT      -0.834000       15.9994           0
     72977 W2       25316    TIP3     H1       HT       0.417000       1.00800           0
     72978 W2       25316    TIP3     H2       HT       0.417000       1.00800           0
     72979 W2       25317    TIP3     OH2      OT      -0.834000       15.9994           0
     72980 W2       25317    TIP3     H1       HT       0.417000       1.00800           0
     72981 W2       25317    TIP3     H2       HT       0.417000       1.00800           0
     72982 W2       25318    TIP3     OH2      OT      -0.834000       15.9994           0
     72983 W2       25318    TIP3     H1       HT       0.417000       1.00800           0
     72984 W2       25318    TIP3     H2       HT       0.417000       1.00800           0
     72985 W2       25319    TIP3     OH2      OT      -0.834000       15.9994           0
     72986 W2       25319    TIP3     H1       HT       0.417000       1.00800           0
     72987 W2       25319    TIP3     H2       HT       0.417000       1.00800           0
     72988 W2       25320    TIP3     OH2      OT      -0.834000       15.9994           0
     72989 W2       25320    TIP3     H1       HT       0.417000       1.00800           0
     72990 W2       25320    TIP3     H2       HT       0.417000       1.00800           0
     72991 W2       25321    TIP3     OH2      OT      -0.834000       15.9994           0
     72992 W2       25321    TIP3     H1       HT       0.417000       1.00800           0
     72993 W2       25321    TIP3     H2       HT       0.417000       1.00800           0
     72994 W2       25322    TIP3     OH2      OT      -0.834000       15.9994           0
     72995 W2       25322    TIP3     H1       HT       0.417000       1.00800           0
     72996 W2       25322    TIP3     H2       HT       0.417000       1.00800           0
     72997 W2       25323    TIP3     OH2      OT      -0.834000       15.9994           0
     72998 W2       25323    TIP3     H1       HT       0.417000       1.00800           0
     72999 W2       25323    TIP3     H2       HT       0.417000       1.00800           0
     73000 W2       25324    TIP3     OH2      OT      -0.834000       15.9994           0
     73001 W2       25324    TIP3     H1       HT       0.417000       1.00800           0
     73002 W2       25324    TIP3     H2       HT       0.417000       1.00800           0
     73003 W2       25325    TIP3     OH2      OT      -0.834000       15.9994           0
     73004 W2       25325    TIP3     H1       HT       0.417000       1.00800           0
     73005 W2       25325    TIP3     H2       HT       0.417000       1.00800           0
     73006 W2       25326    TIP3     OH2      OT      -0.834000       15.9994           0
     73007 W2       25326    TIP3     H1       HT       0.417000       1.00800           0
     73008 W2       25326    TIP3     H2       HT       0.417000       1.00800           0
     73009 W2       25327    TIP3     OH2      OT      -0.834000       15.9994           0
     73010 W2       25327    TIP3     H1       HT       0.417000       1.00800           0
     73011 W2       25327    TIP3     H2       HT       0.417000       1.00800           0
     73012 W2       25328    TIP3     OH2      OT      -0.834000       15.9994           0
     73013 W2       25328    TIP3     H1       HT       0.417000       1.00800           0
     73014 W2       25328    TIP3     H2       HT       0.417000       1.00800           0
     73015 W2       25329    TIP3     OH2      OT      -0.834000       15.9994           0
     73016 W2       25329    TIP3     H1       HT       0.417000       1.00800           0
     73017 W2       25329    TIP3     H2       HT       0.417000       1.00800           0
     73018 W2       25330    TIP3     OH2      OT      -0.834000       15.9994           0
     73019 W2       25330    TIP3     H1       HT       0.417000       1.00800           0
     73020 W2       25330    TIP3     H2       HT       0.417000       1.00800           0
     73021 W2       25331    TIP3     OH2      OT      -0.834000       15.9994           0
     73022 W2       25331    TIP3     H1       HT       0.417000       1.00800           0
     73023 W2       25331    TIP3     H2       HT       0.417000       1.00800           0
     73024 W2       25332    TIP3     OH2      OT      -0.834000       15.9994           0
     73025 W2       25332    TIP3     H1       HT       0.417000       1.00800           0
     73026 W2       25332    TIP3     H2       HT       0.417000       1.00800           0
     73027 W2       25333    TIP3     OH2      OT      -0.834000       15.9994           0
     73028 W2       25333    TIP3     H1       HT       0.417000       1.00800           0
     73029 W2       25333    TIP3     H2       HT       0.417000       1.00800           0
     73030 W2       25334    TIP3     OH2      OT      -0.834000       15.9994           0
     73031 W2       25334    TIP3     H1       HT       0.417000       1.00800           0
     73032 W2       25334    TIP3     H2       HT       0.417000       1.00800           0
     73033 W2       25335    TIP3     OH2      OT      -0.834000       15.9994           0
     73034 W2       25335    TIP3     H1       HT       0.417000       1.00800           0
     73035 W2       25335    TIP3     H2       HT       0.417000       1.00800           0
     73036 W2       25336    TIP3     OH2      OT      -0.834000       15.9994           0
     73037 W2       25336    TIP3     H1       HT       0.417000       1.00800           0
     73038 W2       25336    TIP3     H2       HT       0.417000       1.00800           0
     73039 W2       25337    TIP3     OH2      OT      -0.834000       15.9994           0
     73040 W2       25337    TIP3     H1       HT       0.417000       1.00800           0
     73041 W2       25337    TIP3     H2       HT       0.417000       1.00800           0
     73042 W2       25338    TIP3     OH2      OT      -0.834000       15.9994           0
     73043 W2       25338    TIP3     H1       HT       0.417000       1.00800           0
     73044 W2       25338    TIP3     H2       HT       0.417000       1.00800           0
     73045 W2       25339    TIP3     OH2      OT      -0.834000       15.9994           0
     73046 W2       25339    TIP3     H1       HT       0.417000       1.00800           0
     73047 W2       25339    TIP3     H2       HT       0.417000       1.00800           0
     73048 W2       25341    TIP3     OH2      OT      -0.834000       15.9994           0
     73049 W2       25341    TIP3     H1       HT       0.417000       1.00800           0
     73050 W2       25341    TIP3     H2       HT       0.417000       1.00800           0
     73051 W2       25342    TIP3     OH2      OT      -0.834000       15.9994           0
     73052 W2       25342    TIP3     H1       HT       0.417000       1.00800           0
     73053 W2       25342    TIP3     H2       HT       0.417000       1.00800           0
     73054 W2       25343    TIP3     OH2      OT      -0.834000       15.9994           0
     73055 W2       25343    TIP3     H1       HT       0.417000       1.00800           0
     73056 W2       25343    TIP3     H2       HT       0.417000       1.00800           0
     73057 W2       25344    TIP3     OH2      OT      -0.834000       15.9994           0
     73058 W2       25344    TIP3     H1       HT       0.417000       1.00800           0
     73059 W2       25344    TIP3     H2       HT       0.417000       1.00800           0
     73060 W2       25346    TIP3     OH2      OT      -0.834000       15.9994           0
     73061 W2       25346    TIP3     H1       HT       0.417000       1.00800           0
     73062 W2       25346    TIP3     H2       HT       0.417000       1.00800           0
     73063 W2       25348    TIP3     OH2      OT      -0.834000       15.9994           0
     73064 W2       25348    TIP3     H1       HT       0.417000       1.00800           0
     73065 W2       25348    TIP3     H2       HT       0.417000       1.00800           0
     73066 W2       25350    TIP3     OH2      OT      -0.834000       15.9994           0
     73067 W2       25350    TIP3     H1       HT       0.417000       1.00800           0
     73068 W2       25350    TIP3     H2       HT       0.417000       1.00800           0
     73069 W2       25351    TIP3     OH2      OT      -0.834000       15.9994           0
     73070 W2       25351    TIP3     H1       HT       0.417000       1.00800           0
     73071 W2       25351    TIP3     H2       HT       0.417000       1.00800           0
     73072 W2       25352    TIP3     OH2      OT      -0.834000       15.9994           0
     73073 W2       25352    TIP3     H1       HT       0.417000       1.00800           0
     73074 W2       25352    TIP3     H2       HT       0.417000       1.00800           0
     73075 W2       25354    TIP3     OH2      OT      -0.834000       15.9994           0
     73076 W2       25354    TIP3     H1       HT       0.417000       1.00800           0
     73077 W2       25354    TIP3     H2       HT       0.417000       1.00800           0
     73078 W2       25355    TIP3     OH2      OT      -0.834000       15.9994           0
     73079 W2       25355    TIP3     H1       HT       0.417000       1.00800           0
     73080 W2       25355    TIP3     H2       HT       0.417000       1.00800           0
     73081 W2       25356    TIP3     OH2      OT      -0.834000       15.9994           0
     73082 W2       25356    TIP3     H1       HT       0.417000       1.00800           0
     73083 W2       25356    TIP3     H2       HT       0.417000       1.00800           0
     73084 W2       25357    TIP3     OH2      OT      -0.834000       15.9994           0
     73085 W2       25357    TIP3     H1       HT       0.417000       1.00800           0
     73086 W2       25357    TIP3     H2       HT       0.417000       1.00800           0
     73087 W2       25359    TIP3     OH2      OT      -0.834000       15.9994           0
     73088 W2       25359    TIP3     H1       HT       0.417000       1.00800           0
     73089 W2       25359    TIP3     H2       HT       0.417000       1.00800           0
     73090 W2       25362    TIP3     OH2      OT      -0.834000       15.9994           0
     73091 W2       25362    TIP3     H1       HT       0.417000       1.00800           0
     73092 W2       25362    TIP3     H2       HT       0.417000       1.00800           0
     73093 W2       25363    TIP3     OH2      OT      -0.834000       15.9994           0
     73094 W2       25363    TIP3     H1       HT       0.417000       1.00800           0
     73095 W2       25363    TIP3     H2       HT       0.417000       1.00800           0
     73096 W2       25364    TIP3     OH2      OT      -0.834000       15.9994           0
     73097 W2       25364    TIP3     H1       HT       0.417000       1.00800           0
     73098 W2       25364    TIP3     H2       HT       0.417000       1.00800           0
     73099 W2       25365    TIP3     OH2      OT      -0.834000       15.9994           0
     73100 W2       25365    TIP3     H1       HT       0.417000       1.00800           0
     73101 W2       25365    TIP3     H2       HT       0.417000       1.00800           0
     73102 W2       25366    TIP3     OH2      OT      -0.834000       15.9994           0
     73103 W2       25366    TIP3     H1       HT       0.417000       1.00800           0
     73104 W2       25366    TIP3     H2       HT       0.417000       1.00800           0
     73105 W2       25368    TIP3     OH2      OT      -0.834000       15.9994           0
     73106 W2       25368    TIP3     H1       HT       0.417000       1.00800           0
     73107 W2       25368    TIP3     H2       HT       0.417000       1.00800           0
     73108 W2       25369    TIP3     OH2      OT      -0.834000       15.9994           0
     73109 W2       25369    TIP3     H1       HT       0.417000       1.00800           0
     73110 W2       25369    TIP3     H2       HT       0.417000       1.00800           0
     73111 W2       25370    TIP3     OH2      OT      -0.834000       15.9994           0
     73112 W2       25370    TIP3     H1       HT       0.417000       1.00800           0
     73113 W2       25370    TIP3     H2       HT       0.417000       1.00800           0
     73114 W2       25371    TIP3     OH2      OT      -0.834000       15.9994           0
     73115 W2       25371    TIP3     H1       HT       0.417000       1.00800           0
     73116 W2       25371    TIP3     H2       HT       0.417000       1.00800           0
     73117 W2       25372    TIP3     OH2      OT      -0.834000       15.9994           0
     73118 W2       25372    TIP3     H1       HT       0.417000       1.00800           0
     73119 W2       25372    TIP3     H2       HT       0.417000       1.00800           0
     73120 W2       25373    TIP3     OH2      OT      -0.834000       15.9994           0
     73121 W2       25373    TIP3     H1       HT       0.417000       1.00800           0
     73122 W2       25373    TIP3     H2       HT       0.417000       1.00800           0
     73123 W2       25374    TIP3     OH2      OT      -0.834000       15.9994           0
     73124 W2       25374    TIP3     H1       HT       0.417000       1.00800           0
     73125 W2       25374    TIP3     H2       HT       0.417000       1.00800           0
     73126 W2       25375    TIP3     OH2      OT      -0.834000       15.9994           0
     73127 W2       25375    TIP3     H1       HT       0.417000       1.00800           0
     73128 W2       25375    TIP3     H2       HT       0.417000       1.00800           0
     73129 W2       25376    TIP3     OH2      OT      -0.834000       15.9994           0
     73130 W2       25376    TIP3     H1       HT       0.417000       1.00800           0
     73131 W2       25376    TIP3     H2       HT       0.417000       1.00800           0
     73132 W2       25377    TIP3     OH2      OT      -0.834000       15.9994           0
     73133 W2       25377    TIP3     H1       HT       0.417000       1.00800           0
     73134 W2       25377    TIP3     H2       HT       0.417000       1.00800           0
     73135 W2       25378    TIP3     OH2      OT      -0.834000       15.9994           0
     73136 W2       25378    TIP3     H1       HT       0.417000       1.00800           0
     73137 W2       25378    TIP3     H2       HT       0.417000       1.00800           0
     73138 W2       25380    TIP3     OH2      OT      -0.834000       15.9994           0
     73139 W2       25380    TIP3     H1       HT       0.417000       1.00800           0
     73140 W2       25380    TIP3     H2       HT       0.417000       1.00800           0
     73141 W2       25381    TIP3     OH2      OT      -0.834000       15.9994           0
     73142 W2       25381    TIP3     H1       HT       0.417000       1.00800           0
     73143 W2       25381    TIP3     H2       HT       0.417000       1.00800           0
     73144 W2       25382    TIP3     OH2      OT      -0.834000       15.9994           0
     73145 W2       25382    TIP3     H1       HT       0.417000       1.00800           0
     73146 W2       25382    TIP3     H2       HT       0.417000       1.00800           0
     73147 W2       25383    TIP3     OH2      OT      -0.834000       15.9994           0
     73148 W2       25383    TIP3     H1       HT       0.417000       1.00800           0
     73149 W2       25383    TIP3     H2       HT       0.417000       1.00800           0
     73150 W2       25384    TIP3     OH2      OT      -0.834000       15.9994           0
     73151 W2       25384    TIP3     H1       HT       0.417000       1.00800           0
     73152 W2       25384    TIP3     H2       HT       0.417000       1.00800           0
     73153 W2       25386    TIP3     OH2      OT      -0.834000       15.9994           0
     73154 W2       25386    TIP3     H1       HT       0.417000       1.00800           0
     73155 W2       25386    TIP3     H2       HT       0.417000       1.00800           0
     73156 W2       25387    TIP3     OH2      OT      -0.834000       15.9994           0
     73157 W2       25387    TIP3     H1       HT       0.417000       1.00800           0
     73158 W2       25387    TIP3     H2       HT       0.417000       1.00800           0
     73159 W2       25388    TIP3     OH2      OT      -0.834000       15.9994           0
     73160 W2       25388    TIP3     H1       HT       0.417000       1.00800           0
     73161 W2       25388    TIP3     H2       HT       0.417000       1.00800           0
     73162 W2       25392    TIP3     OH2      OT      -0.834000       15.9994           0
     73163 W2       25392    TIP3     H1       HT       0.417000       1.00800           0
     73164 W2       25392    TIP3     H2       HT       0.417000       1.00800           0
     73165 W2       25393    TIP3     OH2      OT      -0.834000       15.9994           0
     73166 W2       25393    TIP3     H1       HT       0.417000       1.00800           0
     73167 W2       25393    TIP3     H2       HT       0.417000       1.00800           0
     73168 W2       25394    TIP3     OH2      OT      -0.834000       15.9994           0
     73169 W2       25394    TIP3     H1       HT       0.417000       1.00800           0
     73170 W2       25394    TIP3     H2       HT       0.417000       1.00800           0
     73171 W2       25395    TIP3     OH2      OT      -0.834000       15.9994           0
     73172 W2       25395    TIP3     H1       HT       0.417000       1.00800           0
     73173 W2       25395    TIP3     H2       HT       0.417000       1.00800           0
     73174 W2       25396    TIP3     OH2      OT      -0.834000       15.9994           0
     73175 W2       25396    TIP3     H1       HT       0.417000       1.00800           0
     73176 W2       25396    TIP3     H2       HT       0.417000       1.00800           0
     73177 W2       25397    TIP3     OH2      OT      -0.834000       15.9994           0
     73178 W2       25397    TIP3     H1       HT       0.417000       1.00800           0
     73179 W2       25397    TIP3     H2       HT       0.417000       1.00800           0
     73180 W2       25398    TIP3     OH2      OT      -0.834000       15.9994           0
     73181 W2       25398    TIP3     H1       HT       0.417000       1.00800           0
     73182 W2       25398    TIP3     H2       HT       0.417000       1.00800           0
     73183 W2       25399    TIP3     OH2      OT      -0.834000       15.9994           0
     73184 W2       25399    TIP3     H1       HT       0.417000       1.00800           0
     73185 W2       25399    TIP3     H2       HT       0.417000       1.00800           0
     73186 W2       25402    TIP3     OH2      OT      -0.834000       15.9994           0
     73187 W2       25402    TIP3     H1       HT       0.417000       1.00800           0
     73188 W2       25402    TIP3     H2       HT       0.417000       1.00800           0
     73189 W2       25403    TIP3     OH2      OT      -0.834000       15.9994           0
     73190 W2       25403    TIP3     H1       HT       0.417000       1.00800           0
     73191 W2       25403    TIP3     H2       HT       0.417000       1.00800           0
     73192 W2       25404    TIP3     OH2      OT      -0.834000       15.9994           0
     73193 W2       25404    TIP3     H1       HT       0.417000       1.00800           0
     73194 W2       25404    TIP3     H2       HT       0.417000       1.00800           0
     73195 W2       25405    TIP3     OH2      OT      -0.834000       15.9994           0
     73196 W2       25405    TIP3     H1       HT       0.417000       1.00800           0
     73197 W2       25405    TIP3     H2       HT       0.417000       1.00800           0
     73198 W2       25406    TIP3     OH2      OT      -0.834000       15.9994           0
     73199 W2       25406    TIP3     H1       HT       0.417000       1.00800           0
     73200 W2       25406    TIP3     H2       HT       0.417000       1.00800           0
     73201 W2       25407    TIP3     OH2      OT      -0.834000       15.9994           0
     73202 W2       25407    TIP3     H1       HT       0.417000       1.00800           0
     73203 W2       25407    TIP3     H2       HT       0.417000       1.00800           0
     73204 W2       25408    TIP3     OH2      OT      -0.834000       15.9994           0
     73205 W2       25408    TIP3     H1       HT       0.417000       1.00800           0
     73206 W2       25408    TIP3     H2       HT       0.417000       1.00800           0
     73207 W2       25409    TIP3     OH2      OT      -0.834000       15.9994           0
     73208 W2       25409    TIP3     H1       HT       0.417000       1.00800           0
     73209 W2       25409    TIP3     H2       HT       0.417000       1.00800           0
     73210 W2       25410    TIP3     OH2      OT      -0.834000       15.9994           0
     73211 W2       25410    TIP3     H1       HT       0.417000       1.00800           0
     73212 W2       25410    TIP3     H2       HT       0.417000       1.00800           0
     73213 W2       25412    TIP3     OH2      OT      -0.834000       15.9994           0
     73214 W2       25412    TIP3     H1       HT       0.417000       1.00800           0
     73215 W2       25412    TIP3     H2       HT       0.417000       1.00800           0
     73216 W2       25413    TIP3     OH2      OT      -0.834000       15.9994           0
     73217 W2       25413    TIP3     H1       HT       0.417000       1.00800           0
     73218 W2       25413    TIP3     H2       HT       0.417000       1.00800           0
     73219 W2       25414    TIP3     OH2      OT      -0.834000       15.9994           0
     73220 W2       25414    TIP3     H1       HT       0.417000       1.00800           0
     73221 W2       25414    TIP3     H2       HT       0.417000       1.00800           0
     73222 W2       25415    TIP3     OH2      OT      -0.834000       15.9994           0
     73223 W2       25415    TIP3     H1       HT       0.417000       1.00800           0
     73224 W2       25415    TIP3     H2       HT       0.417000       1.00800           0
     73225 W2       25416    TIP3     OH2      OT      -0.834000       15.9994           0
     73226 W2       25416    TIP3     H1       HT       0.417000       1.00800           0
     73227 W2       25416    TIP3     H2       HT       0.417000       1.00800           0
     73228 W2       25417    TIP3     OH2      OT      -0.834000       15.9994           0
     73229 W2       25417    TIP3     H1       HT       0.417000       1.00800           0
     73230 W2       25417    TIP3     H2       HT       0.417000       1.00800           0
     73231 W2       25418    TIP3     OH2      OT      -0.834000       15.9994           0
     73232 W2       25418    TIP3     H1       HT       0.417000       1.00800           0
     73233 W2       25418    TIP3     H2       HT       0.417000       1.00800           0
     73234 W2       25419    TIP3     OH2      OT      -0.834000       15.9994           0
     73235 W2       25419    TIP3     H1       HT       0.417000       1.00800           0
     73236 W2       25419    TIP3     H2       HT       0.417000       1.00800           0
     73237 W2       25422    TIP3     OH2      OT      -0.834000       15.9994           0
     73238 W2       25422    TIP3     H1       HT       0.417000       1.00800           0
     73239 W2       25422    TIP3     H2       HT       0.417000       1.00800           0
     73240 W2       25424    TIP3     OH2      OT      -0.834000       15.9994           0
     73241 W2       25424    TIP3     H1       HT       0.417000       1.00800           0
     73242 W2       25424    TIP3     H2       HT       0.417000       1.00800           0
     73243 W2       25426    TIP3     OH2      OT      -0.834000       15.9994           0
     73244 W2       25426    TIP3     H1       HT       0.417000       1.00800           0
     73245 W2       25426    TIP3     H2       HT       0.417000       1.00800           0
     73246 W2       25428    TIP3     OH2      OT      -0.834000       15.9994           0
     73247 W2       25428    TIP3     H1       HT       0.417000       1.00800           0
     73248 W2       25428    TIP3     H2       HT       0.417000       1.00800           0
     73249 W2       25431    TIP3     OH2      OT      -0.834000       15.9994           0
     73250 W2       25431    TIP3     H1       HT       0.417000       1.00800           0
     73251 W2       25431    TIP3     H2       HT       0.417000       1.00800           0
     73252 W2       25433    TIP3     OH2      OT      -0.834000       15.9994           0
     73253 W2       25433    TIP3     H1       HT       0.417000       1.00800           0
     73254 W2       25433    TIP3     H2       HT       0.417000       1.00800           0
     73255 W2       25436    TIP3     OH2      OT      -0.834000       15.9994           0
     73256 W2       25436    TIP3     H1       HT       0.417000       1.00800           0
     73257 W2       25436    TIP3     H2       HT       0.417000       1.00800           0
     73258 W2       25448    TIP3     OH2      OT      -0.834000       15.9994           0
     73259 W2       25448    TIP3     H1       HT       0.417000       1.00800           0
     73260 W2       25448    TIP3     H2       HT       0.417000       1.00800           0
     73261 W2       25449    TIP3     OH2      OT      -0.834000       15.9994           0
     73262 W2       25449    TIP3     H1       HT       0.417000       1.00800           0
     73263 W2       25449    TIP3     H2       HT       0.417000       1.00800           0
     73264 W2       25450    TIP3     OH2      OT      -0.834000       15.9994           0
     73265 W2       25450    TIP3     H1       HT       0.417000       1.00800           0
     73266 W2       25450    TIP3     H2       HT       0.417000       1.00800           0
     73267 W2       25451    TIP3     OH2      OT      -0.834000       15.9994           0
     73268 W2       25451    TIP3     H1       HT       0.417000       1.00800           0
     73269 W2       25451    TIP3     H2       HT       0.417000       1.00800           0
     73270 W2       25452    TIP3     OH2      OT      -0.834000       15.9994           0
     73271 W2       25452    TIP3     H1       HT       0.417000       1.00800           0
     73272 W2       25452    TIP3     H2       HT       0.417000       1.00800           0
     73273 W2       25454    TIP3     OH2      OT      -0.834000       15.9994           0
     73274 W2       25454    TIP3     H1       HT       0.417000       1.00800           0
     73275 W2       25454    TIP3     H2       HT       0.417000       1.00800           0
     73276 W2       25455    TIP3     OH2      OT      -0.834000       15.9994           0
     73277 W2       25455    TIP3     H1       HT       0.417000       1.00800           0
     73278 W2       25455    TIP3     H2       HT       0.417000       1.00800           0
     73279 W2       25456    TIP3     OH2      OT      -0.834000       15.9994           0
     73280 W2       25456    TIP3     H1       HT       0.417000       1.00800           0
     73281 W2       25456    TIP3     H2       HT       0.417000       1.00800           0
     73282 W2       25457    TIP3     OH2      OT      -0.834000       15.9994           0
     73283 W2       25457    TIP3     H1       HT       0.417000       1.00800           0
     73284 W2       25457    TIP3     H2       HT       0.417000       1.00800           0
     73285 W2       25459    TIP3     OH2      OT      -0.834000       15.9994           0
     73286 W2       25459    TIP3     H1       HT       0.417000       1.00800           0
     73287 W2       25459    TIP3     H2       HT       0.417000       1.00800           0
     73288 W2       25462    TIP3     OH2      OT      -0.834000       15.9994           0
     73289 W2       25462    TIP3     H1       HT       0.417000       1.00800           0
     73290 W2       25462    TIP3     H2       HT       0.417000       1.00800           0
     73291 W2       25463    TIP3     OH2      OT      -0.834000       15.9994           0
     73292 W2       25463    TIP3     H1       HT       0.417000       1.00800           0
     73293 W2       25463    TIP3     H2       HT       0.417000       1.00800           0
     73294 W2       25464    TIP3     OH2      OT      -0.834000       15.9994           0
     73295 W2       25464    TIP3     H1       HT       0.417000       1.00800           0
     73296 W2       25464    TIP3     H2       HT       0.417000       1.00800           0
     73297 W2       25465    TIP3     OH2      OT      -0.834000       15.9994           0
     73298 W2       25465    TIP3     H1       HT       0.417000       1.00800           0
     73299 W2       25465    TIP3     H2       HT       0.417000       1.00800           0
     73300 W2       25466    TIP3     OH2      OT      -0.834000       15.9994           0
     73301 W2       25466    TIP3     H1       HT       0.417000       1.00800           0
     73302 W2       25466    TIP3     H2       HT       0.417000       1.00800           0
     73303 W2       25467    TIP3     OH2      OT      -0.834000       15.9994           0
     73304 W2       25467    TIP3     H1       HT       0.417000       1.00800           0
     73305 W2       25467    TIP3     H2       HT       0.417000       1.00800           0
     73306 W2       25468    TIP3     OH2      OT      -0.834000       15.9994           0
     73307 W2       25468    TIP3     H1       HT       0.417000       1.00800           0
     73308 W2       25468    TIP3     H2       HT       0.417000       1.00800           0
     73309 W2       25469    TIP3     OH2      OT      -0.834000       15.9994           0
     73310 W2       25469    TIP3     H1       HT       0.417000       1.00800           0
     73311 W2       25469    TIP3     H2       HT       0.417000       1.00800           0
     73312 W2       25470    TIP3     OH2      OT      -0.834000       15.9994           0
     73313 W2       25470    TIP3     H1       HT       0.417000       1.00800           0
     73314 W2       25470    TIP3     H2       HT       0.417000       1.00800           0
     73315 W2       25471    TIP3     OH2      OT      -0.834000       15.9994           0
     73316 W2       25471    TIP3     H1       HT       0.417000       1.00800           0
     73317 W2       25471    TIP3     H2       HT       0.417000       1.00800           0
     73318 W2       25472    TIP3     OH2      OT      -0.834000       15.9994           0
     73319 W2       25472    TIP3     H1       HT       0.417000       1.00800           0
     73320 W2       25472    TIP3     H2       HT       0.417000       1.00800           0
     73321 W2       25473    TIP3     OH2      OT      -0.834000       15.9994           0
     73322 W2       25473    TIP3     H1       HT       0.417000       1.00800           0
     73323 W2       25473    TIP3     H2       HT       0.417000       1.00800           0
     73324 W2       25474    TIP3     OH2      OT      -0.834000       15.9994           0
     73325 W2       25474    TIP3     H1       HT       0.417000       1.00800           0
     73326 W2       25474    TIP3     H2       HT       0.417000       1.00800           0
     73327 W2       25475    TIP3     OH2      OT      -0.834000       15.9994           0
     73328 W2       25475    TIP3     H1       HT       0.417000       1.00800           0
     73329 W2       25475    TIP3     H2       HT       0.417000       1.00800           0
     73330 W2       25476    TIP3     OH2      OT      -0.834000       15.9994           0
     73331 W2       25476    TIP3     H1       HT       0.417000       1.00800           0
     73332 W2       25476    TIP3     H2       HT       0.417000       1.00800           0
     73333 W2       25477    TIP3     OH2      OT      -0.834000       15.9994           0
     73334 W2       25477    TIP3     H1       HT       0.417000       1.00800           0
     73335 W2       25477    TIP3     H2       HT       0.417000       1.00800           0
     73336 W2       25478    TIP3     OH2      OT      -0.834000       15.9994           0
     73337 W2       25478    TIP3     H1       HT       0.417000       1.00800           0
     73338 W2       25478    TIP3     H2       HT       0.417000       1.00800           0
     73339 W2       25481    TIP3     OH2      OT      -0.834000       15.9994           0
     73340 W2       25481    TIP3     H1       HT       0.417000       1.00800           0
     73341 W2       25481    TIP3     H2       HT       0.417000       1.00800           0
     73342 W2       25483    TIP3     OH2      OT      -0.834000       15.9994           0
     73343 W2       25483    TIP3     H1       HT       0.417000       1.00800           0
     73344 W2       25483    TIP3     H2       HT       0.417000       1.00800           0
     73345 W2       25484    TIP3     OH2      OT      -0.834000       15.9994           0
     73346 W2       25484    TIP3     H1       HT       0.417000       1.00800           0
     73347 W2       25484    TIP3     H2       HT       0.417000       1.00800           0
     73348 W2       25485    TIP3     OH2      OT      -0.834000       15.9994           0
     73349 W2       25485    TIP3     H1       HT       0.417000       1.00800           0
     73350 W2       25485    TIP3     H2       HT       0.417000       1.00800           0
     73351 W2       25486    TIP3     OH2      OT      -0.834000       15.9994           0
     73352 W2       25486    TIP3     H1       HT       0.417000       1.00800           0
     73353 W2       25486    TIP3     H2       HT       0.417000       1.00800           0
     73354 W2       25487    TIP3     OH2      OT      -0.834000       15.9994           0
     73355 W2       25487    TIP3     H1       HT       0.417000       1.00800           0
     73356 W2       25487    TIP3     H2       HT       0.417000       1.00800           0
     73357 W2       25488    TIP3     OH2      OT      -0.834000       15.9994           0
     73358 W2       25488    TIP3     H1       HT       0.417000       1.00800           0
     73359 W2       25488    TIP3     H2       HT       0.417000       1.00800           0
     73360 W2       25489    TIP3     OH2      OT      -0.834000       15.9994           0
     73361 W2       25489    TIP3     H1       HT       0.417000       1.00800           0
     73362 W2       25489    TIP3     H2       HT       0.417000       1.00800           0
     73363 W2       25490    TIP3     OH2      OT      -0.834000       15.9994           0
     73364 W2       25490    TIP3     H1       HT       0.417000       1.00800           0
     73365 W2       25490    TIP3     H2       HT       0.417000       1.00800           0
     73366 W2       25491    TIP3     OH2      OT      -0.834000       15.9994           0
     73367 W2       25491    TIP3     H1       HT       0.417000       1.00800           0
     73368 W2       25491    TIP3     H2       HT       0.417000       1.00800           0
     73369 W2       25492    TIP3     OH2      OT      -0.834000       15.9994           0
     73370 W2       25492    TIP3     H1       HT       0.417000       1.00800           0
     73371 W2       25492    TIP3     H2       HT       0.417000       1.00800           0
     73372 W2       25493    TIP3     OH2      OT      -0.834000       15.9994           0
     73373 W2       25493    TIP3     H1       HT       0.417000       1.00800           0
     73374 W2       25493    TIP3     H2       HT       0.417000       1.00800           0
     73375 W2       25494    TIP3     OH2      OT      -0.834000       15.9994           0
     73376 W2       25494    TIP3     H1       HT       0.417000       1.00800           0
     73377 W2       25494    TIP3     H2       HT       0.417000       1.00800           0
     73378 W2       25495    TIP3     OH2      OT      -0.834000       15.9994           0
     73379 W2       25495    TIP3     H1       HT       0.417000       1.00800           0
     73380 W2       25495    TIP3     H2       HT       0.417000       1.00800           0
     73381 W2       25496    TIP3     OH2      OT      -0.834000       15.9994           0
     73382 W2       25496    TIP3     H1       HT       0.417000       1.00800           0
     73383 W2       25496    TIP3     H2       HT       0.417000       1.00800           0
     73384 W2       25497    TIP3     OH2      OT      -0.834000       15.9994           0
     73385 W2       25497    TIP3     H1       HT       0.417000       1.00800           0
     73386 W2       25497    TIP3     H2       HT       0.417000       1.00800           0
     73387 W2       25499    TIP3     OH2      OT      -0.834000       15.9994           0
     73388 W2       25499    TIP3     H1       HT       0.417000       1.00800           0
     73389 W2       25499    TIP3     H2       HT       0.417000       1.00800           0
     73390 W2       25500    TIP3     OH2      OT      -0.834000       15.9994           0
     73391 W2       25500    TIP3     H1       HT       0.417000       1.00800           0
     73392 W2       25500    TIP3     H2       HT       0.417000       1.00800           0
     73393 W2       25501    TIP3     OH2      OT      -0.834000       15.9994           0
     73394 W2       25501    TIP3     H1       HT       0.417000       1.00800           0
     73395 W2       25501    TIP3     H2       HT       0.417000       1.00800           0
     73396 W2       25502    TIP3     OH2      OT      -0.834000       15.9994           0
     73397 W2       25502    TIP3     H1       HT       0.417000       1.00800           0
     73398 W2       25502    TIP3     H2       HT       0.417000       1.00800           0
     73399 W2       25503    TIP3     OH2      OT      -0.834000       15.9994           0
     73400 W2       25503    TIP3     H1       HT       0.417000       1.00800           0
     73401 W2       25503    TIP3     H2       HT       0.417000       1.00800           0
     73402 W2       25504    TIP3     OH2      OT      -0.834000       15.9994           0
     73403 W2       25504    TIP3     H1       HT       0.417000       1.00800           0
     73404 W2       25504    TIP3     H2       HT       0.417000       1.00800           0
     73405 W2       25505    TIP3     OH2      OT      -0.834000       15.9994           0
     73406 W2       25505    TIP3     H1       HT       0.417000       1.00800           0
     73407 W2       25505    TIP3     H2       HT       0.417000       1.00800           0
     73408 W2       25506    TIP3     OH2      OT      -0.834000       15.9994           0
     73409 W2       25506    TIP3     H1       HT       0.417000       1.00800           0
     73410 W2       25506    TIP3     H2       HT       0.417000       1.00800           0
     73411 W2       25507    TIP3     OH2      OT      -0.834000       15.9994           0
     73412 W2       25507    TIP3     H1       HT       0.417000       1.00800           0
     73413 W2       25507    TIP3     H2       HT       0.417000       1.00800           0
     73414 W2       25508    TIP3     OH2      OT      -0.834000       15.9994           0
     73415 W2       25508    TIP3     H1       HT       0.417000       1.00800           0
     73416 W2       25508    TIP3     H2       HT       0.417000       1.00800           0
     73417 W2       25509    TIP3     OH2      OT      -0.834000       15.9994           0
     73418 W2       25509    TIP3     H1       HT       0.417000       1.00800           0
     73419 W2       25509    TIP3     H2       HT       0.417000       1.00800           0
     73420 W2       25510    TIP3     OH2      OT      -0.834000       15.9994           0
     73421 W2       25510    TIP3     H1       HT       0.417000       1.00800           0
     73422 W2       25510    TIP3     H2       HT       0.417000       1.00800           0
     73423 W2       25512    TIP3     OH2      OT      -0.834000       15.9994           0
     73424 W2       25512    TIP3     H1       HT       0.417000       1.00800           0
     73425 W2       25512    TIP3     H2       HT       0.417000       1.00800           0
     73426 W2       25513    TIP3     OH2      OT      -0.834000       15.9994           0
     73427 W2       25513    TIP3     H1       HT       0.417000       1.00800           0
     73428 W2       25513    TIP3     H2       HT       0.417000       1.00800           0
     73429 W2       25514    TIP3     OH2      OT      -0.834000       15.9994           0
     73430 W2       25514    TIP3     H1       HT       0.417000       1.00800           0
     73431 W2       25514    TIP3     H2       HT       0.417000       1.00800           0
     73432 W2       25515    TIP3     OH2      OT      -0.834000       15.9994           0
     73433 W2       25515    TIP3     H1       HT       0.417000       1.00800           0
     73434 W2       25515    TIP3     H2       HT       0.417000       1.00800           0
     73435 W2       25517    TIP3     OH2      OT      -0.834000       15.9994           0
     73436 W2       25517    TIP3     H1       HT       0.417000       1.00800           0
     73437 W2       25517    TIP3     H2       HT       0.417000       1.00800           0
     73438 W2       25518    TIP3     OH2      OT      -0.834000       15.9994           0
     73439 W2       25518    TIP3     H1       HT       0.417000       1.00800           0
     73440 W2       25518    TIP3     H2       HT       0.417000       1.00800           0
     73441 W2       25519    TIP3     OH2      OT      -0.834000       15.9994           0
     73442 W2       25519    TIP3     H1       HT       0.417000       1.00800           0
     73443 W2       25519    TIP3     H2       HT       0.417000       1.00800           0
     73444 W2       25520    TIP3     OH2      OT      -0.834000       15.9994           0
     73445 W2       25520    TIP3     H1       HT       0.417000       1.00800           0
     73446 W2       25520    TIP3     H2       HT       0.417000       1.00800           0
     73447 W2       25522    TIP3     OH2      OT      -0.834000       15.9994           0
     73448 W2       25522    TIP3     H1       HT       0.417000       1.00800           0
     73449 W2       25522    TIP3     H2       HT       0.417000       1.00800           0
     73450 W2       25524    TIP3     OH2      OT      -0.834000       15.9994           0
     73451 W2       25524    TIP3     H1       HT       0.417000       1.00800           0
     73452 W2       25524    TIP3     H2       HT       0.417000       1.00800           0
     73453 W2       25526    TIP3     OH2      OT      -0.834000       15.9994           0
     73454 W2       25526    TIP3     H1       HT       0.417000       1.00800           0
     73455 W2       25526    TIP3     H2       HT       0.417000       1.00800           0
     73456 W2       25527    TIP3     OH2      OT      -0.834000       15.9994           0
     73457 W2       25527    TIP3     H1       HT       0.417000       1.00800           0
     73458 W2       25527    TIP3     H2       HT       0.417000       1.00800           0
     73459 W2       25528    TIP3     OH2      OT      -0.834000       15.9994           0
     73460 W2       25528    TIP3     H1       HT       0.417000       1.00800           0
     73461 W2       25528    TIP3     H2       HT       0.417000       1.00800           0
     73462 W2       25529    TIP3     OH2      OT      -0.834000       15.9994           0
     73463 W2       25529    TIP3     H1       HT       0.417000       1.00800           0
     73464 W2       25529    TIP3     H2       HT       0.417000       1.00800           0
     73465 W2       25530    TIP3     OH2      OT      -0.834000       15.9994           0
     73466 W2       25530    TIP3     H1       HT       0.417000       1.00800           0
     73467 W2       25530    TIP3     H2       HT       0.417000       1.00800           0
     73468 W2       25533    TIP3     OH2      OT      -0.834000       15.9994           0
     73469 W2       25533    TIP3     H1       HT       0.417000       1.00800           0
     73470 W2       25533    TIP3     H2       HT       0.417000       1.00800           0
     73471 W2       25534    TIP3     OH2      OT      -0.834000       15.9994           0
     73472 W2       25534    TIP3     H1       HT       0.417000       1.00800           0
     73473 W2       25534    TIP3     H2       HT       0.417000       1.00800           0
     73474 W2       25535    TIP3     OH2      OT      -0.834000       15.9994           0
     73475 W2       25535    TIP3     H1       HT       0.417000       1.00800           0
     73476 W2       25535    TIP3     H2       HT       0.417000       1.00800           0
     73477 W2       25536    TIP3     OH2      OT      -0.834000       15.9994           0
     73478 W2       25536    TIP3     H1       HT       0.417000       1.00800           0
     73479 W2       25536    TIP3     H2       HT       0.417000       1.00800           0
     73480 W2       25539    TIP3     OH2      OT      -0.834000       15.9994           0
     73481 W2       25539    TIP3     H1       HT       0.417000       1.00800           0
     73482 W2       25539    TIP3     H2       HT       0.417000       1.00800           0
     73483 W2       25542    TIP3     OH2      OT      -0.834000       15.9994           0
     73484 W2       25542    TIP3     H1       HT       0.417000       1.00800           0
     73485 W2       25542    TIP3     H2       HT       0.417000       1.00800           0
     73486 W2       25543    TIP3     OH2      OT      -0.834000       15.9994           0
     73487 W2       25543    TIP3     H1       HT       0.417000       1.00800           0
     73488 W2       25543    TIP3     H2       HT       0.417000       1.00800           0
     73489 W2       25544    TIP3     OH2      OT      -0.834000       15.9994           0
     73490 W2       25544    TIP3     H1       HT       0.417000       1.00800           0
     73491 W2       25544    TIP3     H2       HT       0.417000       1.00800           0
     73492 W2       25545    TIP3     OH2      OT      -0.834000       15.9994           0
     73493 W2       25545    TIP3     H1       HT       0.417000       1.00800           0
     73494 W2       25545    TIP3     H2       HT       0.417000       1.00800           0
     73495 W2       25546    TIP3     OH2      OT      -0.834000       15.9994           0
     73496 W2       25546    TIP3     H1       HT       0.417000       1.00800           0
     73497 W2       25546    TIP3     H2       HT       0.417000       1.00800           0
     73498 W2       25548    TIP3     OH2      OT      -0.834000       15.9994           0
     73499 W2       25548    TIP3     H1       HT       0.417000       1.00800           0
     73500 W2       25548    TIP3     H2       HT       0.417000       1.00800           0
     73501 W2       25549    TIP3     OH2      OT      -0.834000       15.9994           0
     73502 W2       25549    TIP3     H1       HT       0.417000       1.00800           0
     73503 W2       25549    TIP3     H2       HT       0.417000       1.00800           0
     73504 W2       25550    TIP3     OH2      OT      -0.834000       15.9994           0
     73505 W2       25550    TIP3     H1       HT       0.417000       1.00800           0
     73506 W2       25550    TIP3     H2       HT       0.417000       1.00800           0
     73507 W2       25551    TIP3     OH2      OT      -0.834000       15.9994           0
     73508 W2       25551    TIP3     H1       HT       0.417000       1.00800           0
     73509 W2       25551    TIP3     H2       HT       0.417000       1.00800           0
     73510 W2       25552    TIP3     OH2      OT      -0.834000       15.9994           0
     73511 W2       25552    TIP3     H1       HT       0.417000       1.00800           0
     73512 W2       25552    TIP3     H2       HT       0.417000       1.00800           0
     73513 W2       25553    TIP3     OH2      OT      -0.834000       15.9994           0
     73514 W2       25553    TIP3     H1       HT       0.417000       1.00800           0
     73515 W2       25553    TIP3     H2       HT       0.417000       1.00800           0
     73516 W2       25554    TIP3     OH2      OT      -0.834000       15.9994           0
     73517 W2       25554    TIP3     H1       HT       0.417000       1.00800           0
     73518 W2       25554    TIP3     H2       HT       0.417000       1.00800           0
     73519 W2       25555    TIP3     OH2      OT      -0.834000       15.9994           0
     73520 W2       25555    TIP3     H1       HT       0.417000       1.00800           0
     73521 W2       25555    TIP3     H2       HT       0.417000       1.00800           0
     73522 W2       25556    TIP3     OH2      OT      -0.834000       15.9994           0
     73523 W2       25556    TIP3     H1       HT       0.417000       1.00800           0
     73524 W2       25556    TIP3     H2       HT       0.417000       1.00800           0
     73525 W2       25557    TIP3     OH2      OT      -0.834000       15.9994           0
     73526 W2       25557    TIP3     H1       HT       0.417000       1.00800           0
     73527 W2       25557    TIP3     H2       HT       0.417000       1.00800           0
     73528 W2       25558    TIP3     OH2      OT      -0.834000       15.9994           0
     73529 W2       25558    TIP3     H1       HT       0.417000       1.00800           0
     73530 W2       25558    TIP3     H2       HT       0.417000       1.00800           0
     73531 W2       25561    TIP3     OH2      OT      -0.834000       15.9994           0
     73532 W2       25561    TIP3     H1       HT       0.417000       1.00800           0
     73533 W2       25561    TIP3     H2       HT       0.417000       1.00800           0
     73534 W2       25562    TIP3     OH2      OT      -0.834000       15.9994           0
     73535 W2       25562    TIP3     H1       HT       0.417000       1.00800           0
     73536 W2       25562    TIP3     H2       HT       0.417000       1.00800           0
     73537 W2       25563    TIP3     OH2      OT      -0.834000       15.9994           0
     73538 W2       25563    TIP3     H1       HT       0.417000       1.00800           0
     73539 W2       25563    TIP3     H2       HT       0.417000       1.00800           0
     73540 W2       25564    TIP3     OH2      OT      -0.834000       15.9994           0
     73541 W2       25564    TIP3     H1       HT       0.417000       1.00800           0
     73542 W2       25564    TIP3     H2       HT       0.417000       1.00800           0
     73543 W2       25565    TIP3     OH2      OT      -0.834000       15.9994           0
     73544 W2       25565    TIP3     H1       HT       0.417000       1.00800           0
     73545 W2       25565    TIP3     H2       HT       0.417000       1.00800           0
     73546 W2       25566    TIP3     OH2      OT      -0.834000       15.9994           0
     73547 W2       25566    TIP3     H1       HT       0.417000       1.00800           0
     73548 W2       25566    TIP3     H2       HT       0.417000       1.00800           0
     73549 W2       25568    TIP3     OH2      OT      -0.834000       15.9994           0
     73550 W2       25568    TIP3     H1       HT       0.417000       1.00800           0
     73551 W2       25568    TIP3     H2       HT       0.417000       1.00800           0
     73552 W2       25569    TIP3     OH2      OT      -0.834000       15.9994           0
     73553 W2       25569    TIP3     H1       HT       0.417000       1.00800           0
     73554 W2       25569    TIP3     H2       HT       0.417000       1.00800           0
     73555 W2       25570    TIP3     OH2      OT      -0.834000       15.9994           0
     73556 W2       25570    TIP3     H1       HT       0.417000       1.00800           0
     73557 W2       25570    TIP3     H2       HT       0.417000       1.00800           0
     73558 W2       25574    TIP3     OH2      OT      -0.834000       15.9994           0
     73559 W2       25574    TIP3     H1       HT       0.417000       1.00800           0
     73560 W2       25574    TIP3     H2       HT       0.417000       1.00800           0
     73561 W2       25576    TIP3     OH2      OT      -0.834000       15.9994           0
     73562 W2       25576    TIP3     H1       HT       0.417000       1.00800           0
     73563 W2       25576    TIP3     H2       HT       0.417000       1.00800           0
     73564 W2       25577    TIP3     OH2      OT      -0.834000       15.9994           0
     73565 W2       25577    TIP3     H1       HT       0.417000       1.00800           0
     73566 W2       25577    TIP3     H2       HT       0.417000       1.00800           0
     73567 W2       25578    TIP3     OH2      OT      -0.834000       15.9994           0
     73568 W2       25578    TIP3     H1       HT       0.417000       1.00800           0
     73569 W2       25578    TIP3     H2       HT       0.417000       1.00800           0
     73570 W2       25579    TIP3     OH2      OT      -0.834000       15.9994           0
     73571 W2       25579    TIP3     H1       HT       0.417000       1.00800           0
     73572 W2       25579    TIP3     H2       HT       0.417000       1.00800           0
     73573 W2       25580    TIP3     OH2      OT      -0.834000       15.9994           0
     73574 W2       25580    TIP3     H1       HT       0.417000       1.00800           0
     73575 W2       25580    TIP3     H2       HT       0.417000       1.00800           0
     73576 W2       25581    TIP3     OH2      OT      -0.834000       15.9994           0
     73577 W2       25581    TIP3     H1       HT       0.417000       1.00800           0
     73578 W2       25581    TIP3     H2       HT       0.417000       1.00800           0
     73579 W2       25582    TIP3     OH2      OT      -0.834000       15.9994           0
     73580 W2       25582    TIP3     H1       HT       0.417000       1.00800           0
     73581 W2       25582    TIP3     H2       HT       0.417000       1.00800           0
     73582 W2       25583    TIP3     OH2      OT      -0.834000       15.9994           0
     73583 W2       25583    TIP3     H1       HT       0.417000       1.00800           0
     73584 W2       25583    TIP3     H2       HT       0.417000       1.00800           0
     73585 W2       25584    TIP3     OH2      OT      -0.834000       15.9994           0
     73586 W2       25584    TIP3     H1       HT       0.417000       1.00800           0
     73587 W2       25584    TIP3     H2       HT       0.417000       1.00800           0
     73588 W2       25586    TIP3     OH2      OT      -0.834000       15.9994           0
     73589 W2       25586    TIP3     H1       HT       0.417000       1.00800           0
     73590 W2       25586    TIP3     H2       HT       0.417000       1.00800           0
     73591 W2       25588    TIP3     OH2      OT      -0.834000       15.9994           0
     73592 W2       25588    TIP3     H1       HT       0.417000       1.00800           0
     73593 W2       25588    TIP3     H2       HT       0.417000       1.00800           0
     73594 W2       25589    TIP3     OH2      OT      -0.834000       15.9994           0
     73595 W2       25589    TIP3     H1       HT       0.417000       1.00800           0
     73596 W2       25589    TIP3     H2       HT       0.417000       1.00800           0
     73597 W2       25590    TIP3     OH2      OT      -0.834000       15.9994           0
     73598 W2       25590    TIP3     H1       HT       0.417000       1.00800           0
     73599 W2       25590    TIP3     H2       HT       0.417000       1.00800           0
     73600 W2       25591    TIP3     OH2      OT      -0.834000       15.9994           0
     73601 W2       25591    TIP3     H1       HT       0.417000       1.00800           0
     73602 W2       25591    TIP3     H2       HT       0.417000       1.00800           0
     73603 W2       25592    TIP3     OH2      OT      -0.834000       15.9994           0
     73604 W2       25592    TIP3     H1       HT       0.417000       1.00800           0
     73605 W2       25592    TIP3     H2       HT       0.417000       1.00800           0
     73606 W2       25593    TIP3     OH2      OT      -0.834000       15.9994           0
     73607 W2       25593    TIP3     H1       HT       0.417000       1.00800           0
     73608 W2       25593    TIP3     H2       HT       0.417000       1.00800           0
     73609 W2       25594    TIP3     OH2      OT      -0.834000       15.9994           0
     73610 W2       25594    TIP3     H1       HT       0.417000       1.00800           0
     73611 W2       25594    TIP3     H2       HT       0.417000       1.00800           0
     73612 W2       25595    TIP3     OH2      OT      -0.834000       15.9994           0
     73613 W2       25595    TIP3     H1       HT       0.417000       1.00800           0
     73614 W2       25595    TIP3     H2       HT       0.417000       1.00800           0
     73615 W2       25596    TIP3     OH2      OT      -0.834000       15.9994           0
     73616 W2       25596    TIP3     H1       HT       0.417000       1.00800           0
     73617 W2       25596    TIP3     H2       HT       0.417000       1.00800           0
     73618 W2       25598    TIP3     OH2      OT      -0.834000       15.9994           0
     73619 W2       25598    TIP3     H1       HT       0.417000       1.00800           0
     73620 W2       25598    TIP3     H2       HT       0.417000       1.00800           0
     73621 W2       25599    TIP3     OH2      OT      -0.834000       15.9994           0
     73622 W2       25599    TIP3     H1       HT       0.417000       1.00800           0
     73623 W2       25599    TIP3     H2       HT       0.417000       1.00800           0
     73624 W2       25600    TIP3     OH2      OT      -0.834000       15.9994           0
     73625 W2       25600    TIP3     H1       HT       0.417000       1.00800           0
     73626 W2       25600    TIP3     H2       HT       0.417000       1.00800           0
     73627 W2       25602    TIP3     OH2      OT      -0.834000       15.9994           0
     73628 W2       25602    TIP3     H1       HT       0.417000       1.00800           0
     73629 W2       25602    TIP3     H2       HT       0.417000       1.00800           0
     73630 W2       25603    TIP3     OH2      OT      -0.834000       15.9994           0
     73631 W2       25603    TIP3     H1       HT       0.417000       1.00800           0
     73632 W2       25603    TIP3     H2       HT       0.417000       1.00800           0
     73633 W2       25604    TIP3     OH2      OT      -0.834000       15.9994           0
     73634 W2       25604    TIP3     H1       HT       0.417000       1.00800           0
     73635 W2       25604    TIP3     H2       HT       0.417000       1.00800           0
     73636 W2       25605    TIP3     OH2      OT      -0.834000       15.9994           0
     73637 W2       25605    TIP3     H1       HT       0.417000       1.00800           0
     73638 W2       25605    TIP3     H2       HT       0.417000       1.00800           0
     73639 W2       25606    TIP3     OH2      OT      -0.834000       15.9994           0
     73640 W2       25606    TIP3     H1       HT       0.417000       1.00800           0
     73641 W2       25606    TIP3     H2       HT       0.417000       1.00800           0
     73642 W2       25607    TIP3     OH2      OT      -0.834000       15.9994           0
     73643 W2       25607    TIP3     H1       HT       0.417000       1.00800           0
     73644 W2       25607    TIP3     H2       HT       0.417000       1.00800           0
     73645 W2       25610    TIP3     OH2      OT      -0.834000       15.9994           0
     73646 W2       25610    TIP3     H1       HT       0.417000       1.00800           0
     73647 W2       25610    TIP3     H2       HT       0.417000       1.00800           0
     73648 W2       25612    TIP3     OH2      OT      -0.834000       15.9994           0
     73649 W2       25612    TIP3     H1       HT       0.417000       1.00800           0
     73650 W2       25612    TIP3     H2       HT       0.417000       1.00800           0
     73651 W2       25614    TIP3     OH2      OT      -0.834000       15.9994           0
     73652 W2       25614    TIP3     H1       HT       0.417000       1.00800           0
     73653 W2       25614    TIP3     H2       HT       0.417000       1.00800           0
     73654 W2       25616    TIP3     OH2      OT      -0.834000       15.9994           0
     73655 W2       25616    TIP3     H1       HT       0.417000       1.00800           0
     73656 W2       25616    TIP3     H2       HT       0.417000       1.00800           0
     73657 W2       25619    TIP3     OH2      OT      -0.834000       15.9994           0
     73658 W2       25619    TIP3     H1       HT       0.417000       1.00800           0
     73659 W2       25619    TIP3     H2       HT       0.417000       1.00800           0
     73660 W2       25621    TIP3     OH2      OT      -0.834000       15.9994           0
     73661 W2       25621    TIP3     H1       HT       0.417000       1.00800           0
     73662 W2       25621    TIP3     H2       HT       0.417000       1.00800           0
     73663 W2       25623    TIP3     OH2      OT      -0.834000       15.9994           0
     73664 W2       25623    TIP3     H1       HT       0.417000       1.00800           0
     73665 W2       25623    TIP3     H2       HT       0.417000       1.00800           0
     73666 W2       25625    TIP3     OH2      OT      -0.834000       15.9994           0
     73667 W2       25625    TIP3     H1       HT       0.417000       1.00800           0
     73668 W2       25625    TIP3     H2       HT       0.417000       1.00800           0
     73669 W2       25637    TIP3     OH2      OT      -0.834000       15.9994           0
     73670 W2       25637    TIP3     H1       HT       0.417000       1.00800           0
     73671 W2       25637    TIP3     H2       HT       0.417000       1.00800           0
     73672 W2       25638    TIP3     OH2      OT      -0.834000       15.9994           0
     73673 W2       25638    TIP3     H1       HT       0.417000       1.00800           0
     73674 W2       25638    TIP3     H2       HT       0.417000       1.00800           0
     73675 W2       25639    TIP3     OH2      OT      -0.834000       15.9994           0
     73676 W2       25639    TIP3     H1       HT       0.417000       1.00800           0
     73677 W2       25639    TIP3     H2       HT       0.417000       1.00800           0
     73678 W2       25640    TIP3     OH2      OT      -0.834000       15.9994           0
     73679 W2       25640    TIP3     H1       HT       0.417000       1.00800           0
     73680 W2       25640    TIP3     H2       HT       0.417000       1.00800           0
     73681 W2       25641    TIP3     OH2      OT      -0.834000       15.9994           0
     73682 W2       25641    TIP3     H1       HT       0.417000       1.00800           0
     73683 W2       25641    TIP3     H2       HT       0.417000       1.00800           0
     73684 W2       25644    TIP3     OH2      OT      -0.834000       15.9994           0
     73685 W2       25644    TIP3     H1       HT       0.417000       1.00800           0
     73686 W2       25644    TIP3     H2       HT       0.417000       1.00800           0
     73687 W2       25645    TIP3     OH2      OT      -0.834000       15.9994           0
     73688 W2       25645    TIP3     H1       HT       0.417000       1.00800           0
     73689 W2       25645    TIP3     H2       HT       0.417000       1.00800           0
     73690 W2       25646    TIP3     OH2      OT      -0.834000       15.9994           0
     73691 W2       25646    TIP3     H1       HT       0.417000       1.00800           0
     73692 W2       25646    TIP3     H2       HT       0.417000       1.00800           0
     73693 W2       25647    TIP3     OH2      OT      -0.834000       15.9994           0
     73694 W2       25647    TIP3     H1       HT       0.417000       1.00800           0
     73695 W2       25647    TIP3     H2       HT       0.417000       1.00800           0
     73696 W2       25648    TIP3     OH2      OT      -0.834000       15.9994           0
     73697 W2       25648    TIP3     H1       HT       0.417000       1.00800           0
     73698 W2       25648    TIP3     H2       HT       0.417000       1.00800           0
     73699 W2       25649    TIP3     OH2      OT      -0.834000       15.9994           0
     73700 W2       25649    TIP3     H1       HT       0.417000       1.00800           0
     73701 W2       25649    TIP3     H2       HT       0.417000       1.00800           0
     73702 W2       25650    TIP3     OH2      OT      -0.834000       15.9994           0
     73703 W2       25650    TIP3     H1       HT       0.417000       1.00800           0
     73704 W2       25650    TIP3     H2       HT       0.417000       1.00800           0
     73705 W2       25651    TIP3     OH2      OT      -0.834000       15.9994           0
     73706 W2       25651    TIP3     H1       HT       0.417000       1.00800           0
     73707 W2       25651    TIP3     H2       HT       0.417000       1.00800           0
     73708 W2       25654    TIP3     OH2      OT      -0.834000       15.9994           0
     73709 W2       25654    TIP3     H1       HT       0.417000       1.00800           0
     73710 W2       25654    TIP3     H2       HT       0.417000       1.00800           0
     73711 W2       25655    TIP3     OH2      OT      -0.834000       15.9994           0
     73712 W2       25655    TIP3     H1       HT       0.417000       1.00800           0
     73713 W2       25655    TIP3     H2       HT       0.417000       1.00800           0
     73714 W2       25656    TIP3     OH2      OT      -0.834000       15.9994           0
     73715 W2       25656    TIP3     H1       HT       0.417000       1.00800           0
     73716 W2       25656    TIP3     H2       HT       0.417000       1.00800           0
     73717 W2       25657    TIP3     OH2      OT      -0.834000       15.9994           0
     73718 W2       25657    TIP3     H1       HT       0.417000       1.00800           0
     73719 W2       25657    TIP3     H2       HT       0.417000       1.00800           0
     73720 W2       25660    TIP3     OH2      OT      -0.834000       15.9994           0
     73721 W2       25660    TIP3     H1       HT       0.417000       1.00800           0
     73722 W2       25660    TIP3     H2       HT       0.417000       1.00800           0
     73723 W2       25661    TIP3     OH2      OT      -0.834000       15.9994           0
     73724 W2       25661    TIP3     H1       HT       0.417000       1.00800           0
     73725 W2       25661    TIP3     H2       HT       0.417000       1.00800           0
     73726 W2       25662    TIP3     OH2      OT      -0.834000       15.9994           0
     73727 W2       25662    TIP3     H1       HT       0.417000       1.00800           0
     73728 W2       25662    TIP3     H2       HT       0.417000       1.00800           0
     73729 W2       25664    TIP3     OH2      OT      -0.834000       15.9994           0
     73730 W2       25664    TIP3     H1       HT       0.417000       1.00800           0
     73731 W2       25664    TIP3     H2       HT       0.417000       1.00800           0
     73732 W2       25665    TIP3     OH2      OT      -0.834000       15.9994           0
     73733 W2       25665    TIP3     H1       HT       0.417000       1.00800           0
     73734 W2       25665    TIP3     H2       HT       0.417000       1.00800           0
     73735 W2       25666    TIP3     OH2      OT      -0.834000       15.9994           0
     73736 W2       25666    TIP3     H1       HT       0.417000       1.00800           0
     73737 W2       25666    TIP3     H2       HT       0.417000       1.00800           0
     73738 W2       25667    TIP3     OH2      OT      -0.834000       15.9994           0
     73739 W2       25667    TIP3     H1       HT       0.417000       1.00800           0
     73740 W2       25667    TIP3     H2       HT       0.417000       1.00800           0
     73741 W2       25669    TIP3     OH2      OT      -0.834000       15.9994           0
     73742 W2       25669    TIP3     H1       HT       0.417000       1.00800           0
     73743 W2       25669    TIP3     H2       HT       0.417000       1.00800           0
     73744 W2       25673    TIP3     OH2      OT      -0.834000       15.9994           0
     73745 W2       25673    TIP3     H1       HT       0.417000       1.00800           0
     73746 W2       25673    TIP3     H2       HT       0.417000       1.00800           0
     73747 W2       25674    TIP3     OH2      OT      -0.834000       15.9994           0
     73748 W2       25674    TIP3     H1       HT       0.417000       1.00800           0
     73749 W2       25674    TIP3     H2       HT       0.417000       1.00800           0
     73750 W2       25675    TIP3     OH2      OT      -0.834000       15.9994           0
     73751 W2       25675    TIP3     H1       HT       0.417000       1.00800           0
     73752 W2       25675    TIP3     H2       HT       0.417000       1.00800           0
     73753 W2       25676    TIP3     OH2      OT      -0.834000       15.9994           0
     73754 W2       25676    TIP3     H1       HT       0.417000       1.00800           0
     73755 W2       25676    TIP3     H2       HT       0.417000       1.00800           0
     73756 W2       25677    TIP3     OH2      OT      -0.834000       15.9994           0
     73757 W2       25677    TIP3     H1       HT       0.417000       1.00800           0
     73758 W2       25677    TIP3     H2       HT       0.417000       1.00800           0
     73759 W2       25678    TIP3     OH2      OT      -0.834000       15.9994           0
     73760 W2       25678    TIP3     H1       HT       0.417000       1.00800           0
     73761 W2       25678    TIP3     H2       HT       0.417000       1.00800           0
     73762 W2       25679    TIP3     OH2      OT      -0.834000       15.9994           0
     73763 W2       25679    TIP3     H1       HT       0.417000       1.00800           0
     73764 W2       25679    TIP3     H2       HT       0.417000       1.00800           0
     73765 W2       25680    TIP3     OH2      OT      -0.834000       15.9994           0
     73766 W2       25680    TIP3     H1       HT       0.417000       1.00800           0
     73767 W2       25680    TIP3     H2       HT       0.417000       1.00800           0
     73768 W2       25681    TIP3     OH2      OT      -0.834000       15.9994           0
     73769 W2       25681    TIP3     H1       HT       0.417000       1.00800           0
     73770 W2       25681    TIP3     H2       HT       0.417000       1.00800           0
     73771 W2       25682    TIP3     OH2      OT      -0.834000       15.9994           0
     73772 W2       25682    TIP3     H1       HT       0.417000       1.00800           0
     73773 W2       25682    TIP3     H2       HT       0.417000       1.00800           0
     73774 W2       25683    TIP3     OH2      OT      -0.834000       15.9994           0
     73775 W2       25683    TIP3     H1       HT       0.417000       1.00800           0
     73776 W2       25683    TIP3     H2       HT       0.417000       1.00800           0
     73777 W2       25684    TIP3     OH2      OT      -0.834000       15.9994           0
     73778 W2       25684    TIP3     H1       HT       0.417000       1.00800           0
     73779 W2       25684    TIP3     H2       HT       0.417000       1.00800           0
     73780 W2       25685    TIP3     OH2      OT      -0.834000       15.9994           0
     73781 W2       25685    TIP3     H1       HT       0.417000       1.00800           0
     73782 W2       25685    TIP3     H2       HT       0.417000       1.00800           0
     73783 W2       25686    TIP3     OH2      OT      -0.834000       15.9994           0
     73784 W2       25686    TIP3     H1       HT       0.417000       1.00800           0
     73785 W2       25686    TIP3     H2       HT       0.417000       1.00800           0
     73786 W2       25687    TIP3     OH2      OT      -0.834000       15.9994           0
     73787 W2       25687    TIP3     H1       HT       0.417000       1.00800           0
     73788 W2       25687    TIP3     H2       HT       0.417000       1.00800           0
     73789 W2       25688    TIP3     OH2      OT      -0.834000       15.9994           0
     73790 W2       25688    TIP3     H1       HT       0.417000       1.00800           0
     73791 W2       25688    TIP3     H2       HT       0.417000       1.00800           0
     73792 W2       25689    TIP3     OH2      OT      -0.834000       15.9994           0
     73793 W2       25689    TIP3     H1       HT       0.417000       1.00800           0
     73794 W2       25689    TIP3     H2       HT       0.417000       1.00800           0
     73795 W2       25690    TIP3     OH2      OT      -0.834000       15.9994           0
     73796 W2       25690    TIP3     H1       HT       0.417000       1.00800           0
     73797 W2       25690    TIP3     H2       HT       0.417000       1.00800           0
     73798 W2       25691    TIP3     OH2      OT      -0.834000       15.9994           0
     73799 W2       25691    TIP3     H1       HT       0.417000       1.00800           0
     73800 W2       25691    TIP3     H2       HT       0.417000       1.00800           0
     73801 W2       25692    TIP3     OH2      OT      -0.834000       15.9994           0
     73802 W2       25692    TIP3     H1       HT       0.417000       1.00800           0
     73803 W2       25692    TIP3     H2       HT       0.417000       1.00800           0
     73804 W2       25693    TIP3     OH2      OT      -0.834000       15.9994           0
     73805 W2       25693    TIP3     H1       HT       0.417000       1.00800           0
     73806 W2       25693    TIP3     H2       HT       0.417000       1.00800           0
     73807 W2       25696    TIP3     OH2      OT      -0.834000       15.9994           0
     73808 W2       25696    TIP3     H1       HT       0.417000       1.00800           0
     73809 W2       25696    TIP3     H2       HT       0.417000       1.00800           0
     73810 W2       25699    TIP3     OH2      OT      -0.834000       15.9994           0
     73811 W2       25699    TIP3     H1       HT       0.417000       1.00800           0
     73812 W2       25699    TIP3     H2       HT       0.417000       1.00800           0
     73813 W2       25700    TIP3     OH2      OT      -0.834000       15.9994           0
     73814 W2       25700    TIP3     H1       HT       0.417000       1.00800           0
     73815 W2       25700    TIP3     H2       HT       0.417000       1.00800           0
     73816 W2       25701    TIP3     OH2      OT      -0.834000       15.9994           0
     73817 W2       25701    TIP3     H1       HT       0.417000       1.00800           0
     73818 W2       25701    TIP3     H2       HT       0.417000       1.00800           0
     73819 W2       25702    TIP3     OH2      OT      -0.834000       15.9994           0
     73820 W2       25702    TIP3     H1       HT       0.417000       1.00800           0
     73821 W2       25702    TIP3     H2       HT       0.417000       1.00800           0
     73822 W2       25703    TIP3     OH2      OT      -0.834000       15.9994           0
     73823 W2       25703    TIP3     H1       HT       0.417000       1.00800           0
     73824 W2       25703    TIP3     H2       HT       0.417000       1.00800           0
     73825 W2       25704    TIP3     OH2      OT      -0.834000       15.9994           0
     73826 W2       25704    TIP3     H1       HT       0.417000       1.00800           0
     73827 W2       25704    TIP3     H2       HT       0.417000       1.00800           0
     73828 W2       25705    TIP3     OH2      OT      -0.834000       15.9994           0
     73829 W2       25705    TIP3     H1       HT       0.417000       1.00800           0
     73830 W2       25705    TIP3     H2       HT       0.417000       1.00800           0
     73831 W2       25706    TIP3     OH2      OT      -0.834000       15.9994           0
     73832 W2       25706    TIP3     H1       HT       0.417000       1.00800           0
     73833 W2       25706    TIP3     H2       HT       0.417000       1.00800           0
     73834 W2       25707    TIP3     OH2      OT      -0.834000       15.9994           0
     73835 W2       25707    TIP3     H1       HT       0.417000       1.00800           0
     73836 W2       25707    TIP3     H2       HT       0.417000       1.00800           0
     73837 W2       25708    TIP3     OH2      OT      -0.834000       15.9994           0
     73838 W2       25708    TIP3     H1       HT       0.417000       1.00800           0
     73839 W2       25708    TIP3     H2       HT       0.417000       1.00800           0
     73840 W2       25709    TIP3     OH2      OT      -0.834000       15.9994           0
     73841 W2       25709    TIP3     H1       HT       0.417000       1.00800           0
     73842 W2       25709    TIP3     H2       HT       0.417000       1.00800           0
     73843 W2       25710    TIP3     OH2      OT      -0.834000       15.9994           0
     73844 W2       25710    TIP3     H1       HT       0.417000       1.00800           0
     73845 W2       25710    TIP3     H2       HT       0.417000       1.00800           0
     73846 W2       25711    TIP3     OH2      OT      -0.834000       15.9994           0
     73847 W2       25711    TIP3     H1       HT       0.417000       1.00800           0
     73848 W2       25711    TIP3     H2       HT       0.417000       1.00800           0
     73849 W2       25712    TIP3     OH2      OT      -0.834000       15.9994           0
     73850 W2       25712    TIP3     H1       HT       0.417000       1.00800           0
     73851 W2       25712    TIP3     H2       HT       0.417000       1.00800           0
     73852 W2       25713    TIP3     OH2      OT      -0.834000       15.9994           0
     73853 W2       25713    TIP3     H1       HT       0.417000       1.00800           0
     73854 W2       25713    TIP3     H2       HT       0.417000       1.00800           0
     73855 W2       25715    TIP3     OH2      OT      -0.834000       15.9994           0
     73856 W2       25715    TIP3     H1       HT       0.417000       1.00800           0
     73857 W2       25715    TIP3     H2       HT       0.417000       1.00800           0
     73858 W2       25716    TIP3     OH2      OT      -0.834000       15.9994           0
     73859 W2       25716    TIP3     H1       HT       0.417000       1.00800           0
     73860 W2       25716    TIP3     H2       HT       0.417000       1.00800           0
     73861 W2       25717    TIP3     OH2      OT      -0.834000       15.9994           0
     73862 W2       25717    TIP3     H1       HT       0.417000       1.00800           0
     73863 W2       25717    TIP3     H2       HT       0.417000       1.00800           0
     73864 W2       25718    TIP3     OH2      OT      -0.834000       15.9994           0
     73865 W2       25718    TIP3     H1       HT       0.417000       1.00800           0
     73866 W2       25718    TIP3     H2       HT       0.417000       1.00800           0
     73867 W2       25719    TIP3     OH2      OT      -0.834000       15.9994           0
     73868 W2       25719    TIP3     H1       HT       0.417000       1.00800           0
     73869 W2       25719    TIP3     H2       HT       0.417000       1.00800           0
     73870 W2       25720    TIP3     OH2      OT      -0.834000       15.9994           0
     73871 W2       25720    TIP3     H1       HT       0.417000       1.00800           0
     73872 W2       25720    TIP3     H2       HT       0.417000       1.00800           0
     73873 W2       25721    TIP3     OH2      OT      -0.834000       15.9994           0
     73874 W2       25721    TIP3     H1       HT       0.417000       1.00800           0
     73875 W2       25721    TIP3     H2       HT       0.417000       1.00800           0
     73876 W2       25722    TIP3     OH2      OT      -0.834000       15.9994           0
     73877 W2       25722    TIP3     H1       HT       0.417000       1.00800           0
     73878 W2       25722    TIP3     H2       HT       0.417000       1.00800           0
     73879 W2       25723    TIP3     OH2      OT      -0.834000       15.9994           0
     73880 W2       25723    TIP3     H1       HT       0.417000       1.00800           0
     73881 W2       25723    TIP3     H2       HT       0.417000       1.00800           0
     73882 W2       25724    TIP3     OH2      OT      -0.834000       15.9994           0
     73883 W2       25724    TIP3     H1       HT       0.417000       1.00800           0
     73884 W2       25724    TIP3     H2       HT       0.417000       1.00800           0
     73885 W2       25725    TIP3     OH2      OT      -0.834000       15.9994           0
     73886 W2       25725    TIP3     H1       HT       0.417000       1.00800           0
     73887 W2       25725    TIP3     H2       HT       0.417000       1.00800           0
     73888 W2       25726    TIP3     OH2      OT      -0.834000       15.9994           0
     73889 W2       25726    TIP3     H1       HT       0.417000       1.00800           0
     73890 W2       25726    TIP3     H2       HT       0.417000       1.00800           0
     73891 W2       25728    TIP3     OH2      OT      -0.834000       15.9994           0
     73892 W2       25728    TIP3     H1       HT       0.417000       1.00800           0
     73893 W2       25728    TIP3     H2       HT       0.417000       1.00800           0
     73894 W2       25729    TIP3     OH2      OT      -0.834000       15.9994           0
     73895 W2       25729    TIP3     H1       HT       0.417000       1.00800           0
     73896 W2       25729    TIP3     H2       HT       0.417000       1.00800           0
     73897 W2       25730    TIP3     OH2      OT      -0.834000       15.9994           0
     73898 W2       25730    TIP3     H1       HT       0.417000       1.00800           0
     73899 W2       25730    TIP3     H2       HT       0.417000       1.00800           0
     73900 W2       25731    TIP3     OH2      OT      -0.834000       15.9994           0
     73901 W2       25731    TIP3     H1       HT       0.417000       1.00800           0
     73902 W2       25731    TIP3     H2       HT       0.417000       1.00800           0
     73903 W2       25733    TIP3     OH2      OT      -0.834000       15.9994           0
     73904 W2       25733    TIP3     H1       HT       0.417000       1.00800           0
     73905 W2       25733    TIP3     H2       HT       0.417000       1.00800           0
     73906 W2       25734    TIP3     OH2      OT      -0.834000       15.9994           0
     73907 W2       25734    TIP3     H1       HT       0.417000       1.00800           0
     73908 W2       25734    TIP3     H2       HT       0.417000       1.00800           0
     73909 W2       25735    TIP3     OH2      OT      -0.834000       15.9994           0
     73910 W2       25735    TIP3     H1       HT       0.417000       1.00800           0
     73911 W2       25735    TIP3     H2       HT       0.417000       1.00800           0
     73912 W2       25736    TIP3     OH2      OT      -0.834000       15.9994           0
     73913 W2       25736    TIP3     H1       HT       0.417000       1.00800           0
     73914 W2       25736    TIP3     H2       HT       0.417000       1.00800           0
     73915 W2       25738    TIP3     OH2      OT      -0.834000       15.9994           0
     73916 W2       25738    TIP3     H1       HT       0.417000       1.00800           0
     73917 W2       25738    TIP3     H2       HT       0.417000       1.00800           0
     73918 W2       25740    TIP3     OH2      OT      -0.834000       15.9994           0
     73919 W2       25740    TIP3     H1       HT       0.417000       1.00800           0
     73920 W2       25740    TIP3     H2       HT       0.417000       1.00800           0
     73921 W2       25742    TIP3     OH2      OT      -0.834000       15.9994           0
     73922 W2       25742    TIP3     H1       HT       0.417000       1.00800           0
     73923 W2       25742    TIP3     H2       HT       0.417000       1.00800           0
     73924 W2       25743    TIP3     OH2      OT      -0.834000       15.9994           0
     73925 W2       25743    TIP3     H1       HT       0.417000       1.00800           0
     73926 W2       25743    TIP3     H2       HT       0.417000       1.00800           0
     73927 W2       25744    TIP3     OH2      OT      -0.834000       15.9994           0
     73928 W2       25744    TIP3     H1       HT       0.417000       1.00800           0
     73929 W2       25744    TIP3     H2       HT       0.417000       1.00800           0
     73930 W2       25745    TIP3     OH2      OT      -0.834000       15.9994           0
     73931 W2       25745    TIP3     H1       HT       0.417000       1.00800           0
     73932 W2       25745    TIP3     H2       HT       0.417000       1.00800           0
     73933 W2       25746    TIP3     OH2      OT      -0.834000       15.9994           0
     73934 W2       25746    TIP3     H1       HT       0.417000       1.00800           0
     73935 W2       25746    TIP3     H2       HT       0.417000       1.00800           0
     73936 W2       25749    TIP3     OH2      OT      -0.834000       15.9994           0
     73937 W2       25749    TIP3     H1       HT       0.417000       1.00800           0
     73938 W2       25749    TIP3     H2       HT       0.417000       1.00800           0
     73939 W2       25750    TIP3     OH2      OT      -0.834000       15.9994           0
     73940 W2       25750    TIP3     H1       HT       0.417000       1.00800           0
     73941 W2       25750    TIP3     H2       HT       0.417000       1.00800           0
     73942 W2       25751    TIP3     OH2      OT      -0.834000       15.9994           0
     73943 W2       25751    TIP3     H1       HT       0.417000       1.00800           0
     73944 W2       25751    TIP3     H2       HT       0.417000       1.00800           0
     73945 W2       25752    TIP3     OH2      OT      -0.834000       15.9994           0
     73946 W2       25752    TIP3     H1       HT       0.417000       1.00800           0
     73947 W2       25752    TIP3     H2       HT       0.417000       1.00800           0
     73948 W2       25755    TIP3     OH2      OT      -0.834000       15.9994           0
     73949 W2       25755    TIP3     H1       HT       0.417000       1.00800           0
     73950 W2       25755    TIP3     H2       HT       0.417000       1.00800           0
     73951 W2       25758    TIP3     OH2      OT      -0.834000       15.9994           0
     73952 W2       25758    TIP3     H1       HT       0.417000       1.00800           0
     73953 W2       25758    TIP3     H2       HT       0.417000       1.00800           0
     73954 W2       25759    TIP3     OH2      OT      -0.834000       15.9994           0
     73955 W2       25759    TIP3     H1       HT       0.417000       1.00800           0
     73956 W2       25759    TIP3     H2       HT       0.417000       1.00800           0
     73957 W2       25760    TIP3     OH2      OT      -0.834000       15.9994           0
     73958 W2       25760    TIP3     H1       HT       0.417000       1.00800           0
     73959 W2       25760    TIP3     H2       HT       0.417000       1.00800           0
     73960 W2       25761    TIP3     OH2      OT      -0.834000       15.9994           0
     73961 W2       25761    TIP3     H1       HT       0.417000       1.00800           0
     73962 W2       25761    TIP3     H2       HT       0.417000       1.00800           0
     73963 W2       25762    TIP3     OH2      OT      -0.834000       15.9994           0
     73964 W2       25762    TIP3     H1       HT       0.417000       1.00800           0
     73965 W2       25762    TIP3     H2       HT       0.417000       1.00800           0
     73966 W2       25764    TIP3     OH2      OT      -0.834000       15.9994           0
     73967 W2       25764    TIP3     H1       HT       0.417000       1.00800           0
     73968 W2       25764    TIP3     H2       HT       0.417000       1.00800           0
     73969 W2       25765    TIP3     OH2      OT      -0.834000       15.9994           0
     73970 W2       25765    TIP3     H1       HT       0.417000       1.00800           0
     73971 W2       25765    TIP3     H2       HT       0.417000       1.00800           0
     73972 W2       25766    TIP3     OH2      OT      -0.834000       15.9994           0
     73973 W2       25766    TIP3     H1       HT       0.417000       1.00800           0
     73974 W2       25766    TIP3     H2       HT       0.417000       1.00800           0
     73975 W2       25767    TIP3     OH2      OT      -0.834000       15.9994           0
     73976 W2       25767    TIP3     H1       HT       0.417000       1.00800           0
     73977 W2       25767    TIP3     H2       HT       0.417000       1.00800           0
     73978 W2       25768    TIP3     OH2      OT      -0.834000       15.9994           0
     73979 W2       25768    TIP3     H1       HT       0.417000       1.00800           0
     73980 W2       25768    TIP3     H2       HT       0.417000       1.00800           0
     73981 W2       25769    TIP3     OH2      OT      -0.834000       15.9994           0
     73982 W2       25769    TIP3     H1       HT       0.417000       1.00800           0
     73983 W2       25769    TIP3     H2       HT       0.417000       1.00800           0
     73984 W2       25770    TIP3     OH2      OT      -0.834000       15.9994           0
     73985 W2       25770    TIP3     H1       HT       0.417000       1.00800           0
     73986 W2       25770    TIP3     H2       HT       0.417000       1.00800           0
     73987 W2       25771    TIP3     OH2      OT      -0.834000       15.9994           0
     73988 W2       25771    TIP3     H1       HT       0.417000       1.00800           0
     73989 W2       25771    TIP3     H2       HT       0.417000       1.00800           0
     73990 W2       25772    TIP3     OH2      OT      -0.834000       15.9994           0
     73991 W2       25772    TIP3     H1       HT       0.417000       1.00800           0
     73992 W2       25772    TIP3     H2       HT       0.417000       1.00800           0
     73993 W2       25773    TIP3     OH2      OT      -0.834000       15.9994           0
     73994 W2       25773    TIP3     H1       HT       0.417000       1.00800           0
     73995 W2       25773    TIP3     H2       HT       0.417000       1.00800           0
     73996 W2       25774    TIP3     OH2      OT      -0.834000       15.9994           0
     73997 W2       25774    TIP3     H1       HT       0.417000       1.00800           0
     73998 W2       25774    TIP3     H2       HT       0.417000       1.00800           0
     73999 W2       25777    TIP3     OH2      OT      -0.834000       15.9994           0
     74000 W2       25777    TIP3     H1       HT       0.417000       1.00800           0
     74001 W2       25777    TIP3     H2       HT       0.417000       1.00800           0
     74002 W2       25778    TIP3     OH2      OT      -0.834000       15.9994           0
     74003 W2       25778    TIP3     H1       HT       0.417000       1.00800           0
     74004 W2       25778    TIP3     H2       HT       0.417000       1.00800           0
     74005 W2       25779    TIP3     OH2      OT      -0.834000       15.9994           0
     74006 W2       25779    TIP3     H1       HT       0.417000       1.00800           0
     74007 W2       25779    TIP3     H2       HT       0.417000       1.00800           0
     74008 W2       25780    TIP3     OH2      OT      -0.834000       15.9994           0
     74009 W2       25780    TIP3     H1       HT       0.417000       1.00800           0
     74010 W2       25780    TIP3     H2       HT       0.417000       1.00800           0
     74011 W2       25781    TIP3     OH2      OT      -0.834000       15.9994           0
     74012 W2       25781    TIP3     H1       HT       0.417000       1.00800           0
     74013 W2       25781    TIP3     H2       HT       0.417000       1.00800           0
     74014 W2       25782    TIP3     OH2      OT      -0.834000       15.9994           0
     74015 W2       25782    TIP3     H1       HT       0.417000       1.00800           0
     74016 W2       25782    TIP3     H2       HT       0.417000       1.00800           0
     74017 W2       25784    TIP3     OH2      OT      -0.834000       15.9994           0
     74018 W2       25784    TIP3     H1       HT       0.417000       1.00800           0
     74019 W2       25784    TIP3     H2       HT       0.417000       1.00800           0
     74020 W2       25785    TIP3     OH2      OT      -0.834000       15.9994           0
     74021 W2       25785    TIP3     H1       HT       0.417000       1.00800           0
     74022 W2       25785    TIP3     H2       HT       0.417000       1.00800           0
     74023 W2       25786    TIP3     OH2      OT      -0.834000       15.9994           0
     74024 W2       25786    TIP3     H1       HT       0.417000       1.00800           0
     74025 W2       25786    TIP3     H2       HT       0.417000       1.00800           0
     74026 W2       25790    TIP3     OH2      OT      -0.834000       15.9994           0
     74027 W2       25790    TIP3     H1       HT       0.417000       1.00800           0
     74028 W2       25790    TIP3     H2       HT       0.417000       1.00800           0
     74029 W2       25792    TIP3     OH2      OT      -0.834000       15.9994           0
     74030 W2       25792    TIP3     H1       HT       0.417000       1.00800           0
     74031 W2       25792    TIP3     H2       HT       0.417000       1.00800           0
     74032 W2       25793    TIP3     OH2      OT      -0.834000       15.9994           0
     74033 W2       25793    TIP3     H1       HT       0.417000       1.00800           0
     74034 W2       25793    TIP3     H2       HT       0.417000       1.00800           0
     74035 W2       25794    TIP3     OH2      OT      -0.834000       15.9994           0
     74036 W2       25794    TIP3     H1       HT       0.417000       1.00800           0
     74037 W2       25794    TIP3     H2       HT       0.417000       1.00800           0
     74038 W2       25795    TIP3     OH2      OT      -0.834000       15.9994           0
     74039 W2       25795    TIP3     H1       HT       0.417000       1.00800           0
     74040 W2       25795    TIP3     H2       HT       0.417000       1.00800           0
     74041 W2       25796    TIP3     OH2      OT      -0.834000       15.9994           0
     74042 W2       25796    TIP3     H1       HT       0.417000       1.00800           0
     74043 W2       25796    TIP3     H2       HT       0.417000       1.00800           0
     74044 W2       25797    TIP3     OH2      OT      -0.834000       15.9994           0
     74045 W2       25797    TIP3     H1       HT       0.417000       1.00800           0
     74046 W2       25797    TIP3     H2       HT       0.417000       1.00800           0
     74047 W2       25798    TIP3     OH2      OT      -0.834000       15.9994           0
     74048 W2       25798    TIP3     H1       HT       0.417000       1.00800           0
     74049 W2       25798    TIP3     H2       HT       0.417000       1.00800           0
     74050 W2       25799    TIP3     OH2      OT      -0.834000       15.9994           0
     74051 W2       25799    TIP3     H1       HT       0.417000       1.00800           0
     74052 W2       25799    TIP3     H2       HT       0.417000       1.00800           0
     74053 W2       25800    TIP3     OH2      OT      -0.834000       15.9994           0
     74054 W2       25800    TIP3     H1       HT       0.417000       1.00800           0
     74055 W2       25800    TIP3     H2       HT       0.417000       1.00800           0
     74056 W2       25802    TIP3     OH2      OT      -0.834000       15.9994           0
     74057 W2       25802    TIP3     H1       HT       0.417000       1.00800           0
     74058 W2       25802    TIP3     H2       HT       0.417000       1.00800           0
     74059 W2       25804    TIP3     OH2      OT      -0.834000       15.9994           0
     74060 W2       25804    TIP3     H1       HT       0.417000       1.00800           0
     74061 W2       25804    TIP3     H2       HT       0.417000       1.00800           0
     74062 W2       25805    TIP3     OH2      OT      -0.834000       15.9994           0
     74063 W2       25805    TIP3     H1       HT       0.417000       1.00800           0
     74064 W2       25805    TIP3     H2       HT       0.417000       1.00800           0
     74065 W2       25806    TIP3     OH2      OT      -0.834000       15.9994           0
     74066 W2       25806    TIP3     H1       HT       0.417000       1.00800           0
     74067 W2       25806    TIP3     H2       HT       0.417000       1.00800           0
     74068 W2       25807    TIP3     OH2      OT      -0.834000       15.9994           0
     74069 W2       25807    TIP3     H1       HT       0.417000       1.00800           0
     74070 W2       25807    TIP3     H2       HT       0.417000       1.00800           0
     74071 W2       25808    TIP3     OH2      OT      -0.834000       15.9994           0
     74072 W2       25808    TIP3     H1       HT       0.417000       1.00800           0
     74073 W2       25808    TIP3     H2       HT       0.417000       1.00800           0
     74074 W2       25809    TIP3     OH2      OT      -0.834000       15.9994           0
     74075 W2       25809    TIP3     H1       HT       0.417000       1.00800           0
     74076 W2       25809    TIP3     H2       HT       0.417000       1.00800           0
     74077 W2       25810    TIP3     OH2      OT      -0.834000       15.9994           0
     74078 W2       25810    TIP3     H1       HT       0.417000       1.00800           0
     74079 W2       25810    TIP3     H2       HT       0.417000       1.00800           0
     74080 W2       25811    TIP3     OH2      OT      -0.834000       15.9994           0
     74081 W2       25811    TIP3     H1       HT       0.417000       1.00800           0
     74082 W2       25811    TIP3     H2       HT       0.417000       1.00800           0
     74083 W2       25812    TIP3     OH2      OT      -0.834000       15.9994           0
     74084 W2       25812    TIP3     H1       HT       0.417000       1.00800           0
     74085 W2       25812    TIP3     H2       HT       0.417000       1.00800           0
     74086 W2       25814    TIP3     OH2      OT      -0.834000       15.9994           0
     74087 W2       25814    TIP3     H1       HT       0.417000       1.00800           0
     74088 W2       25814    TIP3     H2       HT       0.417000       1.00800           0
     74089 W2       25815    TIP3     OH2      OT      -0.834000       15.9994           0
     74090 W2       25815    TIP3     H1       HT       0.417000       1.00800           0
     74091 W2       25815    TIP3     H2       HT       0.417000       1.00800           0
     74092 W2       25816    TIP3     OH2      OT      -0.834000       15.9994           0
     74093 W2       25816    TIP3     H1       HT       0.417000       1.00800           0
     74094 W2       25816    TIP3     H2       HT       0.417000       1.00800           0
     74095 W2       25818    TIP3     OH2      OT      -0.834000       15.9994           0
     74096 W2       25818    TIP3     H1       HT       0.417000       1.00800           0
     74097 W2       25818    TIP3     H2       HT       0.417000       1.00800           0
     74098 W2       25819    TIP3     OH2      OT      -0.834000       15.9994           0
     74099 W2       25819    TIP3     H1       HT       0.417000       1.00800           0
     74100 W2       25819    TIP3     H2       HT       0.417000       1.00800           0
     74101 W2       25820    TIP3     OH2      OT      -0.834000       15.9994           0
     74102 W2       25820    TIP3     H1       HT       0.417000       1.00800           0
     74103 W2       25820    TIP3     H2       HT       0.417000       1.00800           0
     74104 W2       25821    TIP3     OH2      OT      -0.834000       15.9994           0
     74105 W2       25821    TIP3     H1       HT       0.417000       1.00800           0
     74106 W2       25821    TIP3     H2       HT       0.417000       1.00800           0
     74107 W2       25822    TIP3     OH2      OT      -0.834000       15.9994           0
     74108 W2       25822    TIP3     H1       HT       0.417000       1.00800           0
     74109 W2       25822    TIP3     H2       HT       0.417000       1.00800           0
     74110 W2       25823    TIP3     OH2      OT      -0.834000       15.9994           0
     74111 W2       25823    TIP3     H1       HT       0.417000       1.00800           0
     74112 W2       25823    TIP3     H2       HT       0.417000       1.00800           0
     74113 W2       25826    TIP3     OH2      OT      -0.834000       15.9994           0
     74114 W2       25826    TIP3     H1       HT       0.417000       1.00800           0
     74115 W2       25826    TIP3     H2       HT       0.417000       1.00800           0
     74116 W2       25828    TIP3     OH2      OT      -0.834000       15.9994           0
     74117 W2       25828    TIP3     H1       HT       0.417000       1.00800           0
     74118 W2       25828    TIP3     H2       HT       0.417000       1.00800           0
     74119 W2       25830    TIP3     OH2      OT      -0.834000       15.9994           0
     74120 W2       25830    TIP3     H1       HT       0.417000       1.00800           0
     74121 W2       25830    TIP3     H2       HT       0.417000       1.00800           0
     74122 W2       25832    TIP3     OH2      OT      -0.834000       15.9994           0
     74123 W2       25832    TIP3     H1       HT       0.417000       1.00800           0
     74124 W2       25832    TIP3     H2       HT       0.417000       1.00800           0
     74125 W2       25835    TIP3     OH2      OT      -0.834000       15.9994           0
     74126 W2       25835    TIP3     H1       HT       0.417000       1.00800           0
     74127 W2       25835    TIP3     H2       HT       0.417000       1.00800           0
     74128 W2       25837    TIP3     OH2      OT      -0.834000       15.9994           0
     74129 W2       25837    TIP3     H1       HT       0.417000       1.00800           0
     74130 W2       25837    TIP3     H2       HT       0.417000       1.00800           0
     74131 W2       25839    TIP3     OH2      OT      -0.834000       15.9994           0
     74132 W2       25839    TIP3     H1       HT       0.417000       1.00800           0
     74133 W2       25839    TIP3     H2       HT       0.417000       1.00800           0
     74134 W2       25841    TIP3     OH2      OT      -0.834000       15.9994           0
     74135 W2       25841    TIP3     H1       HT       0.417000       1.00800           0
     74136 W2       25841    TIP3     H2       HT       0.417000       1.00800           0
     74137 W2       25853    TIP3     OH2      OT      -0.834000       15.9994           0
     74138 W2       25853    TIP3     H1       HT       0.417000       1.00800           0
     74139 W2       25853    TIP3     H2       HT       0.417000       1.00800           0
     74140 W2       25854    TIP3     OH2      OT      -0.834000       15.9994           0
     74141 W2       25854    TIP3     H1       HT       0.417000       1.00800           0
     74142 W2       25854    TIP3     H2       HT       0.417000       1.00800           0
     74143 W2       25855    TIP3     OH2      OT      -0.834000       15.9994           0
     74144 W2       25855    TIP3     H1       HT       0.417000       1.00800           0
     74145 W2       25855    TIP3     H2       HT       0.417000       1.00800           0
     74146 W2       25856    TIP3     OH2      OT      -0.834000       15.9994           0
     74147 W2       25856    TIP3     H1       HT       0.417000       1.00800           0
     74148 W2       25856    TIP3     H2       HT       0.417000       1.00800           0
     74149 W2       25857    TIP3     OH2      OT      -0.834000       15.9994           0
     74150 W2       25857    TIP3     H1       HT       0.417000       1.00800           0
     74151 W2       25857    TIP3     H2       HT       0.417000       1.00800           0
     74152 W2       25860    TIP3     OH2      OT      -0.834000       15.9994           0
     74153 W2       25860    TIP3     H1       HT       0.417000       1.00800           0
     74154 W2       25860    TIP3     H2       HT       0.417000       1.00800           0
     74155 W2       25861    TIP3     OH2      OT      -0.834000       15.9994           0
     74156 W2       25861    TIP3     H1       HT       0.417000       1.00800           0
     74157 W2       25861    TIP3     H2       HT       0.417000       1.00800           0
     74158 W2       25862    TIP3     OH2      OT      -0.834000       15.9994           0
     74159 W2       25862    TIP3     H1       HT       0.417000       1.00800           0
     74160 W2       25862    TIP3     H2       HT       0.417000       1.00800           0
     74161 W2       25863    TIP3     OH2      OT      -0.834000       15.9994           0
     74162 W2       25863    TIP3     H1       HT       0.417000       1.00800           0
     74163 W2       25863    TIP3     H2       HT       0.417000       1.00800           0
     74164 W2       25864    TIP3     OH2      OT      -0.834000       15.9994           0
     74165 W2       25864    TIP3     H1       HT       0.417000       1.00800           0
     74166 W2       25864    TIP3     H2       HT       0.417000       1.00800           0
     74167 W2       25865    TIP3     OH2      OT      -0.834000       15.9994           0
     74168 W2       25865    TIP3     H1       HT       0.417000       1.00800           0
     74169 W2       25865    TIP3     H2       HT       0.417000       1.00800           0
     74170 W2       25866    TIP3     OH2      OT      -0.834000       15.9994           0
     74171 W2       25866    TIP3     H1       HT       0.417000       1.00800           0
     74172 W2       25866    TIP3     H2       HT       0.417000       1.00800           0
     74173 W2       25867    TIP3     OH2      OT      -0.834000       15.9994           0
     74174 W2       25867    TIP3     H1       HT       0.417000       1.00800           0
     74175 W2       25867    TIP3     H2       HT       0.417000       1.00800           0
     74176 W2       25870    TIP3     OH2      OT      -0.834000       15.9994           0
     74177 W2       25870    TIP3     H1       HT       0.417000       1.00800           0
     74178 W2       25870    TIP3     H2       HT       0.417000       1.00800           0
     74179 W2       25871    TIP3     OH2      OT      -0.834000       15.9994           0
     74180 W2       25871    TIP3     H1       HT       0.417000       1.00800           0
     74181 W2       25871    TIP3     H2       HT       0.417000       1.00800           0
     74182 W2       25872    TIP3     OH2      OT      -0.834000       15.9994           0
     74183 W2       25872    TIP3     H1       HT       0.417000       1.00800           0
     74184 W2       25872    TIP3     H2       HT       0.417000       1.00800           0
     74185 W2       25873    TIP3     OH2      OT      -0.834000       15.9994           0
     74186 W2       25873    TIP3     H1       HT       0.417000       1.00800           0
     74187 W2       25873    TIP3     H2       HT       0.417000       1.00800           0
     74188 W2       25876    TIP3     OH2      OT      -0.834000       15.9994           0
     74189 W2       25876    TIP3     H1       HT       0.417000       1.00800           0
     74190 W2       25876    TIP3     H2       HT       0.417000       1.00800           0
     74191 W2       25877    TIP3     OH2      OT      -0.834000       15.9994           0
     74192 W2       25877    TIP3     H1       HT       0.417000       1.00800           0
     74193 W2       25877    TIP3     H2       HT       0.417000       1.00800           0
     74194 W2       25878    TIP3     OH2      OT      -0.834000       15.9994           0
     74195 W2       25878    TIP3     H1       HT       0.417000       1.00800           0
     74196 W2       25878    TIP3     H2       HT       0.417000       1.00800           0
     74197 W2       25880    TIP3     OH2      OT      -0.834000       15.9994           0
     74198 W2       25880    TIP3     H1       HT       0.417000       1.00800           0
     74199 W2       25880    TIP3     H2       HT       0.417000       1.00800           0
     74200 W2       25881    TIP3     OH2      OT      -0.834000       15.9994           0
     74201 W2       25881    TIP3     H1       HT       0.417000       1.00800           0
     74202 W2       25881    TIP3     H2       HT       0.417000       1.00800           0
     74203 W2       25882    TIP3     OH2      OT      -0.834000       15.9994           0
     74204 W2       25882    TIP3     H1       HT       0.417000       1.00800           0
     74205 W2       25882    TIP3     H2       HT       0.417000       1.00800           0
     74206 W2       25883    TIP3     OH2      OT      -0.834000       15.9994           0
     74207 W2       25883    TIP3     H1       HT       0.417000       1.00800           0
     74208 W2       25883    TIP3     H2       HT       0.417000       1.00800           0
     74209 W2       25885    TIP3     OH2      OT      -0.834000       15.9994           0
     74210 W2       25885    TIP3     H1       HT       0.417000       1.00800           0
     74211 W2       25885    TIP3     H2       HT       0.417000       1.00800           0
     74212 W2       25889    TIP3     OH2      OT      -0.834000       15.9994           0
     74213 W2       25889    TIP3     H1       HT       0.417000       1.00800           0
     74214 W2       25889    TIP3     H2       HT       0.417000       1.00800           0
     74215 W2       25890    TIP3     OH2      OT      -0.834000       15.9994           0
     74216 W2       25890    TIP3     H1       HT       0.417000       1.00800           0
     74217 W2       25890    TIP3     H2       HT       0.417000       1.00800           0
     74218 W2       25891    TIP3     OH2      OT      -0.834000       15.9994           0
     74219 W2       25891    TIP3     H1       HT       0.417000       1.00800           0
     74220 W2       25891    TIP3     H2       HT       0.417000       1.00800           0
     74221 W2       25892    TIP3     OH2      OT      -0.834000       15.9994           0
     74222 W2       25892    TIP3     H1       HT       0.417000       1.00800           0
     74223 W2       25892    TIP3     H2       HT       0.417000       1.00800           0
     74224 W2       25893    TIP3     OH2      OT      -0.834000       15.9994           0
     74225 W2       25893    TIP3     H1       HT       0.417000       1.00800           0
     74226 W2       25893    TIP3     H2       HT       0.417000       1.00800           0
     74227 W2       25894    TIP3     OH2      OT      -0.834000       15.9994           0
     74228 W2       25894    TIP3     H1       HT       0.417000       1.00800           0
     74229 W2       25894    TIP3     H2       HT       0.417000       1.00800           0
     74230 W2       25895    TIP3     OH2      OT      -0.834000       15.9994           0
     74231 W2       25895    TIP3     H1       HT       0.417000       1.00800           0
     74232 W2       25895    TIP3     H2       HT       0.417000       1.00800           0
     74233 W2       25896    TIP3     OH2      OT      -0.834000       15.9994           0
     74234 W2       25896    TIP3     H1       HT       0.417000       1.00800           0
     74235 W2       25896    TIP3     H2       HT       0.417000       1.00800           0
     74236 W2       25897    TIP3     OH2      OT      -0.834000       15.9994           0
     74237 W2       25897    TIP3     H1       HT       0.417000       1.00800           0
     74238 W2       25897    TIP3     H2       HT       0.417000       1.00800           0
     74239 W2       25898    TIP3     OH2      OT      -0.834000       15.9994           0
     74240 W2       25898    TIP3     H1       HT       0.417000       1.00800           0
     74241 W2       25898    TIP3     H2       HT       0.417000       1.00800           0
     74242 W2       25899    TIP3     OH2      OT      -0.834000       15.9994           0
     74243 W2       25899    TIP3     H1       HT       0.417000       1.00800           0
     74244 W2       25899    TIP3     H2       HT       0.417000       1.00800           0
     74245 W2       25900    TIP3     OH2      OT      -0.834000       15.9994           0
     74246 W2       25900    TIP3     H1       HT       0.417000       1.00800           0
     74247 W2       25900    TIP3     H2       HT       0.417000       1.00800           0
     74248 W2       25901    TIP3     OH2      OT      -0.834000       15.9994           0
     74249 W2       25901    TIP3     H1       HT       0.417000       1.00800           0
     74250 W2       25901    TIP3     H2       HT       0.417000       1.00800           0
     74251 W2       25902    TIP3     OH2      OT      -0.834000       15.9994           0
     74252 W2       25902    TIP3     H1       HT       0.417000       1.00800           0
     74253 W2       25902    TIP3     H2       HT       0.417000       1.00800           0
     74254 W2       25903    TIP3     OH2      OT      -0.834000       15.9994           0
     74255 W2       25903    TIP3     H1       HT       0.417000       1.00800           0
     74256 W2       25903    TIP3     H2       HT       0.417000       1.00800           0
     74257 W2       25904    TIP3     OH2      OT      -0.834000       15.9994           0
     74258 W2       25904    TIP3     H1       HT       0.417000       1.00800           0
     74259 W2       25904    TIP3     H2       HT       0.417000       1.00800           0
     74260 W2       25905    TIP3     OH2      OT      -0.834000       15.9994           0
     74261 W2       25905    TIP3     H1       HT       0.417000       1.00800           0
     74262 W2       25905    TIP3     H2       HT       0.417000       1.00800           0
     74263 W2       25906    TIP3     OH2      OT      -0.834000       15.9994           0
     74264 W2       25906    TIP3     H1       HT       0.417000       1.00800           0
     74265 W2       25906    TIP3     H2       HT       0.417000       1.00800           0
     74266 W2       25907    TIP3     OH2      OT      -0.834000       15.9994           0
     74267 W2       25907    TIP3     H1       HT       0.417000       1.00800           0
     74268 W2       25907    TIP3     H2       HT       0.417000       1.00800           0
     74269 W2       25908    TIP3     OH2      OT      -0.834000       15.9994           0
     74270 W2       25908    TIP3     H1       HT       0.417000       1.00800           0
     74271 W2       25908    TIP3     H2       HT       0.417000       1.00800           0
     74272 W2       25909    TIP3     OH2      OT      -0.834000       15.9994           0
     74273 W2       25909    TIP3     H1       HT       0.417000       1.00800           0
     74274 W2       25909    TIP3     H2       HT       0.417000       1.00800           0
     74275 W2       25912    TIP3     OH2      OT      -0.834000       15.9994           0
     74276 W2       25912    TIP3     H1       HT       0.417000       1.00800           0
     74277 W2       25912    TIP3     H2       HT       0.417000       1.00800           0
     74278 W2       25915    TIP3     OH2      OT      -0.834000       15.9994           0
     74279 W2       25915    TIP3     H1       HT       0.417000       1.00800           0
     74280 W2       25915    TIP3     H2       HT       0.417000       1.00800           0
     74281 W2       25916    TIP3     OH2      OT      -0.834000       15.9994           0
     74282 W2       25916    TIP3     H1       HT       0.417000       1.00800           0
     74283 W2       25916    TIP3     H2       HT       0.417000       1.00800           0
     74284 W2       25917    TIP3     OH2      OT      -0.834000       15.9994           0
     74285 W2       25917    TIP3     H1       HT       0.417000       1.00800           0
     74286 W2       25917    TIP3     H2       HT       0.417000       1.00800           0
     74287 W2       25918    TIP3     OH2      OT      -0.834000       15.9994           0
     74288 W2       25918    TIP3     H1       HT       0.417000       1.00800           0
     74289 W2       25918    TIP3     H2       HT       0.417000       1.00800           0
     74290 W2       25919    TIP3     OH2      OT      -0.834000       15.9994           0
     74291 W2       25919    TIP3     H1       HT       0.417000       1.00800           0
     74292 W2       25919    TIP3     H2       HT       0.417000       1.00800           0
     74293 W2       25920    TIP3     OH2      OT      -0.834000       15.9994           0
     74294 W2       25920    TIP3     H1       HT       0.417000       1.00800           0
     74295 W2       25920    TIP3     H2       HT       0.417000       1.00800           0
     74296 W2       25921    TIP3     OH2      OT      -0.834000       15.9994           0
     74297 W2       25921    TIP3     H1       HT       0.417000       1.00800           0
     74298 W2       25921    TIP3     H2       HT       0.417000       1.00800           0
     74299 W2       25922    TIP3     OH2      OT      -0.834000       15.9994           0
     74300 W2       25922    TIP3     H1       HT       0.417000       1.00800           0
     74301 W2       25922    TIP3     H2       HT       0.417000       1.00800           0
     74302 W2       25923    TIP3     OH2      OT      -0.834000       15.9994           0
     74303 W2       25923    TIP3     H1       HT       0.417000       1.00800           0
     74304 W2       25923    TIP3     H2       HT       0.417000       1.00800           0
     74305 W2       25924    TIP3     OH2      OT      -0.834000       15.9994           0
     74306 W2       25924    TIP3     H1       HT       0.417000       1.00800           0
     74307 W2       25924    TIP3     H2       HT       0.417000       1.00800           0
     74308 W2       25925    TIP3     OH2      OT      -0.834000       15.9994           0
     74309 W2       25925    TIP3     H1       HT       0.417000       1.00800           0
     74310 W2       25925    TIP3     H2       HT       0.417000       1.00800           0
     74311 W2       25926    TIP3     OH2      OT      -0.834000       15.9994           0
     74312 W2       25926    TIP3     H1       HT       0.417000       1.00800           0
     74313 W2       25926    TIP3     H2       HT       0.417000       1.00800           0
     74314 W2       25927    TIP3     OH2      OT      -0.834000       15.9994           0
     74315 W2       25927    TIP3     H1       HT       0.417000       1.00800           0
     74316 W2       25927    TIP3     H2       HT       0.417000       1.00800           0
     74317 W2       25928    TIP3     OH2      OT      -0.834000       15.9994           0
     74318 W2       25928    TIP3     H1       HT       0.417000       1.00800           0
     74319 W2       25928    TIP3     H2       HT       0.417000       1.00800           0
     74320 W2       25929    TIP3     OH2      OT      -0.834000       15.9994           0
     74321 W2       25929    TIP3     H1       HT       0.417000       1.00800           0
     74322 W2       25929    TIP3     H2       HT       0.417000       1.00800           0
     74323 W2       25931    TIP3     OH2      OT      -0.834000       15.9994           0
     74324 W2       25931    TIP3     H1       HT       0.417000       1.00800           0
     74325 W2       25931    TIP3     H2       HT       0.417000       1.00800           0
     74326 W2       25932    TIP3     OH2      OT      -0.834000       15.9994           0
     74327 W2       25932    TIP3     H1       HT       0.417000       1.00800           0
     74328 W2       25932    TIP3     H2       HT       0.417000       1.00800           0
     74329 W2       25933    TIP3     OH2      OT      -0.834000       15.9994           0
     74330 W2       25933    TIP3     H1       HT       0.417000       1.00800           0
     74331 W2       25933    TIP3     H2       HT       0.417000       1.00800           0
     74332 W2       25934    TIP3     OH2      OT      -0.834000       15.9994           0
     74333 W2       25934    TIP3     H1       HT       0.417000       1.00800           0
     74334 W2       25934    TIP3     H2       HT       0.417000       1.00800           0
     74335 W2       25935    TIP3     OH2      OT      -0.834000       15.9994           0
     74336 W2       25935    TIP3     H1       HT       0.417000       1.00800           0
     74337 W2       25935    TIP3     H2       HT       0.417000       1.00800           0
     74338 W2       25936    TIP3     OH2      OT      -0.834000       15.9994           0
     74339 W2       25936    TIP3     H1       HT       0.417000       1.00800           0
     74340 W2       25936    TIP3     H2       HT       0.417000       1.00800           0
     74341 W2       25937    TIP3     OH2      OT      -0.834000       15.9994           0
     74342 W2       25937    TIP3     H1       HT       0.417000       1.00800           0
     74343 W2       25937    TIP3     H2       HT       0.417000       1.00800           0
     74344 W2       25938    TIP3     OH2      OT      -0.834000       15.9994           0
     74345 W2       25938    TIP3     H1       HT       0.417000       1.00800           0
     74346 W2       25938    TIP3     H2       HT       0.417000       1.00800           0
     74347 W2       25939    TIP3     OH2      OT      -0.834000       15.9994           0
     74348 W2       25939    TIP3     H1       HT       0.417000       1.00800           0
     74349 W2       25939    TIP3     H2       HT       0.417000       1.00800           0
     74350 W2       25940    TIP3     OH2      OT      -0.834000       15.9994           0
     74351 W2       25940    TIP3     H1       HT       0.417000       1.00800           0
     74352 W2       25940    TIP3     H2       HT       0.417000       1.00800           0
     74353 W2       25941    TIP3     OH2      OT      -0.834000       15.9994           0
     74354 W2       25941    TIP3     H1       HT       0.417000       1.00800           0
     74355 W2       25941    TIP3     H2       HT       0.417000       1.00800           0
     74356 W2       25942    TIP3     OH2      OT      -0.834000       15.9994           0
     74357 W2       25942    TIP3     H1       HT       0.417000       1.00800           0
     74358 W2       25942    TIP3     H2       HT       0.417000       1.00800           0
     74359 W2       25944    TIP3     OH2      OT      -0.834000       15.9994           0
     74360 W2       25944    TIP3     H1       HT       0.417000       1.00800           0
     74361 W2       25944    TIP3     H2       HT       0.417000       1.00800           0
     74362 W2       25945    TIP3     OH2      OT      -0.834000       15.9994           0
     74363 W2       25945    TIP3     H1       HT       0.417000       1.00800           0
     74364 W2       25945    TIP3     H2       HT       0.417000       1.00800           0
     74365 W2       25946    TIP3     OH2      OT      -0.834000       15.9994           0
     74366 W2       25946    TIP3     H1       HT       0.417000       1.00800           0
     74367 W2       25946    TIP3     H2       HT       0.417000       1.00800           0
     74368 W2       25947    TIP3     OH2      OT      -0.834000       15.9994           0
     74369 W2       25947    TIP3     H1       HT       0.417000       1.00800           0
     74370 W2       25947    TIP3     H2       HT       0.417000       1.00800           0
     74371 W2       25949    TIP3     OH2      OT      -0.834000       15.9994           0
     74372 W2       25949    TIP3     H1       HT       0.417000       1.00800           0
     74373 W2       25949    TIP3     H2       HT       0.417000       1.00800           0
     74374 W2       25950    TIP3     OH2      OT      -0.834000       15.9994           0
     74375 W2       25950    TIP3     H1       HT       0.417000       1.00800           0
     74376 W2       25950    TIP3     H2       HT       0.417000       1.00800           0
     74377 W2       25951    TIP3     OH2      OT      -0.834000       15.9994           0
     74378 W2       25951    TIP3     H1       HT       0.417000       1.00800           0
     74379 W2       25951    TIP3     H2       HT       0.417000       1.00800           0
     74380 W2       25952    TIP3     OH2      OT      -0.834000       15.9994           0
     74381 W2       25952    TIP3     H1       HT       0.417000       1.00800           0
     74382 W2       25952    TIP3     H2       HT       0.417000       1.00800           0
     74383 W2       25954    TIP3     OH2      OT      -0.834000       15.9994           0
     74384 W2       25954    TIP3     H1       HT       0.417000       1.00800           0
     74385 W2       25954    TIP3     H2       HT       0.417000       1.00800           0
     74386 W2       25956    TIP3     OH2      OT      -0.834000       15.9994           0
     74387 W2       25956    TIP3     H1       HT       0.417000       1.00800           0
     74388 W2       25956    TIP3     H2       HT       0.417000       1.00800           0
     74389 W2       25958    TIP3     OH2      OT      -0.834000       15.9994           0
     74390 W2       25958    TIP3     H1       HT       0.417000       1.00800           0
     74391 W2       25958    TIP3     H2       HT       0.417000       1.00800           0
     74392 W2       25959    TIP3     OH2      OT      -0.834000       15.9994           0
     74393 W2       25959    TIP3     H1       HT       0.417000       1.00800           0
     74394 W2       25959    TIP3     H2       HT       0.417000       1.00800           0
     74395 W2       25960    TIP3     OH2      OT      -0.834000       15.9994           0
     74396 W2       25960    TIP3     H1       HT       0.417000       1.00800           0
     74397 W2       25960    TIP3     H2       HT       0.417000       1.00800           0
     74398 W2       25961    TIP3     OH2      OT      -0.834000       15.9994           0
     74399 W2       25961    TIP3     H1       HT       0.417000       1.00800           0
     74400 W2       25961    TIP3     H2       HT       0.417000       1.00800           0
     74401 W2       25962    TIP3     OH2      OT      -0.834000       15.9994           0
     74402 W2       25962    TIP3     H1       HT       0.417000       1.00800           0
     74403 W2       25962    TIP3     H2       HT       0.417000       1.00800           0
     74404 W2       25965    TIP3     OH2      OT      -0.834000       15.9994           0
     74405 W2       25965    TIP3     H1       HT       0.417000       1.00800           0
     74406 W2       25965    TIP3     H2       HT       0.417000       1.00800           0
     74407 W2       25966    TIP3     OH2      OT      -0.834000       15.9994           0
     74408 W2       25966    TIP3     H1       HT       0.417000       1.00800           0
     74409 W2       25966    TIP3     H2       HT       0.417000       1.00800           0
     74410 W2       25967    TIP3     OH2      OT      -0.834000       15.9994           0
     74411 W2       25967    TIP3     H1       HT       0.417000       1.00800           0
     74412 W2       25967    TIP3     H2       HT       0.417000       1.00800           0
     74413 W2       25968    TIP3     OH2      OT      -0.834000       15.9994           0
     74414 W2       25968    TIP3     H1       HT       0.417000       1.00800           0
     74415 W2       25968    TIP3     H2       HT       0.417000       1.00800           0
     74416 W2       25971    TIP3     OH2      OT      -0.834000       15.9994           0
     74417 W2       25971    TIP3     H1       HT       0.417000       1.00800           0
     74418 W2       25971    TIP3     H2       HT       0.417000       1.00800           0
     74419 W2       25974    TIP3     OH2      OT      -0.834000       15.9994           0
     74420 W2       25974    TIP3     H1       HT       0.417000       1.00800           0
     74421 W2       25974    TIP3     H2       HT       0.417000       1.00800           0
     74422 W2       25975    TIP3     OH2      OT      -0.834000       15.9994           0
     74423 W2       25975    TIP3     H1       HT       0.417000       1.00800           0
     74424 W2       25975    TIP3     H2       HT       0.417000       1.00800           0
     74425 W2       25976    TIP3     OH2      OT      -0.834000       15.9994           0
     74426 W2       25976    TIP3     H1       HT       0.417000       1.00800           0
     74427 W2       25976    TIP3     H2       HT       0.417000       1.00800           0
     74428 W2       25977    TIP3     OH2      OT      -0.834000       15.9994           0
     74429 W2       25977    TIP3     H1       HT       0.417000       1.00800           0
     74430 W2       25977    TIP3     H2       HT       0.417000       1.00800           0
     74431 W2       25978    TIP3     OH2      OT      -0.834000       15.9994           0
     74432 W2       25978    TIP3     H1       HT       0.417000       1.00800           0
     74433 W2       25978    TIP3     H2       HT       0.417000       1.00800           0
     74434 W2       25980    TIP3     OH2      OT      -0.834000       15.9994           0
     74435 W2       25980    TIP3     H1       HT       0.417000       1.00800           0
     74436 W2       25980    TIP3     H2       HT       0.417000       1.00800           0
     74437 W2       25981    TIP3     OH2      OT      -0.834000       15.9994           0
     74438 W2       25981    TIP3     H1       HT       0.417000       1.00800           0
     74439 W2       25981    TIP3     H2       HT       0.417000       1.00800           0
     74440 W2       25982    TIP3     OH2      OT      -0.834000       15.9994           0
     74441 W2       25982    TIP3     H1       HT       0.417000       1.00800           0
     74442 W2       25982    TIP3     H2       HT       0.417000       1.00800           0
     74443 W2       25983    TIP3     OH2      OT      -0.834000       15.9994           0
     74444 W2       25983    TIP3     H1       HT       0.417000       1.00800           0
     74445 W2       25983    TIP3     H2       HT       0.417000       1.00800           0
     74446 W2       25984    TIP3     OH2      OT      -0.834000       15.9994           0
     74447 W2       25984    TIP3     H1       HT       0.417000       1.00800           0
     74448 W2       25984    TIP3     H2       HT       0.417000       1.00800           0
     74449 W2       25985    TIP3     OH2      OT      -0.834000       15.9994           0
     74450 W2       25985    TIP3     H1       HT       0.417000       1.00800           0
     74451 W2       25985    TIP3     H2       HT       0.417000       1.00800           0
     74452 W2       25986    TIP3     OH2      OT      -0.834000       15.9994           0
     74453 W2       25986    TIP3     H1       HT       0.417000       1.00800           0
     74454 W2       25986    TIP3     H2       HT       0.417000       1.00800           0
     74455 W2       25987    TIP3     OH2      OT      -0.834000       15.9994           0
     74456 W2       25987    TIP3     H1       HT       0.417000       1.00800           0
     74457 W2       25987    TIP3     H2       HT       0.417000       1.00800           0
     74458 W2       25988    TIP3     OH2      OT      -0.834000       15.9994           0
     74459 W2       25988    TIP3     H1       HT       0.417000       1.00800           0
     74460 W2       25988    TIP3     H2       HT       0.417000       1.00800           0
     74461 W2       25989    TIP3     OH2      OT      -0.834000       15.9994           0
     74462 W2       25989    TIP3     H1       HT       0.417000       1.00800           0
     74463 W2       25989    TIP3     H2       HT       0.417000       1.00800           0
     74464 W2       25990    TIP3     OH2      OT      -0.834000       15.9994           0
     74465 W2       25990    TIP3     H1       HT       0.417000       1.00800           0
     74466 W2       25990    TIP3     H2       HT       0.417000       1.00800           0
     74467 W2       25993    TIP3     OH2      OT      -0.834000       15.9994           0
     74468 W2       25993    TIP3     H1       HT       0.417000       1.00800           0
     74469 W2       25993    TIP3     H2       HT       0.417000       1.00800           0
     74470 W2       25994    TIP3     OH2      OT      -0.834000       15.9994           0
     74471 W2       25994    TIP3     H1       HT       0.417000       1.00800           0
     74472 W2       25994    TIP3     H2       HT       0.417000       1.00800           0
     74473 W2       25995    TIP3     OH2      OT      -0.834000       15.9994           0
     74474 W2       25995    TIP3     H1       HT       0.417000       1.00800           0
     74475 W2       25995    TIP3     H2       HT       0.417000       1.00800           0
     74476 W2       25996    TIP3     OH2      OT      -0.834000       15.9994           0
     74477 W2       25996    TIP3     H1       HT       0.417000       1.00800           0
     74478 W2       25996    TIP3     H2       HT       0.417000       1.00800           0
     74479 W2       25997    TIP3     OH2      OT      -0.834000       15.9994           0
     74480 W2       25997    TIP3     H1       HT       0.417000       1.00800           0
     74481 W2       25997    TIP3     H2       HT       0.417000       1.00800           0
     74482 W2       25998    TIP3     OH2      OT      -0.834000       15.9994           0
     74483 W2       25998    TIP3     H1       HT       0.417000       1.00800           0
     74484 W2       25998    TIP3     H2       HT       0.417000       1.00800           0
     74485 W2       26000    TIP3     OH2      OT      -0.834000       15.9994           0
     74486 W2       26000    TIP3     H1       HT       0.417000       1.00800           0
     74487 W2       26000    TIP3     H2       HT       0.417000       1.00800           0
     74488 W2       26001    TIP3     OH2      OT      -0.834000       15.9994           0
     74489 W2       26001    TIP3     H1       HT       0.417000       1.00800           0
     74490 W2       26001    TIP3     H2       HT       0.417000       1.00800           0
     74491 W2       26002    TIP3     OH2      OT      -0.834000       15.9994           0
     74492 W2       26002    TIP3     H1       HT       0.417000       1.00800           0
     74493 W2       26002    TIP3     H2       HT       0.417000       1.00800           0
     74494 W2       26006    TIP3     OH2      OT      -0.834000       15.9994           0
     74495 W2       26006    TIP3     H1       HT       0.417000       1.00800           0
     74496 W2       26006    TIP3     H2       HT       0.417000       1.00800           0
     74497 W2       26008    TIP3     OH2      OT      -0.834000       15.9994           0
     74498 W2       26008    TIP3     H1       HT       0.417000       1.00800           0
     74499 W2       26008    TIP3     H2       HT       0.417000       1.00800           0
     74500 W2       26009    TIP3     OH2      OT      -0.834000       15.9994           0
     74501 W2       26009    TIP3     H1       HT       0.417000       1.00800           0
     74502 W2       26009    TIP3     H2       HT       0.417000       1.00800           0
     74503 W2       26010    TIP3     OH2      OT      -0.834000       15.9994           0
     74504 W2       26010    TIP3     H1       HT       0.417000       1.00800           0
     74505 W2       26010    TIP3     H2       HT       0.417000       1.00800           0
     74506 W2       26011    TIP3     OH2      OT      -0.834000       15.9994           0
     74507 W2       26011    TIP3     H1       HT       0.417000       1.00800           0
     74508 W2       26011    TIP3     H2       HT       0.417000       1.00800           0
     74509 W2       26012    TIP3     OH2      OT      -0.834000       15.9994           0
     74510 W2       26012    TIP3     H1       HT       0.417000       1.00800           0
     74511 W2       26012    TIP3     H2       HT       0.417000       1.00800           0
     74512 W2       26013    TIP3     OH2      OT      -0.834000       15.9994           0
     74513 W2       26013    TIP3     H1       HT       0.417000       1.00800           0
     74514 W2       26013    TIP3     H2       HT       0.417000       1.00800           0
     74515 W2       26014    TIP3     OH2      OT      -0.834000       15.9994           0
     74516 W2       26014    TIP3     H1       HT       0.417000       1.00800           0
     74517 W2       26014    TIP3     H2       HT       0.417000       1.00800           0
     74518 W2       26015    TIP3     OH2      OT      -0.834000       15.9994           0
     74519 W2       26015    TIP3     H1       HT       0.417000       1.00800           0
     74520 W2       26015    TIP3     H2       HT       0.417000       1.00800           0
     74521 W2       26016    TIP3     OH2      OT      -0.834000       15.9994           0
     74522 W2       26016    TIP3     H1       HT       0.417000       1.00800           0
     74523 W2       26016    TIP3     H2       HT       0.417000       1.00800           0
     74524 W2       26018    TIP3     OH2      OT      -0.834000       15.9994           0
     74525 W2       26018    TIP3     H1       HT       0.417000       1.00800           0
     74526 W2       26018    TIP3     H2       HT       0.417000       1.00800           0
     74527 W2       26020    TIP3     OH2      OT      -0.834000       15.9994           0
     74528 W2       26020    TIP3     H1       HT       0.417000       1.00800           0
     74529 W2       26020    TIP3     H2       HT       0.417000       1.00800           0
     74530 W2       26021    TIP3     OH2      OT      -0.834000       15.9994           0
     74531 W2       26021    TIP3     H1       HT       0.417000       1.00800           0
     74532 W2       26021    TIP3     H2       HT       0.417000       1.00800           0
     74533 W2       26022    TIP3     OH2      OT      -0.834000       15.9994           0
     74534 W2       26022    TIP3     H1       HT       0.417000       1.00800           0
     74535 W2       26022    TIP3     H2       HT       0.417000       1.00800           0
     74536 W2       26023    TIP3     OH2      OT      -0.834000       15.9994           0
     74537 W2       26023    TIP3     H1       HT       0.417000       1.00800           0
     74538 W2       26023    TIP3     H2       HT       0.417000       1.00800           0
     74539 W2       26024    TIP3     OH2      OT      -0.834000       15.9994           0
     74540 W2       26024    TIP3     H1       HT       0.417000       1.00800           0
     74541 W2       26024    TIP3     H2       HT       0.417000       1.00800           0
     74542 W2       26025    TIP3     OH2      OT      -0.834000       15.9994           0
     74543 W2       26025    TIP3     H1       HT       0.417000       1.00800           0
     74544 W2       26025    TIP3     H2       HT       0.417000       1.00800           0
     74545 W2       26026    TIP3     OH2      OT      -0.834000       15.9994           0
     74546 W2       26026    TIP3     H1       HT       0.417000       1.00800           0
     74547 W2       26026    TIP3     H2       HT       0.417000       1.00800           0
     74548 W2       26027    TIP3     OH2      OT      -0.834000       15.9994           0
     74549 W2       26027    TIP3     H1       HT       0.417000       1.00800           0
     74550 W2       26027    TIP3     H2       HT       0.417000       1.00800           0
     74551 W2       26028    TIP3     OH2      OT      -0.834000       15.9994           0
     74552 W2       26028    TIP3     H1       HT       0.417000       1.00800           0
     74553 W2       26028    TIP3     H2       HT       0.417000       1.00800           0
     74554 W2       26030    TIP3     OH2      OT      -0.834000       15.9994           0
     74555 W2       26030    TIP3     H1       HT       0.417000       1.00800           0
     74556 W2       26030    TIP3     H2       HT       0.417000       1.00800           0
     74557 W2       26031    TIP3     OH2      OT      -0.834000       15.9994           0
     74558 W2       26031    TIP3     H1       HT       0.417000       1.00800           0
     74559 W2       26031    TIP3     H2       HT       0.417000       1.00800           0
     74560 W2       26032    TIP3     OH2      OT      -0.834000       15.9994           0
     74561 W2       26032    TIP3     H1       HT       0.417000       1.00800           0
     74562 W2       26032    TIP3     H2       HT       0.417000       1.00800           0
     74563 W2       26034    TIP3     OH2      OT      -0.834000       15.9994           0
     74564 W2       26034    TIP3     H1       HT       0.417000       1.00800           0
     74565 W2       26034    TIP3     H2       HT       0.417000       1.00800           0
     74566 W2       26035    TIP3     OH2      OT      -0.834000       15.9994           0
     74567 W2       26035    TIP3     H1       HT       0.417000       1.00800           0
     74568 W2       26035    TIP3     H2       HT       0.417000       1.00800           0
     74569 W2       26036    TIP3     OH2      OT      -0.834000       15.9994           0
     74570 W2       26036    TIP3     H1       HT       0.417000       1.00800           0
     74571 W2       26036    TIP3     H2       HT       0.417000       1.00800           0
     74572 W2       26037    TIP3     OH2      OT      -0.834000       15.9994           0
     74573 W2       26037    TIP3     H1       HT       0.417000       1.00800           0
     74574 W2       26037    TIP3     H2       HT       0.417000       1.00800           0
     74575 W2       26038    TIP3     OH2      OT      -0.834000       15.9994           0
     74576 W2       26038    TIP3     H1       HT       0.417000       1.00800           0
     74577 W2       26038    TIP3     H2       HT       0.417000       1.00800           0
     74578 W2       26039    TIP3     OH2      OT      -0.834000       15.9994           0
     74579 W2       26039    TIP3     H1       HT       0.417000       1.00800           0
     74580 W2       26039    TIP3     H2       HT       0.417000       1.00800           0
     74581 W2       26042    TIP3     OH2      OT      -0.834000       15.9994           0
     74582 W2       26042    TIP3     H1       HT       0.417000       1.00800           0
     74583 W2       26042    TIP3     H2       HT       0.417000       1.00800           0
     74584 W2       26044    TIP3     OH2      OT      -0.834000       15.9994           0
     74585 W2       26044    TIP3     H1       HT       0.417000       1.00800           0
     74586 W2       26044    TIP3     H2       HT       0.417000       1.00800           0
     74587 W2       26046    TIP3     OH2      OT      -0.834000       15.9994           0
     74588 W2       26046    TIP3     H1       HT       0.417000       1.00800           0
     74589 W2       26046    TIP3     H2       HT       0.417000       1.00800           0
     74590 W2       26048    TIP3     OH2      OT      -0.834000       15.9994           0
     74591 W2       26048    TIP3     H1       HT       0.417000       1.00800           0
     74592 W2       26048    TIP3     H2       HT       0.417000       1.00800           0
     74593 W2       26051    TIP3     OH2      OT      -0.834000       15.9994           0
     74594 W2       26051    TIP3     H1       HT       0.417000       1.00800           0
     74595 W2       26051    TIP3     H2       HT       0.417000       1.00800           0
     74596 W2       26053    TIP3     OH2      OT      -0.834000       15.9994           0
     74597 W2       26053    TIP3     H1       HT       0.417000       1.00800           0
     74598 W2       26053    TIP3     H2       HT       0.417000       1.00800           0
     74599 W2       26055    TIP3     OH2      OT      -0.834000       15.9994           0
     74600 W2       26055    TIP3     H1       HT       0.417000       1.00800           0
     74601 W2       26055    TIP3     H2       HT       0.417000       1.00800           0
     74602 W2       26057    TIP3     OH2      OT      -0.834000       15.9994           0
     74603 W2       26057    TIP3     H1       HT       0.417000       1.00800           0
     74604 W2       26057    TIP3     H2       HT       0.417000       1.00800           0
     74605 W2       26069    TIP3     OH2      OT      -0.834000       15.9994           0
     74606 W2       26069    TIP3     H1       HT       0.417000       1.00800           0
     74607 W2       26069    TIP3     H2       HT       0.417000       1.00800           0
     74608 W2       26070    TIP3     OH2      OT      -0.834000       15.9994           0
     74609 W2       26070    TIP3     H1       HT       0.417000       1.00800           0
     74610 W2       26070    TIP3     H2       HT       0.417000       1.00800           0
     74611 W2       26071    TIP3     OH2      OT      -0.834000       15.9994           0
     74612 W2       26071    TIP3     H1       HT       0.417000       1.00800           0
     74613 W2       26071    TIP3     H2       HT       0.417000       1.00800           0
     74614 W2       26072    TIP3     OH2      OT      -0.834000       15.9994           0
     74615 W2       26072    TIP3     H1       HT       0.417000       1.00800           0
     74616 W2       26072    TIP3     H2       HT       0.417000       1.00800           0
     74617 W2       26073    TIP3     OH2      OT      -0.834000       15.9994           0
     74618 W2       26073    TIP3     H1       HT       0.417000       1.00800           0
     74619 W2       26073    TIP3     H2       HT       0.417000       1.00800           0
     74620 W2       26076    TIP3     OH2      OT      -0.834000       15.9994           0
     74621 W2       26076    TIP3     H1       HT       0.417000       1.00800           0
     74622 W2       26076    TIP3     H2       HT       0.417000       1.00800           0
     74623 W2       26077    TIP3     OH2      OT      -0.834000       15.9994           0
     74624 W2       26077    TIP3     H1       HT       0.417000       1.00800           0
     74625 W2       26077    TIP3     H2       HT       0.417000       1.00800           0
     74626 W2       26078    TIP3     OH2      OT      -0.834000       15.9994           0
     74627 W2       26078    TIP3     H1       HT       0.417000       1.00800           0
     74628 W2       26078    TIP3     H2       HT       0.417000       1.00800           0
     74629 W2       26079    TIP3     OH2      OT      -0.834000       15.9994           0
     74630 W2       26079    TIP3     H1       HT       0.417000       1.00800           0
     74631 W2       26079    TIP3     H2       HT       0.417000       1.00800           0
     74632 W2       26080    TIP3     OH2      OT      -0.834000       15.9994           0
     74633 W2       26080    TIP3     H1       HT       0.417000       1.00800           0
     74634 W2       26080    TIP3     H2       HT       0.417000       1.00800           0
     74635 W2       26081    TIP3     OH2      OT      -0.834000       15.9994           0
     74636 W2       26081    TIP3     H1       HT       0.417000       1.00800           0
     74637 W2       26081    TIP3     H2       HT       0.417000       1.00800           0
     74638 W2       26082    TIP3     OH2      OT      -0.834000       15.9994           0
     74639 W2       26082    TIP3     H1       HT       0.417000       1.00800           0
     74640 W2       26082    TIP3     H2       HT       0.417000       1.00800           0
     74641 W2       26083    TIP3     OH2      OT      -0.834000       15.9994           0
     74642 W2       26083    TIP3     H1       HT       0.417000       1.00800           0
     74643 W2       26083    TIP3     H2       HT       0.417000       1.00800           0
     74644 W2       26086    TIP3     OH2      OT      -0.834000       15.9994           0
     74645 W2       26086    TIP3     H1       HT       0.417000       1.00800           0
     74646 W2       26086    TIP3     H2       HT       0.417000       1.00800           0
     74647 W2       26087    TIP3     OH2      OT      -0.834000       15.9994           0
     74648 W2       26087    TIP3     H1       HT       0.417000       1.00800           0
     74649 W2       26087    TIP3     H2       HT       0.417000       1.00800           0
     74650 W2       26088    TIP3     OH2      OT      -0.834000       15.9994           0
     74651 W2       26088    TIP3     H1       HT       0.417000       1.00800           0
     74652 W2       26088    TIP3     H2       HT       0.417000       1.00800           0
     74653 W2       26089    TIP3     OH2      OT      -0.834000       15.9994           0
     74654 W2       26089    TIP3     H1       HT       0.417000       1.00800           0
     74655 W2       26089    TIP3     H2       HT       0.417000       1.00800           0
     74656 W2       26092    TIP3     OH2      OT      -0.834000       15.9994           0
     74657 W2       26092    TIP3     H1       HT       0.417000       1.00800           0
     74658 W2       26092    TIP3     H2       HT       0.417000       1.00800           0
     74659 W2       26093    TIP3     OH2      OT      -0.834000       15.9994           0
     74660 W2       26093    TIP3     H1       HT       0.417000       1.00800           0
     74661 W2       26093    TIP3     H2       HT       0.417000       1.00800           0
     74662 W2       26094    TIP3     OH2      OT      -0.834000       15.9994           0
     74663 W2       26094    TIP3     H1       HT       0.417000       1.00800           0
     74664 W2       26094    TIP3     H2       HT       0.417000       1.00800           0
     74665 W2       26096    TIP3     OH2      OT      -0.834000       15.9994           0
     74666 W2       26096    TIP3     H1       HT       0.417000       1.00800           0
     74667 W2       26096    TIP3     H2       HT       0.417000       1.00800           0
     74668 W2       26097    TIP3     OH2      OT      -0.834000       15.9994           0
     74669 W2       26097    TIP3     H1       HT       0.417000       1.00800           0
     74670 W2       26097    TIP3     H2       HT       0.417000       1.00800           0
     74671 W2       26098    TIP3     OH2      OT      -0.834000       15.9994           0
     74672 W2       26098    TIP3     H1       HT       0.417000       1.00800           0
     74673 W2       26098    TIP3     H2       HT       0.417000       1.00800           0
     74674 W2       26099    TIP3     OH2      OT      -0.834000       15.9994           0
     74675 W2       26099    TIP3     H1       HT       0.417000       1.00800           0
     74676 W2       26099    TIP3     H2       HT       0.417000       1.00800           0
     74677 W2       26101    TIP3     OH2      OT      -0.834000       15.9994           0
     74678 W2       26101    TIP3     H1       HT       0.417000       1.00800           0
     74679 W2       26101    TIP3     H2       HT       0.417000       1.00800           0
     74680 W2       26105    TIP3     OH2      OT      -0.834000       15.9994           0
     74681 W2       26105    TIP3     H1       HT       0.417000       1.00800           0
     74682 W2       26105    TIP3     H2       HT       0.417000       1.00800           0
     74683 W2       26106    TIP3     OH2      OT      -0.834000       15.9994           0
     74684 W2       26106    TIP3     H1       HT       0.417000       1.00800           0
     74685 W2       26106    TIP3     H2       HT       0.417000       1.00800           0
     74686 W2       26107    TIP3     OH2      OT      -0.834000       15.9994           0
     74687 W2       26107    TIP3     H1       HT       0.417000       1.00800           0
     74688 W2       26107    TIP3     H2       HT       0.417000       1.00800           0
     74689 W2       26108    TIP3     OH2      OT      -0.834000       15.9994           0
     74690 W2       26108    TIP3     H1       HT       0.417000       1.00800           0
     74691 W2       26108    TIP3     H2       HT       0.417000       1.00800           0
     74692 W2       26109    TIP3     OH2      OT      -0.834000       15.9994           0
     74693 W2       26109    TIP3     H1       HT       0.417000       1.00800           0
     74694 W2       26109    TIP3     H2       HT       0.417000       1.00800           0
     74695 W2       26110    TIP3     OH2      OT      -0.834000       15.9994           0
     74696 W2       26110    TIP3     H1       HT       0.417000       1.00800           0
     74697 W2       26110    TIP3     H2       HT       0.417000       1.00800           0
     74698 W2       26111    TIP3     OH2      OT      -0.834000       15.9994           0
     74699 W2       26111    TIP3     H1       HT       0.417000       1.00800           0
     74700 W2       26111    TIP3     H2       HT       0.417000       1.00800           0
     74701 W2       26112    TIP3     OH2      OT      -0.834000       15.9994           0
     74702 W2       26112    TIP3     H1       HT       0.417000       1.00800           0
     74703 W2       26112    TIP3     H2       HT       0.417000       1.00800           0
     74704 W2       26113    TIP3     OH2      OT      -0.834000       15.9994           0
     74705 W2       26113    TIP3     H1       HT       0.417000       1.00800           0
     74706 W2       26113    TIP3     H2       HT       0.417000       1.00800           0
     74707 W2       26114    TIP3     OH2      OT      -0.834000       15.9994           0
     74708 W2       26114    TIP3     H1       HT       0.417000       1.00800           0
     74709 W2       26114    TIP3     H2       HT       0.417000       1.00800           0
     74710 W2       26115    TIP3     OH2      OT      -0.834000       15.9994           0
     74711 W2       26115    TIP3     H1       HT       0.417000       1.00800           0
     74712 W2       26115    TIP3     H2       HT       0.417000       1.00800           0
     74713 W2       26116    TIP3     OH2      OT      -0.834000       15.9994           0
     74714 W2       26116    TIP3     H1       HT       0.417000       1.00800           0
     74715 W2       26116    TIP3     H2       HT       0.417000       1.00800           0
     74716 W2       26117    TIP3     OH2      OT      -0.834000       15.9994           0
     74717 W2       26117    TIP3     H1       HT       0.417000       1.00800           0
     74718 W2       26117    TIP3     H2       HT       0.417000       1.00800           0
     74719 W2       26118    TIP3     OH2      OT      -0.834000       15.9994           0
     74720 W2       26118    TIP3     H1       HT       0.417000       1.00800           0
     74721 W2       26118    TIP3     H2       HT       0.417000       1.00800           0
     74722 W2       26119    TIP3     OH2      OT      -0.834000       15.9994           0
     74723 W2       26119    TIP3     H1       HT       0.417000       1.00800           0
     74724 W2       26119    TIP3     H2       HT       0.417000       1.00800           0
     74725 W2       26120    TIP3     OH2      OT      -0.834000       15.9994           0
     74726 W2       26120    TIP3     H1       HT       0.417000       1.00800           0
     74727 W2       26120    TIP3     H2       HT       0.417000       1.00800           0
     74728 W2       26121    TIP3     OH2      OT      -0.834000       15.9994           0
     74729 W2       26121    TIP3     H1       HT       0.417000       1.00800           0
     74730 W2       26121    TIP3     H2       HT       0.417000       1.00800           0
     74731 W2       26122    TIP3     OH2      OT      -0.834000       15.9994           0
     74732 W2       26122    TIP3     H1       HT       0.417000       1.00800           0
     74733 W2       26122    TIP3     H2       HT       0.417000       1.00800           0
     74734 W2       26123    TIP3     OH2      OT      -0.834000       15.9994           0
     74735 W2       26123    TIP3     H1       HT       0.417000       1.00800           0
     74736 W2       26123    TIP3     H2       HT       0.417000       1.00800           0
     74737 W2       26124    TIP3     OH2      OT      -0.834000       15.9994           0
     74738 W2       26124    TIP3     H1       HT       0.417000       1.00800           0
     74739 W2       26124    TIP3     H2       HT       0.417000       1.00800           0
     74740 W2       26125    TIP3     OH2      OT      -0.834000       15.9994           0
     74741 W2       26125    TIP3     H1       HT       0.417000       1.00800           0
     74742 W2       26125    TIP3     H2       HT       0.417000       1.00800           0
     74743 W2       26128    TIP3     OH2      OT      -0.834000       15.9994           0
     74744 W2       26128    TIP3     H1       HT       0.417000       1.00800           0
     74745 W2       26128    TIP3     H2       HT       0.417000       1.00800           0
     74746 W2       26131    TIP3     OH2      OT      -0.834000       15.9994           0
     74747 W2       26131    TIP3     H1       HT       0.417000       1.00800           0
     74748 W2       26131    TIP3     H2       HT       0.417000       1.00800           0
     74749 W2       26132    TIP3     OH2      OT      -0.834000       15.9994           0
     74750 W2       26132    TIP3     H1       HT       0.417000       1.00800           0
     74751 W2       26132    TIP3     H2       HT       0.417000       1.00800           0
     74752 W2       26133    TIP3     OH2      OT      -0.834000       15.9994           0
     74753 W2       26133    TIP3     H1       HT       0.417000       1.00800           0
     74754 W2       26133    TIP3     H2       HT       0.417000       1.00800           0
     74755 W2       26134    TIP3     OH2      OT      -0.834000       15.9994           0
     74756 W2       26134    TIP3     H1       HT       0.417000       1.00800           0
     74757 W2       26134    TIP3     H2       HT       0.417000       1.00800           0
     74758 W2       26135    TIP3     OH2      OT      -0.834000       15.9994           0
     74759 W2       26135    TIP3     H1       HT       0.417000       1.00800           0
     74760 W2       26135    TIP3     H2       HT       0.417000       1.00800           0
     74761 W2       26136    TIP3     OH2      OT      -0.834000       15.9994           0
     74762 W2       26136    TIP3     H1       HT       0.417000       1.00800           0
     74763 W2       26136    TIP3     H2       HT       0.417000       1.00800           0
     74764 W2       26137    TIP3     OH2      OT      -0.834000       15.9994           0
     74765 W2       26137    TIP3     H1       HT       0.417000       1.00800           0
     74766 W2       26137    TIP3     H2       HT       0.417000       1.00800           0
     74767 W2       26138    TIP3     OH2      OT      -0.834000       15.9994           0
     74768 W2       26138    TIP3     H1       HT       0.417000       1.00800           0
     74769 W2       26138    TIP3     H2       HT       0.417000       1.00800           0
     74770 W2       26139    TIP3     OH2      OT      -0.834000       15.9994           0
     74771 W2       26139    TIP3     H1       HT       0.417000       1.00800           0
     74772 W2       26139    TIP3     H2       HT       0.417000       1.00800           0
     74773 W2       26140    TIP3     OH2      OT      -0.834000       15.9994           0
     74774 W2       26140    TIP3     H1       HT       0.417000       1.00800           0
     74775 W2       26140    TIP3     H2       HT       0.417000       1.00800           0
     74776 W2       26141    TIP3     OH2      OT      -0.834000       15.9994           0
     74777 W2       26141    TIP3     H1       HT       0.417000       1.00800           0
     74778 W2       26141    TIP3     H2       HT       0.417000       1.00800           0
     74779 W2       26142    TIP3     OH2      OT      -0.834000       15.9994           0
     74780 W2       26142    TIP3     H1       HT       0.417000       1.00800           0
     74781 W2       26142    TIP3     H2       HT       0.417000       1.00800           0
     74782 W2       26143    TIP3     OH2      OT      -0.834000       15.9994           0
     74783 W2       26143    TIP3     H1       HT       0.417000       1.00800           0
     74784 W2       26143    TIP3     H2       HT       0.417000       1.00800           0
     74785 W2       26144    TIP3     OH2      OT      -0.834000       15.9994           0
     74786 W2       26144    TIP3     H1       HT       0.417000       1.00800           0
     74787 W2       26144    TIP3     H2       HT       0.417000       1.00800           0
     74788 W2       26145    TIP3     OH2      OT      -0.834000       15.9994           0
     74789 W2       26145    TIP3     H1       HT       0.417000       1.00800           0
     74790 W2       26145    TIP3     H2       HT       0.417000       1.00800           0
     74791 W2       26147    TIP3     OH2      OT      -0.834000       15.9994           0
     74792 W2       26147    TIP3     H1       HT       0.417000       1.00800           0
     74793 W2       26147    TIP3     H2       HT       0.417000       1.00800           0
     74794 W2       26148    TIP3     OH2      OT      -0.834000       15.9994           0
     74795 W2       26148    TIP3     H1       HT       0.417000       1.00800           0
     74796 W2       26148    TIP3     H2       HT       0.417000       1.00800           0
     74797 W2       26149    TIP3     OH2      OT      -0.834000       15.9994           0
     74798 W2       26149    TIP3     H1       HT       0.417000       1.00800           0
     74799 W2       26149    TIP3     H2       HT       0.417000       1.00800           0
     74800 W2       26150    TIP3     OH2      OT      -0.834000       15.9994           0
     74801 W2       26150    TIP3     H1       HT       0.417000       1.00800           0
     74802 W2       26150    TIP3     H2       HT       0.417000       1.00800           0
     74803 W2       26151    TIP3     OH2      OT      -0.834000       15.9994           0
     74804 W2       26151    TIP3     H1       HT       0.417000       1.00800           0
     74805 W2       26151    TIP3     H2       HT       0.417000       1.00800           0
     74806 W2       26152    TIP3     OH2      OT      -0.834000       15.9994           0
     74807 W2       26152    TIP3     H1       HT       0.417000       1.00800           0
     74808 W2       26152    TIP3     H2       HT       0.417000       1.00800           0
     74809 W2       26153    TIP3     OH2      OT      -0.834000       15.9994           0
     74810 W2       26153    TIP3     H1       HT       0.417000       1.00800           0
     74811 W2       26153    TIP3     H2       HT       0.417000       1.00800           0
     74812 W2       26154    TIP3     OH2      OT      -0.834000       15.9994           0
     74813 W2       26154    TIP3     H1       HT       0.417000       1.00800           0
     74814 W2       26154    TIP3     H2       HT       0.417000       1.00800           0
     74815 W2       26155    TIP3     OH2      OT      -0.834000       15.9994           0
     74816 W2       26155    TIP3     H1       HT       0.417000       1.00800           0
     74817 W2       26155    TIP3     H2       HT       0.417000       1.00800           0
     74818 W2       26156    TIP3     OH2      OT      -0.834000       15.9994           0
     74819 W2       26156    TIP3     H1       HT       0.417000       1.00800           0
     74820 W2       26156    TIP3     H2       HT       0.417000       1.00800           0
     74821 W2       26157    TIP3     OH2      OT      -0.834000       15.9994           0
     74822 W2       26157    TIP3     H1       HT       0.417000       1.00800           0
     74823 W2       26157    TIP3     H2       HT       0.417000       1.00800           0
     74824 W2       26158    TIP3     OH2      OT      -0.834000       15.9994           0
     74825 W2       26158    TIP3     H1       HT       0.417000       1.00800           0
     74826 W2       26158    TIP3     H2       HT       0.417000       1.00800           0
     74827 W2       26160    TIP3     OH2      OT      -0.834000       15.9994           0
     74828 W2       26160    TIP3     H1       HT       0.417000       1.00800           0
     74829 W2       26160    TIP3     H2       HT       0.417000       1.00800           0
     74830 W2       26161    TIP3     OH2      OT      -0.834000       15.9994           0
     74831 W2       26161    TIP3     H1       HT       0.417000       1.00800           0
     74832 W2       26161    TIP3     H2       HT       0.417000       1.00800           0
     74833 W2       26162    TIP3     OH2      OT      -0.834000       15.9994           0
     74834 W2       26162    TIP3     H1       HT       0.417000       1.00800           0
     74835 W2       26162    TIP3     H2       HT       0.417000       1.00800           0
     74836 W2       26163    TIP3     OH2      OT      -0.834000       15.9994           0
     74837 W2       26163    TIP3     H1       HT       0.417000       1.00800           0
     74838 W2       26163    TIP3     H2       HT       0.417000       1.00800           0
     74839 W2       26165    TIP3     OH2      OT      -0.834000       15.9994           0
     74840 W2       26165    TIP3     H1       HT       0.417000       1.00800           0
     74841 W2       26165    TIP3     H2       HT       0.417000       1.00800           0
     74842 W2       26166    TIP3     OH2      OT      -0.834000       15.9994           0
     74843 W2       26166    TIP3     H1       HT       0.417000       1.00800           0
     74844 W2       26166    TIP3     H2       HT       0.417000       1.00800           0
     74845 W2       26167    TIP3     OH2      OT      -0.834000       15.9994           0
     74846 W2       26167    TIP3     H1       HT       0.417000       1.00800           0
     74847 W2       26167    TIP3     H2       HT       0.417000       1.00800           0
     74848 W2       26168    TIP3     OH2      OT      -0.834000       15.9994           0
     74849 W2       26168    TIP3     H1       HT       0.417000       1.00800           0
     74850 W2       26168    TIP3     H2       HT       0.417000       1.00800           0
     74851 W2       26170    TIP3     OH2      OT      -0.834000       15.9994           0
     74852 W2       26170    TIP3     H1       HT       0.417000       1.00800           0
     74853 W2       26170    TIP3     H2       HT       0.417000       1.00800           0
     74854 W2       26172    TIP3     OH2      OT      -0.834000       15.9994           0
     74855 W2       26172    TIP3     H1       HT       0.417000       1.00800           0
     74856 W2       26172    TIP3     H2       HT       0.417000       1.00800           0
     74857 W2       26174    TIP3     OH2      OT      -0.834000       15.9994           0
     74858 W2       26174    TIP3     H1       HT       0.417000       1.00800           0
     74859 W2       26174    TIP3     H2       HT       0.417000       1.00800           0
     74860 W2       26175    TIP3     OH2      OT      -0.834000       15.9994           0
     74861 W2       26175    TIP3     H1       HT       0.417000       1.00800           0
     74862 W2       26175    TIP3     H2       HT       0.417000       1.00800           0
     74863 W2       26176    TIP3     OH2      OT      -0.834000       15.9994           0
     74864 W2       26176    TIP3     H1       HT       0.417000       1.00800           0
     74865 W2       26176    TIP3     H2       HT       0.417000       1.00800           0
     74866 W2       26177    TIP3     OH2      OT      -0.834000       15.9994           0
     74867 W2       26177    TIP3     H1       HT       0.417000       1.00800           0
     74868 W2       26177    TIP3     H2       HT       0.417000       1.00800           0
     74869 W2       26178    TIP3     OH2      OT      -0.834000       15.9994           0
     74870 W2       26178    TIP3     H1       HT       0.417000       1.00800           0
     74871 W2       26178    TIP3     H2       HT       0.417000       1.00800           0
     74872 W2       26181    TIP3     OH2      OT      -0.834000       15.9994           0
     74873 W2       26181    TIP3     H1       HT       0.417000       1.00800           0
     74874 W2       26181    TIP3     H2       HT       0.417000       1.00800           0
     74875 W2       26182    TIP3     OH2      OT      -0.834000       15.9994           0
     74876 W2       26182    TIP3     H1       HT       0.417000       1.00800           0
     74877 W2       26182    TIP3     H2       HT       0.417000       1.00800           0
     74878 W2       26183    TIP3     OH2      OT      -0.834000       15.9994           0
     74879 W2       26183    TIP3     H1       HT       0.417000       1.00800           0
     74880 W2       26183    TIP3     H2       HT       0.417000       1.00800           0
     74881 W2       26184    TIP3     OH2      OT      -0.834000       15.9994           0
     74882 W2       26184    TIP3     H1       HT       0.417000       1.00800           0
     74883 W2       26184    TIP3     H2       HT       0.417000       1.00800           0
     74884 W2       26187    TIP3     OH2      OT      -0.834000       15.9994           0
     74885 W2       26187    TIP3     H1       HT       0.417000       1.00800           0
     74886 W2       26187    TIP3     H2       HT       0.417000       1.00800           0
     74887 W2       26190    TIP3     OH2      OT      -0.834000       15.9994           0
     74888 W2       26190    TIP3     H1       HT       0.417000       1.00800           0
     74889 W2       26190    TIP3     H2       HT       0.417000       1.00800           0
     74890 W2       26191    TIP3     OH2      OT      -0.834000       15.9994           0
     74891 W2       26191    TIP3     H1       HT       0.417000       1.00800           0
     74892 W2       26191    TIP3     H2       HT       0.417000       1.00800           0
     74893 W2       26192    TIP3     OH2      OT      -0.834000       15.9994           0
     74894 W2       26192    TIP3     H1       HT       0.417000       1.00800           0
     74895 W2       26192    TIP3     H2       HT       0.417000       1.00800           0
     74896 W2       26193    TIP3     OH2      OT      -0.834000       15.9994           0
     74897 W2       26193    TIP3     H1       HT       0.417000       1.00800           0
     74898 W2       26193    TIP3     H2       HT       0.417000       1.00800           0
     74899 W2       26194    TIP3     OH2      OT      -0.834000       15.9994           0
     74900 W2       26194    TIP3     H1       HT       0.417000       1.00800           0
     74901 W2       26194    TIP3     H2       HT       0.417000       1.00800           0
     74902 W2       26196    TIP3     OH2      OT      -0.834000       15.9994           0
     74903 W2       26196    TIP3     H1       HT       0.417000       1.00800           0
     74904 W2       26196    TIP3     H2       HT       0.417000       1.00800           0
     74905 W2       26197    TIP3     OH2      OT      -0.834000       15.9994           0
     74906 W2       26197    TIP3     H1       HT       0.417000       1.00800           0
     74907 W2       26197    TIP3     H2       HT       0.417000       1.00800           0
     74908 W2       26198    TIP3     OH2      OT      -0.834000       15.9994           0
     74909 W2       26198    TIP3     H1       HT       0.417000       1.00800           0
     74910 W2       26198    TIP3     H2       HT       0.417000       1.00800           0
     74911 W2       26199    TIP3     OH2      OT      -0.834000       15.9994           0
     74912 W2       26199    TIP3     H1       HT       0.417000       1.00800           0
     74913 W2       26199    TIP3     H2       HT       0.417000       1.00800           0
     74914 W2       26200    TIP3     OH2      OT      -0.834000       15.9994           0
     74915 W2       26200    TIP3     H1       HT       0.417000       1.00800           0
     74916 W2       26200    TIP3     H2       HT       0.417000       1.00800           0
     74917 W2       26201    TIP3     OH2      OT      -0.834000       15.9994           0
     74918 W2       26201    TIP3     H1       HT       0.417000       1.00800           0
     74919 W2       26201    TIP3     H2       HT       0.417000       1.00800           0
     74920 W2       26202    TIP3     OH2      OT      -0.834000       15.9994           0
     74921 W2       26202    TIP3     H1       HT       0.417000       1.00800           0
     74922 W2       26202    TIP3     H2       HT       0.417000       1.00800           0
     74923 W2       26203    TIP3     OH2      OT      -0.834000       15.9994           0
     74924 W2       26203    TIP3     H1       HT       0.417000       1.00800           0
     74925 W2       26203    TIP3     H2       HT       0.417000       1.00800           0
     74926 W2       26204    TIP3     OH2      OT      -0.834000       15.9994           0
     74927 W2       26204    TIP3     H1       HT       0.417000       1.00800           0
     74928 W2       26204    TIP3     H2       HT       0.417000       1.00800           0
     74929 W2       26205    TIP3     OH2      OT      -0.834000       15.9994           0
     74930 W2       26205    TIP3     H1       HT       0.417000       1.00800           0
     74931 W2       26205    TIP3     H2       HT       0.417000       1.00800           0
     74932 W2       26206    TIP3     OH2      OT      -0.834000       15.9994           0
     74933 W2       26206    TIP3     H1       HT       0.417000       1.00800           0
     74934 W2       26206    TIP3     H2       HT       0.417000       1.00800           0
     74935 W2       26209    TIP3     OH2      OT      -0.834000       15.9994           0
     74936 W2       26209    TIP3     H1       HT       0.417000       1.00800           0
     74937 W2       26209    TIP3     H2       HT       0.417000       1.00800           0
     74938 W2       26210    TIP3     OH2      OT      -0.834000       15.9994           0
     74939 W2       26210    TIP3     H1       HT       0.417000       1.00800           0
     74940 W2       26210    TIP3     H2       HT       0.417000       1.00800           0
     74941 W2       26211    TIP3     OH2      OT      -0.834000       15.9994           0
     74942 W2       26211    TIP3     H1       HT       0.417000       1.00800           0
     74943 W2       26211    TIP3     H2       HT       0.417000       1.00800           0
     74944 W2       26212    TIP3     OH2      OT      -0.834000       15.9994           0
     74945 W2       26212    TIP3     H1       HT       0.417000       1.00800           0
     74946 W2       26212    TIP3     H2       HT       0.417000       1.00800           0
     74947 W2       26213    TIP3     OH2      OT      -0.834000       15.9994           0
     74948 W2       26213    TIP3     H1       HT       0.417000       1.00800           0
     74949 W2       26213    TIP3     H2       HT       0.417000       1.00800           0
     74950 W2       26214    TIP3     OH2      OT      -0.834000       15.9994           0
     74951 W2       26214    TIP3     H1       HT       0.417000       1.00800           0
     74952 W2       26214    TIP3     H2       HT       0.417000       1.00800           0
     74953 W2       26216    TIP3     OH2      OT      -0.834000       15.9994           0
     74954 W2       26216    TIP3     H1       HT       0.417000       1.00800           0
     74955 W2       26216    TIP3     H2       HT       0.417000       1.00800           0
     74956 W2       26217    TIP3     OH2      OT      -0.834000       15.9994           0
     74957 W2       26217    TIP3     H1       HT       0.417000       1.00800           0
     74958 W2       26217    TIP3     H2       HT       0.417000       1.00800           0
     74959 W2       26218    TIP3     OH2      OT      -0.834000       15.9994           0
     74960 W2       26218    TIP3     H1       HT       0.417000       1.00800           0
     74961 W2       26218    TIP3     H2       HT       0.417000       1.00800           0
     74962 W2       26222    TIP3     OH2      OT      -0.834000       15.9994           0
     74963 W2       26222    TIP3     H1       HT       0.417000       1.00800           0
     74964 W2       26222    TIP3     H2       HT       0.417000       1.00800           0
     74965 W2       26224    TIP3     OH2      OT      -0.834000       15.9994           0
     74966 W2       26224    TIP3     H1       HT       0.417000       1.00800           0
     74967 W2       26224    TIP3     H2       HT       0.417000       1.00800           0
     74968 W2       26225    TIP3     OH2      OT      -0.834000       15.9994           0
     74969 W2       26225    TIP3     H1       HT       0.417000       1.00800           0
     74970 W2       26225    TIP3     H2       HT       0.417000       1.00800           0
     74971 W2       26226    TIP3     OH2      OT      -0.834000       15.9994           0
     74972 W2       26226    TIP3     H1       HT       0.417000       1.00800           0
     74973 W2       26226    TIP3     H2       HT       0.417000       1.00800           0
     74974 W2       26227    TIP3     OH2      OT      -0.834000       15.9994           0
     74975 W2       26227    TIP3     H1       HT       0.417000       1.00800           0
     74976 W2       26227    TIP3     H2       HT       0.417000       1.00800           0
     74977 W2       26228    TIP3     OH2      OT      -0.834000       15.9994           0
     74978 W2       26228    TIP3     H1       HT       0.417000       1.00800           0
     74979 W2       26228    TIP3     H2       HT       0.417000       1.00800           0
     74980 W2       26229    TIP3     OH2      OT      -0.834000       15.9994           0
     74981 W2       26229    TIP3     H1       HT       0.417000       1.00800           0
     74982 W2       26229    TIP3     H2       HT       0.417000       1.00800           0
     74983 W2       26230    TIP3     OH2      OT      -0.834000       15.9994           0
     74984 W2       26230    TIP3     H1       HT       0.417000       1.00800           0
     74985 W2       26230    TIP3     H2       HT       0.417000       1.00800           0
     74986 W2       26231    TIP3     OH2      OT      -0.834000       15.9994           0
     74987 W2       26231    TIP3     H1       HT       0.417000       1.00800           0
     74988 W2       26231    TIP3     H2       HT       0.417000       1.00800           0
     74989 W2       26232    TIP3     OH2      OT      -0.834000       15.9994           0
     74990 W2       26232    TIP3     H1       HT       0.417000       1.00800           0
     74991 W2       26232    TIP3     H2       HT       0.417000       1.00800           0
     74992 W2       26234    TIP3     OH2      OT      -0.834000       15.9994           0
     74993 W2       26234    TIP3     H1       HT       0.417000       1.00800           0
     74994 W2       26234    TIP3     H2       HT       0.417000       1.00800           0
     74995 W2       26236    TIP3     OH2      OT      -0.834000       15.9994           0
     74996 W2       26236    TIP3     H1       HT       0.417000       1.00800           0
     74997 W2       26236    TIP3     H2       HT       0.417000       1.00800           0
     74998 W2       26237    TIP3     OH2      OT      -0.834000       15.9994           0
     74999 W2       26237    TIP3     H1       HT       0.417000       1.00800           0
     75000 W2       26237    TIP3     H2       HT       0.417000       1.00800           0
     75001 W2       26238    TIP3     OH2      OT      -0.834000       15.9994           0
     75002 W2       26238    TIP3     H1       HT       0.417000       1.00800           0
     75003 W2       26238    TIP3     H2       HT       0.417000       1.00800           0
     75004 W2       26239    TIP3     OH2      OT      -0.834000       15.9994           0
     75005 W2       26239    TIP3     H1       HT       0.417000       1.00800           0
     75006 W2       26239    TIP3     H2       HT       0.417000       1.00800           0
     75007 W2       26240    TIP3     OH2      OT      -0.834000       15.9994           0
     75008 W2       26240    TIP3     H1       HT       0.417000       1.00800           0
     75009 W2       26240    TIP3     H2       HT       0.417000       1.00800           0
     75010 W2       26241    TIP3     OH2      OT      -0.834000       15.9994           0
     75011 W2       26241    TIP3     H1       HT       0.417000       1.00800           0
     75012 W2       26241    TIP3     H2       HT       0.417000       1.00800           0
     75013 W2       26242    TIP3     OH2      OT      -0.834000       15.9994           0
     75014 W2       26242    TIP3     H1       HT       0.417000       1.00800           0
     75015 W2       26242    TIP3     H2       HT       0.417000       1.00800           0
     75016 W2       26243    TIP3     OH2      OT      -0.834000       15.9994           0
     75017 W2       26243    TIP3     H1       HT       0.417000       1.00800           0
     75018 W2       26243    TIP3     H2       HT       0.417000       1.00800           0
     75019 W2       26244    TIP3     OH2      OT      -0.834000       15.9994           0
     75020 W2       26244    TIP3     H1       HT       0.417000       1.00800           0
     75021 W2       26244    TIP3     H2       HT       0.417000       1.00800           0
     75022 W2       26246    TIP3     OH2      OT      -0.834000       15.9994           0
     75023 W2       26246    TIP3     H1       HT       0.417000       1.00800           0
     75024 W2       26246    TIP3     H2       HT       0.417000       1.00800           0
     75025 W2       26247    TIP3     OH2      OT      -0.834000       15.9994           0
     75026 W2       26247    TIP3     H1       HT       0.417000       1.00800           0
     75027 W2       26247    TIP3     H2       HT       0.417000       1.00800           0
     75028 W2       26248    TIP3     OH2      OT      -0.834000       15.9994           0
     75029 W2       26248    TIP3     H1       HT       0.417000       1.00800           0
     75030 W2       26248    TIP3     H2       HT       0.417000       1.00800           0
     75031 W2       26250    TIP3     OH2      OT      -0.834000       15.9994           0
     75032 W2       26250    TIP3     H1       HT       0.417000       1.00800           0
     75033 W2       26250    TIP3     H2       HT       0.417000       1.00800           0
     75034 W2       26251    TIP3     OH2      OT      -0.834000       15.9994           0
     75035 W2       26251    TIP3     H1       HT       0.417000       1.00800           0
     75036 W2       26251    TIP3     H2       HT       0.417000       1.00800           0
     75037 W2       26252    TIP3     OH2      OT      -0.834000       15.9994           0
     75038 W2       26252    TIP3     H1       HT       0.417000       1.00800           0
     75039 W2       26252    TIP3     H2       HT       0.417000       1.00800           0
     75040 W2       26253    TIP3     OH2      OT      -0.834000       15.9994           0
     75041 W2       26253    TIP3     H1       HT       0.417000       1.00800           0
     75042 W2       26253    TIP3     H2       HT       0.417000       1.00800           0
     75043 W2       26254    TIP3     OH2      OT      -0.834000       15.9994           0
     75044 W2       26254    TIP3     H1       HT       0.417000       1.00800           0
     75045 W2       26254    TIP3     H2       HT       0.417000       1.00800           0
     75046 W2       26255    TIP3     OH2      OT      -0.834000       15.9994           0
     75047 W2       26255    TIP3     H1       HT       0.417000       1.00800           0
     75048 W2       26255    TIP3     H2       HT       0.417000       1.00800           0
     75049 W2       26258    TIP3     OH2      OT      -0.834000       15.9994           0
     75050 W2       26258    TIP3     H1       HT       0.417000       1.00800           0
     75051 W2       26258    TIP3     H2       HT       0.417000       1.00800           0
     75052 W2       26260    TIP3     OH2      OT      -0.834000       15.9994           0
     75053 W2       26260    TIP3     H1       HT       0.417000       1.00800           0
     75054 W2       26260    TIP3     H2       HT       0.417000       1.00800           0
     75055 W2       26262    TIP3     OH2      OT      -0.834000       15.9994           0
     75056 W2       26262    TIP3     H1       HT       0.417000       1.00800           0
     75057 W2       26262    TIP3     H2       HT       0.417000       1.00800           0
     75058 W2       26264    TIP3     OH2      OT      -0.834000       15.9994           0
     75059 W2       26264    TIP3     H1       HT       0.417000       1.00800           0
     75060 W2       26264    TIP3     H2       HT       0.417000       1.00800           0
     75061 W2       26267    TIP3     OH2      OT      -0.834000       15.9994           0
     75062 W2       26267    TIP3     H1       HT       0.417000       1.00800           0
     75063 W2       26267    TIP3     H2       HT       0.417000       1.00800           0
     75064 W2       26269    TIP3     OH2      OT      -0.834000       15.9994           0
     75065 W2       26269    TIP3     H1       HT       0.417000       1.00800           0
     75066 W2       26269    TIP3     H2       HT       0.417000       1.00800           0
     75067 W2       26271    TIP3     OH2      OT      -0.834000       15.9994           0
     75068 W2       26271    TIP3     H1       HT       0.417000       1.00800           0
     75069 W2       26271    TIP3     H2       HT       0.417000       1.00800           0
     75070 W2       26273    TIP3     OH2      OT      -0.834000       15.9994           0
     75071 W2       26273    TIP3     H1       HT       0.417000       1.00800           0
     75072 W2       26273    TIP3     H2       HT       0.417000       1.00800           0
     75073 W2       26285    TIP3     OH2      OT      -0.834000       15.9994           0
     75074 W2       26285    TIP3     H1       HT       0.417000       1.00800           0
     75075 W2       26285    TIP3     H2       HT       0.417000       1.00800           0
     75076 W2       26286    TIP3     OH2      OT      -0.834000       15.9994           0
     75077 W2       26286    TIP3     H1       HT       0.417000       1.00800           0
     75078 W2       26286    TIP3     H2       HT       0.417000       1.00800           0
     75079 W2       26287    TIP3     OH2      OT      -0.834000       15.9994           0
     75080 W2       26287    TIP3     H1       HT       0.417000       1.00800           0
     75081 W2       26287    TIP3     H2       HT       0.417000       1.00800           0
     75082 W2       26288    TIP3     OH2      OT      -0.834000       15.9994           0
     75083 W2       26288    TIP3     H1       HT       0.417000       1.00800           0
     75084 W2       26288    TIP3     H2       HT       0.417000       1.00800           0
     75085 W2       26289    TIP3     OH2      OT      -0.834000       15.9994           0
     75086 W2       26289    TIP3     H1       HT       0.417000       1.00800           0
     75087 W2       26289    TIP3     H2       HT       0.417000       1.00800           0
     75088 W2       26292    TIP3     OH2      OT      -0.834000       15.9994           0
     75089 W2       26292    TIP3     H1       HT       0.417000       1.00800           0
     75090 W2       26292    TIP3     H2       HT       0.417000       1.00800           0
     75091 W2       26293    TIP3     OH2      OT      -0.834000       15.9994           0
     75092 W2       26293    TIP3     H1       HT       0.417000       1.00800           0
     75093 W2       26293    TIP3     H2       HT       0.417000       1.00800           0
     75094 W2       26294    TIP3     OH2      OT      -0.834000       15.9994           0
     75095 W2       26294    TIP3     H1       HT       0.417000       1.00800           0
     75096 W2       26294    TIP3     H2       HT       0.417000       1.00800           0
     75097 W2       26295    TIP3     OH2      OT      -0.834000       15.9994           0
     75098 W2       26295    TIP3     H1       HT       0.417000       1.00800           0
     75099 W2       26295    TIP3     H2       HT       0.417000       1.00800           0
     75100 W2       26296    TIP3     OH2      OT      -0.834000       15.9994           0
     75101 W2       26296    TIP3     H1       HT       0.417000       1.00800           0
     75102 W2       26296    TIP3     H2       HT       0.417000       1.00800           0
     75103 W2       26297    TIP3     OH2      OT      -0.834000       15.9994           0
     75104 W2       26297    TIP3     H1       HT       0.417000       1.00800           0
     75105 W2       26297    TIP3     H2       HT       0.417000       1.00800           0
     75106 W2       26298    TIP3     OH2      OT      -0.834000       15.9994           0
     75107 W2       26298    TIP3     H1       HT       0.417000       1.00800           0
     75108 W2       26298    TIP3     H2       HT       0.417000       1.00800           0
     75109 W2       26299    TIP3     OH2      OT      -0.834000       15.9994           0
     75110 W2       26299    TIP3     H1       HT       0.417000       1.00800           0
     75111 W2       26299    TIP3     H2       HT       0.417000       1.00800           0
     75112 W2       26302    TIP3     OH2      OT      -0.834000       15.9994           0
     75113 W2       26302    TIP3     H1       HT       0.417000       1.00800           0
     75114 W2       26302    TIP3     H2       HT       0.417000       1.00800           0
     75115 W2       26303    TIP3     OH2      OT      -0.834000       15.9994           0
     75116 W2       26303    TIP3     H1       HT       0.417000       1.00800           0
     75117 W2       26303    TIP3     H2       HT       0.417000       1.00800           0
     75118 W2       26304    TIP3     OH2      OT      -0.834000       15.9994           0
     75119 W2       26304    TIP3     H1       HT       0.417000       1.00800           0
     75120 W2       26304    TIP3     H2       HT       0.417000       1.00800           0
     75121 W2       26305    TIP3     OH2      OT      -0.834000       15.9994           0
     75122 W2       26305    TIP3     H1       HT       0.417000       1.00800           0
     75123 W2       26305    TIP3     H2       HT       0.417000       1.00800           0
     75124 W2       26308    TIP3     OH2      OT      -0.834000       15.9994           0
     75125 W2       26308    TIP3     H1       HT       0.417000       1.00800           0
     75126 W2       26308    TIP3     H2       HT       0.417000       1.00800           0
     75127 W2       26309    TIP3     OH2      OT      -0.834000       15.9994           0
     75128 W2       26309    TIP3     H1       HT       0.417000       1.00800           0
     75129 W2       26309    TIP3     H2       HT       0.417000       1.00800           0
     75130 W2       26310    TIP3     OH2      OT      -0.834000       15.9994           0
     75131 W2       26310    TIP3     H1       HT       0.417000       1.00800           0
     75132 W2       26310    TIP3     H2       HT       0.417000       1.00800           0
     75133 W2       26312    TIP3     OH2      OT      -0.834000       15.9994           0
     75134 W2       26312    TIP3     H1       HT       0.417000       1.00800           0
     75135 W2       26312    TIP3     H2       HT       0.417000       1.00800           0
     75136 W2       26313    TIP3     OH2      OT      -0.834000       15.9994           0
     75137 W2       26313    TIP3     H1       HT       0.417000       1.00800           0
     75138 W2       26313    TIP3     H2       HT       0.417000       1.00800           0
     75139 W2       26314    TIP3     OH2      OT      -0.834000       15.9994           0
     75140 W2       26314    TIP3     H1       HT       0.417000       1.00800           0
     75141 W2       26314    TIP3     H2       HT       0.417000       1.00800           0
     75142 W2       26315    TIP3     OH2      OT      -0.834000       15.9994           0
     75143 W2       26315    TIP3     H1       HT       0.417000       1.00800           0
     75144 W2       26315    TIP3     H2       HT       0.417000       1.00800           0
     75145 W2       26317    TIP3     OH2      OT      -0.834000       15.9994           0
     75146 W2       26317    TIP3     H1       HT       0.417000       1.00800           0
     75147 W2       26317    TIP3     H2       HT       0.417000       1.00800           0
     75148 W2       26321    TIP3     OH2      OT      -0.834000       15.9994           0
     75149 W2       26321    TIP3     H1       HT       0.417000       1.00800           0
     75150 W2       26321    TIP3     H2       HT       0.417000       1.00800           0
     75151 W2       26322    TIP3     OH2      OT      -0.834000       15.9994           0
     75152 W2       26322    TIP3     H1       HT       0.417000       1.00800           0
     75153 W2       26322    TIP3     H2       HT       0.417000       1.00800           0
     75154 W2       26323    TIP3     OH2      OT      -0.834000       15.9994           0
     75155 W2       26323    TIP3     H1       HT       0.417000       1.00800           0
     75156 W2       26323    TIP3     H2       HT       0.417000       1.00800           0
     75157 W2       26324    TIP3     OH2      OT      -0.834000       15.9994           0
     75158 W2       26324    TIP3     H1       HT       0.417000       1.00800           0
     75159 W2       26324    TIP3     H2       HT       0.417000       1.00800           0
     75160 W2       26325    TIP3     OH2      OT      -0.834000       15.9994           0
     75161 W2       26325    TIP3     H1       HT       0.417000       1.00800           0
     75162 W2       26325    TIP3     H2       HT       0.417000       1.00800           0
     75163 W2       26326    TIP3     OH2      OT      -0.834000       15.9994           0
     75164 W2       26326    TIP3     H1       HT       0.417000       1.00800           0
     75165 W2       26326    TIP3     H2       HT       0.417000       1.00800           0
     75166 W2       26327    TIP3     OH2      OT      -0.834000       15.9994           0
     75167 W2       26327    TIP3     H1       HT       0.417000       1.00800           0
     75168 W2       26327    TIP3     H2       HT       0.417000       1.00800           0
     75169 W2       26328    TIP3     OH2      OT      -0.834000       15.9994           0
     75170 W2       26328    TIP3     H1       HT       0.417000       1.00800           0
     75171 W2       26328    TIP3     H2       HT       0.417000       1.00800           0
     75172 W2       26329    TIP3     OH2      OT      -0.834000       15.9994           0
     75173 W2       26329    TIP3     H1       HT       0.417000       1.00800           0
     75174 W2       26329    TIP3     H2       HT       0.417000       1.00800           0
     75175 W2       26330    TIP3     OH2      OT      -0.834000       15.9994           0
     75176 W2       26330    TIP3     H1       HT       0.417000       1.00800           0
     75177 W2       26330    TIP3     H2       HT       0.417000       1.00800           0
     75178 W2       26331    TIP3     OH2      OT      -0.834000       15.9994           0
     75179 W2       26331    TIP3     H1       HT       0.417000       1.00800           0
     75180 W2       26331    TIP3     H2       HT       0.417000       1.00800           0
     75181 W2       26332    TIP3     OH2      OT      -0.834000       15.9994           0
     75182 W2       26332    TIP3     H1       HT       0.417000       1.00800           0
     75183 W2       26332    TIP3     H2       HT       0.417000       1.00800           0
     75184 W2       26333    TIP3     OH2      OT      -0.834000       15.9994           0
     75185 W2       26333    TIP3     H1       HT       0.417000       1.00800           0
     75186 W2       26333    TIP3     H2       HT       0.417000       1.00800           0
     75187 W2       26334    TIP3     OH2      OT      -0.834000       15.9994           0
     75188 W2       26334    TIP3     H1       HT       0.417000       1.00800           0
     75189 W2       26334    TIP3     H2       HT       0.417000       1.00800           0
     75190 W2       26335    TIP3     OH2      OT      -0.834000       15.9994           0
     75191 W2       26335    TIP3     H1       HT       0.417000       1.00800           0
     75192 W2       26335    TIP3     H2       HT       0.417000       1.00800           0
     75193 W2       26336    TIP3     OH2      OT      -0.834000       15.9994           0
     75194 W2       26336    TIP3     H1       HT       0.417000       1.00800           0
     75195 W2       26336    TIP3     H2       HT       0.417000       1.00800           0
     75196 W2       26337    TIP3     OH2      OT      -0.834000       15.9994           0
     75197 W2       26337    TIP3     H1       HT       0.417000       1.00800           0
     75198 W2       26337    TIP3     H2       HT       0.417000       1.00800           0
     75199 W2       26338    TIP3     OH2      OT      -0.834000       15.9994           0
     75200 W2       26338    TIP3     H1       HT       0.417000       1.00800           0
     75201 W2       26338    TIP3     H2       HT       0.417000       1.00800           0
     75202 W2       26339    TIP3     OH2      OT      -0.834000       15.9994           0
     75203 W2       26339    TIP3     H1       HT       0.417000       1.00800           0
     75204 W2       26339    TIP3     H2       HT       0.417000       1.00800           0
     75205 W2       26340    TIP3     OH2      OT      -0.834000       15.9994           0
     75206 W2       26340    TIP3     H1       HT       0.417000       1.00800           0
     75207 W2       26340    TIP3     H2       HT       0.417000       1.00800           0
     75208 W2       26341    TIP3     OH2      OT      -0.834000       15.9994           0
     75209 W2       26341    TIP3     H1       HT       0.417000       1.00800           0
     75210 W2       26341    TIP3     H2       HT       0.417000       1.00800           0
     75211 W2       26344    TIP3     OH2      OT      -0.834000       15.9994           0
     75212 W2       26344    TIP3     H1       HT       0.417000       1.00800           0
     75213 W2       26344    TIP3     H2       HT       0.417000       1.00800           0
     75214 W2       26347    TIP3     OH2      OT      -0.834000       15.9994           0
     75215 W2       26347    TIP3     H1       HT       0.417000       1.00800           0
     75216 W2       26347    TIP3     H2       HT       0.417000       1.00800           0
     75217 W2       26348    TIP3     OH2      OT      -0.834000       15.9994           0
     75218 W2       26348    TIP3     H1       HT       0.417000       1.00800           0
     75219 W2       26348    TIP3     H2       HT       0.417000       1.00800           0
     75220 W2       26349    TIP3     OH2      OT      -0.834000       15.9994           0
     75221 W2       26349    TIP3     H1       HT       0.417000       1.00800           0
     75222 W2       26349    TIP3     H2       HT       0.417000       1.00800           0
     75223 W2       26350    TIP3     OH2      OT      -0.834000       15.9994           0
     75224 W2       26350    TIP3     H1       HT       0.417000       1.00800           0
     75225 W2       26350    TIP3     H2       HT       0.417000       1.00800           0
     75226 W2       26351    TIP3     OH2      OT      -0.834000       15.9994           0
     75227 W2       26351    TIP3     H1       HT       0.417000       1.00800           0
     75228 W2       26351    TIP3     H2       HT       0.417000       1.00800           0
     75229 W2       26352    TIP3     OH2      OT      -0.834000       15.9994           0
     75230 W2       26352    TIP3     H1       HT       0.417000       1.00800           0
     75231 W2       26352    TIP3     H2       HT       0.417000       1.00800           0
     75232 W2       26353    TIP3     OH2      OT      -0.834000       15.9994           0
     75233 W2       26353    TIP3     H1       HT       0.417000       1.00800           0
     75234 W2       26353    TIP3     H2       HT       0.417000       1.00800           0
     75235 W2       26354    TIP3     OH2      OT      -0.834000       15.9994           0
     75236 W2       26354    TIP3     H1       HT       0.417000       1.00800           0
     75237 W2       26354    TIP3     H2       HT       0.417000       1.00800           0
     75238 W2       26355    TIP3     OH2      OT      -0.834000       15.9994           0
     75239 W2       26355    TIP3     H1       HT       0.417000       1.00800           0
     75240 W2       26355    TIP3     H2       HT       0.417000       1.00800           0
     75241 W2       26356    TIP3     OH2      OT      -0.834000       15.9994           0
     75242 W2       26356    TIP3     H1       HT       0.417000       1.00800           0
     75243 W2       26356    TIP3     H2       HT       0.417000       1.00800           0
     75244 W2       26357    TIP3     OH2      OT      -0.834000       15.9994           0
     75245 W2       26357    TIP3     H1       HT       0.417000       1.00800           0
     75246 W2       26357    TIP3     H2       HT       0.417000       1.00800           0
     75247 W2       26358    TIP3     OH2      OT      -0.834000       15.9994           0
     75248 W2       26358    TIP3     H1       HT       0.417000       1.00800           0
     75249 W2       26358    TIP3     H2       HT       0.417000       1.00800           0
     75250 W2       26359    TIP3     OH2      OT      -0.834000       15.9994           0
     75251 W2       26359    TIP3     H1       HT       0.417000       1.00800           0
     75252 W2       26359    TIP3     H2       HT       0.417000       1.00800           0
     75253 W2       26360    TIP3     OH2      OT      -0.834000       15.9994           0
     75254 W2       26360    TIP3     H1       HT       0.417000       1.00800           0
     75255 W2       26360    TIP3     H2       HT       0.417000       1.00800           0
     75256 W2       26361    TIP3     OH2      OT      -0.834000       15.9994           0
     75257 W2       26361    TIP3     H1       HT       0.417000       1.00800           0
     75258 W2       26361    TIP3     H2       HT       0.417000       1.00800           0
     75259 W2       26363    TIP3     OH2      OT      -0.834000       15.9994           0
     75260 W2       26363    TIP3     H1       HT       0.417000       1.00800           0
     75261 W2       26363    TIP3     H2       HT       0.417000       1.00800           0
     75262 W2       26364    TIP3     OH2      OT      -0.834000       15.9994           0
     75263 W2       26364    TIP3     H1       HT       0.417000       1.00800           0
     75264 W2       26364    TIP3     H2       HT       0.417000       1.00800           0
     75265 W2       26365    TIP3     OH2      OT      -0.834000       15.9994           0
     75266 W2       26365    TIP3     H1       HT       0.417000       1.00800           0
     75267 W2       26365    TIP3     H2       HT       0.417000       1.00800           0
     75268 W2       26366    TIP3     OH2      OT      -0.834000       15.9994           0
     75269 W2       26366    TIP3     H1       HT       0.417000       1.00800           0
     75270 W2       26366    TIP3     H2       HT       0.417000       1.00800           0
     75271 W2       26367    TIP3     OH2      OT      -0.834000       15.9994           0
     75272 W2       26367    TIP3     H1       HT       0.417000       1.00800           0
     75273 W2       26367    TIP3     H2       HT       0.417000       1.00800           0
     75274 W2       26368    TIP3     OH2      OT      -0.834000       15.9994           0
     75275 W2       26368    TIP3     H1       HT       0.417000       1.00800           0
     75276 W2       26368    TIP3     H2       HT       0.417000       1.00800           0
     75277 W2       26369    TIP3     OH2      OT      -0.834000       15.9994           0
     75278 W2       26369    TIP3     H1       HT       0.417000       1.00800           0
     75279 W2       26369    TIP3     H2       HT       0.417000       1.00800           0
     75280 W2       26370    TIP3     OH2      OT      -0.834000       15.9994           0
     75281 W2       26370    TIP3     H1       HT       0.417000       1.00800           0
     75282 W2       26370    TIP3     H2       HT       0.417000       1.00800           0
     75283 W2       26371    TIP3     OH2      OT      -0.834000       15.9994           0
     75284 W2       26371    TIP3     H1       HT       0.417000       1.00800           0
     75285 W2       26371    TIP3     H2       HT       0.417000       1.00800           0
     75286 W2       26372    TIP3     OH2      OT      -0.834000       15.9994           0
     75287 W2       26372    TIP3     H1       HT       0.417000       1.00800           0
     75288 W2       26372    TIP3     H2       HT       0.417000       1.00800           0
     75289 W2       26373    TIP3     OH2      OT      -0.834000       15.9994           0
     75290 W2       26373    TIP3     H1       HT       0.417000       1.00800           0
     75291 W2       26373    TIP3     H2       HT       0.417000       1.00800           0
     75292 W2       26374    TIP3     OH2      OT      -0.834000       15.9994           0
     75293 W2       26374    TIP3     H1       HT       0.417000       1.00800           0
     75294 W2       26374    TIP3     H2       HT       0.417000       1.00800           0
     75295 W2       26376    TIP3     OH2      OT      -0.834000       15.9994           0
     75296 W2       26376    TIP3     H1       HT       0.417000       1.00800           0
     75297 W2       26376    TIP3     H2       HT       0.417000       1.00800           0
     75298 W2       26377    TIP3     OH2      OT      -0.834000       15.9994           0
     75299 W2       26377    TIP3     H1       HT       0.417000       1.00800           0
     75300 W2       26377    TIP3     H2       HT       0.417000       1.00800           0
     75301 W2       26378    TIP3     OH2      OT      -0.834000       15.9994           0
     75302 W2       26378    TIP3     H1       HT       0.417000       1.00800           0
     75303 W2       26378    TIP3     H2       HT       0.417000       1.00800           0
     75304 W2       26379    TIP3     OH2      OT      -0.834000       15.9994           0
     75305 W2       26379    TIP3     H1       HT       0.417000       1.00800           0
     75306 W2       26379    TIP3     H2       HT       0.417000       1.00800           0
     75307 W2       26381    TIP3     OH2      OT      -0.834000       15.9994           0
     75308 W2       26381    TIP3     H1       HT       0.417000       1.00800           0
     75309 W2       26381    TIP3     H2       HT       0.417000       1.00800           0
     75310 W2       26382    TIP3     OH2      OT      -0.834000       15.9994           0
     75311 W2       26382    TIP3     H1       HT       0.417000       1.00800           0
     75312 W2       26382    TIP3     H2       HT       0.417000       1.00800           0
     75313 W2       26383    TIP3     OH2      OT      -0.834000       15.9994           0
     75314 W2       26383    TIP3     H1       HT       0.417000       1.00800           0
     75315 W2       26383    TIP3     H2       HT       0.417000       1.00800           0
     75316 W2       26384    TIP3     OH2      OT      -0.834000       15.9994           0
     75317 W2       26384    TIP3     H1       HT       0.417000       1.00800           0
     75318 W2       26384    TIP3     H2       HT       0.417000       1.00800           0
     75319 W2       26386    TIP3     OH2      OT      -0.834000       15.9994           0
     75320 W2       26386    TIP3     H1       HT       0.417000       1.00800           0
     75321 W2       26386    TIP3     H2       HT       0.417000       1.00800           0
     75322 W2       26388    TIP3     OH2      OT      -0.834000       15.9994           0
     75323 W2       26388    TIP3     H1       HT       0.417000       1.00800           0
     75324 W2       26388    TIP3     H2       HT       0.417000       1.00800           0
     75325 W2       26390    TIP3     OH2      OT      -0.834000       15.9994           0
     75326 W2       26390    TIP3     H1       HT       0.417000       1.00800           0
     75327 W2       26390    TIP3     H2       HT       0.417000       1.00800           0
     75328 W2       26391    TIP3     OH2      OT      -0.834000       15.9994           0
     75329 W2       26391    TIP3     H1       HT       0.417000       1.00800           0
     75330 W2       26391    TIP3     H2       HT       0.417000       1.00800           0
     75331 W2       26392    TIP3     OH2      OT      -0.834000       15.9994           0
     75332 W2       26392    TIP3     H1       HT       0.417000       1.00800           0
     75333 W2       26392    TIP3     H2       HT       0.417000       1.00800           0
     75334 W2       26393    TIP3     OH2      OT      -0.834000       15.9994           0
     75335 W2       26393    TIP3     H1       HT       0.417000       1.00800           0
     75336 W2       26393    TIP3     H2       HT       0.417000       1.00800           0
     75337 W2       26394    TIP3     OH2      OT      -0.834000       15.9994           0
     75338 W2       26394    TIP3     H1       HT       0.417000       1.00800           0
     75339 W2       26394    TIP3     H2       HT       0.417000       1.00800           0
     75340 W2       26397    TIP3     OH2      OT      -0.834000       15.9994           0
     75341 W2       26397    TIP3     H1       HT       0.417000       1.00800           0
     75342 W2       26397    TIP3     H2       HT       0.417000       1.00800           0
     75343 W2       26398    TIP3     OH2      OT      -0.834000       15.9994           0
     75344 W2       26398    TIP3     H1       HT       0.417000       1.00800           0
     75345 W2       26398    TIP3     H2       HT       0.417000       1.00800           0
     75346 W2       26399    TIP3     OH2      OT      -0.834000       15.9994           0
     75347 W2       26399    TIP3     H1       HT       0.417000       1.00800           0
     75348 W2       26399    TIP3     H2       HT       0.417000       1.00800           0
     75349 W2       26400    TIP3     OH2      OT      -0.834000       15.9994           0
     75350 W2       26400    TIP3     H1       HT       0.417000       1.00800           0
     75351 W2       26400    TIP3     H2       HT       0.417000       1.00800           0
     75352 W2       26403    TIP3     OH2      OT      -0.834000       15.9994           0
     75353 W2       26403    TIP3     H1       HT       0.417000       1.00800           0
     75354 W2       26403    TIP3     H2       HT       0.417000       1.00800           0
     75355 W2       26406    TIP3     OH2      OT      -0.834000       15.9994           0
     75356 W2       26406    TIP3     H1       HT       0.417000       1.00800           0
     75357 W2       26406    TIP3     H2       HT       0.417000       1.00800           0
     75358 W2       26407    TIP3     OH2      OT      -0.834000       15.9994           0
     75359 W2       26407    TIP3     H1       HT       0.417000       1.00800           0
     75360 W2       26407    TIP3     H2       HT       0.417000       1.00800           0
     75361 W2       26408    TIP3     OH2      OT      -0.834000       15.9994           0
     75362 W2       26408    TIP3     H1       HT       0.417000       1.00800           0
     75363 W2       26408    TIP3     H2       HT       0.417000       1.00800           0
     75364 W2       26409    TIP3     OH2      OT      -0.834000       15.9994           0
     75365 W2       26409    TIP3     H1       HT       0.417000       1.00800           0
     75366 W2       26409    TIP3     H2       HT       0.417000       1.00800           0
     75367 W2       26410    TIP3     OH2      OT      -0.834000       15.9994           0
     75368 W2       26410    TIP3     H1       HT       0.417000       1.00800           0
     75369 W2       26410    TIP3     H2       HT       0.417000       1.00800           0
     75370 W2       26412    TIP3     OH2      OT      -0.834000       15.9994           0
     75371 W2       26412    TIP3     H1       HT       0.417000       1.00800           0
     75372 W2       26412    TIP3     H2       HT       0.417000       1.00800           0
     75373 W2       26413    TIP3     OH2      OT      -0.834000       15.9994           0
     75374 W2       26413    TIP3     H1       HT       0.417000       1.00800           0
     75375 W2       26413    TIP3     H2       HT       0.417000       1.00800           0
     75376 W2       26414    TIP3     OH2      OT      -0.834000       15.9994           0
     75377 W2       26414    TIP3     H1       HT       0.417000       1.00800           0
     75378 W2       26414    TIP3     H2       HT       0.417000       1.00800           0
     75379 W2       26415    TIP3     OH2      OT      -0.834000       15.9994           0
     75380 W2       26415    TIP3     H1       HT       0.417000       1.00800           0
     75381 W2       26415    TIP3     H2       HT       0.417000       1.00800           0
     75382 W2       26416    TIP3     OH2      OT      -0.834000       15.9994           0
     75383 W2       26416    TIP3     H1       HT       0.417000       1.00800           0
     75384 W2       26416    TIP3     H2       HT       0.417000       1.00800           0
     75385 W2       26417    TIP3     OH2      OT      -0.834000       15.9994           0
     75386 W2       26417    TIP3     H1       HT       0.417000       1.00800           0
     75387 W2       26417    TIP3     H2       HT       0.417000       1.00800           0
     75388 W2       26418    TIP3     OH2      OT      -0.834000       15.9994           0
     75389 W2       26418    TIP3     H1       HT       0.417000       1.00800           0
     75390 W2       26418    TIP3     H2       HT       0.417000       1.00800           0
     75391 W2       26419    TIP3     OH2      OT      -0.834000       15.9994           0
     75392 W2       26419    TIP3     H1       HT       0.417000       1.00800           0
     75393 W2       26419    TIP3     H2       HT       0.417000       1.00800           0
     75394 W2       26420    TIP3     OH2      OT      -0.834000       15.9994           0
     75395 W2       26420    TIP3     H1       HT       0.417000       1.00800           0
     75396 W2       26420    TIP3     H2       HT       0.417000       1.00800           0
     75397 W2       26421    TIP3     OH2      OT      -0.834000       15.9994           0
     75398 W2       26421    TIP3     H1       HT       0.417000       1.00800           0
     75399 W2       26421    TIP3     H2       HT       0.417000       1.00800           0
     75400 W2       26422    TIP3     OH2      OT      -0.834000       15.9994           0
     75401 W2       26422    TIP3     H1       HT       0.417000       1.00800           0
     75402 W2       26422    TIP3     H2       HT       0.417000       1.00800           0
     75403 W2       26425    TIP3     OH2      OT      -0.834000       15.9994           0
     75404 W2       26425    TIP3     H1       HT       0.417000       1.00800           0
     75405 W2       26425    TIP3     H2       HT       0.417000       1.00800           0
     75406 W2       26426    TIP3     OH2      OT      -0.834000       15.9994           0
     75407 W2       26426    TIP3     H1       HT       0.417000       1.00800           0
     75408 W2       26426    TIP3     H2       HT       0.417000       1.00800           0
     75409 W2       26427    TIP3     OH2      OT      -0.834000       15.9994           0
     75410 W2       26427    TIP3     H1       HT       0.417000       1.00800           0
     75411 W2       26427    TIP3     H2       HT       0.417000       1.00800           0
     75412 W2       26428    TIP3     OH2      OT      -0.834000       15.9994           0
     75413 W2       26428    TIP3     H1       HT       0.417000       1.00800           0
     75414 W2       26428    TIP3     H2       HT       0.417000       1.00800           0
     75415 W2       26429    TIP3     OH2      OT      -0.834000       15.9994           0
     75416 W2       26429    TIP3     H1       HT       0.417000       1.00800           0
     75417 W2       26429    TIP3     H2       HT       0.417000       1.00800           0
     75418 W2       26430    TIP3     OH2      OT      -0.834000       15.9994           0
     75419 W2       26430    TIP3     H1       HT       0.417000       1.00800           0
     75420 W2       26430    TIP3     H2       HT       0.417000       1.00800           0
     75421 W2       26432    TIP3     OH2      OT      -0.834000       15.9994           0
     75422 W2       26432    TIP3     H1       HT       0.417000       1.00800           0
     75423 W2       26432    TIP3     H2       HT       0.417000       1.00800           0
     75424 W2       26433    TIP3     OH2      OT      -0.834000       15.9994           0
     75425 W2       26433    TIP3     H1       HT       0.417000       1.00800           0
     75426 W2       26433    TIP3     H2       HT       0.417000       1.00800           0
     75427 W2       26434    TIP3     OH2      OT      -0.834000       15.9994           0
     75428 W2       26434    TIP3     H1       HT       0.417000       1.00800           0
     75429 W2       26434    TIP3     H2       HT       0.417000       1.00800           0
     75430 W2       26438    TIP3     OH2      OT      -0.834000       15.9994           0
     75431 W2       26438    TIP3     H1       HT       0.417000       1.00800           0
     75432 W2       26438    TIP3     H2       HT       0.417000       1.00800           0
     75433 W2       26440    TIP3     OH2      OT      -0.834000       15.9994           0
     75434 W2       26440    TIP3     H1       HT       0.417000       1.00800           0
     75435 W2       26440    TIP3     H2       HT       0.417000       1.00800           0
     75436 W2       26441    TIP3     OH2      OT      -0.834000       15.9994           0
     75437 W2       26441    TIP3     H1       HT       0.417000       1.00800           0
     75438 W2       26441    TIP3     H2       HT       0.417000       1.00800           0
     75439 W2       26442    TIP3     OH2      OT      -0.834000       15.9994           0
     75440 W2       26442    TIP3     H1       HT       0.417000       1.00800           0
     75441 W2       26442    TIP3     H2       HT       0.417000       1.00800           0
     75442 W2       26443    TIP3     OH2      OT      -0.834000       15.9994           0
     75443 W2       26443    TIP3     H1       HT       0.417000       1.00800           0
     75444 W2       26443    TIP3     H2       HT       0.417000       1.00800           0
     75445 W2       26444    TIP3     OH2      OT      -0.834000       15.9994           0
     75446 W2       26444    TIP3     H1       HT       0.417000       1.00800           0
     75447 W2       26444    TIP3     H2       HT       0.417000       1.00800           0
     75448 W2       26445    TIP3     OH2      OT      -0.834000       15.9994           0
     75449 W2       26445    TIP3     H1       HT       0.417000       1.00800           0
     75450 W2       26445    TIP3     H2       HT       0.417000       1.00800           0
     75451 W2       26446    TIP3     OH2      OT      -0.834000       15.9994           0
     75452 W2       26446    TIP3     H1       HT       0.417000       1.00800           0
     75453 W2       26446    TIP3     H2       HT       0.417000       1.00800           0
     75454 W2       26447    TIP3     OH2      OT      -0.834000       15.9994           0
     75455 W2       26447    TIP3     H1       HT       0.417000       1.00800           0
     75456 W2       26447    TIP3     H2       HT       0.417000       1.00800           0
     75457 W2       26448    TIP3     OH2      OT      -0.834000       15.9994           0
     75458 W2       26448    TIP3     H1       HT       0.417000       1.00800           0
     75459 W2       26448    TIP3     H2       HT       0.417000       1.00800           0
     75460 W2       26450    TIP3     OH2      OT      -0.834000       15.9994           0
     75461 W2       26450    TIP3     H1       HT       0.417000       1.00800           0
     75462 W2       26450    TIP3     H2       HT       0.417000       1.00800           0
     75463 W2       26452    TIP3     OH2      OT      -0.834000       15.9994           0
     75464 W2       26452    TIP3     H1       HT       0.417000       1.00800           0
     75465 W2       26452    TIP3     H2       HT       0.417000       1.00800           0
     75466 W2       26453    TIP3     OH2      OT      -0.834000       15.9994           0
     75467 W2       26453    TIP3     H1       HT       0.417000       1.00800           0
     75468 W2       26453    TIP3     H2       HT       0.417000       1.00800           0
     75469 W2       26454    TIP3     OH2      OT      -0.834000       15.9994           0
     75470 W2       26454    TIP3     H1       HT       0.417000       1.00800           0
     75471 W2       26454    TIP3     H2       HT       0.417000       1.00800           0
     75472 W2       26455    TIP3     OH2      OT      -0.834000       15.9994           0
     75473 W2       26455    TIP3     H1       HT       0.417000       1.00800           0
     75474 W2       26455    TIP3     H2       HT       0.417000       1.00800           0
     75475 W2       26456    TIP3     OH2      OT      -0.834000       15.9994           0
     75476 W2       26456    TIP3     H1       HT       0.417000       1.00800           0
     75477 W2       26456    TIP3     H2       HT       0.417000       1.00800           0
     75478 W2       26457    TIP3     OH2      OT      -0.834000       15.9994           0
     75479 W2       26457    TIP3     H1       HT       0.417000       1.00800           0
     75480 W2       26457    TIP3     H2       HT       0.417000       1.00800           0
     75481 W2       26458    TIP3     OH2      OT      -0.834000       15.9994           0
     75482 W2       26458    TIP3     H1       HT       0.417000       1.00800           0
     75483 W2       26458    TIP3     H2       HT       0.417000       1.00800           0
     75484 W2       26459    TIP3     OH2      OT      -0.834000       15.9994           0
     75485 W2       26459    TIP3     H1       HT       0.417000       1.00800           0
     75486 W2       26459    TIP3     H2       HT       0.417000       1.00800           0
     75487 W2       26460    TIP3     OH2      OT      -0.834000       15.9994           0
     75488 W2       26460    TIP3     H1       HT       0.417000       1.00800           0
     75489 W2       26460    TIP3     H2       HT       0.417000       1.00800           0
     75490 W2       26462    TIP3     OH2      OT      -0.834000       15.9994           0
     75491 W2       26462    TIP3     H1       HT       0.417000       1.00800           0
     75492 W2       26462    TIP3     H2       HT       0.417000       1.00800           0
     75493 W2       26463    TIP3     OH2      OT      -0.834000       15.9994           0
     75494 W2       26463    TIP3     H1       HT       0.417000       1.00800           0
     75495 W2       26463    TIP3     H2       HT       0.417000       1.00800           0
     75496 W2       26464    TIP3     OH2      OT      -0.834000       15.9994           0
     75497 W2       26464    TIP3     H1       HT       0.417000       1.00800           0
     75498 W2       26464    TIP3     H2       HT       0.417000       1.00800           0
     75499 W2       26466    TIP3     OH2      OT      -0.834000       15.9994           0
     75500 W2       26466    TIP3     H1       HT       0.417000       1.00800           0
     75501 W2       26466    TIP3     H2       HT       0.417000       1.00800           0
     75502 W2       26467    TIP3     OH2      OT      -0.834000       15.9994           0
     75503 W2       26467    TIP3     H1       HT       0.417000       1.00800           0
     75504 W2       26467    TIP3     H2       HT       0.417000       1.00800           0
     75505 W2       26468    TIP3     OH2      OT      -0.834000       15.9994           0
     75506 W2       26468    TIP3     H1       HT       0.417000       1.00800           0
     75507 W2       26468    TIP3     H2       HT       0.417000       1.00800           0
     75508 W2       26469    TIP3     OH2      OT      -0.834000       15.9994           0
     75509 W2       26469    TIP3     H1       HT       0.417000       1.00800           0
     75510 W2       26469    TIP3     H2       HT       0.417000       1.00800           0
     75511 W2       26470    TIP3     OH2      OT      -0.834000       15.9994           0
     75512 W2       26470    TIP3     H1       HT       0.417000       1.00800           0
     75513 W2       26470    TIP3     H2       HT       0.417000       1.00800           0
     75514 W2       26471    TIP3     OH2      OT      -0.834000       15.9994           0
     75515 W2       26471    TIP3     H1       HT       0.417000       1.00800           0
     75516 W2       26471    TIP3     H2       HT       0.417000       1.00800           0
     75517 W2       26474    TIP3     OH2      OT      -0.834000       15.9994           0
     75518 W2       26474    TIP3     H1       HT       0.417000       1.00800           0
     75519 W2       26474    TIP3     H2       HT       0.417000       1.00800           0
     75520 W2       26476    TIP3     OH2      OT      -0.834000       15.9994           0
     75521 W2       26476    TIP3     H1       HT       0.417000       1.00800           0
     75522 W2       26476    TIP3     H2       HT       0.417000       1.00800           0
     75523 W2       26478    TIP3     OH2      OT      -0.834000       15.9994           0
     75524 W2       26478    TIP3     H1       HT       0.417000       1.00800           0
     75525 W2       26478    TIP3     H2       HT       0.417000       1.00800           0
     75526 W2       26480    TIP3     OH2      OT      -0.834000       15.9994           0
     75527 W2       26480    TIP3     H1       HT       0.417000       1.00800           0
     75528 W2       26480    TIP3     H2       HT       0.417000       1.00800           0
     75529 W2       26483    TIP3     OH2      OT      -0.834000       15.9994           0
     75530 W2       26483    TIP3     H1       HT       0.417000       1.00800           0
     75531 W2       26483    TIP3     H2       HT       0.417000       1.00800           0
     75532 W2       26485    TIP3     OH2      OT      -0.834000       15.9994           0
     75533 W2       26485    TIP3     H1       HT       0.417000       1.00800           0
     75534 W2       26485    TIP3     H2       HT       0.417000       1.00800           0
     75535 W2       26487    TIP3     OH2      OT      -0.834000       15.9994           0
     75536 W2       26487    TIP3     H1       HT       0.417000       1.00800           0
     75537 W2       26487    TIP3     H2       HT       0.417000       1.00800           0
     75538 W2       26489    TIP3     OH2      OT      -0.834000       15.9994           0
     75539 W2       26489    TIP3     H1       HT       0.417000       1.00800           0
     75540 W2       26489    TIP3     H2       HT       0.417000       1.00800           0
     75541 W2       26501    TIP3     OH2      OT      -0.834000       15.9994           0
     75542 W2       26501    TIP3     H1       HT       0.417000       1.00800           0
     75543 W2       26501    TIP3     H2       HT       0.417000       1.00800           0
     75544 W2       26502    TIP3     OH2      OT      -0.834000       15.9994           0
     75545 W2       26502    TIP3     H1       HT       0.417000       1.00800           0
     75546 W2       26502    TIP3     H2       HT       0.417000       1.00800           0
     75547 W2       26503    TIP3     OH2      OT      -0.834000       15.9994           0
     75548 W2       26503    TIP3     H1       HT       0.417000       1.00800           0
     75549 W2       26503    TIP3     H2       HT       0.417000       1.00800           0
     75550 W2       26504    TIP3     OH2      OT      -0.834000       15.9994           0
     75551 W2       26504    TIP3     H1       HT       0.417000       1.00800           0
     75552 W2       26504    TIP3     H2       HT       0.417000       1.00800           0
     75553 W2       26505    TIP3     OH2      OT      -0.834000       15.9994           0
     75554 W2       26505    TIP3     H1       HT       0.417000       1.00800           0
     75555 W2       26505    TIP3     H2       HT       0.417000       1.00800           0
     75556 W2       26508    TIP3     OH2      OT      -0.834000       15.9994           0
     75557 W2       26508    TIP3     H1       HT       0.417000       1.00800           0
     75558 W2       26508    TIP3     H2       HT       0.417000       1.00800           0
     75559 W2       26509    TIP3     OH2      OT      -0.834000       15.9994           0
     75560 W2       26509    TIP3     H1       HT       0.417000       1.00800           0
     75561 W2       26509    TIP3     H2       HT       0.417000       1.00800           0
     75562 W2       26510    TIP3     OH2      OT      -0.834000       15.9994           0
     75563 W2       26510    TIP3     H1       HT       0.417000       1.00800           0
     75564 W2       26510    TIP3     H2       HT       0.417000       1.00800           0
     75565 W2       26511    TIP3     OH2      OT      -0.834000       15.9994           0
     75566 W2       26511    TIP3     H1       HT       0.417000       1.00800           0
     75567 W2       26511    TIP3     H2       HT       0.417000       1.00800           0
     75568 W2       26512    TIP3     OH2      OT      -0.834000       15.9994           0
     75569 W2       26512    TIP3     H1       HT       0.417000       1.00800           0
     75570 W2       26512    TIP3     H2       HT       0.417000       1.00800           0
     75571 W2       26513    TIP3     OH2      OT      -0.834000       15.9994           0
     75572 W2       26513    TIP3     H1       HT       0.417000       1.00800           0
     75573 W2       26513    TIP3     H2       HT       0.417000       1.00800           0
     75574 W2       26514    TIP3     OH2      OT      -0.834000       15.9994           0
     75575 W2       26514    TIP3     H1       HT       0.417000       1.00800           0
     75576 W2       26514    TIP3     H2       HT       0.417000       1.00800           0
     75577 W2       26515    TIP3     OH2      OT      -0.834000       15.9994           0
     75578 W2       26515    TIP3     H1       HT       0.417000       1.00800           0
     75579 W2       26515    TIP3     H2       HT       0.417000       1.00800           0
     75580 W2       26518    TIP3     OH2      OT      -0.834000       15.9994           0
     75581 W2       26518    TIP3     H1       HT       0.417000       1.00800           0
     75582 W2       26518    TIP3     H2       HT       0.417000       1.00800           0
     75583 W2       26519    TIP3     OH2      OT      -0.834000       15.9994           0
     75584 W2       26519    TIP3     H1       HT       0.417000       1.00800           0
     75585 W2       26519    TIP3     H2       HT       0.417000       1.00800           0
     75586 W2       26520    TIP3     OH2      OT      -0.834000       15.9994           0
     75587 W2       26520    TIP3     H1       HT       0.417000       1.00800           0
     75588 W2       26520    TIP3     H2       HT       0.417000       1.00800           0
     75589 W2       26521    TIP3     OH2      OT      -0.834000       15.9994           0
     75590 W2       26521    TIP3     H1       HT       0.417000       1.00800           0
     75591 W2       26521    TIP3     H2       HT       0.417000       1.00800           0
     75592 W2       26524    TIP3     OH2      OT      -0.834000       15.9994           0
     75593 W2       26524    TIP3     H1       HT       0.417000       1.00800           0
     75594 W2       26524    TIP3     H2       HT       0.417000       1.00800           0
     75595 W2       26525    TIP3     OH2      OT      -0.834000       15.9994           0
     75596 W2       26525    TIP3     H1       HT       0.417000       1.00800           0
     75597 W2       26525    TIP3     H2       HT       0.417000       1.00800           0
     75598 W2       26526    TIP3     OH2      OT      -0.834000       15.9994           0
     75599 W2       26526    TIP3     H1       HT       0.417000       1.00800           0
     75600 W2       26526    TIP3     H2       HT       0.417000       1.00800           0
     75601 W2       26528    TIP3     OH2      OT      -0.834000       15.9994           0
     75602 W2       26528    TIP3     H1       HT       0.417000       1.00800           0
     75603 W2       26528    TIP3     H2       HT       0.417000       1.00800           0
     75604 W2       26529    TIP3     OH2      OT      -0.834000       15.9994           0
     75605 W2       26529    TIP3     H1       HT       0.417000       1.00800           0
     75606 W2       26529    TIP3     H2       HT       0.417000       1.00800           0
     75607 W2       26530    TIP3     OH2      OT      -0.834000       15.9994           0
     75608 W2       26530    TIP3     H1       HT       0.417000       1.00800           0
     75609 W2       26530    TIP3     H2       HT       0.417000       1.00800           0
     75610 W2       26531    TIP3     OH2      OT      -0.834000       15.9994           0
     75611 W2       26531    TIP3     H1       HT       0.417000       1.00800           0
     75612 W2       26531    TIP3     H2       HT       0.417000       1.00800           0
     75613 W2       26533    TIP3     OH2      OT      -0.834000       15.9994           0
     75614 W2       26533    TIP3     H1       HT       0.417000       1.00800           0
     75615 W2       26533    TIP3     H2       HT       0.417000       1.00800           0
     75616 W2       26537    TIP3     OH2      OT      -0.834000       15.9994           0
     75617 W2       26537    TIP3     H1       HT       0.417000       1.00800           0
     75618 W2       26537    TIP3     H2       HT       0.417000       1.00800           0
     75619 W2       26538    TIP3     OH2      OT      -0.834000       15.9994           0
     75620 W2       26538    TIP3     H1       HT       0.417000       1.00800           0
     75621 W2       26538    TIP3     H2       HT       0.417000       1.00800           0
     75622 W2       26539    TIP3     OH2      OT      -0.834000       15.9994           0
     75623 W2       26539    TIP3     H1       HT       0.417000       1.00800           0
     75624 W2       26539    TIP3     H2       HT       0.417000       1.00800           0
     75625 W2       26540    TIP3     OH2      OT      -0.834000       15.9994           0
     75626 W2       26540    TIP3     H1       HT       0.417000       1.00800           0
     75627 W2       26540    TIP3     H2       HT       0.417000       1.00800           0
     75628 W2       26541    TIP3     OH2      OT      -0.834000       15.9994           0
     75629 W2       26541    TIP3     H1       HT       0.417000       1.00800           0
     75630 W2       26541    TIP3     H2       HT       0.417000       1.00800           0
     75631 W2       26542    TIP3     OH2      OT      -0.834000       15.9994           0
     75632 W2       26542    TIP3     H1       HT       0.417000       1.00800           0
     75633 W2       26542    TIP3     H2       HT       0.417000       1.00800           0
     75634 W2       26543    TIP3     OH2      OT      -0.834000       15.9994           0
     75635 W2       26543    TIP3     H1       HT       0.417000       1.00800           0
     75636 W2       26543    TIP3     H2       HT       0.417000       1.00800           0
     75637 W2       26544    TIP3     OH2      OT      -0.834000       15.9994           0
     75638 W2       26544    TIP3     H1       HT       0.417000       1.00800           0
     75639 W2       26544    TIP3     H2       HT       0.417000       1.00800           0
     75640 W2       26545    TIP3     OH2      OT      -0.834000       15.9994           0
     75641 W2       26545    TIP3     H1       HT       0.417000       1.00800           0
     75642 W2       26545    TIP3     H2       HT       0.417000       1.00800           0
     75643 W2       26546    TIP3     OH2      OT      -0.834000       15.9994           0
     75644 W2       26546    TIP3     H1       HT       0.417000       1.00800           0
     75645 W2       26546    TIP3     H2       HT       0.417000       1.00800           0
     75646 W2       26547    TIP3     OH2      OT      -0.834000       15.9994           0
     75647 W2       26547    TIP3     H1       HT       0.417000       1.00800           0
     75648 W2       26547    TIP3     H2       HT       0.417000       1.00800           0
     75649 W2       26548    TIP3     OH2      OT      -0.834000       15.9994           0
     75650 W2       26548    TIP3     H1       HT       0.417000       1.00800           0
     75651 W2       26548    TIP3     H2       HT       0.417000       1.00800           0
     75652 W2       26549    TIP3     OH2      OT      -0.834000       15.9994           0
     75653 W2       26549    TIP3     H1       HT       0.417000       1.00800           0
     75654 W2       26549    TIP3     H2       HT       0.417000       1.00800           0
     75655 W2       26550    TIP3     OH2      OT      -0.834000       15.9994           0
     75656 W2       26550    TIP3     H1       HT       0.417000       1.00800           0
     75657 W2       26550    TIP3     H2       HT       0.417000       1.00800           0
     75658 W2       26551    TIP3     OH2      OT      -0.834000       15.9994           0
     75659 W2       26551    TIP3     H1       HT       0.417000       1.00800           0
     75660 W2       26551    TIP3     H2       HT       0.417000       1.00800           0
     75661 W2       26552    TIP3     OH2      OT      -0.834000       15.9994           0
     75662 W2       26552    TIP3     H1       HT       0.417000       1.00800           0
     75663 W2       26552    TIP3     H2       HT       0.417000       1.00800           0
     75664 W2       26553    TIP3     OH2      OT      -0.834000       15.9994           0
     75665 W2       26553    TIP3     H1       HT       0.417000       1.00800           0
     75666 W2       26553    TIP3     H2       HT       0.417000       1.00800           0
     75667 W2       26554    TIP3     OH2      OT      -0.834000       15.9994           0
     75668 W2       26554    TIP3     H1       HT       0.417000       1.00800           0
     75669 W2       26554    TIP3     H2       HT       0.417000       1.00800           0
     75670 W2       26555    TIP3     OH2      OT      -0.834000       15.9994           0
     75671 W2       26555    TIP3     H1       HT       0.417000       1.00800           0
     75672 W2       26555    TIP3     H2       HT       0.417000       1.00800           0
     75673 W2       26556    TIP3     OH2      OT      -0.834000       15.9994           0
     75674 W2       26556    TIP3     H1       HT       0.417000       1.00800           0
     75675 W2       26556    TIP3     H2       HT       0.417000       1.00800           0
     75676 W2       26557    TIP3     OH2      OT      -0.834000       15.9994           0
     75677 W2       26557    TIP3     H1       HT       0.417000       1.00800           0
     75678 W2       26557    TIP3     H2       HT       0.417000       1.00800           0
     75679 W2       26560    TIP3     OH2      OT      -0.834000       15.9994           0
     75680 W2       26560    TIP3     H1       HT       0.417000       1.00800           0
     75681 W2       26560    TIP3     H2       HT       0.417000       1.00800           0
     75682 W2       26563    TIP3     OH2      OT      -0.834000       15.9994           0
     75683 W2       26563    TIP3     H1       HT       0.417000       1.00800           0
     75684 W2       26563    TIP3     H2       HT       0.417000       1.00800           0
     75685 W2       26564    TIP3     OH2      OT      -0.834000       15.9994           0
     75686 W2       26564    TIP3     H1       HT       0.417000       1.00800           0
     75687 W2       26564    TIP3     H2       HT       0.417000       1.00800           0
     75688 W2       26565    TIP3     OH2      OT      -0.834000       15.9994           0
     75689 W2       26565    TIP3     H1       HT       0.417000       1.00800           0
     75690 W2       26565    TIP3     H2       HT       0.417000       1.00800           0
     75691 W2       26566    TIP3     OH2      OT      -0.834000       15.9994           0
     75692 W2       26566    TIP3     H1       HT       0.417000       1.00800           0
     75693 W2       26566    TIP3     H2       HT       0.417000       1.00800           0
     75694 W2       26567    TIP3     OH2      OT      -0.834000       15.9994           0
     75695 W2       26567    TIP3     H1       HT       0.417000       1.00800           0
     75696 W2       26567    TIP3     H2       HT       0.417000       1.00800           0
     75697 W2       26568    TIP3     OH2      OT      -0.834000       15.9994           0
     75698 W2       26568    TIP3     H1       HT       0.417000       1.00800           0
     75699 W2       26568    TIP3     H2       HT       0.417000       1.00800           0
     75700 W2       26569    TIP3     OH2      OT      -0.834000       15.9994           0
     75701 W2       26569    TIP3     H1       HT       0.417000       1.00800           0
     75702 W2       26569    TIP3     H2       HT       0.417000       1.00800           0
     75703 W2       26570    TIP3     OH2      OT      -0.834000       15.9994           0
     75704 W2       26570    TIP3     H1       HT       0.417000       1.00800           0
     75705 W2       26570    TIP3     H2       HT       0.417000       1.00800           0
     75706 W2       26571    TIP3     OH2      OT      -0.834000       15.9994           0
     75707 W2       26571    TIP3     H1       HT       0.417000       1.00800           0
     75708 W2       26571    TIP3     H2       HT       0.417000       1.00800           0
     75709 W2       26572    TIP3     OH2      OT      -0.834000       15.9994           0
     75710 W2       26572    TIP3     H1       HT       0.417000       1.00800           0
     75711 W2       26572    TIP3     H2       HT       0.417000       1.00800           0
     75712 W2       26573    TIP3     OH2      OT      -0.834000       15.9994           0
     75713 W2       26573    TIP3     H1       HT       0.417000       1.00800           0
     75714 W2       26573    TIP3     H2       HT       0.417000       1.00800           0
     75715 W2       26574    TIP3     OH2      OT      -0.834000       15.9994           0
     75716 W2       26574    TIP3     H1       HT       0.417000       1.00800           0
     75717 W2       26574    TIP3     H2       HT       0.417000       1.00800           0
     75718 W2       26575    TIP3     OH2      OT      -0.834000       15.9994           0
     75719 W2       26575    TIP3     H1       HT       0.417000       1.00800           0
     75720 W2       26575    TIP3     H2       HT       0.417000       1.00800           0
     75721 W2       26576    TIP3     OH2      OT      -0.834000       15.9994           0
     75722 W2       26576    TIP3     H1       HT       0.417000       1.00800           0
     75723 W2       26576    TIP3     H2       HT       0.417000       1.00800           0
     75724 W2       26577    TIP3     OH2      OT      -0.834000       15.9994           0
     75725 W2       26577    TIP3     H1       HT       0.417000       1.00800           0
     75726 W2       26577    TIP3     H2       HT       0.417000       1.00800           0
     75727 W2       26578    TIP3     OH2      OT      -0.834000       15.9994           0
     75728 W2       26578    TIP3     H1       HT       0.417000       1.00800           0
     75729 W2       26578    TIP3     H2       HT       0.417000       1.00800           0
     75730 W2       26579    TIP3     OH2      OT      -0.834000       15.9994           0
     75731 W2       26579    TIP3     H1       HT       0.417000       1.00800           0
     75732 W2       26579    TIP3     H2       HT       0.417000       1.00800           0
     75733 W2       26580    TIP3     OH2      OT      -0.834000       15.9994           0
     75734 W2       26580    TIP3     H1       HT       0.417000       1.00800           0
     75735 W2       26580    TIP3     H2       HT       0.417000       1.00800           0
     75736 W2       26581    TIP3     OH2      OT      -0.834000       15.9994           0
     75737 W2       26581    TIP3     H1       HT       0.417000       1.00800           0
     75738 W2       26581    TIP3     H2       HT       0.417000       1.00800           0
     75739 W2       26582    TIP3     OH2      OT      -0.834000       15.9994           0
     75740 W2       26582    TIP3     H1       HT       0.417000       1.00800           0
     75741 W2       26582    TIP3     H2       HT       0.417000       1.00800           0
     75742 W2       26583    TIP3     OH2      OT      -0.834000       15.9994           0
     75743 W2       26583    TIP3     H1       HT       0.417000       1.00800           0
     75744 W2       26583    TIP3     H2       HT       0.417000       1.00800           0
     75745 W2       26584    TIP3     OH2      OT      -0.834000       15.9994           0
     75746 W2       26584    TIP3     H1       HT       0.417000       1.00800           0
     75747 W2       26584    TIP3     H2       HT       0.417000       1.00800           0
     75748 W2       26585    TIP3     OH2      OT      -0.834000       15.9994           0
     75749 W2       26585    TIP3     H1       HT       0.417000       1.00800           0
     75750 W2       26585    TIP3     H2       HT       0.417000       1.00800           0
     75751 W2       26586    TIP3     OH2      OT      -0.834000       15.9994           0
     75752 W2       26586    TIP3     H1       HT       0.417000       1.00800           0
     75753 W2       26586    TIP3     H2       HT       0.417000       1.00800           0
     75754 W2       26587    TIP3     OH2      OT      -0.834000       15.9994           0
     75755 W2       26587    TIP3     H1       HT       0.417000       1.00800           0
     75756 W2       26587    TIP3     H2       HT       0.417000       1.00800           0
     75757 W2       26588    TIP3     OH2      OT      -0.834000       15.9994           0
     75758 W2       26588    TIP3     H1       HT       0.417000       1.00800           0
     75759 W2       26588    TIP3     H2       HT       0.417000       1.00800           0
     75760 W2       26590    TIP3     OH2      OT      -0.834000       15.9994           0
     75761 W2       26590    TIP3     H1       HT       0.417000       1.00800           0
     75762 W2       26590    TIP3     H2       HT       0.417000       1.00800           0
     75763 W2       26591    TIP3     OH2      OT      -0.834000       15.9994           0
     75764 W2       26591    TIP3     H1       HT       0.417000       1.00800           0
     75765 W2       26591    TIP3     H2       HT       0.417000       1.00800           0
     75766 W2       26592    TIP3     OH2      OT      -0.834000       15.9994           0
     75767 W2       26592    TIP3     H1       HT       0.417000       1.00800           0
     75768 W2       26592    TIP3     H2       HT       0.417000       1.00800           0
     75769 W2       26593    TIP3     OH2      OT      -0.834000       15.9994           0
     75770 W2       26593    TIP3     H1       HT       0.417000       1.00800           0
     75771 W2       26593    TIP3     H2       HT       0.417000       1.00800           0
     75772 W2       26595    TIP3     OH2      OT      -0.834000       15.9994           0
     75773 W2       26595    TIP3     H1       HT       0.417000       1.00800           0
     75774 W2       26595    TIP3     H2       HT       0.417000       1.00800           0
     75775 W2       26597    TIP3     OH2      OT      -0.834000       15.9994           0
     75776 W2       26597    TIP3     H1       HT       0.417000       1.00800           0
     75777 W2       26597    TIP3     H2       HT       0.417000       1.00800           0
     75778 W2       26599    TIP3     OH2      OT      -0.834000       15.9994           0
     75779 W2       26599    TIP3     H1       HT       0.417000       1.00800           0
     75780 W2       26599    TIP3     H2       HT       0.417000       1.00800           0
     75781 W2       26600    TIP3     OH2      OT      -0.834000       15.9994           0
     75782 W2       26600    TIP3     H1       HT       0.417000       1.00800           0
     75783 W2       26600    TIP3     H2       HT       0.417000       1.00800           0
     75784 W2       26601    TIP3     OH2      OT      -0.834000       15.9994           0
     75785 W2       26601    TIP3     H1       HT       0.417000       1.00800           0
     75786 W2       26601    TIP3     H2       HT       0.417000       1.00800           0
     75787 W2       26603    TIP3     OH2      OT      -0.834000       15.9994           0
     75788 W2       26603    TIP3     H1       HT       0.417000       1.00800           0
     75789 W2       26603    TIP3     H2       HT       0.417000       1.00800           0
     75790 W2       26604    TIP3     OH2      OT      -0.834000       15.9994           0
     75791 W2       26604    TIP3     H1       HT       0.417000       1.00800           0
     75792 W2       26604    TIP3     H2       HT       0.417000       1.00800           0
     75793 W2       26605    TIP3     OH2      OT      -0.834000       15.9994           0
     75794 W2       26605    TIP3     H1       HT       0.417000       1.00800           0
     75795 W2       26605    TIP3     H2       HT       0.417000       1.00800           0
     75796 W2       26606    TIP3     OH2      OT      -0.834000       15.9994           0
     75797 W2       26606    TIP3     H1       HT       0.417000       1.00800           0
     75798 W2       26606    TIP3     H2       HT       0.417000       1.00800           0
     75799 W2       26608    TIP3     OH2      OT      -0.834000       15.9994           0
     75800 W2       26608    TIP3     H1       HT       0.417000       1.00800           0
     75801 W2       26608    TIP3     H2       HT       0.417000       1.00800           0
     75802 W2       26611    TIP3     OH2      OT      -0.834000       15.9994           0
     75803 W2       26611    TIP3     H1       HT       0.417000       1.00800           0
     75804 W2       26611    TIP3     H2       HT       0.417000       1.00800           0
     75805 W2       26612    TIP3     OH2      OT      -0.834000       15.9994           0
     75806 W2       26612    TIP3     H1       HT       0.417000       1.00800           0
     75807 W2       26612    TIP3     H2       HT       0.417000       1.00800           0
     75808 W2       26613    TIP3     OH2      OT      -0.834000       15.9994           0
     75809 W2       26613    TIP3     H1       HT       0.417000       1.00800           0
     75810 W2       26613    TIP3     H2       HT       0.417000       1.00800           0
     75811 W2       26614    TIP3     OH2      OT      -0.834000       15.9994           0
     75812 W2       26614    TIP3     H1       HT       0.417000       1.00800           0
     75813 W2       26614    TIP3     H2       HT       0.417000       1.00800           0
     75814 W2       26615    TIP3     OH2      OT      -0.834000       15.9994           0
     75815 W2       26615    TIP3     H1       HT       0.417000       1.00800           0
     75816 W2       26615    TIP3     H2       HT       0.417000       1.00800           0
     75817 W2       26617    TIP3     OH2      OT      -0.834000       15.9994           0
     75818 W2       26617    TIP3     H1       HT       0.417000       1.00800           0
     75819 W2       26617    TIP3     H2       HT       0.417000       1.00800           0
     75820 W2       26618    TIP3     OH2      OT      -0.834000       15.9994           0
     75821 W2       26618    TIP3     H1       HT       0.417000       1.00800           0
     75822 W2       26618    TIP3     H2       HT       0.417000       1.00800           0
     75823 W2       26619    TIP3     OH2      OT      -0.834000       15.9994           0
     75824 W2       26619    TIP3     H1       HT       0.417000       1.00800           0
     75825 W2       26619    TIP3     H2       HT       0.417000       1.00800           0
     75826 W2       26620    TIP3     OH2      OT      -0.834000       15.9994           0
     75827 W2       26620    TIP3     H1       HT       0.417000       1.00800           0
     75828 W2       26620    TIP3     H2       HT       0.417000       1.00800           0
     75829 W2       26621    TIP3     OH2      OT      -0.834000       15.9994           0
     75830 W2       26621    TIP3     H1       HT       0.417000       1.00800           0
     75831 W2       26621    TIP3     H2       HT       0.417000       1.00800           0
     75832 W2       26622    TIP3     OH2      OT      -0.834000       15.9994           0
     75833 W2       26622    TIP3     H1       HT       0.417000       1.00800           0
     75834 W2       26622    TIP3     H2       HT       0.417000       1.00800           0
     75835 W2       26623    TIP3     OH2      OT      -0.834000       15.9994           0
     75836 W2       26623    TIP3     H1       HT       0.417000       1.00800           0
     75837 W2       26623    TIP3     H2       HT       0.417000       1.00800           0
     75838 W2       26624    TIP3     OH2      OT      -0.834000       15.9994           0
     75839 W2       26624    TIP3     H1       HT       0.417000       1.00800           0
     75840 W2       26624    TIP3     H2       HT       0.417000       1.00800           0
     75841 W2       26625    TIP3     OH2      OT      -0.834000       15.9994           0
     75842 W2       26625    TIP3     H1       HT       0.417000       1.00800           0
     75843 W2       26625    TIP3     H2       HT       0.417000       1.00800           0
     75844 W2       26626    TIP3     OH2      OT      -0.834000       15.9994           0
     75845 W2       26626    TIP3     H1       HT       0.417000       1.00800           0
     75846 W2       26626    TIP3     H2       HT       0.417000       1.00800           0
     75847 W2       26627    TIP3     OH2      OT      -0.834000       15.9994           0
     75848 W2       26627    TIP3     H1       HT       0.417000       1.00800           0
     75849 W2       26627    TIP3     H2       HT       0.417000       1.00800           0
     75850 W2       26629    TIP3     OH2      OT      -0.834000       15.9994           0
     75851 W2       26629    TIP3     H1       HT       0.417000       1.00800           0
     75852 W2       26629    TIP3     H2       HT       0.417000       1.00800           0
     75853 W2       26630    TIP3     OH2      OT      -0.834000       15.9994           0
     75854 W2       26630    TIP3     H1       HT       0.417000       1.00800           0
     75855 W2       26630    TIP3     H2       HT       0.417000       1.00800           0
     75856 W2       26631    TIP3     OH2      OT      -0.834000       15.9994           0
     75857 W2       26631    TIP3     H1       HT       0.417000       1.00800           0
     75858 W2       26631    TIP3     H2       HT       0.417000       1.00800           0
     75859 W2       26632    TIP3     OH2      OT      -0.834000       15.9994           0
     75860 W2       26632    TIP3     H1       HT       0.417000       1.00800           0
     75861 W2       26632    TIP3     H2       HT       0.417000       1.00800           0
     75862 W2       26633    TIP3     OH2      OT      -0.834000       15.9994           0
     75863 W2       26633    TIP3     H1       HT       0.417000       1.00800           0
     75864 W2       26633    TIP3     H2       HT       0.417000       1.00800           0
     75865 W2       26635    TIP3     OH2      OT      -0.834000       15.9994           0
     75866 W2       26635    TIP3     H1       HT       0.417000       1.00800           0
     75867 W2       26635    TIP3     H2       HT       0.417000       1.00800           0
     75868 W2       26636    TIP3     OH2      OT      -0.834000       15.9994           0
     75869 W2       26636    TIP3     H1       HT       0.417000       1.00800           0
     75870 W2       26636    TIP3     H2       HT       0.417000       1.00800           0
     75871 W2       26637    TIP3     OH2      OT      -0.834000       15.9994           0
     75872 W2       26637    TIP3     H1       HT       0.417000       1.00800           0
     75873 W2       26637    TIP3     H2       HT       0.417000       1.00800           0
     75874 W2       26641    TIP3     OH2      OT      -0.834000       15.9994           0
     75875 W2       26641    TIP3     H1       HT       0.417000       1.00800           0
     75876 W2       26641    TIP3     H2       HT       0.417000       1.00800           0
     75877 W2       26642    TIP3     OH2      OT      -0.834000       15.9994           0
     75878 W2       26642    TIP3     H1       HT       0.417000       1.00800           0
     75879 W2       26642    TIP3     H2       HT       0.417000       1.00800           0
     75880 W2       26643    TIP3     OH2      OT      -0.834000       15.9994           0
     75881 W2       26643    TIP3     H1       HT       0.417000       1.00800           0
     75882 W2       26643    TIP3     H2       HT       0.417000       1.00800           0
     75883 W2       26644    TIP3     OH2      OT      -0.834000       15.9994           0
     75884 W2       26644    TIP3     H1       HT       0.417000       1.00800           0
     75885 W2       26644    TIP3     H2       HT       0.417000       1.00800           0
     75886 W2       26645    TIP3     OH2      OT      -0.834000       15.9994           0
     75887 W2       26645    TIP3     H1       HT       0.417000       1.00800           0
     75888 W2       26645    TIP3     H2       HT       0.417000       1.00800           0
     75889 W2       26646    TIP3     OH2      OT      -0.834000       15.9994           0
     75890 W2       26646    TIP3     H1       HT       0.417000       1.00800           0
     75891 W2       26646    TIP3     H2       HT       0.417000       1.00800           0
     75892 W2       26647    TIP3     OH2      OT      -0.834000       15.9994           0
     75893 W2       26647    TIP3     H1       HT       0.417000       1.00800           0
     75894 W2       26647    TIP3     H2       HT       0.417000       1.00800           0
     75895 W2       26648    TIP3     OH2      OT      -0.834000       15.9994           0
     75896 W2       26648    TIP3     H1       HT       0.417000       1.00800           0
     75897 W2       26648    TIP3     H2       HT       0.417000       1.00800           0
     75898 W2       26651    TIP3     OH2      OT      -0.834000       15.9994           0
     75899 W2       26651    TIP3     H1       HT       0.417000       1.00800           0
     75900 W2       26651    TIP3     H2       HT       0.417000       1.00800           0
     75901 W2       26652    TIP3     OH2      OT      -0.834000       15.9994           0
     75902 W2       26652    TIP3     H1       HT       0.417000       1.00800           0
     75903 W2       26652    TIP3     H2       HT       0.417000       1.00800           0
     75904 W2       26653    TIP3     OH2      OT      -0.834000       15.9994           0
     75905 W2       26653    TIP3     H1       HT       0.417000       1.00800           0
     75906 W2       26653    TIP3     H2       HT       0.417000       1.00800           0
     75907 W2       26654    TIP3     OH2      OT      -0.834000       15.9994           0
     75908 W2       26654    TIP3     H1       HT       0.417000       1.00800           0
     75909 W2       26654    TIP3     H2       HT       0.417000       1.00800           0
     75910 W2       26655    TIP3     OH2      OT      -0.834000       15.9994           0
     75911 W2       26655    TIP3     H1       HT       0.417000       1.00800           0
     75912 W2       26655    TIP3     H2       HT       0.417000       1.00800           0
     75913 W2       26656    TIP3     OH2      OT      -0.834000       15.9994           0
     75914 W2       26656    TIP3     H1       HT       0.417000       1.00800           0
     75915 W2       26656    TIP3     H2       HT       0.417000       1.00800           0
     75916 W2       26657    TIP3     OH2      OT      -0.834000       15.9994           0
     75917 W2       26657    TIP3     H1       HT       0.417000       1.00800           0
     75918 W2       26657    TIP3     H2       HT       0.417000       1.00800           0
     75919 W2       26658    TIP3     OH2      OT      -0.834000       15.9994           0
     75920 W2       26658    TIP3     H1       HT       0.417000       1.00800           0
     75921 W2       26658    TIP3     H2       HT       0.417000       1.00800           0
     75922 W2       26659    TIP3     OH2      OT      -0.834000       15.9994           0
     75923 W2       26659    TIP3     H1       HT       0.417000       1.00800           0
     75924 W2       26659    TIP3     H2       HT       0.417000       1.00800           0
     75925 W2       26661    TIP3     OH2      OT      -0.834000       15.9994           0
     75926 W2       26661    TIP3     H1       HT       0.417000       1.00800           0
     75927 W2       26661    TIP3     H2       HT       0.417000       1.00800           0
     75928 W2       26662    TIP3     OH2      OT      -0.834000       15.9994           0
     75929 W2       26662    TIP3     H1       HT       0.417000       1.00800           0
     75930 W2       26662    TIP3     H2       HT       0.417000       1.00800           0
     75931 W2       26663    TIP3     OH2      OT      -0.834000       15.9994           0
     75932 W2       26663    TIP3     H1       HT       0.417000       1.00800           0
     75933 W2       26663    TIP3     H2       HT       0.417000       1.00800           0
     75934 W2       26664    TIP3     OH2      OT      -0.834000       15.9994           0
     75935 W2       26664    TIP3     H1       HT       0.417000       1.00800           0
     75936 W2       26664    TIP3     H2       HT       0.417000       1.00800           0
     75937 W2       26665    TIP3     OH2      OT      -0.834000       15.9994           0
     75938 W2       26665    TIP3     H1       HT       0.417000       1.00800           0
     75939 W2       26665    TIP3     H2       HT       0.417000       1.00800           0
     75940 W2       26666    TIP3     OH2      OT      -0.834000       15.9994           0
     75941 W2       26666    TIP3     H1       HT       0.417000       1.00800           0
     75942 W2       26666    TIP3     H2       HT       0.417000       1.00800           0
     75943 W2       26667    TIP3     OH2      OT      -0.834000       15.9994           0
     75944 W2       26667    TIP3     H1       HT       0.417000       1.00800           0
     75945 W2       26667    TIP3     H2       HT       0.417000       1.00800           0
     75946 W2       26668    TIP3     OH2      OT      -0.834000       15.9994           0
     75947 W2       26668    TIP3     H1       HT       0.417000       1.00800           0
     75948 W2       26668    TIP3     H2       HT       0.417000       1.00800           0
     75949 W2       26671    TIP3     OH2      OT      -0.834000       15.9994           0
     75950 W2       26671    TIP3     H1       HT       0.417000       1.00800           0
     75951 W2       26671    TIP3     H2       HT       0.417000       1.00800           0
     75952 W2       26673    TIP3     OH2      OT      -0.834000       15.9994           0
     75953 W2       26673    TIP3     H1       HT       0.417000       1.00800           0
     75954 W2       26673    TIP3     H2       HT       0.417000       1.00800           0
     75955 W2       26675    TIP3     OH2      OT      -0.834000       15.9994           0
     75956 W2       26675    TIP3     H1       HT       0.417000       1.00800           0
     75957 W2       26675    TIP3     H2       HT       0.417000       1.00800           0
     75958 W2       26677    TIP3     OH2      OT      -0.834000       15.9994           0
     75959 W2       26677    TIP3     H1       HT       0.417000       1.00800           0
     75960 W2       26677    TIP3     H2       HT       0.417000       1.00800           0
     75961 W2       26680    TIP3     OH2      OT      -0.834000       15.9994           0
     75962 W2       26680    TIP3     H1       HT       0.417000       1.00800           0
     75963 W2       26680    TIP3     H2       HT       0.417000       1.00800           0
     75964 W2       26682    TIP3     OH2      OT      -0.834000       15.9994           0
     75965 W2       26682    TIP3     H1       HT       0.417000       1.00800           0
     75966 W2       26682    TIP3     H2       HT       0.417000       1.00800           0
     75967 W2       26685    TIP3     OH2      OT      -0.834000       15.9994           0
     75968 W2       26685    TIP3     H1       HT       0.417000       1.00800           0
     75969 W2       26685    TIP3     H2       HT       0.417000       1.00800           0
     75970 W2       26697    TIP3     OH2      OT      -0.834000       15.9994           0
     75971 W2       26697    TIP3     H1       HT       0.417000       1.00800           0
     75972 W2       26697    TIP3     H2       HT       0.417000       1.00800           0
     75973 W2       26698    TIP3     OH2      OT      -0.834000       15.9994           0
     75974 W2       26698    TIP3     H1       HT       0.417000       1.00800           0
     75975 W2       26698    TIP3     H2       HT       0.417000       1.00800           0
     75976 W2       26699    TIP3     OH2      OT      -0.834000       15.9994           0
     75977 W2       26699    TIP3     H1       HT       0.417000       1.00800           0
     75978 W2       26699    TIP3     H2       HT       0.417000       1.00800           0
     75979 W2       26700    TIP3     OH2      OT      -0.834000       15.9994           0
     75980 W2       26700    TIP3     H1       HT       0.417000       1.00800           0
     75981 W2       26700    TIP3     H2       HT       0.417000       1.00800           0
     75982 W2       26701    TIP3     OH2      OT      -0.834000       15.9994           0
     75983 W2       26701    TIP3     H1       HT       0.417000       1.00800           0
     75984 W2       26701    TIP3     H2       HT       0.417000       1.00800           0
     75985 W2       26703    TIP3     OH2      OT      -0.834000       15.9994           0
     75986 W2       26703    TIP3     H1       HT       0.417000       1.00800           0
     75987 W2       26703    TIP3     H2       HT       0.417000       1.00800           0
     75988 W2       26704    TIP3     OH2      OT      -0.834000       15.9994           0
     75989 W2       26704    TIP3     H1       HT       0.417000       1.00800           0
     75990 W2       26704    TIP3     H2       HT       0.417000       1.00800           0
     75991 W2       26705    TIP3     OH2      OT      -0.834000       15.9994           0
     75992 W2       26705    TIP3     H1       HT       0.417000       1.00800           0
     75993 W2       26705    TIP3     H2       HT       0.417000       1.00800           0
     75994 W2       26706    TIP3     OH2      OT      -0.834000       15.9994           0
     75995 W2       26706    TIP3     H1       HT       0.417000       1.00800           0
     75996 W2       26706    TIP3     H2       HT       0.417000       1.00800           0
     75997 W2       26708    TIP3     OH2      OT      -0.834000       15.9994           0
     75998 W2       26708    TIP3     H1       HT       0.417000       1.00800           0
     75999 W2       26708    TIP3     H2       HT       0.417000       1.00800           0
     76000 W2       26711    TIP3     OH2      OT      -0.834000       15.9994           0
     76001 W2       26711    TIP3     H1       HT       0.417000       1.00800           0
     76002 W2       26711    TIP3     H2       HT       0.417000       1.00800           0
     76003 W2       26712    TIP3     OH2      OT      -0.834000       15.9994           0
     76004 W2       26712    TIP3     H1       HT       0.417000       1.00800           0
     76005 W2       26712    TIP3     H2       HT       0.417000       1.00800           0
     76006 W2       26713    TIP3     OH2      OT      -0.834000       15.9994           0
     76007 W2       26713    TIP3     H1       HT       0.417000       1.00800           0
     76008 W2       26713    TIP3     H2       HT       0.417000       1.00800           0
     76009 W2       26714    TIP3     OH2      OT      -0.834000       15.9994           0
     76010 W2       26714    TIP3     H1       HT       0.417000       1.00800           0
     76011 W2       26714    TIP3     H2       HT       0.417000       1.00800           0
     76012 W2       26715    TIP3     OH2      OT      -0.834000       15.9994           0
     76013 W2       26715    TIP3     H1       HT       0.417000       1.00800           0
     76014 W2       26715    TIP3     H2       HT       0.417000       1.00800           0
     76015 W2       26716    TIP3     OH2      OT      -0.834000       15.9994           0
     76016 W2       26716    TIP3     H1       HT       0.417000       1.00800           0
     76017 W2       26716    TIP3     H2       HT       0.417000       1.00800           0
     76018 W2       26717    TIP3     OH2      OT      -0.834000       15.9994           0
     76019 W2       26717    TIP3     H1       HT       0.417000       1.00800           0
     76020 W2       26717    TIP3     H2       HT       0.417000       1.00800           0
     76021 W2       26718    TIP3     OH2      OT      -0.834000       15.9994           0
     76022 W2       26718    TIP3     H1       HT       0.417000       1.00800           0
     76023 W2       26718    TIP3     H2       HT       0.417000       1.00800           0
     76024 W2       26719    TIP3     OH2      OT      -0.834000       15.9994           0
     76025 W2       26719    TIP3     H1       HT       0.417000       1.00800           0
     76026 W2       26719    TIP3     H2       HT       0.417000       1.00800           0
     76027 W2       26720    TIP3     OH2      OT      -0.834000       15.9994           0
     76028 W2       26720    TIP3     H1       HT       0.417000       1.00800           0
     76029 W2       26720    TIP3     H2       HT       0.417000       1.00800           0
     76030 W2       26721    TIP3     OH2      OT      -0.834000       15.9994           0
     76031 W2       26721    TIP3     H1       HT       0.417000       1.00800           0
     76032 W2       26721    TIP3     H2       HT       0.417000       1.00800           0
     76033 W2       26722    TIP3     OH2      OT      -0.834000       15.9994           0
     76034 W2       26722    TIP3     H1       HT       0.417000       1.00800           0
     76035 W2       26722    TIP3     H2       HT       0.417000       1.00800           0
     76036 W2       26723    TIP3     OH2      OT      -0.834000       15.9994           0
     76037 W2       26723    TIP3     H1       HT       0.417000       1.00800           0
     76038 W2       26723    TIP3     H2       HT       0.417000       1.00800           0
     76039 W2       26724    TIP3     OH2      OT      -0.834000       15.9994           0
     76040 W2       26724    TIP3     H1       HT       0.417000       1.00800           0
     76041 W2       26724    TIP3     H2       HT       0.417000       1.00800           0
     76042 W2       26725    TIP3     OH2      OT      -0.834000       15.9994           0
     76043 W2       26725    TIP3     H1       HT       0.417000       1.00800           0
     76044 W2       26725    TIP3     H2       HT       0.417000       1.00800           0
     76045 W2       26726    TIP3     OH2      OT      -0.834000       15.9994           0
     76046 W2       26726    TIP3     H1       HT       0.417000       1.00800           0
     76047 W2       26726    TIP3     H2       HT       0.417000       1.00800           0
     76048 W2       26727    TIP3     OH2      OT      -0.834000       15.9994           0
     76049 W2       26727    TIP3     H1       HT       0.417000       1.00800           0
     76050 W2       26727    TIP3     H2       HT       0.417000       1.00800           0
     76051 W2       26730    TIP3     OH2      OT      -0.834000       15.9994           0
     76052 W2       26730    TIP3     H1       HT       0.417000       1.00800           0
     76053 W2       26730    TIP3     H2       HT       0.417000       1.00800           0
     76054 W2       26732    TIP3     OH2      OT      -0.834000       15.9994           0
     76055 W2       26732    TIP3     H1       HT       0.417000       1.00800           0
     76056 W2       26732    TIP3     H2       HT       0.417000       1.00800           0
     76057 W2       26733    TIP3     OH2      OT      -0.834000       15.9994           0
     76058 W2       26733    TIP3     H1       HT       0.417000       1.00800           0
     76059 W2       26733    TIP3     H2       HT       0.417000       1.00800           0
     76060 W2       26734    TIP3     OH2      OT      -0.834000       15.9994           0
     76061 W2       26734    TIP3     H1       HT       0.417000       1.00800           0
     76062 W2       26734    TIP3     H2       HT       0.417000       1.00800           0
     76063 W2       26735    TIP3     OH2      OT      -0.834000       15.9994           0
     76064 W2       26735    TIP3     H1       HT       0.417000       1.00800           0
     76065 W2       26735    TIP3     H2       HT       0.417000       1.00800           0
     76066 W2       26736    TIP3     OH2      OT      -0.834000       15.9994           0
     76067 W2       26736    TIP3     H1       HT       0.417000       1.00800           0
     76068 W2       26736    TIP3     H2       HT       0.417000       1.00800           0
     76069 W2       26737    TIP3     OH2      OT      -0.834000       15.9994           0
     76070 W2       26737    TIP3     H1       HT       0.417000       1.00800           0
     76071 W2       26737    TIP3     H2       HT       0.417000       1.00800           0
     76072 W2       26738    TIP3     OH2      OT      -0.834000       15.9994           0
     76073 W2       26738    TIP3     H1       HT       0.417000       1.00800           0
     76074 W2       26738    TIP3     H2       HT       0.417000       1.00800           0
     76075 W2       26739    TIP3     OH2      OT      -0.834000       15.9994           0
     76076 W2       26739    TIP3     H1       HT       0.417000       1.00800           0
     76077 W2       26739    TIP3     H2       HT       0.417000       1.00800           0
     76078 W2       26740    TIP3     OH2      OT      -0.834000       15.9994           0
     76079 W2       26740    TIP3     H1       HT       0.417000       1.00800           0
     76080 W2       26740    TIP3     H2       HT       0.417000       1.00800           0
     76081 W2       26741    TIP3     OH2      OT      -0.834000       15.9994           0
     76082 W2       26741    TIP3     H1       HT       0.417000       1.00800           0
     76083 W2       26741    TIP3     H2       HT       0.417000       1.00800           0
     76084 W2       26742    TIP3     OH2      OT      -0.834000       15.9994           0
     76085 W2       26742    TIP3     H1       HT       0.417000       1.00800           0
     76086 W2       26742    TIP3     H2       HT       0.417000       1.00800           0
     76087 W2       26743    TIP3     OH2      OT      -0.834000       15.9994           0
     76088 W2       26743    TIP3     H1       HT       0.417000       1.00800           0
     76089 W2       26743    TIP3     H2       HT       0.417000       1.00800           0
     76090 W2       26744    TIP3     OH2      OT      -0.834000       15.9994           0
     76091 W2       26744    TIP3     H1       HT       0.417000       1.00800           0
     76092 W2       26744    TIP3     H2       HT       0.417000       1.00800           0
     76093 W2       26745    TIP3     OH2      OT      -0.834000       15.9994           0
     76094 W2       26745    TIP3     H1       HT       0.417000       1.00800           0
     76095 W2       26745    TIP3     H2       HT       0.417000       1.00800           0
     76096 W2       26746    TIP3     OH2      OT      -0.834000       15.9994           0
     76097 W2       26746    TIP3     H1       HT       0.417000       1.00800           0
     76098 W2       26746    TIP3     H2       HT       0.417000       1.00800           0
     76099 W2       26748    TIP3     OH2      OT      -0.834000       15.9994           0
     76100 W2       26748    TIP3     H1       HT       0.417000       1.00800           0
     76101 W2       26748    TIP3     H2       HT       0.417000       1.00800           0
     76102 W2       26749    TIP3     OH2      OT      -0.834000       15.9994           0
     76103 W2       26749    TIP3     H1       HT       0.417000       1.00800           0
     76104 W2       26749    TIP3     H2       HT       0.417000       1.00800           0
     76105 W2       26750    TIP3     OH2      OT      -0.834000       15.9994           0
     76106 W2       26750    TIP3     H1       HT       0.417000       1.00800           0
     76107 W2       26750    TIP3     H2       HT       0.417000       1.00800           0
     76108 W2       26751    TIP3     OH2      OT      -0.834000       15.9994           0
     76109 W2       26751    TIP3     H1       HT       0.417000       1.00800           0
     76110 W2       26751    TIP3     H2       HT       0.417000       1.00800           0
     76111 W2       26752    TIP3     OH2      OT      -0.834000       15.9994           0
     76112 W2       26752    TIP3     H1       HT       0.417000       1.00800           0
     76113 W2       26752    TIP3     H2       HT       0.417000       1.00800           0
     76114 W2       26753    TIP3     OH2      OT      -0.834000       15.9994           0
     76115 W2       26753    TIP3     H1       HT       0.417000       1.00800           0
     76116 W2       26753    TIP3     H2       HT       0.417000       1.00800           0
     76117 W2       26754    TIP3     OH2      OT      -0.834000       15.9994           0
     76118 W2       26754    TIP3     H1       HT       0.417000       1.00800           0
     76119 W2       26754    TIP3     H2       HT       0.417000       1.00800           0
     76120 W2       26755    TIP3     OH2      OT      -0.834000       15.9994           0
     76121 W2       26755    TIP3     H1       HT       0.417000       1.00800           0
     76122 W2       26755    TIP3     H2       HT       0.417000       1.00800           0
     76123 W2       26756    TIP3     OH2      OT      -0.834000       15.9994           0
     76124 W2       26756    TIP3     H1       HT       0.417000       1.00800           0
     76125 W2       26756    TIP3     H2       HT       0.417000       1.00800           0
     76126 W2       26757    TIP3     OH2      OT      -0.834000       15.9994           0
     76127 W2       26757    TIP3     H1       HT       0.417000       1.00800           0
     76128 W2       26757    TIP3     H2       HT       0.417000       1.00800           0
     76129 W2       26758    TIP3     OH2      OT      -0.834000       15.9994           0
     76130 W2       26758    TIP3     H1       HT       0.417000       1.00800           0
     76131 W2       26758    TIP3     H2       HT       0.417000       1.00800           0
     76132 W2       26759    TIP3     OH2      OT      -0.834000       15.9994           0
     76133 W2       26759    TIP3     H1       HT       0.417000       1.00800           0
     76134 W2       26759    TIP3     H2       HT       0.417000       1.00800           0
     76135 W2       26761    TIP3     OH2      OT      -0.834000       15.9994           0
     76136 W2       26761    TIP3     H1       HT       0.417000       1.00800           0
     76137 W2       26761    TIP3     H2       HT       0.417000       1.00800           0
     76138 W2       26762    TIP3     OH2      OT      -0.834000       15.9994           0
     76139 W2       26762    TIP3     H1       HT       0.417000       1.00800           0
     76140 W2       26762    TIP3     H2       HT       0.417000       1.00800           0
     76141 W2       26763    TIP3     OH2      OT      -0.834000       15.9994           0
     76142 W2       26763    TIP3     H1       HT       0.417000       1.00800           0
     76143 W2       26763    TIP3     H2       HT       0.417000       1.00800           0
     76144 W2       26764    TIP3     OH2      OT      -0.834000       15.9994           0
     76145 W2       26764    TIP3     H1       HT       0.417000       1.00800           0
     76146 W2       26764    TIP3     H2       HT       0.417000       1.00800           0
     76147 W2       26766    TIP3     OH2      OT      -0.834000       15.9994           0
     76148 W2       26766    TIP3     H1       HT       0.417000       1.00800           0
     76149 W2       26766    TIP3     H2       HT       0.417000       1.00800           0
     76150 W2       26767    TIP3     OH2      OT      -0.834000       15.9994           0
     76151 W2       26767    TIP3     H1       HT       0.417000       1.00800           0
     76152 W2       26767    TIP3     H2       HT       0.417000       1.00800           0
     76153 W2       26768    TIP3     OH2      OT      -0.834000       15.9994           0
     76154 W2       26768    TIP3     H1       HT       0.417000       1.00800           0
     76155 W2       26768    TIP3     H2       HT       0.417000       1.00800           0
     76156 W2       26769    TIP3     OH2      OT      -0.834000       15.9994           0
     76157 W2       26769    TIP3     H1       HT       0.417000       1.00800           0
     76158 W2       26769    TIP3     H2       HT       0.417000       1.00800           0
     76159 W2       26771    TIP3     OH2      OT      -0.834000       15.9994           0
     76160 W2       26771    TIP3     H1       HT       0.417000       1.00800           0
     76161 W2       26771    TIP3     H2       HT       0.417000       1.00800           0
     76162 W2       26773    TIP3     OH2      OT      -0.834000       15.9994           0
     76163 W2       26773    TIP3     H1       HT       0.417000       1.00800           0
     76164 W2       26773    TIP3     H2       HT       0.417000       1.00800           0
     76165 W2       26775    TIP3     OH2      OT      -0.834000       15.9994           0
     76166 W2       26775    TIP3     H1       HT       0.417000       1.00800           0
     76167 W2       26775    TIP3     H2       HT       0.417000       1.00800           0
     76168 W2       26776    TIP3     OH2      OT      -0.834000       15.9994           0
     76169 W2       26776    TIP3     H1       HT       0.417000       1.00800           0
     76170 W2       26776    TIP3     H2       HT       0.417000       1.00800           0
     76171 W2       26777    TIP3     OH2      OT      -0.834000       15.9994           0
     76172 W2       26777    TIP3     H1       HT       0.417000       1.00800           0
     76173 W2       26777    TIP3     H2       HT       0.417000       1.00800           0
     76174 W2       26778    TIP3     OH2      OT      -0.834000       15.9994           0
     76175 W2       26778    TIP3     H1       HT       0.417000       1.00800           0
     76176 W2       26778    TIP3     H2       HT       0.417000       1.00800           0
     76177 W2       26779    TIP3     OH2      OT      -0.834000       15.9994           0
     76178 W2       26779    TIP3     H1       HT       0.417000       1.00800           0
     76179 W2       26779    TIP3     H2       HT       0.417000       1.00800           0
     76180 W2       26782    TIP3     OH2      OT      -0.834000       15.9994           0
     76181 W2       26782    TIP3     H1       HT       0.417000       1.00800           0
     76182 W2       26782    TIP3     H2       HT       0.417000       1.00800           0
     76183 W2       26783    TIP3     OH2      OT      -0.834000       15.9994           0
     76184 W2       26783    TIP3     H1       HT       0.417000       1.00800           0
     76185 W2       26783    TIP3     H2       HT       0.417000       1.00800           0
     76186 W2       26784    TIP3     OH2      OT      -0.834000       15.9994           0
     76187 W2       26784    TIP3     H1       HT       0.417000       1.00800           0
     76188 W2       26784    TIP3     H2       HT       0.417000       1.00800           0
     76189 W2       26785    TIP3     OH2      OT      -0.834000       15.9994           0
     76190 W2       26785    TIP3     H1       HT       0.417000       1.00800           0
     76191 W2       26785    TIP3     H2       HT       0.417000       1.00800           0
     76192 W2       26788    TIP3     OH2      OT      -0.834000       15.9994           0
     76193 W2       26788    TIP3     H1       HT       0.417000       1.00800           0
     76194 W2       26788    TIP3     H2       HT       0.417000       1.00800           0
     76195 W2       26791    TIP3     OH2      OT      -0.834000       15.9994           0
     76196 W2       26791    TIP3     H1       HT       0.417000       1.00800           0
     76197 W2       26791    TIP3     H2       HT       0.417000       1.00800           0
     76198 W2       26792    TIP3     OH2      OT      -0.834000       15.9994           0
     76199 W2       26792    TIP3     H1       HT       0.417000       1.00800           0
     76200 W2       26792    TIP3     H2       HT       0.417000       1.00800           0
     76201 W2       26793    TIP3     OH2      OT      -0.834000       15.9994           0
     76202 W2       26793    TIP3     H1       HT       0.417000       1.00800           0
     76203 W2       26793    TIP3     H2       HT       0.417000       1.00800           0
     76204 W2       26794    TIP3     OH2      OT      -0.834000       15.9994           0
     76205 W2       26794    TIP3     H1       HT       0.417000       1.00800           0
     76206 W2       26794    TIP3     H2       HT       0.417000       1.00800           0
     76207 W2       26795    TIP3     OH2      OT      -0.834000       15.9994           0
     76208 W2       26795    TIP3     H1       HT       0.417000       1.00800           0
     76209 W2       26795    TIP3     H2       HT       0.417000       1.00800           0
     76210 W2       26797    TIP3     OH2      OT      -0.834000       15.9994           0
     76211 W2       26797    TIP3     H1       HT       0.417000       1.00800           0
     76212 W2       26797    TIP3     H2       HT       0.417000       1.00800           0
     76213 W2       26798    TIP3     OH2      OT      -0.834000       15.9994           0
     76214 W2       26798    TIP3     H1       HT       0.417000       1.00800           0
     76215 W2       26798    TIP3     H2       HT       0.417000       1.00800           0
     76216 W2       26799    TIP3     OH2      OT      -0.834000       15.9994           0
     76217 W2       26799    TIP3     H1       HT       0.417000       1.00800           0
     76218 W2       26799    TIP3     H2       HT       0.417000       1.00800           0
     76219 W2       26800    TIP3     OH2      OT      -0.834000       15.9994           0
     76220 W2       26800    TIP3     H1       HT       0.417000       1.00800           0
     76221 W2       26800    TIP3     H2       HT       0.417000       1.00800           0
     76222 W2       26801    TIP3     OH2      OT      -0.834000       15.9994           0
     76223 W2       26801    TIP3     H1       HT       0.417000       1.00800           0
     76224 W2       26801    TIP3     H2       HT       0.417000       1.00800           0
     76225 W2       26802    TIP3     OH2      OT      -0.834000       15.9994           0
     76226 W2       26802    TIP3     H1       HT       0.417000       1.00800           0
     76227 W2       26802    TIP3     H2       HT       0.417000       1.00800           0
     76228 W2       26803    TIP3     OH2      OT      -0.834000       15.9994           0
     76229 W2       26803    TIP3     H1       HT       0.417000       1.00800           0
     76230 W2       26803    TIP3     H2       HT       0.417000       1.00800           0
     76231 W2       26804    TIP3     OH2      OT      -0.834000       15.9994           0
     76232 W2       26804    TIP3     H1       HT       0.417000       1.00800           0
     76233 W2       26804    TIP3     H2       HT       0.417000       1.00800           0
     76234 W2       26805    TIP3     OH2      OT      -0.834000       15.9994           0
     76235 W2       26805    TIP3     H1       HT       0.417000       1.00800           0
     76236 W2       26805    TIP3     H2       HT       0.417000       1.00800           0
     76237 W2       26806    TIP3     OH2      OT      -0.834000       15.9994           0
     76238 W2       26806    TIP3     H1       HT       0.417000       1.00800           0
     76239 W2       26806    TIP3     H2       HT       0.417000       1.00800           0
     76240 W2       26807    TIP3     OH2      OT      -0.834000       15.9994           0
     76241 W2       26807    TIP3     H1       HT       0.417000       1.00800           0
     76242 W2       26807    TIP3     H2       HT       0.417000       1.00800           0
     76243 W2       26810    TIP3     OH2      OT      -0.834000       15.9994           0
     76244 W2       26810    TIP3     H1       HT       0.417000       1.00800           0
     76245 W2       26810    TIP3     H2       HT       0.417000       1.00800           0
     76246 W2       26811    TIP3     OH2      OT      -0.834000       15.9994           0
     76247 W2       26811    TIP3     H1       HT       0.417000       1.00800           0
     76248 W2       26811    TIP3     H2       HT       0.417000       1.00800           0
     76249 W2       26812    TIP3     OH2      OT      -0.834000       15.9994           0
     76250 W2       26812    TIP3     H1       HT       0.417000       1.00800           0
     76251 W2       26812    TIP3     H2       HT       0.417000       1.00800           0
     76252 W2       26813    TIP3     OH2      OT      -0.834000       15.9994           0
     76253 W2       26813    TIP3     H1       HT       0.417000       1.00800           0
     76254 W2       26813    TIP3     H2       HT       0.417000       1.00800           0
     76255 W2       26814    TIP3     OH2      OT      -0.834000       15.9994           0
     76256 W2       26814    TIP3     H1       HT       0.417000       1.00800           0
     76257 W2       26814    TIP3     H2       HT       0.417000       1.00800           0
     76258 W2       26815    TIP3     OH2      OT      -0.834000       15.9994           0
     76259 W2       26815    TIP3     H1       HT       0.417000       1.00800           0
     76260 W2       26815    TIP3     H2       HT       0.417000       1.00800           0
     76261 W2       26817    TIP3     OH2      OT      -0.834000       15.9994           0
     76262 W2       26817    TIP3     H1       HT       0.417000       1.00800           0
     76263 W2       26817    TIP3     H2       HT       0.417000       1.00800           0
     76264 W2       26818    TIP3     OH2      OT      -0.834000       15.9994           0
     76265 W2       26818    TIP3     H1       HT       0.417000       1.00800           0
     76266 W2       26818    TIP3     H2       HT       0.417000       1.00800           0
     76267 W2       26819    TIP3     OH2      OT      -0.834000       15.9994           0
     76268 W2       26819    TIP3     H1       HT       0.417000       1.00800           0
     76269 W2       26819    TIP3     H2       HT       0.417000       1.00800           0
     76270 W2       26823    TIP3     OH2      OT      -0.834000       15.9994           0
     76271 W2       26823    TIP3     H1       HT       0.417000       1.00800           0
     76272 W2       26823    TIP3     H2       HT       0.417000       1.00800           0
     76273 W2       26825    TIP3     OH2      OT      -0.834000       15.9994           0
     76274 W2       26825    TIP3     H1       HT       0.417000       1.00800           0
     76275 W2       26825    TIP3     H2       HT       0.417000       1.00800           0
     76276 W2       26826    TIP3     OH2      OT      -0.834000       15.9994           0
     76277 W2       26826    TIP3     H1       HT       0.417000       1.00800           0
     76278 W2       26826    TIP3     H2       HT       0.417000       1.00800           0
     76279 W2       26827    TIP3     OH2      OT      -0.834000       15.9994           0
     76280 W2       26827    TIP3     H1       HT       0.417000       1.00800           0
     76281 W2       26827    TIP3     H2       HT       0.417000       1.00800           0
     76282 W2       26828    TIP3     OH2      OT      -0.834000       15.9994           0
     76283 W2       26828    TIP3     H1       HT       0.417000       1.00800           0
     76284 W2       26828    TIP3     H2       HT       0.417000       1.00800           0
     76285 W2       26829    TIP3     OH2      OT      -0.834000       15.9994           0
     76286 W2       26829    TIP3     H1       HT       0.417000       1.00800           0
     76287 W2       26829    TIP3     H2       HT       0.417000       1.00800           0
     76288 W2       26830    TIP3     OH2      OT      -0.834000       15.9994           0
     76289 W2       26830    TIP3     H1       HT       0.417000       1.00800           0
     76290 W2       26830    TIP3     H2       HT       0.417000       1.00800           0
     76291 W2       26831    TIP3     OH2      OT      -0.834000       15.9994           0
     76292 W2       26831    TIP3     H1       HT       0.417000       1.00800           0
     76293 W2       26831    TIP3     H2       HT       0.417000       1.00800           0
     76294 W2       26832    TIP3     OH2      OT      -0.834000       15.9994           0
     76295 W2       26832    TIP3     H1       HT       0.417000       1.00800           0
     76296 W2       26832    TIP3     H2       HT       0.417000       1.00800           0
     76297 W2       26833    TIP3     OH2      OT      -0.834000       15.9994           0
     76298 W2       26833    TIP3     H1       HT       0.417000       1.00800           0
     76299 W2       26833    TIP3     H2       HT       0.417000       1.00800           0
     76300 W2       26835    TIP3     OH2      OT      -0.834000       15.9994           0
     76301 W2       26835    TIP3     H1       HT       0.417000       1.00800           0
     76302 W2       26835    TIP3     H2       HT       0.417000       1.00800           0
     76303 W2       26837    TIP3     OH2      OT      -0.834000       15.9994           0
     76304 W2       26837    TIP3     H1       HT       0.417000       1.00800           0
     76305 W2       26837    TIP3     H2       HT       0.417000       1.00800           0
     76306 W2       26838    TIP3     OH2      OT      -0.834000       15.9994           0
     76307 W2       26838    TIP3     H1       HT       0.417000       1.00800           0
     76308 W2       26838    TIP3     H2       HT       0.417000       1.00800           0
     76309 W2       26839    TIP3     OH2      OT      -0.834000       15.9994           0
     76310 W2       26839    TIP3     H1       HT       0.417000       1.00800           0
     76311 W2       26839    TIP3     H2       HT       0.417000       1.00800           0
     76312 W2       26840    TIP3     OH2      OT      -0.834000       15.9994           0
     76313 W2       26840    TIP3     H1       HT       0.417000       1.00800           0
     76314 W2       26840    TIP3     H2       HT       0.417000       1.00800           0
     76315 W2       26841    TIP3     OH2      OT      -0.834000       15.9994           0
     76316 W2       26841    TIP3     H1       HT       0.417000       1.00800           0
     76317 W2       26841    TIP3     H2       HT       0.417000       1.00800           0
     76318 W2       26842    TIP3     OH2      OT      -0.834000       15.9994           0
     76319 W2       26842    TIP3     H1       HT       0.417000       1.00800           0
     76320 W2       26842    TIP3     H2       HT       0.417000       1.00800           0
     76321 W2       26843    TIP3     OH2      OT      -0.834000       15.9994           0
     76322 W2       26843    TIP3     H1       HT       0.417000       1.00800           0
     76323 W2       26843    TIP3     H2       HT       0.417000       1.00800           0
     76324 W2       26844    TIP3     OH2      OT      -0.834000       15.9994           0
     76325 W2       26844    TIP3     H1       HT       0.417000       1.00800           0
     76326 W2       26844    TIP3     H2       HT       0.417000       1.00800           0
     76327 W2       26845    TIP3     OH2      OT      -0.834000       15.9994           0
     76328 W2       26845    TIP3     H1       HT       0.417000       1.00800           0
     76329 W2       26845    TIP3     H2       HT       0.417000       1.00800           0
     76330 W2       26847    TIP3     OH2      OT      -0.834000       15.9994           0
     76331 W2       26847    TIP3     H1       HT       0.417000       1.00800           0
     76332 W2       26847    TIP3     H2       HT       0.417000       1.00800           0
     76333 W2       26848    TIP3     OH2      OT      -0.834000       15.9994           0
     76334 W2       26848    TIP3     H1       HT       0.417000       1.00800           0
     76335 W2       26848    TIP3     H2       HT       0.417000       1.00800           0
     76336 W2       26849    TIP3     OH2      OT      -0.834000       15.9994           0
     76337 W2       26849    TIP3     H1       HT       0.417000       1.00800           0
     76338 W2       26849    TIP3     H2       HT       0.417000       1.00800           0
     76339 W2       26851    TIP3     OH2      OT      -0.834000       15.9994           0
     76340 W2       26851    TIP3     H1       HT       0.417000       1.00800           0
     76341 W2       26851    TIP3     H2       HT       0.417000       1.00800           0
     76342 W2       26852    TIP3     OH2      OT      -0.834000       15.9994           0
     76343 W2       26852    TIP3     H1       HT       0.417000       1.00800           0
     76344 W2       26852    TIP3     H2       HT       0.417000       1.00800           0
     76345 W2       26853    TIP3     OH2      OT      -0.834000       15.9994           0
     76346 W2       26853    TIP3     H1       HT       0.417000       1.00800           0
     76347 W2       26853    TIP3     H2       HT       0.417000       1.00800           0
     76348 W2       26854    TIP3     OH2      OT      -0.834000       15.9994           0
     76349 W2       26854    TIP3     H1       HT       0.417000       1.00800           0
     76350 W2       26854    TIP3     H2       HT       0.417000       1.00800           0
     76351 W2       26855    TIP3     OH2      OT      -0.834000       15.9994           0
     76352 W2       26855    TIP3     H1       HT       0.417000       1.00800           0
     76353 W2       26855    TIP3     H2       HT       0.417000       1.00800           0
     76354 W2       26856    TIP3     OH2      OT      -0.834000       15.9994           0
     76355 W2       26856    TIP3     H1       HT       0.417000       1.00800           0
     76356 W2       26856    TIP3     H2       HT       0.417000       1.00800           0
     76357 W2       26859    TIP3     OH2      OT      -0.834000       15.9994           0
     76358 W2       26859    TIP3     H1       HT       0.417000       1.00800           0
     76359 W2       26859    TIP3     H2       HT       0.417000       1.00800           0
     76360 W2       26861    TIP3     OH2      OT      -0.834000       15.9994           0
     76361 W2       26861    TIP3     H1       HT       0.417000       1.00800           0
     76362 W2       26861    TIP3     H2       HT       0.417000       1.00800           0
     76363 W2       26863    TIP3     OH2      OT      -0.834000       15.9994           0
     76364 W2       26863    TIP3     H1       HT       0.417000       1.00800           0
     76365 W2       26863    TIP3     H2       HT       0.417000       1.00800           0
     76366 W2       26865    TIP3     OH2      OT      -0.834000       15.9994           0
     76367 W2       26865    TIP3     H1       HT       0.417000       1.00800           0
     76368 W2       26865    TIP3     H2       HT       0.417000       1.00800           0
     76369 W2       26868    TIP3     OH2      OT      -0.834000       15.9994           0
     76370 W2       26868    TIP3     H1       HT       0.417000       1.00800           0
     76371 W2       26868    TIP3     H2       HT       0.417000       1.00800           0
     76372 W2       26870    TIP3     OH2      OT      -0.834000       15.9994           0
     76373 W2       26870    TIP3     H1       HT       0.417000       1.00800           0
     76374 W2       26870    TIP3     H2       HT       0.417000       1.00800           0
     76375 W2       26872    TIP3     OH2      OT      -0.834000       15.9994           0
     76376 W2       26872    TIP3     H1       HT       0.417000       1.00800           0
     76377 W2       26872    TIP3     H2       HT       0.417000       1.00800           0
     76378 W2       26874    TIP3     OH2      OT      -0.834000       15.9994           0
     76379 W2       26874    TIP3     H1       HT       0.417000       1.00800           0
     76380 W2       26874    TIP3     H2       HT       0.417000       1.00800           0
     76381 W2       26886    TIP3     OH2      OT      -0.834000       15.9994           0
     76382 W2       26886    TIP3     H1       HT       0.417000       1.00800           0
     76383 W2       26886    TIP3     H2       HT       0.417000       1.00800           0
     76384 W2       26887    TIP3     OH2      OT      -0.834000       15.9994           0
     76385 W2       26887    TIP3     H1       HT       0.417000       1.00800           0
     76386 W2       26887    TIP3     H2       HT       0.417000       1.00800           0
     76387 W2       26888    TIP3     OH2      OT      -0.834000       15.9994           0
     76388 W2       26888    TIP3     H1       HT       0.417000       1.00800           0
     76389 W2       26888    TIP3     H2       HT       0.417000       1.00800           0
     76390 W2       26889    TIP3     OH2      OT      -0.834000       15.9994           0
     76391 W2       26889    TIP3     H1       HT       0.417000       1.00800           0
     76392 W2       26889    TIP3     H2       HT       0.417000       1.00800           0
     76393 W2       26890    TIP3     OH2      OT      -0.834000       15.9994           0
     76394 W2       26890    TIP3     H1       HT       0.417000       1.00800           0
     76395 W2       26890    TIP3     H2       HT       0.417000       1.00800           0
     76396 W2       26893    TIP3     OH2      OT      -0.834000       15.9994           0
     76397 W2       26893    TIP3     H1       HT       0.417000       1.00800           0
     76398 W2       26893    TIP3     H2       HT       0.417000       1.00800           0
     76399 W2       26894    TIP3     OH2      OT      -0.834000       15.9994           0
     76400 W2       26894    TIP3     H1       HT       0.417000       1.00800           0
     76401 W2       26894    TIP3     H2       HT       0.417000       1.00800           0
     76402 W2       26895    TIP3     OH2      OT      -0.834000       15.9994           0
     76403 W2       26895    TIP3     H1       HT       0.417000       1.00800           0
     76404 W2       26895    TIP3     H2       HT       0.417000       1.00800           0
     76405 W2       26896    TIP3     OH2      OT      -0.834000       15.9994           0
     76406 W2       26896    TIP3     H1       HT       0.417000       1.00800           0
     76407 W2       26896    TIP3     H2       HT       0.417000       1.00800           0
     76408 W2       26897    TIP3     OH2      OT      -0.834000       15.9994           0
     76409 W2       26897    TIP3     H1       HT       0.417000       1.00800           0
     76410 W2       26897    TIP3     H2       HT       0.417000       1.00800           0
     76411 W2       26898    TIP3     OH2      OT      -0.834000       15.9994           0
     76412 W2       26898    TIP3     H1       HT       0.417000       1.00800           0
     76413 W2       26898    TIP3     H2       HT       0.417000       1.00800           0
     76414 W2       26899    TIP3     OH2      OT      -0.834000       15.9994           0
     76415 W2       26899    TIP3     H1       HT       0.417000       1.00800           0
     76416 W2       26899    TIP3     H2       HT       0.417000       1.00800           0
     76417 W2       26900    TIP3     OH2      OT      -0.834000       15.9994           0
     76418 W2       26900    TIP3     H1       HT       0.417000       1.00800           0
     76419 W2       26900    TIP3     H2       HT       0.417000       1.00800           0
     76420 W2       26903    TIP3     OH2      OT      -0.834000       15.9994           0
     76421 W2       26903    TIP3     H1       HT       0.417000       1.00800           0
     76422 W2       26903    TIP3     H2       HT       0.417000       1.00800           0
     76423 W2       26904    TIP3     OH2      OT      -0.834000       15.9994           0
     76424 W2       26904    TIP3     H1       HT       0.417000       1.00800           0
     76425 W2       26904    TIP3     H2       HT       0.417000       1.00800           0
     76426 W2       26905    TIP3     OH2      OT      -0.834000       15.9994           0
     76427 W2       26905    TIP3     H1       HT       0.417000       1.00800           0
     76428 W2       26905    TIP3     H2       HT       0.417000       1.00800           0
     76429 W2       26906    TIP3     OH2      OT      -0.834000       15.9994           0
     76430 W2       26906    TIP3     H1       HT       0.417000       1.00800           0
     76431 W2       26906    TIP3     H2       HT       0.417000       1.00800           0
     76432 W2       26909    TIP3     OH2      OT      -0.834000       15.9994           0
     76433 W2       26909    TIP3     H1       HT       0.417000       1.00800           0
     76434 W2       26909    TIP3     H2       HT       0.417000       1.00800           0
     76435 W2       26910    TIP3     OH2      OT      -0.834000       15.9994           0
     76436 W2       26910    TIP3     H1       HT       0.417000       1.00800           0
     76437 W2       26910    TIP3     H2       HT       0.417000       1.00800           0
     76438 W2       26911    TIP3     OH2      OT      -0.834000       15.9994           0
     76439 W2       26911    TIP3     H1       HT       0.417000       1.00800           0
     76440 W2       26911    TIP3     H2       HT       0.417000       1.00800           0
     76441 W2       26913    TIP3     OH2      OT      -0.834000       15.9994           0
     76442 W2       26913    TIP3     H1       HT       0.417000       1.00800           0
     76443 W2       26913    TIP3     H2       HT       0.417000       1.00800           0
     76444 W2       26914    TIP3     OH2      OT      -0.834000       15.9994           0
     76445 W2       26914    TIP3     H1       HT       0.417000       1.00800           0
     76446 W2       26914    TIP3     H2       HT       0.417000       1.00800           0
     76447 W2       26915    TIP3     OH2      OT      -0.834000       15.9994           0
     76448 W2       26915    TIP3     H1       HT       0.417000       1.00800           0
     76449 W2       26915    TIP3     H2       HT       0.417000       1.00800           0
     76450 W2       26916    TIP3     OH2      OT      -0.834000       15.9994           0
     76451 W2       26916    TIP3     H1       HT       0.417000       1.00800           0
     76452 W2       26916    TIP3     H2       HT       0.417000       1.00800           0
     76453 W2       26918    TIP3     OH2      OT      -0.834000       15.9994           0
     76454 W2       26918    TIP3     H1       HT       0.417000       1.00800           0
     76455 W2       26918    TIP3     H2       HT       0.417000       1.00800           0
     76456 W2       26922    TIP3     OH2      OT      -0.834000       15.9994           0
     76457 W2       26922    TIP3     H1       HT       0.417000       1.00800           0
     76458 W2       26922    TIP3     H2       HT       0.417000       1.00800           0
     76459 W2       26923    TIP3     OH2      OT      -0.834000       15.9994           0
     76460 W2       26923    TIP3     H1       HT       0.417000       1.00800           0
     76461 W2       26923    TIP3     H2       HT       0.417000       1.00800           0
     76462 W2       26924    TIP3     OH2      OT      -0.834000       15.9994           0
     76463 W2       26924    TIP3     H1       HT       0.417000       1.00800           0
     76464 W2       26924    TIP3     H2       HT       0.417000       1.00800           0
     76465 W2       26925    TIP3     OH2      OT      -0.834000       15.9994           0
     76466 W2       26925    TIP3     H1       HT       0.417000       1.00800           0
     76467 W2       26925    TIP3     H2       HT       0.417000       1.00800           0
     76468 W2       26926    TIP3     OH2      OT      -0.834000       15.9994           0
     76469 W2       26926    TIP3     H1       HT       0.417000       1.00800           0
     76470 W2       26926    TIP3     H2       HT       0.417000       1.00800           0
     76471 W2       26927    TIP3     OH2      OT      -0.834000       15.9994           0
     76472 W2       26927    TIP3     H1       HT       0.417000       1.00800           0
     76473 W2       26927    TIP3     H2       HT       0.417000       1.00800           0
     76474 W2       26928    TIP3     OH2      OT      -0.834000       15.9994           0
     76475 W2       26928    TIP3     H1       HT       0.417000       1.00800           0
     76476 W2       26928    TIP3     H2       HT       0.417000       1.00800           0
     76477 W2       26929    TIP3     OH2      OT      -0.834000       15.9994           0
     76478 W2       26929    TIP3     H1       HT       0.417000       1.00800           0
     76479 W2       26929    TIP3     H2       HT       0.417000       1.00800           0
     76480 W2       26930    TIP3     OH2      OT      -0.834000       15.9994           0
     76481 W2       26930    TIP3     H1       HT       0.417000       1.00800           0
     76482 W2       26930    TIP3     H2       HT       0.417000       1.00800           0
     76483 W2       26931    TIP3     OH2      OT      -0.834000       15.9994           0
     76484 W2       26931    TIP3     H1       HT       0.417000       1.00800           0
     76485 W2       26931    TIP3     H2       HT       0.417000       1.00800           0
     76486 W2       26932    TIP3     OH2      OT      -0.834000       15.9994           0
     76487 W2       26932    TIP3     H1       HT       0.417000       1.00800           0
     76488 W2       26932    TIP3     H2       HT       0.417000       1.00800           0
     76489 W2       26933    TIP3     OH2      OT      -0.834000       15.9994           0
     76490 W2       26933    TIP3     H1       HT       0.417000       1.00800           0
     76491 W2       26933    TIP3     H2       HT       0.417000       1.00800           0
     76492 W2       26934    TIP3     OH2      OT      -0.834000       15.9994           0
     76493 W2       26934    TIP3     H1       HT       0.417000       1.00800           0
     76494 W2       26934    TIP3     H2       HT       0.417000       1.00800           0
     76495 W2       26935    TIP3     OH2      OT      -0.834000       15.9994           0
     76496 W2       26935    TIP3     H1       HT       0.417000       1.00800           0
     76497 W2       26935    TIP3     H2       HT       0.417000       1.00800           0
     76498 W2       26936    TIP3     OH2      OT      -0.834000       15.9994           0
     76499 W2       26936    TIP3     H1       HT       0.417000       1.00800           0
     76500 W2       26936    TIP3     H2       HT       0.417000       1.00800           0
     76501 W2       26937    TIP3     OH2      OT      -0.834000       15.9994           0
     76502 W2       26937    TIP3     H1       HT       0.417000       1.00800           0
     76503 W2       26937    TIP3     H2       HT       0.417000       1.00800           0
     76504 W2       26938    TIP3     OH2      OT      -0.834000       15.9994           0
     76505 W2       26938    TIP3     H1       HT       0.417000       1.00800           0
     76506 W2       26938    TIP3     H2       HT       0.417000       1.00800           0
     76507 W2       26939    TIP3     OH2      OT      -0.834000       15.9994           0
     76508 W2       26939    TIP3     H1       HT       0.417000       1.00800           0
     76509 W2       26939    TIP3     H2       HT       0.417000       1.00800           0
     76510 W2       26940    TIP3     OH2      OT      -0.834000       15.9994           0
     76511 W2       26940    TIP3     H1       HT       0.417000       1.00800           0
     76512 W2       26940    TIP3     H2       HT       0.417000       1.00800           0
     76513 W2       26941    TIP3     OH2      OT      -0.834000       15.9994           0
     76514 W2       26941    TIP3     H1       HT       0.417000       1.00800           0
     76515 W2       26941    TIP3     H2       HT       0.417000       1.00800           0
     76516 W2       26942    TIP3     OH2      OT      -0.834000       15.9994           0
     76517 W2       26942    TIP3     H1       HT       0.417000       1.00800           0
     76518 W2       26942    TIP3     H2       HT       0.417000       1.00800           0
     76519 W2       26945    TIP3     OH2      OT      -0.834000       15.9994           0
     76520 W2       26945    TIP3     H1       HT       0.417000       1.00800           0
     76521 W2       26945    TIP3     H2       HT       0.417000       1.00800           0
     76522 W2       26948    TIP3     OH2      OT      -0.834000       15.9994           0
     76523 W2       26948    TIP3     H1       HT       0.417000       1.00800           0
     76524 W2       26948    TIP3     H2       HT       0.417000       1.00800           0
     76525 W2       26949    TIP3     OH2      OT      -0.834000       15.9994           0
     76526 W2       26949    TIP3     H1       HT       0.417000       1.00800           0
     76527 W2       26949    TIP3     H2       HT       0.417000       1.00800           0
     76528 W2       26950    TIP3     OH2      OT      -0.834000       15.9994           0
     76529 W2       26950    TIP3     H1       HT       0.417000       1.00800           0
     76530 W2       26950    TIP3     H2       HT       0.417000       1.00800           0
     76531 W2       26951    TIP3     OH2      OT      -0.834000       15.9994           0
     76532 W2       26951    TIP3     H1       HT       0.417000       1.00800           0
     76533 W2       26951    TIP3     H2       HT       0.417000       1.00800           0
     76534 W2       26952    TIP3     OH2      OT      -0.834000       15.9994           0
     76535 W2       26952    TIP3     H1       HT       0.417000       1.00800           0
     76536 W2       26952    TIP3     H2       HT       0.417000       1.00800           0
     76537 W2       26953    TIP3     OH2      OT      -0.834000       15.9994           0
     76538 W2       26953    TIP3     H1       HT       0.417000       1.00800           0
     76539 W2       26953    TIP3     H2       HT       0.417000       1.00800           0
     76540 W2       26954    TIP3     OH2      OT      -0.834000       15.9994           0
     76541 W2       26954    TIP3     H1       HT       0.417000       1.00800           0
     76542 W2       26954    TIP3     H2       HT       0.417000       1.00800           0
     76543 W2       26955    TIP3     OH2      OT      -0.834000       15.9994           0
     76544 W2       26955    TIP3     H1       HT       0.417000       1.00800           0
     76545 W2       26955    TIP3     H2       HT       0.417000       1.00800           0
     76546 W2       26956    TIP3     OH2      OT      -0.834000       15.9994           0
     76547 W2       26956    TIP3     H1       HT       0.417000       1.00800           0
     76548 W2       26956    TIP3     H2       HT       0.417000       1.00800           0
     76549 W2       26957    TIP3     OH2      OT      -0.834000       15.9994           0
     76550 W2       26957    TIP3     H1       HT       0.417000       1.00800           0
     76551 W2       26957    TIP3     H2       HT       0.417000       1.00800           0
     76552 W2       26958    TIP3     OH2      OT      -0.834000       15.9994           0
     76553 W2       26958    TIP3     H1       HT       0.417000       1.00800           0
     76554 W2       26958    TIP3     H2       HT       0.417000       1.00800           0
     76555 W2       26959    TIP3     OH2      OT      -0.834000       15.9994           0
     76556 W2       26959    TIP3     H1       HT       0.417000       1.00800           0
     76557 W2       26959    TIP3     H2       HT       0.417000       1.00800           0
     76558 W2       26960    TIP3     OH2      OT      -0.834000       15.9994           0
     76559 W2       26960    TIP3     H1       HT       0.417000       1.00800           0
     76560 W2       26960    TIP3     H2       HT       0.417000       1.00800           0
     76561 W2       26961    TIP3     OH2      OT      -0.834000       15.9994           0
     76562 W2       26961    TIP3     H1       HT       0.417000       1.00800           0
     76563 W2       26961    TIP3     H2       HT       0.417000       1.00800           0
     76564 W2       26962    TIP3     OH2      OT      -0.834000       15.9994           0
     76565 W2       26962    TIP3     H1       HT       0.417000       1.00800           0
     76566 W2       26962    TIP3     H2       HT       0.417000       1.00800           0
     76567 W2       26964    TIP3     OH2      OT      -0.834000       15.9994           0
     76568 W2       26964    TIP3     H1       HT       0.417000       1.00800           0
     76569 W2       26964    TIP3     H2       HT       0.417000       1.00800           0
     76570 W2       26965    TIP3     OH2      OT      -0.834000       15.9994           0
     76571 W2       26965    TIP3     H1       HT       0.417000       1.00800           0
     76572 W2       26965    TIP3     H2       HT       0.417000       1.00800           0
     76573 W2       26966    TIP3     OH2      OT      -0.834000       15.9994           0
     76574 W2       26966    TIP3     H1       HT       0.417000       1.00800           0
     76575 W2       26966    TIP3     H2       HT       0.417000       1.00800           0
     76576 W2       26967    TIP3     OH2      OT      -0.834000       15.9994           0
     76577 W2       26967    TIP3     H1       HT       0.417000       1.00800           0
     76578 W2       26967    TIP3     H2       HT       0.417000       1.00800           0
     76579 W2       26968    TIP3     OH2      OT      -0.834000       15.9994           0
     76580 W2       26968    TIP3     H1       HT       0.417000       1.00800           0
     76581 W2       26968    TIP3     H2       HT       0.417000       1.00800           0
     76582 W2       26969    TIP3     OH2      OT      -0.834000       15.9994           0
     76583 W2       26969    TIP3     H1       HT       0.417000       1.00800           0
     76584 W2       26969    TIP3     H2       HT       0.417000       1.00800           0
     76585 W2       26970    TIP3     OH2      OT      -0.834000       15.9994           0
     76586 W2       26970    TIP3     H1       HT       0.417000       1.00800           0
     76587 W2       26970    TIP3     H2       HT       0.417000       1.00800           0
     76588 W2       26971    TIP3     OH2      OT      -0.834000       15.9994           0
     76589 W2       26971    TIP3     H1       HT       0.417000       1.00800           0
     76590 W2       26971    TIP3     H2       HT       0.417000       1.00800           0
     76591 W2       26972    TIP3     OH2      OT      -0.834000       15.9994           0
     76592 W2       26972    TIP3     H1       HT       0.417000       1.00800           0
     76593 W2       26972    TIP3     H2       HT       0.417000       1.00800           0
     76594 W2       26973    TIP3     OH2      OT      -0.834000       15.9994           0
     76595 W2       26973    TIP3     H1       HT       0.417000       1.00800           0
     76596 W2       26973    TIP3     H2       HT       0.417000       1.00800           0
     76597 W2       26974    TIP3     OH2      OT      -0.834000       15.9994           0
     76598 W2       26974    TIP3     H1       HT       0.417000       1.00800           0
     76599 W2       26974    TIP3     H2       HT       0.417000       1.00800           0
     76600 W2       26975    TIP3     OH2      OT      -0.834000       15.9994           0
     76601 W2       26975    TIP3     H1       HT       0.417000       1.00800           0
     76602 W2       26975    TIP3     H2       HT       0.417000       1.00800           0
     76603 W2       26977    TIP3     OH2      OT      -0.834000       15.9994           0
     76604 W2       26977    TIP3     H1       HT       0.417000       1.00800           0
     76605 W2       26977    TIP3     H2       HT       0.417000       1.00800           0
     76606 W2       26978    TIP3     OH2      OT      -0.834000       15.9994           0
     76607 W2       26978    TIP3     H1       HT       0.417000       1.00800           0
     76608 W2       26978    TIP3     H2       HT       0.417000       1.00800           0
     76609 W2       26979    TIP3     OH2      OT      -0.834000       15.9994           0
     76610 W2       26979    TIP3     H1       HT       0.417000       1.00800           0
     76611 W2       26979    TIP3     H2       HT       0.417000       1.00800           0
     76612 W2       26980    TIP3     OH2      OT      -0.834000       15.9994           0
     76613 W2       26980    TIP3     H1       HT       0.417000       1.00800           0
     76614 W2       26980    TIP3     H2       HT       0.417000       1.00800           0
     76615 W2       26982    TIP3     OH2      OT      -0.834000       15.9994           0
     76616 W2       26982    TIP3     H1       HT       0.417000       1.00800           0
     76617 W2       26982    TIP3     H2       HT       0.417000       1.00800           0
     76618 W2       26983    TIP3     OH2      OT      -0.834000       15.9994           0
     76619 W2       26983    TIP3     H1       HT       0.417000       1.00800           0
     76620 W2       26983    TIP3     H2       HT       0.417000       1.00800           0
     76621 W2       26984    TIP3     OH2      OT      -0.834000       15.9994           0
     76622 W2       26984    TIP3     H1       HT       0.417000       1.00800           0
     76623 W2       26984    TIP3     H2       HT       0.417000       1.00800           0
     76624 W2       26985    TIP3     OH2      OT      -0.834000       15.9994           0
     76625 W2       26985    TIP3     H1       HT       0.417000       1.00800           0
     76626 W2       26985    TIP3     H2       HT       0.417000       1.00800           0
     76627 W2       26987    TIP3     OH2      OT      -0.834000       15.9994           0
     76628 W2       26987    TIP3     H1       HT       0.417000       1.00800           0
     76629 W2       26987    TIP3     H2       HT       0.417000       1.00800           0
     76630 W2       26989    TIP3     OH2      OT      -0.834000       15.9994           0
     76631 W2       26989    TIP3     H1       HT       0.417000       1.00800           0
     76632 W2       26989    TIP3     H2       HT       0.417000       1.00800           0
     76633 W2       26991    TIP3     OH2      OT      -0.834000       15.9994           0
     76634 W2       26991    TIP3     H1       HT       0.417000       1.00800           0
     76635 W2       26991    TIP3     H2       HT       0.417000       1.00800           0
     76636 W2       26992    TIP3     OH2      OT      -0.834000       15.9994           0
     76637 W2       26992    TIP3     H1       HT       0.417000       1.00800           0
     76638 W2       26992    TIP3     H2       HT       0.417000       1.00800           0
     76639 W2       26993    TIP3     OH2      OT      -0.834000       15.9994           0
     76640 W2       26993    TIP3     H1       HT       0.417000       1.00800           0
     76641 W2       26993    TIP3     H2       HT       0.417000       1.00800           0
     76642 W2       26994    TIP3     OH2      OT      -0.834000       15.9994           0
     76643 W2       26994    TIP3     H1       HT       0.417000       1.00800           0
     76644 W2       26994    TIP3     H2       HT       0.417000       1.00800           0
     76645 W2       26995    TIP3     OH2      OT      -0.834000       15.9994           0
     76646 W2       26995    TIP3     H1       HT       0.417000       1.00800           0
     76647 W2       26995    TIP3     H2       HT       0.417000       1.00800           0
     76648 W2       26998    TIP3     OH2      OT      -0.834000       15.9994           0
     76649 W2       26998    TIP3     H1       HT       0.417000       1.00800           0
     76650 W2       26998    TIP3     H2       HT       0.417000       1.00800           0
     76651 W2       26999    TIP3     OH2      OT      -0.834000       15.9994           0
     76652 W2       26999    TIP3     H1       HT       0.417000       1.00800           0
     76653 W2       26999    TIP3     H2       HT       0.417000       1.00800           0
     76654 W2       27000    TIP3     OH2      OT      -0.834000       15.9994           0
     76655 W2       27000    TIP3     H1       HT       0.417000       1.00800           0
     76656 W2       27000    TIP3     H2       HT       0.417000       1.00800           0
     76657 W2       27001    TIP3     OH2      OT      -0.834000       15.9994           0
     76658 W2       27001    TIP3     H1       HT       0.417000       1.00800           0
     76659 W2       27001    TIP3     H2       HT       0.417000       1.00800           0
     76660 W2       27004    TIP3     OH2      OT      -0.834000       15.9994           0
     76661 W2       27004    TIP3     H1       HT       0.417000       1.00800           0
     76662 W2       27004    TIP3     H2       HT       0.417000       1.00800           0
     76663 W2       27007    TIP3     OH2      OT      -0.834000       15.9994           0
     76664 W2       27007    TIP3     H1       HT       0.417000       1.00800           0
     76665 W2       27007    TIP3     H2       HT       0.417000       1.00800           0
     76666 W2       27008    TIP3     OH2      OT      -0.834000       15.9994           0
     76667 W2       27008    TIP3     H1       HT       0.417000       1.00800           0
     76668 W2       27008    TIP3     H2       HT       0.417000       1.00800           0
     76669 W2       27009    TIP3     OH2      OT      -0.834000       15.9994           0
     76670 W2       27009    TIP3     H1       HT       0.417000       1.00800           0
     76671 W2       27009    TIP3     H2       HT       0.417000       1.00800           0
     76672 W2       27010    TIP3     OH2      OT      -0.834000       15.9994           0
     76673 W2       27010    TIP3     H1       HT       0.417000       1.00800           0
     76674 W2       27010    TIP3     H2       HT       0.417000       1.00800           0
     76675 W2       27011    TIP3     OH2      OT      -0.834000       15.9994           0
     76676 W2       27011    TIP3     H1       HT       0.417000       1.00800           0
     76677 W2       27011    TIP3     H2       HT       0.417000       1.00800           0
     76678 W2       27013    TIP3     OH2      OT      -0.834000       15.9994           0
     76679 W2       27013    TIP3     H1       HT       0.417000       1.00800           0
     76680 W2       27013    TIP3     H2       HT       0.417000       1.00800           0
     76681 W2       27014    TIP3     OH2      OT      -0.834000       15.9994           0
     76682 W2       27014    TIP3     H1       HT       0.417000       1.00800           0
     76683 W2       27014    TIP3     H2       HT       0.417000       1.00800           0
     76684 W2       27015    TIP3     OH2      OT      -0.834000       15.9994           0
     76685 W2       27015    TIP3     H1       HT       0.417000       1.00800           0
     76686 W2       27015    TIP3     H2       HT       0.417000       1.00800           0
     76687 W2       27016    TIP3     OH2      OT      -0.834000       15.9994           0
     76688 W2       27016    TIP3     H1       HT       0.417000       1.00800           0
     76689 W2       27016    TIP3     H2       HT       0.417000       1.00800           0
     76690 W2       27017    TIP3     OH2      OT      -0.834000       15.9994           0
     76691 W2       27017    TIP3     H1       HT       0.417000       1.00800           0
     76692 W2       27017    TIP3     H2       HT       0.417000       1.00800           0
     76693 W2       27018    TIP3     OH2      OT      -0.834000       15.9994           0
     76694 W2       27018    TIP3     H1       HT       0.417000       1.00800           0
     76695 W2       27018    TIP3     H2       HT       0.417000       1.00800           0
     76696 W2       27019    TIP3     OH2      OT      -0.834000       15.9994           0
     76697 W2       27019    TIP3     H1       HT       0.417000       1.00800           0
     76698 W2       27019    TIP3     H2       HT       0.417000       1.00800           0
     76699 W2       27020    TIP3     OH2      OT      -0.834000       15.9994           0
     76700 W2       27020    TIP3     H1       HT       0.417000       1.00800           0
     76701 W2       27020    TIP3     H2       HT       0.417000       1.00800           0
     76702 W2       27021    TIP3     OH2      OT      -0.834000       15.9994           0
     76703 W2       27021    TIP3     H1       HT       0.417000       1.00800           0
     76704 W2       27021    TIP3     H2       HT       0.417000       1.00800           0
     76705 W2       27022    TIP3     OH2      OT      -0.834000       15.9994           0
     76706 W2       27022    TIP3     H1       HT       0.417000       1.00800           0
     76707 W2       27022    TIP3     H2       HT       0.417000       1.00800           0
     76708 W2       27023    TIP3     OH2      OT      -0.834000       15.9994           0
     76709 W2       27023    TIP3     H1       HT       0.417000       1.00800           0
     76710 W2       27023    TIP3     H2       HT       0.417000       1.00800           0
     76711 W2       27026    TIP3     OH2      OT      -0.834000       15.9994           0
     76712 W2       27026    TIP3     H1       HT       0.417000       1.00800           0
     76713 W2       27026    TIP3     H2       HT       0.417000       1.00800           0
     76714 W2       27027    TIP3     OH2      OT      -0.834000       15.9994           0
     76715 W2       27027    TIP3     H1       HT       0.417000       1.00800           0
     76716 W2       27027    TIP3     H2       HT       0.417000       1.00800           0
     76717 W2       27028    TIP3     OH2      OT      -0.834000       15.9994           0
     76718 W2       27028    TIP3     H1       HT       0.417000       1.00800           0
     76719 W2       27028    TIP3     H2       HT       0.417000       1.00800           0
     76720 W2       27029    TIP3     OH2      OT      -0.834000       15.9994           0
     76721 W2       27029    TIP3     H1       HT       0.417000       1.00800           0
     76722 W2       27029    TIP3     H2       HT       0.417000       1.00800           0
     76723 W2       27030    TIP3     OH2      OT      -0.834000       15.9994           0
     76724 W2       27030    TIP3     H1       HT       0.417000       1.00800           0
     76725 W2       27030    TIP3     H2       HT       0.417000       1.00800           0
     76726 W2       27031    TIP3     OH2      OT      -0.834000       15.9994           0
     76727 W2       27031    TIP3     H1       HT       0.417000       1.00800           0
     76728 W2       27031    TIP3     H2       HT       0.417000       1.00800           0
     76729 W2       27033    TIP3     OH2      OT      -0.834000       15.9994           0
     76730 W2       27033    TIP3     H1       HT       0.417000       1.00800           0
     76731 W2       27033    TIP3     H2       HT       0.417000       1.00800           0
     76732 W2       27034    TIP3     OH2      OT      -0.834000       15.9994           0
     76733 W2       27034    TIP3     H1       HT       0.417000       1.00800           0
     76734 W2       27034    TIP3     H2       HT       0.417000       1.00800           0
     76735 W2       27035    TIP3     OH2      OT      -0.834000       15.9994           0
     76736 W2       27035    TIP3     H1       HT       0.417000       1.00800           0
     76737 W2       27035    TIP3     H2       HT       0.417000       1.00800           0
     76738 W2       27039    TIP3     OH2      OT      -0.834000       15.9994           0
     76739 W2       27039    TIP3     H1       HT       0.417000       1.00800           0
     76740 W2       27039    TIP3     H2       HT       0.417000       1.00800           0
     76741 W2       27041    TIP3     OH2      OT      -0.834000       15.9994           0
     76742 W2       27041    TIP3     H1       HT       0.417000       1.00800           0
     76743 W2       27041    TIP3     H2       HT       0.417000       1.00800           0
     76744 W2       27042    TIP3     OH2      OT      -0.834000       15.9994           0
     76745 W2       27042    TIP3     H1       HT       0.417000       1.00800           0
     76746 W2       27042    TIP3     H2       HT       0.417000       1.00800           0
     76747 W2       27043    TIP3     OH2      OT      -0.834000       15.9994           0
     76748 W2       27043    TIP3     H1       HT       0.417000       1.00800           0
     76749 W2       27043    TIP3     H2       HT       0.417000       1.00800           0
     76750 W2       27044    TIP3     OH2      OT      -0.834000       15.9994           0
     76751 W2       27044    TIP3     H1       HT       0.417000       1.00800           0
     76752 W2       27044    TIP3     H2       HT       0.417000       1.00800           0
     76753 W2       27045    TIP3     OH2      OT      -0.834000       15.9994           0
     76754 W2       27045    TIP3     H1       HT       0.417000       1.00800           0
     76755 W2       27045    TIP3     H2       HT       0.417000       1.00800           0
     76756 W2       27046    TIP3     OH2      OT      -0.834000       15.9994           0
     76757 W2       27046    TIP3     H1       HT       0.417000       1.00800           0
     76758 W2       27046    TIP3     H2       HT       0.417000       1.00800           0
     76759 W2       27047    TIP3     OH2      OT      -0.834000       15.9994           0
     76760 W2       27047    TIP3     H1       HT       0.417000       1.00800           0
     76761 W2       27047    TIP3     H2       HT       0.417000       1.00800           0
     76762 W2       27048    TIP3     OH2      OT      -0.834000       15.9994           0
     76763 W2       27048    TIP3     H1       HT       0.417000       1.00800           0
     76764 W2       27048    TIP3     H2       HT       0.417000       1.00800           0
     76765 W2       27049    TIP3     OH2      OT      -0.834000       15.9994           0
     76766 W2       27049    TIP3     H1       HT       0.417000       1.00800           0
     76767 W2       27049    TIP3     H2       HT       0.417000       1.00800           0
     76768 W2       27051    TIP3     OH2      OT      -0.834000       15.9994           0
     76769 W2       27051    TIP3     H1       HT       0.417000       1.00800           0
     76770 W2       27051    TIP3     H2       HT       0.417000       1.00800           0
     76771 W2       27053    TIP3     OH2      OT      -0.834000       15.9994           0
     76772 W2       27053    TIP3     H1       HT       0.417000       1.00800           0
     76773 W2       27053    TIP3     H2       HT       0.417000       1.00800           0
     76774 W2       27054    TIP3     OH2      OT      -0.834000       15.9994           0
     76775 W2       27054    TIP3     H1       HT       0.417000       1.00800           0
     76776 W2       27054    TIP3     H2       HT       0.417000       1.00800           0
     76777 W2       27055    TIP3     OH2      OT      -0.834000       15.9994           0
     76778 W2       27055    TIP3     H1       HT       0.417000       1.00800           0
     76779 W2       27055    TIP3     H2       HT       0.417000       1.00800           0
     76780 W2       27056    TIP3     OH2      OT      -0.834000       15.9994           0
     76781 W2       27056    TIP3     H1       HT       0.417000       1.00800           0
     76782 W2       27056    TIP3     H2       HT       0.417000       1.00800           0
     76783 W2       27057    TIP3     OH2      OT      -0.834000       15.9994           0
     76784 W2       27057    TIP3     H1       HT       0.417000       1.00800           0
     76785 W2       27057    TIP3     H2       HT       0.417000       1.00800           0
     76786 W2       27058    TIP3     OH2      OT      -0.834000       15.9994           0
     76787 W2       27058    TIP3     H1       HT       0.417000       1.00800           0
     76788 W2       27058    TIP3     H2       HT       0.417000       1.00800           0
     76789 W2       27059    TIP3     OH2      OT      -0.834000       15.9994           0
     76790 W2       27059    TIP3     H1       HT       0.417000       1.00800           0
     76791 W2       27059    TIP3     H2       HT       0.417000       1.00800           0
     76792 W2       27060    TIP3     OH2      OT      -0.834000       15.9994           0
     76793 W2       27060    TIP3     H1       HT       0.417000       1.00800           0
     76794 W2       27060    TIP3     H2       HT       0.417000       1.00800           0
     76795 W2       27061    TIP3     OH2      OT      -0.834000       15.9994           0
     76796 W2       27061    TIP3     H1       HT       0.417000       1.00800           0
     76797 W2       27061    TIP3     H2       HT       0.417000       1.00800           0
     76798 W2       27063    TIP3     OH2      OT      -0.834000       15.9994           0
     76799 W2       27063    TIP3     H1       HT       0.417000       1.00800           0
     76800 W2       27063    TIP3     H2       HT       0.417000       1.00800           0
     76801 W2       27064    TIP3     OH2      OT      -0.834000       15.9994           0
     76802 W2       27064    TIP3     H1       HT       0.417000       1.00800           0
     76803 W2       27064    TIP3     H2       HT       0.417000       1.00800           0
     76804 W2       27065    TIP3     OH2      OT      -0.834000       15.9994           0
     76805 W2       27065    TIP3     H1       HT       0.417000       1.00800           0
     76806 W2       27065    TIP3     H2       HT       0.417000       1.00800           0
     76807 W2       27067    TIP3     OH2      OT      -0.834000       15.9994           0
     76808 W2       27067    TIP3     H1       HT       0.417000       1.00800           0
     76809 W2       27067    TIP3     H2       HT       0.417000       1.00800           0
     76810 W2       27068    TIP3     OH2      OT      -0.834000       15.9994           0
     76811 W2       27068    TIP3     H1       HT       0.417000       1.00800           0
     76812 W2       27068    TIP3     H2       HT       0.417000       1.00800           0
     76813 W2       27069    TIP3     OH2      OT      -0.834000       15.9994           0
     76814 W2       27069    TIP3     H1       HT       0.417000       1.00800           0
     76815 W2       27069    TIP3     H2       HT       0.417000       1.00800           0
     76816 W2       27070    TIP3     OH2      OT      -0.834000       15.9994           0
     76817 W2       27070    TIP3     H1       HT       0.417000       1.00800           0
     76818 W2       27070    TIP3     H2       HT       0.417000       1.00800           0
     76819 W2       27071    TIP3     OH2      OT      -0.834000       15.9994           0
     76820 W2       27071    TIP3     H1       HT       0.417000       1.00800           0
     76821 W2       27071    TIP3     H2       HT       0.417000       1.00800           0
     76822 W2       27072    TIP3     OH2      OT      -0.834000       15.9994           0
     76823 W2       27072    TIP3     H1       HT       0.417000       1.00800           0
     76824 W2       27072    TIP3     H2       HT       0.417000       1.00800           0
     76825 W2       27075    TIP3     OH2      OT      -0.834000       15.9994           0
     76826 W2       27075    TIP3     H1       HT       0.417000       1.00800           0
     76827 W2       27075    TIP3     H2       HT       0.417000       1.00800           0
     76828 W2       27077    TIP3     OH2      OT      -0.834000       15.9994           0
     76829 W2       27077    TIP3     H1       HT       0.417000       1.00800           0
     76830 W2       27077    TIP3     H2       HT       0.417000       1.00800           0
     76831 W2       27079    TIP3     OH2      OT      -0.834000       15.9994           0
     76832 W2       27079    TIP3     H1       HT       0.417000       1.00800           0
     76833 W2       27079    TIP3     H2       HT       0.417000       1.00800           0
     76834 W2       27081    TIP3     OH2      OT      -0.834000       15.9994           0
     76835 W2       27081    TIP3     H1       HT       0.417000       1.00800           0
     76836 W2       27081    TIP3     H2       HT       0.417000       1.00800           0
     76837 W2       27084    TIP3     OH2      OT      -0.834000       15.9994           0
     76838 W2       27084    TIP3     H1       HT       0.417000       1.00800           0
     76839 W2       27084    TIP3     H2       HT       0.417000       1.00800           0
     76840 W2       27086    TIP3     OH2      OT      -0.834000       15.9994           0
     76841 W2       27086    TIP3     H1       HT       0.417000       1.00800           0
     76842 W2       27086    TIP3     H2       HT       0.417000       1.00800           0
     76843 W2       27088    TIP3     OH2      OT      -0.834000       15.9994           0
     76844 W2       27088    TIP3     H1       HT       0.417000       1.00800           0
     76845 W2       27088    TIP3     H2       HT       0.417000       1.00800           0
     76846 W2       27090    TIP3     OH2      OT      -0.834000       15.9994           0
     76847 W2       27090    TIP3     H1       HT       0.417000       1.00800           0
     76848 W2       27090    TIP3     H2       HT       0.417000       1.00800           0
     76849 W2       27102    TIP3     OH2      OT      -0.834000       15.9994           0
     76850 W2       27102    TIP3     H1       HT       0.417000       1.00800           0
     76851 W2       27102    TIP3     H2       HT       0.417000       1.00800           0
     76852 W2       27103    TIP3     OH2      OT      -0.834000       15.9994           0
     76853 W2       27103    TIP3     H1       HT       0.417000       1.00800           0
     76854 W2       27103    TIP3     H2       HT       0.417000       1.00800           0
     76855 W2       27104    TIP3     OH2      OT      -0.834000       15.9994           0
     76856 W2       27104    TIP3     H1       HT       0.417000       1.00800           0
     76857 W2       27104    TIP3     H2       HT       0.417000       1.00800           0
     76858 W2       27105    TIP3     OH2      OT      -0.834000       15.9994           0
     76859 W2       27105    TIP3     H1       HT       0.417000       1.00800           0
     76860 W2       27105    TIP3     H2       HT       0.417000       1.00800           0
     76861 W2       27106    TIP3     OH2      OT      -0.834000       15.9994           0
     76862 W2       27106    TIP3     H1       HT       0.417000       1.00800           0
     76863 W2       27106    TIP3     H2       HT       0.417000       1.00800           0
     76864 W2       27109    TIP3     OH2      OT      -0.834000       15.9994           0
     76865 W2       27109    TIP3     H1       HT       0.417000       1.00800           0
     76866 W2       27109    TIP3     H2       HT       0.417000       1.00800           0
     76867 W2       27110    TIP3     OH2      OT      -0.834000       15.9994           0
     76868 W2       27110    TIP3     H1       HT       0.417000       1.00800           0
     76869 W2       27110    TIP3     H2       HT       0.417000       1.00800           0
     76870 W2       27111    TIP3     OH2      OT      -0.834000       15.9994           0
     76871 W2       27111    TIP3     H1       HT       0.417000       1.00800           0
     76872 W2       27111    TIP3     H2       HT       0.417000       1.00800           0
     76873 W2       27112    TIP3     OH2      OT      -0.834000       15.9994           0
     76874 W2       27112    TIP3     H1       HT       0.417000       1.00800           0
     76875 W2       27112    TIP3     H2       HT       0.417000       1.00800           0
     76876 W2       27113    TIP3     OH2      OT      -0.834000       15.9994           0
     76877 W2       27113    TIP3     H1       HT       0.417000       1.00800           0
     76878 W2       27113    TIP3     H2       HT       0.417000       1.00800           0
     76879 W2       27114    TIP3     OH2      OT      -0.834000       15.9994           0
     76880 W2       27114    TIP3     H1       HT       0.417000       1.00800           0
     76881 W2       27114    TIP3     H2       HT       0.417000       1.00800           0
     76882 W2       27115    TIP3     OH2      OT      -0.834000       15.9994           0
     76883 W2       27115    TIP3     H1       HT       0.417000       1.00800           0
     76884 W2       27115    TIP3     H2       HT       0.417000       1.00800           0
     76885 W2       27116    TIP3     OH2      OT      -0.834000       15.9994           0
     76886 W2       27116    TIP3     H1       HT       0.417000       1.00800           0
     76887 W2       27116    TIP3     H2       HT       0.417000       1.00800           0
     76888 W2       27119    TIP3     OH2      OT      -0.834000       15.9994           0
     76889 W2       27119    TIP3     H1       HT       0.417000       1.00800           0
     76890 W2       27119    TIP3     H2       HT       0.417000       1.00800           0
     76891 W2       27120    TIP3     OH2      OT      -0.834000       15.9994           0
     76892 W2       27120    TIP3     H1       HT       0.417000       1.00800           0
     76893 W2       27120    TIP3     H2       HT       0.417000       1.00800           0
     76894 W2       27121    TIP3     OH2      OT      -0.834000       15.9994           0
     76895 W2       27121    TIP3     H1       HT       0.417000       1.00800           0
     76896 W2       27121    TIP3     H2       HT       0.417000       1.00800           0
     76897 W2       27122    TIP3     OH2      OT      -0.834000       15.9994           0
     76898 W2       27122    TIP3     H1       HT       0.417000       1.00800           0
     76899 W2       27122    TIP3     H2       HT       0.417000       1.00800           0
     76900 W2       27125    TIP3     OH2      OT      -0.834000       15.9994           0
     76901 W2       27125    TIP3     H1       HT       0.417000       1.00800           0
     76902 W2       27125    TIP3     H2       HT       0.417000       1.00800           0
     76903 W2       27126    TIP3     OH2      OT      -0.834000       15.9994           0
     76904 W2       27126    TIP3     H1       HT       0.417000       1.00800           0
     76905 W2       27126    TIP3     H2       HT       0.417000       1.00800           0
     76906 W2       27127    TIP3     OH2      OT      -0.834000       15.9994           0
     76907 W2       27127    TIP3     H1       HT       0.417000       1.00800           0
     76908 W2       27127    TIP3     H2       HT       0.417000       1.00800           0
     76909 W2       27129    TIP3     OH2      OT      -0.834000       15.9994           0
     76910 W2       27129    TIP3     H1       HT       0.417000       1.00800           0
     76911 W2       27129    TIP3     H2       HT       0.417000       1.00800           0
     76912 W2       27130    TIP3     OH2      OT      -0.834000       15.9994           0
     76913 W2       27130    TIP3     H1       HT       0.417000       1.00800           0
     76914 W2       27130    TIP3     H2       HT       0.417000       1.00800           0
     76915 W2       27131    TIP3     OH2      OT      -0.834000       15.9994           0
     76916 W2       27131    TIP3     H1       HT       0.417000       1.00800           0
     76917 W2       27131    TIP3     H2       HT       0.417000       1.00800           0
     76918 W2       27132    TIP3     OH2      OT      -0.834000       15.9994           0
     76919 W2       27132    TIP3     H1       HT       0.417000       1.00800           0
     76920 W2       27132    TIP3     H2       HT       0.417000       1.00800           0
     76921 W2       27134    TIP3     OH2      OT      -0.834000       15.9994           0
     76922 W2       27134    TIP3     H1       HT       0.417000       1.00800           0
     76923 W2       27134    TIP3     H2       HT       0.417000       1.00800           0
     76924 W2       27138    TIP3     OH2      OT      -0.834000       15.9994           0
     76925 W2       27138    TIP3     H1       HT       0.417000       1.00800           0
     76926 W2       27138    TIP3     H2       HT       0.417000       1.00800           0
     76927 W2       27139    TIP3     OH2      OT      -0.834000       15.9994           0
     76928 W2       27139    TIP3     H1       HT       0.417000       1.00800           0
     76929 W2       27139    TIP3     H2       HT       0.417000       1.00800           0
     76930 W2       27140    TIP3     OH2      OT      -0.834000       15.9994           0
     76931 W2       27140    TIP3     H1       HT       0.417000       1.00800           0
     76932 W2       27140    TIP3     H2       HT       0.417000       1.00800           0
     76933 W2       27141    TIP3     OH2      OT      -0.834000       15.9994           0
     76934 W2       27141    TIP3     H1       HT       0.417000       1.00800           0
     76935 W2       27141    TIP3     H2       HT       0.417000       1.00800           0
     76936 W2       27142    TIP3     OH2      OT      -0.834000       15.9994           0
     76937 W2       27142    TIP3     H1       HT       0.417000       1.00800           0
     76938 W2       27142    TIP3     H2       HT       0.417000       1.00800           0
     76939 W2       27143    TIP3     OH2      OT      -0.834000       15.9994           0
     76940 W2       27143    TIP3     H1       HT       0.417000       1.00800           0
     76941 W2       27143    TIP3     H2       HT       0.417000       1.00800           0
     76942 W2       27144    TIP3     OH2      OT      -0.834000       15.9994           0
     76943 W2       27144    TIP3     H1       HT       0.417000       1.00800           0
     76944 W2       27144    TIP3     H2       HT       0.417000       1.00800           0
     76945 W2       27145    TIP3     OH2      OT      -0.834000       15.9994           0
     76946 W2       27145    TIP3     H1       HT       0.417000       1.00800           0
     76947 W2       27145    TIP3     H2       HT       0.417000       1.00800           0
     76948 W2       27146    TIP3     OH2      OT      -0.834000       15.9994           0
     76949 W2       27146    TIP3     H1       HT       0.417000       1.00800           0
     76950 W2       27146    TIP3     H2       HT       0.417000       1.00800           0
     76951 W2       27147    TIP3     OH2      OT      -0.834000       15.9994           0
     76952 W2       27147    TIP3     H1       HT       0.417000       1.00800           0
     76953 W2       27147    TIP3     H2       HT       0.417000       1.00800           0
     76954 W2       27148    TIP3     OH2      OT      -0.834000       15.9994           0
     76955 W2       27148    TIP3     H1       HT       0.417000       1.00800           0
     76956 W2       27148    TIP3     H2       HT       0.417000       1.00800           0
     76957 W2       27149    TIP3     OH2      OT      -0.834000       15.9994           0
     76958 W2       27149    TIP3     H1       HT       0.417000       1.00800           0
     76959 W2       27149    TIP3     H2       HT       0.417000       1.00800           0
     76960 W2       27150    TIP3     OH2      OT      -0.834000       15.9994           0
     76961 W2       27150    TIP3     H1       HT       0.417000       1.00800           0
     76962 W2       27150    TIP3     H2       HT       0.417000       1.00800           0
     76963 W2       27151    TIP3     OH2      OT      -0.834000       15.9994           0
     76964 W2       27151    TIP3     H1       HT       0.417000       1.00800           0
     76965 W2       27151    TIP3     H2       HT       0.417000       1.00800           0
     76966 W2       27152    TIP3     OH2      OT      -0.834000       15.9994           0
     76967 W2       27152    TIP3     H1       HT       0.417000       1.00800           0
     76968 W2       27152    TIP3     H2       HT       0.417000       1.00800           0
     76969 W2       27153    TIP3     OH2      OT      -0.834000       15.9994           0
     76970 W2       27153    TIP3     H1       HT       0.417000       1.00800           0
     76971 W2       27153    TIP3     H2       HT       0.417000       1.00800           0
     76972 W2       27154    TIP3     OH2      OT      -0.834000       15.9994           0
     76973 W2       27154    TIP3     H1       HT       0.417000       1.00800           0
     76974 W2       27154    TIP3     H2       HT       0.417000       1.00800           0
     76975 W2       27155    TIP3     OH2      OT      -0.834000       15.9994           0
     76976 W2       27155    TIP3     H1       HT       0.417000       1.00800           0
     76977 W2       27155    TIP3     H2       HT       0.417000       1.00800           0
     76978 W2       27156    TIP3     OH2      OT      -0.834000       15.9994           0
     76979 W2       27156    TIP3     H1       HT       0.417000       1.00800           0
     76980 W2       27156    TIP3     H2       HT       0.417000       1.00800           0
     76981 W2       27157    TIP3     OH2      OT      -0.834000       15.9994           0
     76982 W2       27157    TIP3     H1       HT       0.417000       1.00800           0
     76983 W2       27157    TIP3     H2       HT       0.417000       1.00800           0
     76984 W2       27158    TIP3     OH2      OT      -0.834000       15.9994           0
     76985 W2       27158    TIP3     H1       HT       0.417000       1.00800           0
     76986 W2       27158    TIP3     H2       HT       0.417000       1.00800           0
     76987 W2       27161    TIP3     OH2      OT      -0.834000       15.9994           0
     76988 W2       27161    TIP3     H1       HT       0.417000       1.00800           0
     76989 W2       27161    TIP3     H2       HT       0.417000       1.00800           0
     76990 W2       27164    TIP3     OH2      OT      -0.834000       15.9994           0
     76991 W2       27164    TIP3     H1       HT       0.417000       1.00800           0
     76992 W2       27164    TIP3     H2       HT       0.417000       1.00800           0
     76993 W2       27165    TIP3     OH2      OT      -0.834000       15.9994           0
     76994 W2       27165    TIP3     H1       HT       0.417000       1.00800           0
     76995 W2       27165    TIP3     H2       HT       0.417000       1.00800           0
     76996 W2       27166    TIP3     OH2      OT      -0.834000       15.9994           0
     76997 W2       27166    TIP3     H1       HT       0.417000       1.00800           0
     76998 W2       27166    TIP3     H2       HT       0.417000       1.00800           0
     76999 W2       27167    TIP3     OH2      OT      -0.834000       15.9994           0
     77000 W2       27167    TIP3     H1       HT       0.417000       1.00800           0
     77001 W2       27167    TIP3     H2       HT       0.417000       1.00800           0
     77002 W2       27168    TIP3     OH2      OT      -0.834000       15.9994           0
     77003 W2       27168    TIP3     H1       HT       0.417000       1.00800           0
     77004 W2       27168    TIP3     H2       HT       0.417000       1.00800           0
     77005 W2       27169    TIP3     OH2      OT      -0.834000       15.9994           0
     77006 W2       27169    TIP3     H1       HT       0.417000       1.00800           0
     77007 W2       27169    TIP3     H2       HT       0.417000       1.00800           0
     77008 W2       27170    TIP3     OH2      OT      -0.834000       15.9994           0
     77009 W2       27170    TIP3     H1       HT       0.417000       1.00800           0
     77010 W2       27170    TIP3     H2       HT       0.417000       1.00800           0
     77011 W2       27171    TIP3     OH2      OT      -0.834000       15.9994           0
     77012 W2       27171    TIP3     H1       HT       0.417000       1.00800           0
     77013 W2       27171    TIP3     H2       HT       0.417000       1.00800           0
     77014 W2       27172    TIP3     OH2      OT      -0.834000       15.9994           0
     77015 W2       27172    TIP3     H1       HT       0.417000       1.00800           0
     77016 W2       27172    TIP3     H2       HT       0.417000       1.00800           0
     77017 W2       27173    TIP3     OH2      OT      -0.834000       15.9994           0
     77018 W2       27173    TIP3     H1       HT       0.417000       1.00800           0
     77019 W2       27173    TIP3     H2       HT       0.417000       1.00800           0
     77020 W2       27174    TIP3     OH2      OT      -0.834000       15.9994           0
     77021 W2       27174    TIP3     H1       HT       0.417000       1.00800           0
     77022 W2       27174    TIP3     H2       HT       0.417000       1.00800           0
     77023 W2       27175    TIP3     OH2      OT      -0.834000       15.9994           0
     77024 W2       27175    TIP3     H1       HT       0.417000       1.00800           0
     77025 W2       27175    TIP3     H2       HT       0.417000       1.00800           0
     77026 W2       27176    TIP3     OH2      OT      -0.834000       15.9994           0
     77027 W2       27176    TIP3     H1       HT       0.417000       1.00800           0
     77028 W2       27176    TIP3     H2       HT       0.417000       1.00800           0
     77029 W2       27177    TIP3     OH2      OT      -0.834000       15.9994           0
     77030 W2       27177    TIP3     H1       HT       0.417000       1.00800           0
     77031 W2       27177    TIP3     H2       HT       0.417000       1.00800           0
     77032 W2       27178    TIP3     OH2      OT      -0.834000       15.9994           0
     77033 W2       27178    TIP3     H1       HT       0.417000       1.00800           0
     77034 W2       27178    TIP3     H2       HT       0.417000       1.00800           0
     77035 W2       27180    TIP3     OH2      OT      -0.834000       15.9994           0
     77036 W2       27180    TIP3     H1       HT       0.417000       1.00800           0
     77037 W2       27180    TIP3     H2       HT       0.417000       1.00800           0
     77038 W2       27181    TIP3     OH2      OT      -0.834000       15.9994           0
     77039 W2       27181    TIP3     H1       HT       0.417000       1.00800           0
     77040 W2       27181    TIP3     H2       HT       0.417000       1.00800           0
     77041 W2       27182    TIP3     OH2      OT      -0.834000       15.9994           0
     77042 W2       27182    TIP3     H1       HT       0.417000       1.00800           0
     77043 W2       27182    TIP3     H2       HT       0.417000       1.00800           0
     77044 W2       27183    TIP3     OH2      OT      -0.834000       15.9994           0
     77045 W2       27183    TIP3     H1       HT       0.417000       1.00800           0
     77046 W2       27183    TIP3     H2       HT       0.417000       1.00800           0
     77047 W2       27184    TIP3     OH2      OT      -0.834000       15.9994           0
     77048 W2       27184    TIP3     H1       HT       0.417000       1.00800           0
     77049 W2       27184    TIP3     H2       HT       0.417000       1.00800           0
     77050 W2       27185    TIP3     OH2      OT      -0.834000       15.9994           0
     77051 W2       27185    TIP3     H1       HT       0.417000       1.00800           0
     77052 W2       27185    TIP3     H2       HT       0.417000       1.00800           0
     77053 W2       27186    TIP3     OH2      OT      -0.834000       15.9994           0
     77054 W2       27186    TIP3     H1       HT       0.417000       1.00800           0
     77055 W2       27186    TIP3     H2       HT       0.417000       1.00800           0
     77056 W2       27187    TIP3     OH2      OT      -0.834000       15.9994           0
     77057 W2       27187    TIP3     H1       HT       0.417000       1.00800           0
     77058 W2       27187    TIP3     H2       HT       0.417000       1.00800           0
     77059 W2       27188    TIP3     OH2      OT      -0.834000       15.9994           0
     77060 W2       27188    TIP3     H1       HT       0.417000       1.00800           0
     77061 W2       27188    TIP3     H2       HT       0.417000       1.00800           0
     77062 W2       27189    TIP3     OH2      OT      -0.834000       15.9994           0
     77063 W2       27189    TIP3     H1       HT       0.417000       1.00800           0
     77064 W2       27189    TIP3     H2       HT       0.417000       1.00800           0
     77065 W2       27190    TIP3     OH2      OT      -0.834000       15.9994           0
     77066 W2       27190    TIP3     H1       HT       0.417000       1.00800           0
     77067 W2       27190    TIP3     H2       HT       0.417000       1.00800           0
     77068 W2       27191    TIP3     OH2      OT      -0.834000       15.9994           0
     77069 W2       27191    TIP3     H1       HT       0.417000       1.00800           0
     77070 W2       27191    TIP3     H2       HT       0.417000       1.00800           0
     77071 W2       27193    TIP3     OH2      OT      -0.834000       15.9994           0
     77072 W2       27193    TIP3     H1       HT       0.417000       1.00800           0
     77073 W2       27193    TIP3     H2       HT       0.417000       1.00800           0
     77074 W2       27194    TIP3     OH2      OT      -0.834000       15.9994           0
     77075 W2       27194    TIP3     H1       HT       0.417000       1.00800           0
     77076 W2       27194    TIP3     H2       HT       0.417000       1.00800           0
     77077 W2       27195    TIP3     OH2      OT      -0.834000       15.9994           0
     77078 W2       27195    TIP3     H1       HT       0.417000       1.00800           0
     77079 W2       27195    TIP3     H2       HT       0.417000       1.00800           0
     77080 W2       27196    TIP3     OH2      OT      -0.834000       15.9994           0
     77081 W2       27196    TIP3     H1       HT       0.417000       1.00800           0
     77082 W2       27196    TIP3     H2       HT       0.417000       1.00800           0
     77083 W2       27198    TIP3     OH2      OT      -0.834000       15.9994           0
     77084 W2       27198    TIP3     H1       HT       0.417000       1.00800           0
     77085 W2       27198    TIP3     H2       HT       0.417000       1.00800           0
     77086 W2       27199    TIP3     OH2      OT      -0.834000       15.9994           0
     77087 W2       27199    TIP3     H1       HT       0.417000       1.00800           0
     77088 W2       27199    TIP3     H2       HT       0.417000       1.00800           0
     77089 W2       27200    TIP3     OH2      OT      -0.834000       15.9994           0
     77090 W2       27200    TIP3     H1       HT       0.417000       1.00800           0
     77091 W2       27200    TIP3     H2       HT       0.417000       1.00800           0
     77092 W2       27201    TIP3     OH2      OT      -0.834000       15.9994           0
     77093 W2       27201    TIP3     H1       HT       0.417000       1.00800           0
     77094 W2       27201    TIP3     H2       HT       0.417000       1.00800           0
     77095 W2       27203    TIP3     OH2      OT      -0.834000       15.9994           0
     77096 W2       27203    TIP3     H1       HT       0.417000       1.00800           0
     77097 W2       27203    TIP3     H2       HT       0.417000       1.00800           0
     77098 W2       27205    TIP3     OH2      OT      -0.834000       15.9994           0
     77099 W2       27205    TIP3     H1       HT       0.417000       1.00800           0
     77100 W2       27205    TIP3     H2       HT       0.417000       1.00800           0
     77101 W2       27207    TIP3     OH2      OT      -0.834000       15.9994           0
     77102 W2       27207    TIP3     H1       HT       0.417000       1.00800           0
     77103 W2       27207    TIP3     H2       HT       0.417000       1.00800           0
     77104 W2       27208    TIP3     OH2      OT      -0.834000       15.9994           0
     77105 W2       27208    TIP3     H1       HT       0.417000       1.00800           0
     77106 W2       27208    TIP3     H2       HT       0.417000       1.00800           0
     77107 W2       27209    TIP3     OH2      OT      -0.834000       15.9994           0
     77108 W2       27209    TIP3     H1       HT       0.417000       1.00800           0
     77109 W2       27209    TIP3     H2       HT       0.417000       1.00800           0
     77110 W2       27210    TIP3     OH2      OT      -0.834000       15.9994           0
     77111 W2       27210    TIP3     H1       HT       0.417000       1.00800           0
     77112 W2       27210    TIP3     H2       HT       0.417000       1.00800           0
     77113 W2       27211    TIP3     OH2      OT      -0.834000       15.9994           0
     77114 W2       27211    TIP3     H1       HT       0.417000       1.00800           0
     77115 W2       27211    TIP3     H2       HT       0.417000       1.00800           0
     77116 W2       27214    TIP3     OH2      OT      -0.834000       15.9994           0
     77117 W2       27214    TIP3     H1       HT       0.417000       1.00800           0
     77118 W2       27214    TIP3     H2       HT       0.417000       1.00800           0
     77119 W2       27215    TIP3     OH2      OT      -0.834000       15.9994           0
     77120 W2       27215    TIP3     H1       HT       0.417000       1.00800           0
     77121 W2       27215    TIP3     H2       HT       0.417000       1.00800           0
     77122 W2       27216    TIP3     OH2      OT      -0.834000       15.9994           0
     77123 W2       27216    TIP3     H1       HT       0.417000       1.00800           0
     77124 W2       27216    TIP3     H2       HT       0.417000       1.00800           0
     77125 W2       27217    TIP3     OH2      OT      -0.834000       15.9994           0
     77126 W2       27217    TIP3     H1       HT       0.417000       1.00800           0
     77127 W2       27217    TIP3     H2       HT       0.417000       1.00800           0
     77128 W2       27220    TIP3     OH2      OT      -0.834000       15.9994           0
     77129 W2       27220    TIP3     H1       HT       0.417000       1.00800           0
     77130 W2       27220    TIP3     H2       HT       0.417000       1.00800           0
     77131 W2       27223    TIP3     OH2      OT      -0.834000       15.9994           0
     77132 W2       27223    TIP3     H1       HT       0.417000       1.00800           0
     77133 W2       27223    TIP3     H2       HT       0.417000       1.00800           0
     77134 W2       27224    TIP3     OH2      OT      -0.834000       15.9994           0
     77135 W2       27224    TIP3     H1       HT       0.417000       1.00800           0
     77136 W2       27224    TIP3     H2       HT       0.417000       1.00800           0
     77137 W2       27225    TIP3     OH2      OT      -0.834000       15.9994           0
     77138 W2       27225    TIP3     H1       HT       0.417000       1.00800           0
     77139 W2       27225    TIP3     H2       HT       0.417000       1.00800           0
     77140 W2       27226    TIP3     OH2      OT      -0.834000       15.9994           0
     77141 W2       27226    TIP3     H1       HT       0.417000       1.00800           0
     77142 W2       27226    TIP3     H2       HT       0.417000       1.00800           0
     77143 W2       27227    TIP3     OH2      OT      -0.834000       15.9994           0
     77144 W2       27227    TIP3     H1       HT       0.417000       1.00800           0
     77145 W2       27227    TIP3     H2       HT       0.417000       1.00800           0
     77146 W2       27229    TIP3     OH2      OT      -0.834000       15.9994           0
     77147 W2       27229    TIP3     H1       HT       0.417000       1.00800           0
     77148 W2       27229    TIP3     H2       HT       0.417000       1.00800           0
     77149 W2       27230    TIP3     OH2      OT      -0.834000       15.9994           0
     77150 W2       27230    TIP3     H1       HT       0.417000       1.00800           0
     77151 W2       27230    TIP3     H2       HT       0.417000       1.00800           0
     77152 W2       27231    TIP3     OH2      OT      -0.834000       15.9994           0
     77153 W2       27231    TIP3     H1       HT       0.417000       1.00800           0
     77154 W2       27231    TIP3     H2       HT       0.417000       1.00800           0
     77155 W2       27232    TIP3     OH2      OT      -0.834000       15.9994           0
     77156 W2       27232    TIP3     H1       HT       0.417000       1.00800           0
     77157 W2       27232    TIP3     H2       HT       0.417000       1.00800           0
     77158 W2       27233    TIP3     OH2      OT      -0.834000       15.9994           0
     77159 W2       27233    TIP3     H1       HT       0.417000       1.00800           0
     77160 W2       27233    TIP3     H2       HT       0.417000       1.00800           0
     77161 W2       27234    TIP3     OH2      OT      -0.834000       15.9994           0
     77162 W2       27234    TIP3     H1       HT       0.417000       1.00800           0
     77163 W2       27234    TIP3     H2       HT       0.417000       1.00800           0
     77164 W2       27235    TIP3     OH2      OT      -0.834000       15.9994           0
     77165 W2       27235    TIP3     H1       HT       0.417000       1.00800           0
     77166 W2       27235    TIP3     H2       HT       0.417000       1.00800           0
     77167 W2       27236    TIP3     OH2      OT      -0.834000       15.9994           0
     77168 W2       27236    TIP3     H1       HT       0.417000       1.00800           0
     77169 W2       27236    TIP3     H2       HT       0.417000       1.00800           0
     77170 W2       27237    TIP3     OH2      OT      -0.834000       15.9994           0
     77171 W2       27237    TIP3     H1       HT       0.417000       1.00800           0
     77172 W2       27237    TIP3     H2       HT       0.417000       1.00800           0
     77173 W2       27238    TIP3     OH2      OT      -0.834000       15.9994           0
     77174 W2       27238    TIP3     H1       HT       0.417000       1.00800           0
     77175 W2       27238    TIP3     H2       HT       0.417000       1.00800           0
     77176 W2       27239    TIP3     OH2      OT      -0.834000       15.9994           0
     77177 W2       27239    TIP3     H1       HT       0.417000       1.00800           0
     77178 W2       27239    TIP3     H2       HT       0.417000       1.00800           0
     77179 W2       27242    TIP3     OH2      OT      -0.834000       15.9994           0
     77180 W2       27242    TIP3     H1       HT       0.417000       1.00800           0
     77181 W2       27242    TIP3     H2       HT       0.417000       1.00800           0
     77182 W2       27243    TIP3     OH2      OT      -0.834000       15.9994           0
     77183 W2       27243    TIP3     H1       HT       0.417000       1.00800           0
     77184 W2       27243    TIP3     H2       HT       0.417000       1.00800           0
     77185 W2       27244    TIP3     OH2      OT      -0.834000       15.9994           0
     77186 W2       27244    TIP3     H1       HT       0.417000       1.00800           0
     77187 W2       27244    TIP3     H2       HT       0.417000       1.00800           0
     77188 W2       27245    TIP3     OH2      OT      -0.834000       15.9994           0
     77189 W2       27245    TIP3     H1       HT       0.417000       1.00800           0
     77190 W2       27245    TIP3     H2       HT       0.417000       1.00800           0
     77191 W2       27246    TIP3     OH2      OT      -0.834000       15.9994           0
     77192 W2       27246    TIP3     H1       HT       0.417000       1.00800           0
     77193 W2       27246    TIP3     H2       HT       0.417000       1.00800           0
     77194 W2       27247    TIP3     OH2      OT      -0.834000       15.9994           0
     77195 W2       27247    TIP3     H1       HT       0.417000       1.00800           0
     77196 W2       27247    TIP3     H2       HT       0.417000       1.00800           0
     77197 W2       27249    TIP3     OH2      OT      -0.834000       15.9994           0
     77198 W2       27249    TIP3     H1       HT       0.417000       1.00800           0
     77199 W2       27249    TIP3     H2       HT       0.417000       1.00800           0
     77200 W2       27250    TIP3     OH2      OT      -0.834000       15.9994           0
     77201 W2       27250    TIP3     H1       HT       0.417000       1.00800           0
     77202 W2       27250    TIP3     H2       HT       0.417000       1.00800           0
     77203 W2       27251    TIP3     OH2      OT      -0.834000       15.9994           0
     77204 W2       27251    TIP3     H1       HT       0.417000       1.00800           0
     77205 W2       27251    TIP3     H2       HT       0.417000       1.00800           0
     77206 W2       27255    TIP3     OH2      OT      -0.834000       15.9994           0
     77207 W2       27255    TIP3     H1       HT       0.417000       1.00800           0
     77208 W2       27255    TIP3     H2       HT       0.417000       1.00800           0
     77209 W2       27257    TIP3     OH2      OT      -0.834000       15.9994           0
     77210 W2       27257    TIP3     H1       HT       0.417000       1.00800           0
     77211 W2       27257    TIP3     H2       HT       0.417000       1.00800           0
     77212 W2       27258    TIP3     OH2      OT      -0.834000       15.9994           0
     77213 W2       27258    TIP3     H1       HT       0.417000       1.00800           0
     77214 W2       27258    TIP3     H2       HT       0.417000       1.00800           0
     77215 W2       27259    TIP3     OH2      OT      -0.834000       15.9994           0
     77216 W2       27259    TIP3     H1       HT       0.417000       1.00800           0
     77217 W2       27259    TIP3     H2       HT       0.417000       1.00800           0
     77218 W2       27260    TIP3     OH2      OT      -0.834000       15.9994           0
     77219 W2       27260    TIP3     H1       HT       0.417000       1.00800           0
     77220 W2       27260    TIP3     H2       HT       0.417000       1.00800           0
     77221 W2       27261    TIP3     OH2      OT      -0.834000       15.9994           0
     77222 W2       27261    TIP3     H1       HT       0.417000       1.00800           0
     77223 W2       27261    TIP3     H2       HT       0.417000       1.00800           0
     77224 W2       27262    TIP3     OH2      OT      -0.834000       15.9994           0
     77225 W2       27262    TIP3     H1       HT       0.417000       1.00800           0
     77226 W2       27262    TIP3     H2       HT       0.417000       1.00800           0
     77227 W2       27263    TIP3     OH2      OT      -0.834000       15.9994           0
     77228 W2       27263    TIP3     H1       HT       0.417000       1.00800           0
     77229 W2       27263    TIP3     H2       HT       0.417000       1.00800           0
     77230 W2       27264    TIP3     OH2      OT      -0.834000       15.9994           0
     77231 W2       27264    TIP3     H1       HT       0.417000       1.00800           0
     77232 W2       27264    TIP3     H2       HT       0.417000       1.00800           0
     77233 W2       27265    TIP3     OH2      OT      -0.834000       15.9994           0
     77234 W2       27265    TIP3     H1       HT       0.417000       1.00800           0
     77235 W2       27265    TIP3     H2       HT       0.417000       1.00800           0
     77236 W2       27267    TIP3     OH2      OT      -0.834000       15.9994           0
     77237 W2       27267    TIP3     H1       HT       0.417000       1.00800           0
     77238 W2       27267    TIP3     H2       HT       0.417000       1.00800           0
     77239 W2       27269    TIP3     OH2      OT      -0.834000       15.9994           0
     77240 W2       27269    TIP3     H1       HT       0.417000       1.00800           0
     77241 W2       27269    TIP3     H2       HT       0.417000       1.00800           0
     77242 W2       27270    TIP3     OH2      OT      -0.834000       15.9994           0
     77243 W2       27270    TIP3     H1       HT       0.417000       1.00800           0
     77244 W2       27270    TIP3     H2       HT       0.417000       1.00800           0
     77245 W2       27271    TIP3     OH2      OT      -0.834000       15.9994           0
     77246 W2       27271    TIP3     H1       HT       0.417000       1.00800           0
     77247 W2       27271    TIP3     H2       HT       0.417000       1.00800           0
     77248 W2       27272    TIP3     OH2      OT      -0.834000       15.9994           0
     77249 W2       27272    TIP3     H1       HT       0.417000       1.00800           0
     77250 W2       27272    TIP3     H2       HT       0.417000       1.00800           0
     77251 W2       27273    TIP3     OH2      OT      -0.834000       15.9994           0
     77252 W2       27273    TIP3     H1       HT       0.417000       1.00800           0
     77253 W2       27273    TIP3     H2       HT       0.417000       1.00800           0
     77254 W2       27274    TIP3     OH2      OT      -0.834000       15.9994           0
     77255 W2       27274    TIP3     H1       HT       0.417000       1.00800           0
     77256 W2       27274    TIP3     H2       HT       0.417000       1.00800           0
     77257 W2       27275    TIP3     OH2      OT      -0.834000       15.9994           0
     77258 W2       27275    TIP3     H1       HT       0.417000       1.00800           0
     77259 W2       27275    TIP3     H2       HT       0.417000       1.00800           0
     77260 W2       27276    TIP3     OH2      OT      -0.834000       15.9994           0
     77261 W2       27276    TIP3     H1       HT       0.417000       1.00800           0
     77262 W2       27276    TIP3     H2       HT       0.417000       1.00800           0
     77263 W2       27277    TIP3     OH2      OT      -0.834000       15.9994           0
     77264 W2       27277    TIP3     H1       HT       0.417000       1.00800           0
     77265 W2       27277    TIP3     H2       HT       0.417000       1.00800           0
     77266 W2       27279    TIP3     OH2      OT      -0.834000       15.9994           0
     77267 W2       27279    TIP3     H1       HT       0.417000       1.00800           0
     77268 W2       27279    TIP3     H2       HT       0.417000       1.00800           0
     77269 W2       27280    TIP3     OH2      OT      -0.834000       15.9994           0
     77270 W2       27280    TIP3     H1       HT       0.417000       1.00800           0
     77271 W2       27280    TIP3     H2       HT       0.417000       1.00800           0
     77272 W2       27281    TIP3     OH2      OT      -0.834000       15.9994           0
     77273 W2       27281    TIP3     H1       HT       0.417000       1.00800           0
     77274 W2       27281    TIP3     H2       HT       0.417000       1.00800           0
     77275 W2       27283    TIP3     OH2      OT      -0.834000       15.9994           0
     77276 W2       27283    TIP3     H1       HT       0.417000       1.00800           0
     77277 W2       27283    TIP3     H2       HT       0.417000       1.00800           0
     77278 W2       27284    TIP3     OH2      OT      -0.834000       15.9994           0
     77279 W2       27284    TIP3     H1       HT       0.417000       1.00800           0
     77280 W2       27284    TIP3     H2       HT       0.417000       1.00800           0
     77281 W2       27285    TIP3     OH2      OT      -0.834000       15.9994           0
     77282 W2       27285    TIP3     H1       HT       0.417000       1.00800           0
     77283 W2       27285    TIP3     H2       HT       0.417000       1.00800           0
     77284 W2       27286    TIP3     OH2      OT      -0.834000       15.9994           0
     77285 W2       27286    TIP3     H1       HT       0.417000       1.00800           0
     77286 W2       27286    TIP3     H2       HT       0.417000       1.00800           0
     77287 W2       27287    TIP3     OH2      OT      -0.834000       15.9994           0
     77288 W2       27287    TIP3     H1       HT       0.417000       1.00800           0
     77289 W2       27287    TIP3     H2       HT       0.417000       1.00800           0
     77290 W2       27288    TIP3     OH2      OT      -0.834000       15.9994           0
     77291 W2       27288    TIP3     H1       HT       0.417000       1.00800           0
     77292 W2       27288    TIP3     H2       HT       0.417000       1.00800           0
     77293 W2       27291    TIP3     OH2      OT      -0.834000       15.9994           0
     77294 W2       27291    TIP3     H1       HT       0.417000       1.00800           0
     77295 W2       27291    TIP3     H2       HT       0.417000       1.00800           0
     77296 W2       27293    TIP3     OH2      OT      -0.834000       15.9994           0
     77297 W2       27293    TIP3     H1       HT       0.417000       1.00800           0
     77298 W2       27293    TIP3     H2       HT       0.417000       1.00800           0
     77299 W2       27295    TIP3     OH2      OT      -0.834000       15.9994           0
     77300 W2       27295    TIP3     H1       HT       0.417000       1.00800           0
     77301 W2       27295    TIP3     H2       HT       0.417000       1.00800           0
     77302 W2       27297    TIP3     OH2      OT      -0.834000       15.9994           0
     77303 W2       27297    TIP3     H1       HT       0.417000       1.00800           0
     77304 W2       27297    TIP3     H2       HT       0.417000       1.00800           0
     77305 W2       27300    TIP3     OH2      OT      -0.834000       15.9994           0
     77306 W2       27300    TIP3     H1       HT       0.417000       1.00800           0
     77307 W2       27300    TIP3     H2       HT       0.417000       1.00800           0
     77308 W2       27302    TIP3     OH2      OT      -0.834000       15.9994           0
     77309 W2       27302    TIP3     H1       HT       0.417000       1.00800           0
     77310 W2       27302    TIP3     H2       HT       0.417000       1.00800           0
     77311 W2       27304    TIP3     OH2      OT      -0.834000       15.9994           0
     77312 W2       27304    TIP3     H1       HT       0.417000       1.00800           0
     77313 W2       27304    TIP3     H2       HT       0.417000       1.00800           0
     77314 W2       27306    TIP3     OH2      OT      -0.834000       15.9994           0
     77315 W2       27306    TIP3     H1       HT       0.417000       1.00800           0
     77316 W2       27306    TIP3     H2       HT       0.417000       1.00800           0
     77317 W2       27318    TIP3     OH2      OT      -0.834000       15.9994           0
     77318 W2       27318    TIP3     H1       HT       0.417000       1.00800           0
     77319 W2       27318    TIP3     H2       HT       0.417000       1.00800           0
     77320 W2       27319    TIP3     OH2      OT      -0.834000       15.9994           0
     77321 W2       27319    TIP3     H1       HT       0.417000       1.00800           0
     77322 W2       27319    TIP3     H2       HT       0.417000       1.00800           0
     77323 W2       27320    TIP3     OH2      OT      -0.834000       15.9994           0
     77324 W2       27320    TIP3     H1       HT       0.417000       1.00800           0
     77325 W2       27320    TIP3     H2       HT       0.417000       1.00800           0
     77326 W2       27321    TIP3     OH2      OT      -0.834000       15.9994           0
     77327 W2       27321    TIP3     H1       HT       0.417000       1.00800           0
     77328 W2       27321    TIP3     H2       HT       0.417000       1.00800           0
     77329 W2       27322    TIP3     OH2      OT      -0.834000       15.9994           0
     77330 W2       27322    TIP3     H1       HT       0.417000       1.00800           0
     77331 W2       27322    TIP3     H2       HT       0.417000       1.00800           0
     77332 W2       27325    TIP3     OH2      OT      -0.834000       15.9994           0
     77333 W2       27325    TIP3     H1       HT       0.417000       1.00800           0
     77334 W2       27325    TIP3     H2       HT       0.417000       1.00800           0
     77335 W2       27326    TIP3     OH2      OT      -0.834000       15.9994           0
     77336 W2       27326    TIP3     H1       HT       0.417000       1.00800           0
     77337 W2       27326    TIP3     H2       HT       0.417000       1.00800           0
     77338 W2       27327    TIP3     OH2      OT      -0.834000       15.9994           0
     77339 W2       27327    TIP3     H1       HT       0.417000       1.00800           0
     77340 W2       27327    TIP3     H2       HT       0.417000       1.00800           0
     77341 W2       27328    TIP3     OH2      OT      -0.834000       15.9994           0
     77342 W2       27328    TIP3     H1       HT       0.417000       1.00800           0
     77343 W2       27328    TIP3     H2       HT       0.417000       1.00800           0
     77344 W2       27329    TIP3     OH2      OT      -0.834000       15.9994           0
     77345 W2       27329    TIP3     H1       HT       0.417000       1.00800           0
     77346 W2       27329    TIP3     H2       HT       0.417000       1.00800           0
     77347 W2       27330    TIP3     OH2      OT      -0.834000       15.9994           0
     77348 W2       27330    TIP3     H1       HT       0.417000       1.00800           0
     77349 W2       27330    TIP3     H2       HT       0.417000       1.00800           0
     77350 W2       27331    TIP3     OH2      OT      -0.834000       15.9994           0
     77351 W2       27331    TIP3     H1       HT       0.417000       1.00800           0
     77352 W2       27331    TIP3     H2       HT       0.417000       1.00800           0
     77353 W2       27332    TIP3     OH2      OT      -0.834000       15.9994           0
     77354 W2       27332    TIP3     H1       HT       0.417000       1.00800           0
     77355 W2       27332    TIP3     H2       HT       0.417000       1.00800           0
     77356 W2       27335    TIP3     OH2      OT      -0.834000       15.9994           0
     77357 W2       27335    TIP3     H1       HT       0.417000       1.00800           0
     77358 W2       27335    TIP3     H2       HT       0.417000       1.00800           0
     77359 W2       27336    TIP3     OH2      OT      -0.834000       15.9994           0
     77360 W2       27336    TIP3     H1       HT       0.417000       1.00800           0
     77361 W2       27336    TIP3     H2       HT       0.417000       1.00800           0
     77362 W2       27337    TIP3     OH2      OT      -0.834000       15.9994           0
     77363 W2       27337    TIP3     H1       HT       0.417000       1.00800           0
     77364 W2       27337    TIP3     H2       HT       0.417000       1.00800           0
     77365 W2       27338    TIP3     OH2      OT      -0.834000       15.9994           0
     77366 W2       27338    TIP3     H1       HT       0.417000       1.00800           0
     77367 W2       27338    TIP3     H2       HT       0.417000       1.00800           0
     77368 W2       27341    TIP3     OH2      OT      -0.834000       15.9994           0
     77369 W2       27341    TIP3     H1       HT       0.417000       1.00800           0
     77370 W2       27341    TIP3     H2       HT       0.417000       1.00800           0
     77371 W2       27342    TIP3     OH2      OT      -0.834000       15.9994           0
     77372 W2       27342    TIP3     H1       HT       0.417000       1.00800           0
     77373 W2       27342    TIP3     H2       HT       0.417000       1.00800           0
     77374 W2       27343    TIP3     OH2      OT      -0.834000       15.9994           0
     77375 W2       27343    TIP3     H1       HT       0.417000       1.00800           0
     77376 W2       27343    TIP3     H2       HT       0.417000       1.00800           0
     77377 W2       27345    TIP3     OH2      OT      -0.834000       15.9994           0
     77378 W2       27345    TIP3     H1       HT       0.417000       1.00800           0
     77379 W2       27345    TIP3     H2       HT       0.417000       1.00800           0
     77380 W2       27346    TIP3     OH2      OT      -0.834000       15.9994           0
     77381 W2       27346    TIP3     H1       HT       0.417000       1.00800           0
     77382 W2       27346    TIP3     H2       HT       0.417000       1.00800           0
     77383 W2       27347    TIP3     OH2      OT      -0.834000       15.9994           0
     77384 W2       27347    TIP3     H1       HT       0.417000       1.00800           0
     77385 W2       27347    TIP3     H2       HT       0.417000       1.00800           0
     77386 W2       27348    TIP3     OH2      OT      -0.834000       15.9994           0
     77387 W2       27348    TIP3     H1       HT       0.417000       1.00800           0
     77388 W2       27348    TIP3     H2       HT       0.417000       1.00800           0
     77389 W2       27350    TIP3     OH2      OT      -0.834000       15.9994           0
     77390 W2       27350    TIP3     H1       HT       0.417000       1.00800           0
     77391 W2       27350    TIP3     H2       HT       0.417000       1.00800           0
     77392 W2       27354    TIP3     OH2      OT      -0.834000       15.9994           0
     77393 W2       27354    TIP3     H1       HT       0.417000       1.00800           0
     77394 W2       27354    TIP3     H2       HT       0.417000       1.00800           0
     77395 W2       27355    TIP3     OH2      OT      -0.834000       15.9994           0
     77396 W2       27355    TIP3     H1       HT       0.417000       1.00800           0
     77397 W2       27355    TIP3     H2       HT       0.417000       1.00800           0
     77398 W2       27356    TIP3     OH2      OT      -0.834000       15.9994           0
     77399 W2       27356    TIP3     H1       HT       0.417000       1.00800           0
     77400 W2       27356    TIP3     H2       HT       0.417000       1.00800           0
     77401 W2       27357    TIP3     OH2      OT      -0.834000       15.9994           0
     77402 W2       27357    TIP3     H1       HT       0.417000       1.00800           0
     77403 W2       27357    TIP3     H2       HT       0.417000       1.00800           0
     77404 W2       27358    TIP3     OH2      OT      -0.834000       15.9994           0
     77405 W2       27358    TIP3     H1       HT       0.417000       1.00800           0
     77406 W2       27358    TIP3     H2       HT       0.417000       1.00800           0
     77407 W2       27359    TIP3     OH2      OT      -0.834000       15.9994           0
     77408 W2       27359    TIP3     H1       HT       0.417000       1.00800           0
     77409 W2       27359    TIP3     H2       HT       0.417000       1.00800           0
     77410 W2       27360    TIP3     OH2      OT      -0.834000       15.9994           0
     77411 W2       27360    TIP3     H1       HT       0.417000       1.00800           0
     77412 W2       27360    TIP3     H2       HT       0.417000       1.00800           0
     77413 W2       27361    TIP3     OH2      OT      -0.834000       15.9994           0
     77414 W2       27361    TIP3     H1       HT       0.417000       1.00800           0
     77415 W2       27361    TIP3     H2       HT       0.417000       1.00800           0
     77416 W2       27362    TIP3     OH2      OT      -0.834000       15.9994           0
     77417 W2       27362    TIP3     H1       HT       0.417000       1.00800           0
     77418 W2       27362    TIP3     H2       HT       0.417000       1.00800           0
     77419 W2       27363    TIP3     OH2      OT      -0.834000       15.9994           0
     77420 W2       27363    TIP3     H1       HT       0.417000       1.00800           0
     77421 W2       27363    TIP3     H2       HT       0.417000       1.00800           0
     77422 W2       27364    TIP3     OH2      OT      -0.834000       15.9994           0
     77423 W2       27364    TIP3     H1       HT       0.417000       1.00800           0
     77424 W2       27364    TIP3     H2       HT       0.417000       1.00800           0
     77425 W2       27365    TIP3     OH2      OT      -0.834000       15.9994           0
     77426 W2       27365    TIP3     H1       HT       0.417000       1.00800           0
     77427 W2       27365    TIP3     H2       HT       0.417000       1.00800           0
     77428 W2       27366    TIP3     OH2      OT      -0.834000       15.9994           0
     77429 W2       27366    TIP3     H1       HT       0.417000       1.00800           0
     77430 W2       27366    TIP3     H2       HT       0.417000       1.00800           0
     77431 W2       27367    TIP3     OH2      OT      -0.834000       15.9994           0
     77432 W2       27367    TIP3     H1       HT       0.417000       1.00800           0
     77433 W2       27367    TIP3     H2       HT       0.417000       1.00800           0
     77434 W2       27368    TIP3     OH2      OT      -0.834000       15.9994           0
     77435 W2       27368    TIP3     H1       HT       0.417000       1.00800           0
     77436 W2       27368    TIP3     H2       HT       0.417000       1.00800           0
     77437 W2       27369    TIP3     OH2      OT      -0.834000       15.9994           0
     77438 W2       27369    TIP3     H1       HT       0.417000       1.00800           0
     77439 W2       27369    TIP3     H2       HT       0.417000       1.00800           0
     77440 W2       27370    TIP3     OH2      OT      -0.834000       15.9994           0
     77441 W2       27370    TIP3     H1       HT       0.417000       1.00800           0
     77442 W2       27370    TIP3     H2       HT       0.417000       1.00800           0
     77443 W2       27371    TIP3     OH2      OT      -0.834000       15.9994           0
     77444 W2       27371    TIP3     H1       HT       0.417000       1.00800           0
     77445 W2       27371    TIP3     H2       HT       0.417000       1.00800           0
     77446 W2       27372    TIP3     OH2      OT      -0.834000       15.9994           0
     77447 W2       27372    TIP3     H1       HT       0.417000       1.00800           0
     77448 W2       27372    TIP3     H2       HT       0.417000       1.00800           0
     77449 W2       27373    TIP3     OH2      OT      -0.834000       15.9994           0
     77450 W2       27373    TIP3     H1       HT       0.417000       1.00800           0
     77451 W2       27373    TIP3     H2       HT       0.417000       1.00800           0
     77452 W2       27374    TIP3     OH2      OT      -0.834000       15.9994           0
     77453 W2       27374    TIP3     H1       HT       0.417000       1.00800           0
     77454 W2       27374    TIP3     H2       HT       0.417000       1.00800           0
     77455 W2       27377    TIP3     OH2      OT      -0.834000       15.9994           0
     77456 W2       27377    TIP3     H1       HT       0.417000       1.00800           0
     77457 W2       27377    TIP3     H2       HT       0.417000       1.00800           0
     77458 W2       27380    TIP3     OH2      OT      -0.834000       15.9994           0
     77459 W2       27380    TIP3     H1       HT       0.417000       1.00800           0
     77460 W2       27380    TIP3     H2       HT       0.417000       1.00800           0
     77461 W2       27381    TIP3     OH2      OT      -0.834000       15.9994           0
     77462 W2       27381    TIP3     H1       HT       0.417000       1.00800           0
     77463 W2       27381    TIP3     H2       HT       0.417000       1.00800           0
     77464 W2       27382    TIP3     OH2      OT      -0.834000       15.9994           0
     77465 W2       27382    TIP3     H1       HT       0.417000       1.00800           0
     77466 W2       27382    TIP3     H2       HT       0.417000       1.00800           0
     77467 W2       27383    TIP3     OH2      OT      -0.834000       15.9994           0
     77468 W2       27383    TIP3     H1       HT       0.417000       1.00800           0
     77469 W2       27383    TIP3     H2       HT       0.417000       1.00800           0
     77470 W2       27384    TIP3     OH2      OT      -0.834000       15.9994           0
     77471 W2       27384    TIP3     H1       HT       0.417000       1.00800           0
     77472 W2       27384    TIP3     H2       HT       0.417000       1.00800           0
     77473 W2       27385    TIP3     OH2      OT      -0.834000       15.9994           0
     77474 W2       27385    TIP3     H1       HT       0.417000       1.00800           0
     77475 W2       27385    TIP3     H2       HT       0.417000       1.00800           0
     77476 W2       27386    TIP3     OH2      OT      -0.834000       15.9994           0
     77477 W2       27386    TIP3     H1       HT       0.417000       1.00800           0
     77478 W2       27386    TIP3     H2       HT       0.417000       1.00800           0
     77479 W2       27387    TIP3     OH2      OT      -0.834000       15.9994           0
     77480 W2       27387    TIP3     H1       HT       0.417000       1.00800           0
     77481 W2       27387    TIP3     H2       HT       0.417000       1.00800           0
     77482 W2       27388    TIP3     OH2      OT      -0.834000       15.9994           0
     77483 W2       27388    TIP3     H1       HT       0.417000       1.00800           0
     77484 W2       27388    TIP3     H2       HT       0.417000       1.00800           0
     77485 W2       27389    TIP3     OH2      OT      -0.834000       15.9994           0
     77486 W2       27389    TIP3     H1       HT       0.417000       1.00800           0
     77487 W2       27389    TIP3     H2       HT       0.417000       1.00800           0
     77488 W2       27390    TIP3     OH2      OT      -0.834000       15.9994           0
     77489 W2       27390    TIP3     H1       HT       0.417000       1.00800           0
     77490 W2       27390    TIP3     H2       HT       0.417000       1.00800           0
     77491 W2       27391    TIP3     OH2      OT      -0.834000       15.9994           0
     77492 W2       27391    TIP3     H1       HT       0.417000       1.00800           0
     77493 W2       27391    TIP3     H2       HT       0.417000       1.00800           0
     77494 W2       27392    TIP3     OH2      OT      -0.834000       15.9994           0
     77495 W2       27392    TIP3     H1       HT       0.417000       1.00800           0
     77496 W2       27392    TIP3     H2       HT       0.417000       1.00800           0
     77497 W2       27393    TIP3     OH2      OT      -0.834000       15.9994           0
     77498 W2       27393    TIP3     H1       HT       0.417000       1.00800           0
     77499 W2       27393    TIP3     H2       HT       0.417000       1.00800           0
     77500 W2       27394    TIP3     OH2      OT      -0.834000       15.9994           0
     77501 W2       27394    TIP3     H1       HT       0.417000       1.00800           0
     77502 W2       27394    TIP3     H2       HT       0.417000       1.00800           0
     77503 W2       27396    TIP3     OH2      OT      -0.834000       15.9994           0
     77504 W2       27396    TIP3     H1       HT       0.417000       1.00800           0
     77505 W2       27396    TIP3     H2       HT       0.417000       1.00800           0
     77506 W2       27397    TIP3     OH2      OT      -0.834000       15.9994           0
     77507 W2       27397    TIP3     H1       HT       0.417000       1.00800           0
     77508 W2       27397    TIP3     H2       HT       0.417000       1.00800           0
     77509 W2       27398    TIP3     OH2      OT      -0.834000       15.9994           0
     77510 W2       27398    TIP3     H1       HT       0.417000       1.00800           0
     77511 W2       27398    TIP3     H2       HT       0.417000       1.00800           0
     77512 W2       27399    TIP3     OH2      OT      -0.834000       15.9994           0
     77513 W2       27399    TIP3     H1       HT       0.417000       1.00800           0
     77514 W2       27399    TIP3     H2       HT       0.417000       1.00800           0
     77515 W2       27400    TIP3     OH2      OT      -0.834000       15.9994           0
     77516 W2       27400    TIP3     H1       HT       0.417000       1.00800           0
     77517 W2       27400    TIP3     H2       HT       0.417000       1.00800           0
     77518 W2       27401    TIP3     OH2      OT      -0.834000       15.9994           0
     77519 W2       27401    TIP3     H1       HT       0.417000       1.00800           0
     77520 W2       27401    TIP3     H2       HT       0.417000       1.00800           0
     77521 W2       27402    TIP3     OH2      OT      -0.834000       15.9994           0
     77522 W2       27402    TIP3     H1       HT       0.417000       1.00800           0
     77523 W2       27402    TIP3     H2       HT       0.417000       1.00800           0
     77524 W2       27403    TIP3     OH2      OT      -0.834000       15.9994           0
     77525 W2       27403    TIP3     H1       HT       0.417000       1.00800           0
     77526 W2       27403    TIP3     H2       HT       0.417000       1.00800           0
     77527 W2       27404    TIP3     OH2      OT      -0.834000       15.9994           0
     77528 W2       27404    TIP3     H1       HT       0.417000       1.00800           0
     77529 W2       27404    TIP3     H2       HT       0.417000       1.00800           0
     77530 W2       27405    TIP3     OH2      OT      -0.834000       15.9994           0
     77531 W2       27405    TIP3     H1       HT       0.417000       1.00800           0
     77532 W2       27405    TIP3     H2       HT       0.417000       1.00800           0
     77533 W2       27406    TIP3     OH2      OT      -0.834000       15.9994           0
     77534 W2       27406    TIP3     H1       HT       0.417000       1.00800           0
     77535 W2       27406    TIP3     H2       HT       0.417000       1.00800           0
     77536 W2       27407    TIP3     OH2      OT      -0.834000       15.9994           0
     77537 W2       27407    TIP3     H1       HT       0.417000       1.00800           0
     77538 W2       27407    TIP3     H2       HT       0.417000       1.00800           0
     77539 W2       27409    TIP3     OH2      OT      -0.834000       15.9994           0
     77540 W2       27409    TIP3     H1       HT       0.417000       1.00800           0
     77541 W2       27409    TIP3     H2       HT       0.417000       1.00800           0
     77542 W2       27410    TIP3     OH2      OT      -0.834000       15.9994           0
     77543 W2       27410    TIP3     H1       HT       0.417000       1.00800           0
     77544 W2       27410    TIP3     H2       HT       0.417000       1.00800           0
     77545 W2       27411    TIP3     OH2      OT      -0.834000       15.9994           0
     77546 W2       27411    TIP3     H1       HT       0.417000       1.00800           0
     77547 W2       27411    TIP3     H2       HT       0.417000       1.00800           0
     77548 W2       27412    TIP3     OH2      OT      -0.834000       15.9994           0
     77549 W2       27412    TIP3     H1       HT       0.417000       1.00800           0
     77550 W2       27412    TIP3     H2       HT       0.417000       1.00800           0
     77551 W2       27414    TIP3     OH2      OT      -0.834000       15.9994           0
     77552 W2       27414    TIP3     H1       HT       0.417000       1.00800           0
     77553 W2       27414    TIP3     H2       HT       0.417000       1.00800           0
     77554 W2       27415    TIP3     OH2      OT      -0.834000       15.9994           0
     77555 W2       27415    TIP3     H1       HT       0.417000       1.00800           0
     77556 W2       27415    TIP3     H2       HT       0.417000       1.00800           0
     77557 W2       27416    TIP3     OH2      OT      -0.834000       15.9994           0
     77558 W2       27416    TIP3     H1       HT       0.417000       1.00800           0
     77559 W2       27416    TIP3     H2       HT       0.417000       1.00800           0
     77560 W2       27417    TIP3     OH2      OT      -0.834000       15.9994           0
     77561 W2       27417    TIP3     H1       HT       0.417000       1.00800           0
     77562 W2       27417    TIP3     H2       HT       0.417000       1.00800           0
     77563 W2       27419    TIP3     OH2      OT      -0.834000       15.9994           0
     77564 W2       27419    TIP3     H1       HT       0.417000       1.00800           0
     77565 W2       27419    TIP3     H2       HT       0.417000       1.00800           0
     77566 W2       27421    TIP3     OH2      OT      -0.834000       15.9994           0
     77567 W2       27421    TIP3     H1       HT       0.417000       1.00800           0
     77568 W2       27421    TIP3     H2       HT       0.417000       1.00800           0
     77569 W2       27423    TIP3     OH2      OT      -0.834000       15.9994           0
     77570 W2       27423    TIP3     H1       HT       0.417000       1.00800           0
     77571 W2       27423    TIP3     H2       HT       0.417000       1.00800           0
     77572 W2       27424    TIP3     OH2      OT      -0.834000       15.9994           0
     77573 W2       27424    TIP3     H1       HT       0.417000       1.00800           0
     77574 W2       27424    TIP3     H2       HT       0.417000       1.00800           0
     77575 W2       27425    TIP3     OH2      OT      -0.834000       15.9994           0
     77576 W2       27425    TIP3     H1       HT       0.417000       1.00800           0
     77577 W2       27425    TIP3     H2       HT       0.417000       1.00800           0
     77578 W2       27426    TIP3     OH2      OT      -0.834000       15.9994           0
     77579 W2       27426    TIP3     H1       HT       0.417000       1.00800           0
     77580 W2       27426    TIP3     H2       HT       0.417000       1.00800           0
     77581 W2       27427    TIP3     OH2      OT      -0.834000       15.9994           0
     77582 W2       27427    TIP3     H1       HT       0.417000       1.00800           0
     77583 W2       27427    TIP3     H2       HT       0.417000       1.00800           0
     77584 W2       27430    TIP3     OH2      OT      -0.834000       15.9994           0
     77585 W2       27430    TIP3     H1       HT       0.417000       1.00800           0
     77586 W2       27430    TIP3     H2       HT       0.417000       1.00800           0
     77587 W2       27431    TIP3     OH2      OT      -0.834000       15.9994           0
     77588 W2       27431    TIP3     H1       HT       0.417000       1.00800           0
     77589 W2       27431    TIP3     H2       HT       0.417000       1.00800           0
     77590 W2       27432    TIP3     OH2      OT      -0.834000       15.9994           0
     77591 W2       27432    TIP3     H1       HT       0.417000       1.00800           0
     77592 W2       27432    TIP3     H2       HT       0.417000       1.00800           0
     77593 W2       27433    TIP3     OH2      OT      -0.834000       15.9994           0
     77594 W2       27433    TIP3     H1       HT       0.417000       1.00800           0
     77595 W2       27433    TIP3     H2       HT       0.417000       1.00800           0
     77596 W2       27436    TIP3     OH2      OT      -0.834000       15.9994           0
     77597 W2       27436    TIP3     H1       HT       0.417000       1.00800           0
     77598 W2       27436    TIP3     H2       HT       0.417000       1.00800           0
     77599 W2       27439    TIP3     OH2      OT      -0.834000       15.9994           0
     77600 W2       27439    TIP3     H1       HT       0.417000       1.00800           0
     77601 W2       27439    TIP3     H2       HT       0.417000       1.00800           0
     77602 W2       27440    TIP3     OH2      OT      -0.834000       15.9994           0
     77603 W2       27440    TIP3     H1       HT       0.417000       1.00800           0
     77604 W2       27440    TIP3     H2       HT       0.417000       1.00800           0
     77605 W2       27441    TIP3     OH2      OT      -0.834000       15.9994           0
     77606 W2       27441    TIP3     H1       HT       0.417000       1.00800           0
     77607 W2       27441    TIP3     H2       HT       0.417000       1.00800           0
     77608 W2       27442    TIP3     OH2      OT      -0.834000       15.9994           0
     77609 W2       27442    TIP3     H1       HT       0.417000       1.00800           0
     77610 W2       27442    TIP3     H2       HT       0.417000       1.00800           0
     77611 W2       27443    TIP3     OH2      OT      -0.834000       15.9994           0
     77612 W2       27443    TIP3     H1       HT       0.417000       1.00800           0
     77613 W2       27443    TIP3     H2       HT       0.417000       1.00800           0
     77614 W2       27445    TIP3     OH2      OT      -0.834000       15.9994           0
     77615 W2       27445    TIP3     H1       HT       0.417000       1.00800           0
     77616 W2       27445    TIP3     H2       HT       0.417000       1.00800           0
     77617 W2       27446    TIP3     OH2      OT      -0.834000       15.9994           0
     77618 W2       27446    TIP3     H1       HT       0.417000       1.00800           0
     77619 W2       27446    TIP3     H2       HT       0.417000       1.00800           0
     77620 W2       27447    TIP3     OH2      OT      -0.834000       15.9994           0
     77621 W2       27447    TIP3     H1       HT       0.417000       1.00800           0
     77622 W2       27447    TIP3     H2       HT       0.417000       1.00800           0
     77623 W2       27448    TIP3     OH2      OT      -0.834000       15.9994           0
     77624 W2       27448    TIP3     H1       HT       0.417000       1.00800           0
     77625 W2       27448    TIP3     H2       HT       0.417000       1.00800           0
     77626 W2       27449    TIP3     OH2      OT      -0.834000       15.9994           0
     77627 W2       27449    TIP3     H1       HT       0.417000       1.00800           0
     77628 W2       27449    TIP3     H2       HT       0.417000       1.00800           0
     77629 W2       27450    TIP3     OH2      OT      -0.834000       15.9994           0
     77630 W2       27450    TIP3     H1       HT       0.417000       1.00800           0
     77631 W2       27450    TIP3     H2       HT       0.417000       1.00800           0
     77632 W2       27451    TIP3     OH2      OT      -0.834000       15.9994           0
     77633 W2       27451    TIP3     H1       HT       0.417000       1.00800           0
     77634 W2       27451    TIP3     H2       HT       0.417000       1.00800           0
     77635 W2       27452    TIP3     OH2      OT      -0.834000       15.9994           0
     77636 W2       27452    TIP3     H1       HT       0.417000       1.00800           0
     77637 W2       27452    TIP3     H2       HT       0.417000       1.00800           0
     77638 W2       27453    TIP3     OH2      OT      -0.834000       15.9994           0
     77639 W2       27453    TIP3     H1       HT       0.417000       1.00800           0
     77640 W2       27453    TIP3     H2       HT       0.417000       1.00800           0
     77641 W2       27454    TIP3     OH2      OT      -0.834000       15.9994           0
     77642 W2       27454    TIP3     H1       HT       0.417000       1.00800           0
     77643 W2       27454    TIP3     H2       HT       0.417000       1.00800           0
     77644 W2       27455    TIP3     OH2      OT      -0.834000       15.9994           0
     77645 W2       27455    TIP3     H1       HT       0.417000       1.00800           0
     77646 W2       27455    TIP3     H2       HT       0.417000       1.00800           0
     77647 W2       27458    TIP3     OH2      OT      -0.834000       15.9994           0
     77648 W2       27458    TIP3     H1       HT       0.417000       1.00800           0
     77649 W2       27458    TIP3     H2       HT       0.417000       1.00800           0
     77650 W2       27459    TIP3     OH2      OT      -0.834000       15.9994           0
     77651 W2       27459    TIP3     H1       HT       0.417000       1.00800           0
     77652 W2       27459    TIP3     H2       HT       0.417000       1.00800           0
     77653 W2       27460    TIP3     OH2      OT      -0.834000       15.9994           0
     77654 W2       27460    TIP3     H1       HT       0.417000       1.00800           0
     77655 W2       27460    TIP3     H2       HT       0.417000       1.00800           0
     77656 W2       27461    TIP3     OH2      OT      -0.834000       15.9994           0
     77657 W2       27461    TIP3     H1       HT       0.417000       1.00800           0
     77658 W2       27461    TIP3     H2       HT       0.417000       1.00800           0
     77659 W2       27462    TIP3     OH2      OT      -0.834000       15.9994           0
     77660 W2       27462    TIP3     H1       HT       0.417000       1.00800           0
     77661 W2       27462    TIP3     H2       HT       0.417000       1.00800           0
     77662 W2       27463    TIP3     OH2      OT      -0.834000       15.9994           0
     77663 W2       27463    TIP3     H1       HT       0.417000       1.00800           0
     77664 W2       27463    TIP3     H2       HT       0.417000       1.00800           0
     77665 W2       27465    TIP3     OH2      OT      -0.834000       15.9994           0
     77666 W2       27465    TIP3     H1       HT       0.417000       1.00800           0
     77667 W2       27465    TIP3     H2       HT       0.417000       1.00800           0
     77668 W2       27466    TIP3     OH2      OT      -0.834000       15.9994           0
     77669 W2       27466    TIP3     H1       HT       0.417000       1.00800           0
     77670 W2       27466    TIP3     H2       HT       0.417000       1.00800           0
     77671 W2       27467    TIP3     OH2      OT      -0.834000       15.9994           0
     77672 W2       27467    TIP3     H1       HT       0.417000       1.00800           0
     77673 W2       27467    TIP3     H2       HT       0.417000       1.00800           0
     77674 W2       27471    TIP3     OH2      OT      -0.834000       15.9994           0
     77675 W2       27471    TIP3     H1       HT       0.417000       1.00800           0
     77676 W2       27471    TIP3     H2       HT       0.417000       1.00800           0
     77677 W2       27473    TIP3     OH2      OT      -0.834000       15.9994           0
     77678 W2       27473    TIP3     H1       HT       0.417000       1.00800           0
     77679 W2       27473    TIP3     H2       HT       0.417000       1.00800           0
     77680 W2       27474    TIP3     OH2      OT      -0.834000       15.9994           0
     77681 W2       27474    TIP3     H1       HT       0.417000       1.00800           0
     77682 W2       27474    TIP3     H2       HT       0.417000       1.00800           0
     77683 W2       27475    TIP3     OH2      OT      -0.834000       15.9994           0
     77684 W2       27475    TIP3     H1       HT       0.417000       1.00800           0
     77685 W2       27475    TIP3     H2       HT       0.417000       1.00800           0
     77686 W2       27476    TIP3     OH2      OT      -0.834000       15.9994           0
     77687 W2       27476    TIP3     H1       HT       0.417000       1.00800           0
     77688 W2       27476    TIP3     H2       HT       0.417000       1.00800           0
     77689 W2       27477    TIP3     OH2      OT      -0.834000       15.9994           0
     77690 W2       27477    TIP3     H1       HT       0.417000       1.00800           0
     77691 W2       27477    TIP3     H2       HT       0.417000       1.00800           0
     77692 W2       27478    TIP3     OH2      OT      -0.834000       15.9994           0
     77693 W2       27478    TIP3     H1       HT       0.417000       1.00800           0
     77694 W2       27478    TIP3     H2       HT       0.417000       1.00800           0
     77695 W2       27479    TIP3     OH2      OT      -0.834000       15.9994           0
     77696 W2       27479    TIP3     H1       HT       0.417000       1.00800           0
     77697 W2       27479    TIP3     H2       HT       0.417000       1.00800           0
     77698 W2       27480    TIP3     OH2      OT      -0.834000       15.9994           0
     77699 W2       27480    TIP3     H1       HT       0.417000       1.00800           0
     77700 W2       27480    TIP3     H2       HT       0.417000       1.00800           0
     77701 W2       27481    TIP3     OH2      OT      -0.834000       15.9994           0
     77702 W2       27481    TIP3     H1       HT       0.417000       1.00800           0
     77703 W2       27481    TIP3     H2       HT       0.417000       1.00800           0
     77704 W2       27483    TIP3     OH2      OT      -0.834000       15.9994           0
     77705 W2       27483    TIP3     H1       HT       0.417000       1.00800           0
     77706 W2       27483    TIP3     H2       HT       0.417000       1.00800           0
     77707 W2       27485    TIP3     OH2      OT      -0.834000       15.9994           0
     77708 W2       27485    TIP3     H1       HT       0.417000       1.00800           0
     77709 W2       27485    TIP3     H2       HT       0.417000       1.00800           0
     77710 W2       27486    TIP3     OH2      OT      -0.834000       15.9994           0
     77711 W2       27486    TIP3     H1       HT       0.417000       1.00800           0
     77712 W2       27486    TIP3     H2       HT       0.417000       1.00800           0
     77713 W2       27487    TIP3     OH2      OT      -0.834000       15.9994           0
     77714 W2       27487    TIP3     H1       HT       0.417000       1.00800           0
     77715 W2       27487    TIP3     H2       HT       0.417000       1.00800           0
     77716 W2       27488    TIP3     OH2      OT      -0.834000       15.9994           0
     77717 W2       27488    TIP3     H1       HT       0.417000       1.00800           0
     77718 W2       27488    TIP3     H2       HT       0.417000       1.00800           0
     77719 W2       27489    TIP3     OH2      OT      -0.834000       15.9994           0
     77720 W2       27489    TIP3     H1       HT       0.417000       1.00800           0
     77721 W2       27489    TIP3     H2       HT       0.417000       1.00800           0
     77722 W2       27490    TIP3     OH2      OT      -0.834000       15.9994           0
     77723 W2       27490    TIP3     H1       HT       0.417000       1.00800           0
     77724 W2       27490    TIP3     H2       HT       0.417000       1.00800           0
     77725 W2       27491    TIP3     OH2      OT      -0.834000       15.9994           0
     77726 W2       27491    TIP3     H1       HT       0.417000       1.00800           0
     77727 W2       27491    TIP3     H2       HT       0.417000       1.00800           0
     77728 W2       27492    TIP3     OH2      OT      -0.834000       15.9994           0
     77729 W2       27492    TIP3     H1       HT       0.417000       1.00800           0
     77730 W2       27492    TIP3     H2       HT       0.417000       1.00800           0
     77731 W2       27493    TIP3     OH2      OT      -0.834000       15.9994           0
     77732 W2       27493    TIP3     H1       HT       0.417000       1.00800           0
     77733 W2       27493    TIP3     H2       HT       0.417000       1.00800           0
     77734 W2       27495    TIP3     OH2      OT      -0.834000       15.9994           0
     77735 W2       27495    TIP3     H1       HT       0.417000       1.00800           0
     77736 W2       27495    TIP3     H2       HT       0.417000       1.00800           0
     77737 W2       27496    TIP3     OH2      OT      -0.834000       15.9994           0
     77738 W2       27496    TIP3     H1       HT       0.417000       1.00800           0
     77739 W2       27496    TIP3     H2       HT       0.417000       1.00800           0
     77740 W2       27497    TIP3     OH2      OT      -0.834000       15.9994           0
     77741 W2       27497    TIP3     H1       HT       0.417000       1.00800           0
     77742 W2       27497    TIP3     H2       HT       0.417000       1.00800           0
     77743 W2       27499    TIP3     OH2      OT      -0.834000       15.9994           0
     77744 W2       27499    TIP3     H1       HT       0.417000       1.00800           0
     77745 W2       27499    TIP3     H2       HT       0.417000       1.00800           0
     77746 W2       27500    TIP3     OH2      OT      -0.834000       15.9994           0
     77747 W2       27500    TIP3     H1       HT       0.417000       1.00800           0
     77748 W2       27500    TIP3     H2       HT       0.417000       1.00800           0
     77749 W2       27501    TIP3     OH2      OT      -0.834000       15.9994           0
     77750 W2       27501    TIP3     H1       HT       0.417000       1.00800           0
     77751 W2       27501    TIP3     H2       HT       0.417000       1.00800           0
     77752 W2       27502    TIP3     OH2      OT      -0.834000       15.9994           0
     77753 W2       27502    TIP3     H1       HT       0.417000       1.00800           0
     77754 W2       27502    TIP3     H2       HT       0.417000       1.00800           0
     77755 W2       27503    TIP3     OH2      OT      -0.834000       15.9994           0
     77756 W2       27503    TIP3     H1       HT       0.417000       1.00800           0
     77757 W2       27503    TIP3     H2       HT       0.417000       1.00800           0
     77758 W2       27504    TIP3     OH2      OT      -0.834000       15.9994           0
     77759 W2       27504    TIP3     H1       HT       0.417000       1.00800           0
     77760 W2       27504    TIP3     H2       HT       0.417000       1.00800           0
     77761 W2       27507    TIP3     OH2      OT      -0.834000       15.9994           0
     77762 W2       27507    TIP3     H1       HT       0.417000       1.00800           0
     77763 W2       27507    TIP3     H2       HT       0.417000       1.00800           0
     77764 W2       27509    TIP3     OH2      OT      -0.834000       15.9994           0
     77765 W2       27509    TIP3     H1       HT       0.417000       1.00800           0
     77766 W2       27509    TIP3     H2       HT       0.417000       1.00800           0
     77767 W2       27511    TIP3     OH2      OT      -0.834000       15.9994           0
     77768 W2       27511    TIP3     H1       HT       0.417000       1.00800           0
     77769 W2       27511    TIP3     H2       HT       0.417000       1.00800           0
     77770 W2       27513    TIP3     OH2      OT      -0.834000       15.9994           0
     77771 W2       27513    TIP3     H1       HT       0.417000       1.00800           0
     77772 W2       27513    TIP3     H2       HT       0.417000       1.00800           0
     77773 W2       27516    TIP3     OH2      OT      -0.834000       15.9994           0
     77774 W2       27516    TIP3     H1       HT       0.417000       1.00800           0
     77775 W2       27516    TIP3     H2       HT       0.417000       1.00800           0
     77776 W2       27518    TIP3     OH2      OT      -0.834000       15.9994           0
     77777 W2       27518    TIP3     H1       HT       0.417000       1.00800           0
     77778 W2       27518    TIP3     H2       HT       0.417000       1.00800           0
     77779 W2       27520    TIP3     OH2      OT      -0.834000       15.9994           0
     77780 W2       27520    TIP3     H1       HT       0.417000       1.00800           0
     77781 W2       27520    TIP3     H2       HT       0.417000       1.00800           0
     77782 W2       27522    TIP3     OH2      OT      -0.834000       15.9994           0
     77783 W2       27522    TIP3     H1       HT       0.417000       1.00800           0
     77784 W2       27522    TIP3     H2       HT       0.417000       1.00800           0
     77785 W2       27534    TIP3     OH2      OT      -0.834000       15.9994           0
     77786 W2       27534    TIP3     H1       HT       0.417000       1.00800           0
     77787 W2       27534    TIP3     H2       HT       0.417000       1.00800           0
     77788 W2       27535    TIP3     OH2      OT      -0.834000       15.9994           0
     77789 W2       27535    TIP3     H1       HT       0.417000       1.00800           0
     77790 W2       27535    TIP3     H2       HT       0.417000       1.00800           0
     77791 W2       27536    TIP3     OH2      OT      -0.834000       15.9994           0
     77792 W2       27536    TIP3     H1       HT       0.417000       1.00800           0
     77793 W2       27536    TIP3     H2       HT       0.417000       1.00800           0
     77794 W2       27537    TIP3     OH2      OT      -0.834000       15.9994           0
     77795 W2       27537    TIP3     H1       HT       0.417000       1.00800           0
     77796 W2       27537    TIP3     H2       HT       0.417000       1.00800           0
     77797 W2       27538    TIP3     OH2      OT      -0.834000       15.9994           0
     77798 W2       27538    TIP3     H1       HT       0.417000       1.00800           0
     77799 W2       27538    TIP3     H2       HT       0.417000       1.00800           0
     77800 W2       27541    TIP3     OH2      OT      -0.834000       15.9994           0
     77801 W2       27541    TIP3     H1       HT       0.417000       1.00800           0
     77802 W2       27541    TIP3     H2       HT       0.417000       1.00800           0
     77803 W2       27542    TIP3     OH2      OT      -0.834000       15.9994           0
     77804 W2       27542    TIP3     H1       HT       0.417000       1.00800           0
     77805 W2       27542    TIP3     H2       HT       0.417000       1.00800           0
     77806 W2       27543    TIP3     OH2      OT      -0.834000       15.9994           0
     77807 W2       27543    TIP3     H1       HT       0.417000       1.00800           0
     77808 W2       27543    TIP3     H2       HT       0.417000       1.00800           0
     77809 W2       27544    TIP3     OH2      OT      -0.834000       15.9994           0
     77810 W2       27544    TIP3     H1       HT       0.417000       1.00800           0
     77811 W2       27544    TIP3     H2       HT       0.417000       1.00800           0
     77812 W2       27545    TIP3     OH2      OT      -0.834000       15.9994           0
     77813 W2       27545    TIP3     H1       HT       0.417000       1.00800           0
     77814 W2       27545    TIP3     H2       HT       0.417000       1.00800           0
     77815 W2       27546    TIP3     OH2      OT      -0.834000       15.9994           0
     77816 W2       27546    TIP3     H1       HT       0.417000       1.00800           0
     77817 W2       27546    TIP3     H2       HT       0.417000       1.00800           0
     77818 W2       27547    TIP3     OH2      OT      -0.834000       15.9994           0
     77819 W2       27547    TIP3     H1       HT       0.417000       1.00800           0
     77820 W2       27547    TIP3     H2       HT       0.417000       1.00800           0
     77821 W2       27548    TIP3     OH2      OT      -0.834000       15.9994           0
     77822 W2       27548    TIP3     H1       HT       0.417000       1.00800           0
     77823 W2       27548    TIP3     H2       HT       0.417000       1.00800           0
     77824 W2       27551    TIP3     OH2      OT      -0.834000       15.9994           0
     77825 W2       27551    TIP3     H1       HT       0.417000       1.00800           0
     77826 W2       27551    TIP3     H2       HT       0.417000       1.00800           0
     77827 W2       27552    TIP3     OH2      OT      -0.834000       15.9994           0
     77828 W2       27552    TIP3     H1       HT       0.417000       1.00800           0
     77829 W2       27552    TIP3     H2       HT       0.417000       1.00800           0
     77830 W2       27553    TIP3     OH2      OT      -0.834000       15.9994           0
     77831 W2       27553    TIP3     H1       HT       0.417000       1.00800           0
     77832 W2       27553    TIP3     H2       HT       0.417000       1.00800           0
     77833 W2       27554    TIP3     OH2      OT      -0.834000       15.9994           0
     77834 W2       27554    TIP3     H1       HT       0.417000       1.00800           0
     77835 W2       27554    TIP3     H2       HT       0.417000       1.00800           0
     77836 W2       27557    TIP3     OH2      OT      -0.834000       15.9994           0
     77837 W2       27557    TIP3     H1       HT       0.417000       1.00800           0
     77838 W2       27557    TIP3     H2       HT       0.417000       1.00800           0
     77839 W2       27558    TIP3     OH2      OT      -0.834000       15.9994           0
     77840 W2       27558    TIP3     H1       HT       0.417000       1.00800           0
     77841 W2       27558    TIP3     H2       HT       0.417000       1.00800           0
     77842 W2       27559    TIP3     OH2      OT      -0.834000       15.9994           0
     77843 W2       27559    TIP3     H1       HT       0.417000       1.00800           0
     77844 W2       27559    TIP3     H2       HT       0.417000       1.00800           0
     77845 W2       27561    TIP3     OH2      OT      -0.834000       15.9994           0
     77846 W2       27561    TIP3     H1       HT       0.417000       1.00800           0
     77847 W2       27561    TIP3     H2       HT       0.417000       1.00800           0
     77848 W2       27562    TIP3     OH2      OT      -0.834000       15.9994           0
     77849 W2       27562    TIP3     H1       HT       0.417000       1.00800           0
     77850 W2       27562    TIP3     H2       HT       0.417000       1.00800           0
     77851 W2       27563    TIP3     OH2      OT      -0.834000       15.9994           0
     77852 W2       27563    TIP3     H1       HT       0.417000       1.00800           0
     77853 W2       27563    TIP3     H2       HT       0.417000       1.00800           0
     77854 W2       27564    TIP3     OH2      OT      -0.834000       15.9994           0
     77855 W2       27564    TIP3     H1       HT       0.417000       1.00800           0
     77856 W2       27564    TIP3     H2       HT       0.417000       1.00800           0
     77857 W2       27566    TIP3     OH2      OT      -0.834000       15.9994           0
     77858 W2       27566    TIP3     H1       HT       0.417000       1.00800           0
     77859 W2       27566    TIP3     H2       HT       0.417000       1.00800           0
     77860 W2       27570    TIP3     OH2      OT      -0.834000       15.9994           0
     77861 W2       27570    TIP3     H1       HT       0.417000       1.00800           0
     77862 W2       27570    TIP3     H2       HT       0.417000       1.00800           0
     77863 W2       27571    TIP3     OH2      OT      -0.834000       15.9994           0
     77864 W2       27571    TIP3     H1       HT       0.417000       1.00800           0
     77865 W2       27571    TIP3     H2       HT       0.417000       1.00800           0
     77866 W2       27572    TIP3     OH2      OT      -0.834000       15.9994           0
     77867 W2       27572    TIP3     H1       HT       0.417000       1.00800           0
     77868 W2       27572    TIP3     H2       HT       0.417000       1.00800           0
     77869 W2       27573    TIP3     OH2      OT      -0.834000       15.9994           0
     77870 W2       27573    TIP3     H1       HT       0.417000       1.00800           0
     77871 W2       27573    TIP3     H2       HT       0.417000       1.00800           0
     77872 W2       27574    TIP3     OH2      OT      -0.834000       15.9994           0
     77873 W2       27574    TIP3     H1       HT       0.417000       1.00800           0
     77874 W2       27574    TIP3     H2       HT       0.417000       1.00800           0
     77875 W2       27575    TIP3     OH2      OT      -0.834000       15.9994           0
     77876 W2       27575    TIP3     H1       HT       0.417000       1.00800           0
     77877 W2       27575    TIP3     H2       HT       0.417000       1.00800           0
     77878 W2       27576    TIP3     OH2      OT      -0.834000       15.9994           0
     77879 W2       27576    TIP3     H1       HT       0.417000       1.00800           0
     77880 W2       27576    TIP3     H2       HT       0.417000       1.00800           0
     77881 W2       27577    TIP3     OH2      OT      -0.834000       15.9994           0
     77882 W2       27577    TIP3     H1       HT       0.417000       1.00800           0
     77883 W2       27577    TIP3     H2       HT       0.417000       1.00800           0
     77884 W2       27578    TIP3     OH2      OT      -0.834000       15.9994           0
     77885 W2       27578    TIP3     H1       HT       0.417000       1.00800           0
     77886 W2       27578    TIP3     H2       HT       0.417000       1.00800           0
     77887 W2       27579    TIP3     OH2      OT      -0.834000       15.9994           0
     77888 W2       27579    TIP3     H1       HT       0.417000       1.00800           0
     77889 W2       27579    TIP3     H2       HT       0.417000       1.00800           0
     77890 W2       27580    TIP3     OH2      OT      -0.834000       15.9994           0
     77891 W2       27580    TIP3     H1       HT       0.417000       1.00800           0
     77892 W2       27580    TIP3     H2       HT       0.417000       1.00800           0
     77893 W2       27581    TIP3     OH2      OT      -0.834000       15.9994           0
     77894 W2       27581    TIP3     H1       HT       0.417000       1.00800           0
     77895 W2       27581    TIP3     H2       HT       0.417000       1.00800           0
     77896 W2       27582    TIP3     OH2      OT      -0.834000       15.9994           0
     77897 W2       27582    TIP3     H1       HT       0.417000       1.00800           0
     77898 W2       27582    TIP3     H2       HT       0.417000       1.00800           0
     77899 W2       27583    TIP3     OH2      OT      -0.834000       15.9994           0
     77900 W2       27583    TIP3     H1       HT       0.417000       1.00800           0
     77901 W2       27583    TIP3     H2       HT       0.417000       1.00800           0
     77902 W2       27584    TIP3     OH2      OT      -0.834000       15.9994           0
     77903 W2       27584    TIP3     H1       HT       0.417000       1.00800           0
     77904 W2       27584    TIP3     H2       HT       0.417000       1.00800           0
     77905 W2       27585    TIP3     OH2      OT      -0.834000       15.9994           0
     77906 W2       27585    TIP3     H1       HT       0.417000       1.00800           0
     77907 W2       27585    TIP3     H2       HT       0.417000       1.00800           0
     77908 W2       27586    TIP3     OH2      OT      -0.834000       15.9994           0
     77909 W2       27586    TIP3     H1       HT       0.417000       1.00800           0
     77910 W2       27586    TIP3     H2       HT       0.417000       1.00800           0
     77911 W2       27587    TIP3     OH2      OT      -0.834000       15.9994           0
     77912 W2       27587    TIP3     H1       HT       0.417000       1.00800           0
     77913 W2       27587    TIP3     H2       HT       0.417000       1.00800           0
     77914 W2       27588    TIP3     OH2      OT      -0.834000       15.9994           0
     77915 W2       27588    TIP3     H1       HT       0.417000       1.00800           0
     77916 W2       27588    TIP3     H2       HT       0.417000       1.00800           0
     77917 W2       27589    TIP3     OH2      OT      -0.834000       15.9994           0
     77918 W2       27589    TIP3     H1       HT       0.417000       1.00800           0
     77919 W2       27589    TIP3     H2       HT       0.417000       1.00800           0
     77920 W2       27590    TIP3     OH2      OT      -0.834000       15.9994           0
     77921 W2       27590    TIP3     H1       HT       0.417000       1.00800           0
     77922 W2       27590    TIP3     H2       HT       0.417000       1.00800           0
     77923 W2       27593    TIP3     OH2      OT      -0.834000       15.9994           0
     77924 W2       27593    TIP3     H1       HT       0.417000       1.00800           0
     77925 W2       27593    TIP3     H2       HT       0.417000       1.00800           0
     77926 W2       27596    TIP3     OH2      OT      -0.834000       15.9994           0
     77927 W2       27596    TIP3     H1       HT       0.417000       1.00800           0
     77928 W2       27596    TIP3     H2       HT       0.417000       1.00800           0
     77929 W2       27597    TIP3     OH2      OT      -0.834000       15.9994           0
     77930 W2       27597    TIP3     H1       HT       0.417000       1.00800           0
     77931 W2       27597    TIP3     H2       HT       0.417000       1.00800           0
     77932 W2       27598    TIP3     OH2      OT      -0.834000       15.9994           0
     77933 W2       27598    TIP3     H1       HT       0.417000       1.00800           0
     77934 W2       27598    TIP3     H2       HT       0.417000       1.00800           0
     77935 W2       27599    TIP3     OH2      OT      -0.834000       15.9994           0
     77936 W2       27599    TIP3     H1       HT       0.417000       1.00800           0
     77937 W2       27599    TIP3     H2       HT       0.417000       1.00800           0
     77938 W2       27600    TIP3     OH2      OT      -0.834000       15.9994           0
     77939 W2       27600    TIP3     H1       HT       0.417000       1.00800           0
     77940 W2       27600    TIP3     H2       HT       0.417000       1.00800           0
     77941 W2       27601    TIP3     OH2      OT      -0.834000       15.9994           0
     77942 W2       27601    TIP3     H1       HT       0.417000       1.00800           0
     77943 W2       27601    TIP3     H2       HT       0.417000       1.00800           0
     77944 W2       27602    TIP3     OH2      OT      -0.834000       15.9994           0
     77945 W2       27602    TIP3     H1       HT       0.417000       1.00800           0
     77946 W2       27602    TIP3     H2       HT       0.417000       1.00800           0
     77947 W2       27603    TIP3     OH2      OT      -0.834000       15.9994           0
     77948 W2       27603    TIP3     H1       HT       0.417000       1.00800           0
     77949 W2       27603    TIP3     H2       HT       0.417000       1.00800           0
     77950 W2       27604    TIP3     OH2      OT      -0.834000       15.9994           0
     77951 W2       27604    TIP3     H1       HT       0.417000       1.00800           0
     77952 W2       27604    TIP3     H2       HT       0.417000       1.00800           0
     77953 W2       27605    TIP3     OH2      OT      -0.834000       15.9994           0
     77954 W2       27605    TIP3     H1       HT       0.417000       1.00800           0
     77955 W2       27605    TIP3     H2       HT       0.417000       1.00800           0
     77956 W2       27606    TIP3     OH2      OT      -0.834000       15.9994           0
     77957 W2       27606    TIP3     H1       HT       0.417000       1.00800           0
     77958 W2       27606    TIP3     H2       HT       0.417000       1.00800           0
     77959 W2       27607    TIP3     OH2      OT      -0.834000       15.9994           0
     77960 W2       27607    TIP3     H1       HT       0.417000       1.00800           0
     77961 W2       27607    TIP3     H2       HT       0.417000       1.00800           0
     77962 W2       27608    TIP3     OH2      OT      -0.834000       15.9994           0
     77963 W2       27608    TIP3     H1       HT       0.417000       1.00800           0
     77964 W2       27608    TIP3     H2       HT       0.417000       1.00800           0
     77965 W2       27609    TIP3     OH2      OT      -0.834000       15.9994           0
     77966 W2       27609    TIP3     H1       HT       0.417000       1.00800           0
     77967 W2       27609    TIP3     H2       HT       0.417000       1.00800           0
     77968 W2       27610    TIP3     OH2      OT      -0.834000       15.9994           0
     77969 W2       27610    TIP3     H1       HT       0.417000       1.00800           0
     77970 W2       27610    TIP3     H2       HT       0.417000       1.00800           0
     77971 W2       27612    TIP3     OH2      OT      -0.834000       15.9994           0
     77972 W2       27612    TIP3     H1       HT       0.417000       1.00800           0
     77973 W2       27612    TIP3     H2       HT       0.417000       1.00800           0
     77974 W2       27613    TIP3     OH2      OT      -0.834000       15.9994           0
     77975 W2       27613    TIP3     H1       HT       0.417000       1.00800           0
     77976 W2       27613    TIP3     H2       HT       0.417000       1.00800           0
     77977 W2       27614    TIP3     OH2      OT      -0.834000       15.9994           0
     77978 W2       27614    TIP3     H1       HT       0.417000       1.00800           0
     77979 W2       27614    TIP3     H2       HT       0.417000       1.00800           0
     77980 W2       27615    TIP3     OH2      OT      -0.834000       15.9994           0
     77981 W2       27615    TIP3     H1       HT       0.417000       1.00800           0
     77982 W2       27615    TIP3     H2       HT       0.417000       1.00800           0
     77983 W2       27616    TIP3     OH2      OT      -0.834000       15.9994           0
     77984 W2       27616    TIP3     H1       HT       0.417000       1.00800           0
     77985 W2       27616    TIP3     H2       HT       0.417000       1.00800           0
     77986 W2       27617    TIP3     OH2      OT      -0.834000       15.9994           0
     77987 W2       27617    TIP3     H1       HT       0.417000       1.00800           0
     77988 W2       27617    TIP3     H2       HT       0.417000       1.00800           0
     77989 W2       27618    TIP3     OH2      OT      -0.834000       15.9994           0
     77990 W2       27618    TIP3     H1       HT       0.417000       1.00800           0
     77991 W2       27618    TIP3     H2       HT       0.417000       1.00800           0
     77992 W2       27619    TIP3     OH2      OT      -0.834000       15.9994           0
     77993 W2       27619    TIP3     H1       HT       0.417000       1.00800           0
     77994 W2       27619    TIP3     H2       HT       0.417000       1.00800           0
     77995 W2       27620    TIP3     OH2      OT      -0.834000       15.9994           0
     77996 W2       27620    TIP3     H1       HT       0.417000       1.00800           0
     77997 W2       27620    TIP3     H2       HT       0.417000       1.00800           0
     77998 W2       27621    TIP3     OH2      OT      -0.834000       15.9994           0
     77999 W2       27621    TIP3     H1       HT       0.417000       1.00800           0
     78000 W2       27621    TIP3     H2       HT       0.417000       1.00800           0
     78001 W2       27622    TIP3     OH2      OT      -0.834000       15.9994           0
     78002 W2       27622    TIP3     H1       HT       0.417000       1.00800           0
     78003 W2       27622    TIP3     H2       HT       0.417000       1.00800           0
     78004 W2       27623    TIP3     OH2      OT      -0.834000       15.9994           0
     78005 W2       27623    TIP3     H1       HT       0.417000       1.00800           0
     78006 W2       27623    TIP3     H2       HT       0.417000       1.00800           0
     78007 W2       27625    TIP3     OH2      OT      -0.834000       15.9994           0
     78008 W2       27625    TIP3     H1       HT       0.417000       1.00800           0
     78009 W2       27625    TIP3     H2       HT       0.417000       1.00800           0
     78010 W2       27626    TIP3     OH2      OT      -0.834000       15.9994           0
     78011 W2       27626    TIP3     H1       HT       0.417000       1.00800           0
     78012 W2       27626    TIP3     H2       HT       0.417000       1.00800           0
     78013 W2       27627    TIP3     OH2      OT      -0.834000       15.9994           0
     78014 W2       27627    TIP3     H1       HT       0.417000       1.00800           0
     78015 W2       27627    TIP3     H2       HT       0.417000       1.00800           0
     78016 W2       27628    TIP3     OH2      OT      -0.834000       15.9994           0
     78017 W2       27628    TIP3     H1       HT       0.417000       1.00800           0
     78018 W2       27628    TIP3     H2       HT       0.417000       1.00800           0
     78019 W2       27630    TIP3     OH2      OT      -0.834000       15.9994           0
     78020 W2       27630    TIP3     H1       HT       0.417000       1.00800           0
     78021 W2       27630    TIP3     H2       HT       0.417000       1.00800           0
     78022 W2       27631    TIP3     OH2      OT      -0.834000       15.9994           0
     78023 W2       27631    TIP3     H1       HT       0.417000       1.00800           0
     78024 W2       27631    TIP3     H2       HT       0.417000       1.00800           0
     78025 W2       27632    TIP3     OH2      OT      -0.834000       15.9994           0
     78026 W2       27632    TIP3     H1       HT       0.417000       1.00800           0
     78027 W2       27632    TIP3     H2       HT       0.417000       1.00800           0
     78028 W2       27633    TIP3     OH2      OT      -0.834000       15.9994           0
     78029 W2       27633    TIP3     H1       HT       0.417000       1.00800           0
     78030 W2       27633    TIP3     H2       HT       0.417000       1.00800           0
     78031 W2       27635    TIP3     OH2      OT      -0.834000       15.9994           0
     78032 W2       27635    TIP3     H1       HT       0.417000       1.00800           0
     78033 W2       27635    TIP3     H2       HT       0.417000       1.00800           0
     78034 W2       27637    TIP3     OH2      OT      -0.834000       15.9994           0
     78035 W2       27637    TIP3     H1       HT       0.417000       1.00800           0
     78036 W2       27637    TIP3     H2       HT       0.417000       1.00800           0
     78037 W2       27639    TIP3     OH2      OT      -0.834000       15.9994           0
     78038 W2       27639    TIP3     H1       HT       0.417000       1.00800           0
     78039 W2       27639    TIP3     H2       HT       0.417000       1.00800           0
     78040 W2       27640    TIP3     OH2      OT      -0.834000       15.9994           0
     78041 W2       27640    TIP3     H1       HT       0.417000       1.00800           0
     78042 W2       27640    TIP3     H2       HT       0.417000       1.00800           0
     78043 W2       27641    TIP3     OH2      OT      -0.834000       15.9994           0
     78044 W2       27641    TIP3     H1       HT       0.417000       1.00800           0
     78045 W2       27641    TIP3     H2       HT       0.417000       1.00800           0
     78046 W2       27642    TIP3     OH2      OT      -0.834000       15.9994           0
     78047 W2       27642    TIP3     H1       HT       0.417000       1.00800           0
     78048 W2       27642    TIP3     H2       HT       0.417000       1.00800           0
     78049 W2       27643    TIP3     OH2      OT      -0.834000       15.9994           0
     78050 W2       27643    TIP3     H1       HT       0.417000       1.00800           0
     78051 W2       27643    TIP3     H2       HT       0.417000       1.00800           0
     78052 W2       27646    TIP3     OH2      OT      -0.834000       15.9994           0
     78053 W2       27646    TIP3     H1       HT       0.417000       1.00800           0
     78054 W2       27646    TIP3     H2       HT       0.417000       1.00800           0
     78055 W2       27647    TIP3     OH2      OT      -0.834000       15.9994           0
     78056 W2       27647    TIP3     H1       HT       0.417000       1.00800           0
     78057 W2       27647    TIP3     H2       HT       0.417000       1.00800           0
     78058 W2       27648    TIP3     OH2      OT      -0.834000       15.9994           0
     78059 W2       27648    TIP3     H1       HT       0.417000       1.00800           0
     78060 W2       27648    TIP3     H2       HT       0.417000       1.00800           0
     78061 W2       27649    TIP3     OH2      OT      -0.834000       15.9994           0
     78062 W2       27649    TIP3     H1       HT       0.417000       1.00800           0
     78063 W2       27649    TIP3     H2       HT       0.417000       1.00800           0
     78064 W2       27652    TIP3     OH2      OT      -0.834000       15.9994           0
     78065 W2       27652    TIP3     H1       HT       0.417000       1.00800           0
     78066 W2       27652    TIP3     H2       HT       0.417000       1.00800           0
     78067 W2       27655    TIP3     OH2      OT      -0.834000       15.9994           0
     78068 W2       27655    TIP3     H1       HT       0.417000       1.00800           0
     78069 W2       27655    TIP3     H2       HT       0.417000       1.00800           0
     78070 W2       27656    TIP3     OH2      OT      -0.834000       15.9994           0
     78071 W2       27656    TIP3     H1       HT       0.417000       1.00800           0
     78072 W2       27656    TIP3     H2       HT       0.417000       1.00800           0
     78073 W2       27657    TIP3     OH2      OT      -0.834000       15.9994           0
     78074 W2       27657    TIP3     H1       HT       0.417000       1.00800           0
     78075 W2       27657    TIP3     H2       HT       0.417000       1.00800           0
     78076 W2       27658    TIP3     OH2      OT      -0.834000       15.9994           0
     78077 W2       27658    TIP3     H1       HT       0.417000       1.00800           0
     78078 W2       27658    TIP3     H2       HT       0.417000       1.00800           0
     78079 W2       27659    TIP3     OH2      OT      -0.834000       15.9994           0
     78080 W2       27659    TIP3     H1       HT       0.417000       1.00800           0
     78081 W2       27659    TIP3     H2       HT       0.417000       1.00800           0
     78082 W2       27661    TIP3     OH2      OT      -0.834000       15.9994           0
     78083 W2       27661    TIP3     H1       HT       0.417000       1.00800           0
     78084 W2       27661    TIP3     H2       HT       0.417000       1.00800           0
     78085 W2       27662    TIP3     OH2      OT      -0.834000       15.9994           0
     78086 W2       27662    TIP3     H1       HT       0.417000       1.00800           0
     78087 W2       27662    TIP3     H2       HT       0.417000       1.00800           0
     78088 W2       27663    TIP3     OH2      OT      -0.834000       15.9994           0
     78089 W2       27663    TIP3     H1       HT       0.417000       1.00800           0
     78090 W2       27663    TIP3     H2       HT       0.417000       1.00800           0
     78091 W2       27664    TIP3     OH2      OT      -0.834000       15.9994           0
     78092 W2       27664    TIP3     H1       HT       0.417000       1.00800           0
     78093 W2       27664    TIP3     H2       HT       0.417000       1.00800           0
     78094 W2       27665    TIP3     OH2      OT      -0.834000       15.9994           0
     78095 W2       27665    TIP3     H1       HT       0.417000       1.00800           0
     78096 W2       27665    TIP3     H2       HT       0.417000       1.00800           0
     78097 W2       27666    TIP3     OH2      OT      -0.834000       15.9994           0
     78098 W2       27666    TIP3     H1       HT       0.417000       1.00800           0
     78099 W2       27666    TIP3     H2       HT       0.417000       1.00800           0
     78100 W2       27667    TIP3     OH2      OT      -0.834000       15.9994           0
     78101 W2       27667    TIP3     H1       HT       0.417000       1.00800           0
     78102 W2       27667    TIP3     H2       HT       0.417000       1.00800           0
     78103 W2       27668    TIP3     OH2      OT      -0.834000       15.9994           0
     78104 W2       27668    TIP3     H1       HT       0.417000       1.00800           0
     78105 W2       27668    TIP3     H2       HT       0.417000       1.00800           0
     78106 W2       27669    TIP3     OH2      OT      -0.834000       15.9994           0
     78107 W2       27669    TIP3     H1       HT       0.417000       1.00800           0
     78108 W2       27669    TIP3     H2       HT       0.417000       1.00800           0
     78109 W2       27670    TIP3     OH2      OT      -0.834000       15.9994           0
     78110 W2       27670    TIP3     H1       HT       0.417000       1.00800           0
     78111 W2       27670    TIP3     H2       HT       0.417000       1.00800           0
     78112 W2       27671    TIP3     OH2      OT      -0.834000       15.9994           0
     78113 W2       27671    TIP3     H1       HT       0.417000       1.00800           0
     78114 W2       27671    TIP3     H2       HT       0.417000       1.00800           0
     78115 W2       27674    TIP3     OH2      OT      -0.834000       15.9994           0
     78116 W2       27674    TIP3     H1       HT       0.417000       1.00800           0
     78117 W2       27674    TIP3     H2       HT       0.417000       1.00800           0
     78118 W2       27675    TIP3     OH2      OT      -0.834000       15.9994           0
     78119 W2       27675    TIP3     H1       HT       0.417000       1.00800           0
     78120 W2       27675    TIP3     H2       HT       0.417000       1.00800           0
     78121 W2       27676    TIP3     OH2      OT      -0.834000       15.9994           0
     78122 W2       27676    TIP3     H1       HT       0.417000       1.00800           0
     78123 W2       27676    TIP3     H2       HT       0.417000       1.00800           0
     78124 W2       27677    TIP3     OH2      OT      -0.834000       15.9994           0
     78125 W2       27677    TIP3     H1       HT       0.417000       1.00800           0
     78126 W2       27677    TIP3     H2       HT       0.417000       1.00800           0
     78127 W2       27678    TIP3     OH2      OT      -0.834000       15.9994           0
     78128 W2       27678    TIP3     H1       HT       0.417000       1.00800           0
     78129 W2       27678    TIP3     H2       HT       0.417000       1.00800           0
     78130 W2       27679    TIP3     OH2      OT      -0.834000       15.9994           0
     78131 W2       27679    TIP3     H1       HT       0.417000       1.00800           0
     78132 W2       27679    TIP3     H2       HT       0.417000       1.00800           0
     78133 W2       27681    TIP3     OH2      OT      -0.834000       15.9994           0
     78134 W2       27681    TIP3     H1       HT       0.417000       1.00800           0
     78135 W2       27681    TIP3     H2       HT       0.417000       1.00800           0
     78136 W2       27682    TIP3     OH2      OT      -0.834000       15.9994           0
     78137 W2       27682    TIP3     H1       HT       0.417000       1.00800           0
     78138 W2       27682    TIP3     H2       HT       0.417000       1.00800           0
     78139 W2       27683    TIP3     OH2      OT      -0.834000       15.9994           0
     78140 W2       27683    TIP3     H1       HT       0.417000       1.00800           0
     78141 W2       27683    TIP3     H2       HT       0.417000       1.00800           0
     78142 W2       27687    TIP3     OH2      OT      -0.834000       15.9994           0
     78143 W2       27687    TIP3     H1       HT       0.417000       1.00800           0
     78144 W2       27687    TIP3     H2       HT       0.417000       1.00800           0
     78145 W2       27689    TIP3     OH2      OT      -0.834000       15.9994           0
     78146 W2       27689    TIP3     H1       HT       0.417000       1.00800           0
     78147 W2       27689    TIP3     H2       HT       0.417000       1.00800           0
     78148 W2       27690    TIP3     OH2      OT      -0.834000       15.9994           0
     78149 W2       27690    TIP3     H1       HT       0.417000       1.00800           0
     78150 W2       27690    TIP3     H2       HT       0.417000       1.00800           0
     78151 W2       27691    TIP3     OH2      OT      -0.834000       15.9994           0
     78152 W2       27691    TIP3     H1       HT       0.417000       1.00800           0
     78153 W2       27691    TIP3     H2       HT       0.417000       1.00800           0
     78154 W2       27692    TIP3     OH2      OT      -0.834000       15.9994           0
     78155 W2       27692    TIP3     H1       HT       0.417000       1.00800           0
     78156 W2       27692    TIP3     H2       HT       0.417000       1.00800           0
     78157 W2       27693    TIP3     OH2      OT      -0.834000       15.9994           0
     78158 W2       27693    TIP3     H1       HT       0.417000       1.00800           0
     78159 W2       27693    TIP3     H2       HT       0.417000       1.00800           0
     78160 W2       27694    TIP3     OH2      OT      -0.834000       15.9994           0
     78161 W2       27694    TIP3     H1       HT       0.417000       1.00800           0
     78162 W2       27694    TIP3     H2       HT       0.417000       1.00800           0
     78163 W2       27695    TIP3     OH2      OT      -0.834000       15.9994           0
     78164 W2       27695    TIP3     H1       HT       0.417000       1.00800           0
     78165 W2       27695    TIP3     H2       HT       0.417000       1.00800           0
     78166 W2       27696    TIP3     OH2      OT      -0.834000       15.9994           0
     78167 W2       27696    TIP3     H1       HT       0.417000       1.00800           0
     78168 W2       27696    TIP3     H2       HT       0.417000       1.00800           0
     78169 W2       27697    TIP3     OH2      OT      -0.834000       15.9994           0
     78170 W2       27697    TIP3     H1       HT       0.417000       1.00800           0
     78171 W2       27697    TIP3     H2       HT       0.417000       1.00800           0
     78172 W2       27699    TIP3     OH2      OT      -0.834000       15.9994           0
     78173 W2       27699    TIP3     H1       HT       0.417000       1.00800           0
     78174 W2       27699    TIP3     H2       HT       0.417000       1.00800           0
     78175 W2       27701    TIP3     OH2      OT      -0.834000       15.9994           0
     78176 W2       27701    TIP3     H1       HT       0.417000       1.00800           0
     78177 W2       27701    TIP3     H2       HT       0.417000       1.00800           0
     78178 W2       27702    TIP3     OH2      OT      -0.834000       15.9994           0
     78179 W2       27702    TIP3     H1       HT       0.417000       1.00800           0
     78180 W2       27702    TIP3     H2       HT       0.417000       1.00800           0
     78181 W2       27703    TIP3     OH2      OT      -0.834000       15.9994           0
     78182 W2       27703    TIP3     H1       HT       0.417000       1.00800           0
     78183 W2       27703    TIP3     H2       HT       0.417000       1.00800           0
     78184 W2       27704    TIP3     OH2      OT      -0.834000       15.9994           0
     78185 W2       27704    TIP3     H1       HT       0.417000       1.00800           0
     78186 W2       27704    TIP3     H2       HT       0.417000       1.00800           0
     78187 W2       27705    TIP3     OH2      OT      -0.834000       15.9994           0
     78188 W2       27705    TIP3     H1       HT       0.417000       1.00800           0
     78189 W2       27705    TIP3     H2       HT       0.417000       1.00800           0
     78190 W2       27706    TIP3     OH2      OT      -0.834000       15.9994           0
     78191 W2       27706    TIP3     H1       HT       0.417000       1.00800           0
     78192 W2       27706    TIP3     H2       HT       0.417000       1.00800           0
     78193 W2       27707    TIP3     OH2      OT      -0.834000       15.9994           0
     78194 W2       27707    TIP3     H1       HT       0.417000       1.00800           0
     78195 W2       27707    TIP3     H2       HT       0.417000       1.00800           0
     78196 W2       27708    TIP3     OH2      OT      -0.834000       15.9994           0
     78197 W2       27708    TIP3     H1       HT       0.417000       1.00800           0
     78198 W2       27708    TIP3     H2       HT       0.417000       1.00800           0
     78199 W2       27709    TIP3     OH2      OT      -0.834000       15.9994           0
     78200 W2       27709    TIP3     H1       HT       0.417000       1.00800           0
     78201 W2       27709    TIP3     H2       HT       0.417000       1.00800           0
     78202 W2       27711    TIP3     OH2      OT      -0.834000       15.9994           0
     78203 W2       27711    TIP3     H1       HT       0.417000       1.00800           0
     78204 W2       27711    TIP3     H2       HT       0.417000       1.00800           0
     78205 W2       27712    TIP3     OH2      OT      -0.834000       15.9994           0
     78206 W2       27712    TIP3     H1       HT       0.417000       1.00800           0
     78207 W2       27712    TIP3     H2       HT       0.417000       1.00800           0
     78208 W2       27713    TIP3     OH2      OT      -0.834000       15.9994           0
     78209 W2       27713    TIP3     H1       HT       0.417000       1.00800           0
     78210 W2       27713    TIP3     H2       HT       0.417000       1.00800           0
     78211 W2       27715    TIP3     OH2      OT      -0.834000       15.9994           0
     78212 W2       27715    TIP3     H1       HT       0.417000       1.00800           0
     78213 W2       27715    TIP3     H2       HT       0.417000       1.00800           0
     78214 W2       27716    TIP3     OH2      OT      -0.834000       15.9994           0
     78215 W2       27716    TIP3     H1       HT       0.417000       1.00800           0
     78216 W2       27716    TIP3     H2       HT       0.417000       1.00800           0
     78217 W2       27717    TIP3     OH2      OT      -0.834000       15.9994           0
     78218 W2       27717    TIP3     H1       HT       0.417000       1.00800           0
     78219 W2       27717    TIP3     H2       HT       0.417000       1.00800           0
     78220 W2       27718    TIP3     OH2      OT      -0.834000       15.9994           0
     78221 W2       27718    TIP3     H1       HT       0.417000       1.00800           0
     78222 W2       27718    TIP3     H2       HT       0.417000       1.00800           0
     78223 W2       27719    TIP3     OH2      OT      -0.834000       15.9994           0
     78224 W2       27719    TIP3     H1       HT       0.417000       1.00800           0
     78225 W2       27719    TIP3     H2       HT       0.417000       1.00800           0
     78226 W2       27720    TIP3     OH2      OT      -0.834000       15.9994           0
     78227 W2       27720    TIP3     H1       HT       0.417000       1.00800           0
     78228 W2       27720    TIP3     H2       HT       0.417000       1.00800           0
     78229 W2       27723    TIP3     OH2      OT      -0.834000       15.9994           0
     78230 W2       27723    TIP3     H1       HT       0.417000       1.00800           0
     78231 W2       27723    TIP3     H2       HT       0.417000       1.00800           0
     78232 W2       27725    TIP3     OH2      OT      -0.834000       15.9994           0
     78233 W2       27725    TIP3     H1       HT       0.417000       1.00800           0
     78234 W2       27725    TIP3     H2       HT       0.417000       1.00800           0
     78235 W2       27727    TIP3     OH2      OT      -0.834000       15.9994           0
     78236 W2       27727    TIP3     H1       HT       0.417000       1.00800           0
     78237 W2       27727    TIP3     H2       HT       0.417000       1.00800           0
     78238 W2       27729    TIP3     OH2      OT      -0.834000       15.9994           0
     78239 W2       27729    TIP3     H1       HT       0.417000       1.00800           0
     78240 W2       27729    TIP3     H2       HT       0.417000       1.00800           0
     78241 W2       27732    TIP3     OH2      OT      -0.834000       15.9994           0
     78242 W2       27732    TIP3     H1       HT       0.417000       1.00800           0
     78243 W2       27732    TIP3     H2       HT       0.417000       1.00800           0
     78244 W2       27734    TIP3     OH2      OT      -0.834000       15.9994           0
     78245 W2       27734    TIP3     H1       HT       0.417000       1.00800           0
     78246 W2       27734    TIP3     H2       HT       0.417000       1.00800           0
     78247 W2       27736    TIP3     OH2      OT      -0.834000       15.9994           0
     78248 W2       27736    TIP3     H1       HT       0.417000       1.00800           0
     78249 W2       27736    TIP3     H2       HT       0.417000       1.00800           0
     78250 W2       27738    TIP3     OH2      OT      -0.834000       15.9994           0
     78251 W2       27738    TIP3     H1       HT       0.417000       1.00800           0
     78252 W2       27738    TIP3     H2       HT       0.417000       1.00800           0
     78253 W2       27750    TIP3     OH2      OT      -0.834000       15.9994           0
     78254 W2       27750    TIP3     H1       HT       0.417000       1.00800           0
     78255 W2       27750    TIP3     H2       HT       0.417000       1.00800           0
     78256 W2       27751    TIP3     OH2      OT      -0.834000       15.9994           0
     78257 W2       27751    TIP3     H1       HT       0.417000       1.00800           0
     78258 W2       27751    TIP3     H2       HT       0.417000       1.00800           0
     78259 W2       27752    TIP3     OH2      OT      -0.834000       15.9994           0
     78260 W2       27752    TIP3     H1       HT       0.417000       1.00800           0
     78261 W2       27752    TIP3     H2       HT       0.417000       1.00800           0
     78262 W2       27753    TIP3     OH2      OT      -0.834000       15.9994           0
     78263 W2       27753    TIP3     H1       HT       0.417000       1.00800           0
     78264 W2       27753    TIP3     H2       HT       0.417000       1.00800           0
     78265 W2       27754    TIP3     OH2      OT      -0.834000       15.9994           0
     78266 W2       27754    TIP3     H1       HT       0.417000       1.00800           0
     78267 W2       27754    TIP3     H2       HT       0.417000       1.00800           0
     78268 W2       27757    TIP3     OH2      OT      -0.834000       15.9994           0
     78269 W2       27757    TIP3     H1       HT       0.417000       1.00800           0
     78270 W2       27757    TIP3     H2       HT       0.417000       1.00800           0
     78271 W2       27758    TIP3     OH2      OT      -0.834000       15.9994           0
     78272 W2       27758    TIP3     H1       HT       0.417000       1.00800           0
     78273 W2       27758    TIP3     H2       HT       0.417000       1.00800           0
     78274 W2       27759    TIP3     OH2      OT      -0.834000       15.9994           0
     78275 W2       27759    TIP3     H1       HT       0.417000       1.00800           0
     78276 W2       27759    TIP3     H2       HT       0.417000       1.00800           0
     78277 W2       27760    TIP3     OH2      OT      -0.834000       15.9994           0
     78278 W2       27760    TIP3     H1       HT       0.417000       1.00800           0
     78279 W2       27760    TIP3     H2       HT       0.417000       1.00800           0
     78280 W2       27761    TIP3     OH2      OT      -0.834000       15.9994           0
     78281 W2       27761    TIP3     H1       HT       0.417000       1.00800           0
     78282 W2       27761    TIP3     H2       HT       0.417000       1.00800           0
     78283 W2       27762    TIP3     OH2      OT      -0.834000       15.9994           0
     78284 W2       27762    TIP3     H1       HT       0.417000       1.00800           0
     78285 W2       27762    TIP3     H2       HT       0.417000       1.00800           0
     78286 W2       27763    TIP3     OH2      OT      -0.834000       15.9994           0
     78287 W2       27763    TIP3     H1       HT       0.417000       1.00800           0
     78288 W2       27763    TIP3     H2       HT       0.417000       1.00800           0
     78289 W2       27764    TIP3     OH2      OT      -0.834000       15.9994           0
     78290 W2       27764    TIP3     H1       HT       0.417000       1.00800           0
     78291 W2       27764    TIP3     H2       HT       0.417000       1.00800           0
     78292 W2       27767    TIP3     OH2      OT      -0.834000       15.9994           0
     78293 W2       27767    TIP3     H1       HT       0.417000       1.00800           0
     78294 W2       27767    TIP3     H2       HT       0.417000       1.00800           0
     78295 W2       27768    TIP3     OH2      OT      -0.834000       15.9994           0
     78296 W2       27768    TIP3     H1       HT       0.417000       1.00800           0
     78297 W2       27768    TIP3     H2       HT       0.417000       1.00800           0
     78298 W2       27769    TIP3     OH2      OT      -0.834000       15.9994           0
     78299 W2       27769    TIP3     H1       HT       0.417000       1.00800           0
     78300 W2       27769    TIP3     H2       HT       0.417000       1.00800           0
     78301 W2       27770    TIP3     OH2      OT      -0.834000       15.9994           0
     78302 W2       27770    TIP3     H1       HT       0.417000       1.00800           0
     78303 W2       27770    TIP3     H2       HT       0.417000       1.00800           0
     78304 W2       27773    TIP3     OH2      OT      -0.834000       15.9994           0
     78305 W2       27773    TIP3     H1       HT       0.417000       1.00800           0
     78306 W2       27773    TIP3     H2       HT       0.417000       1.00800           0
     78307 W2       27774    TIP3     OH2      OT      -0.834000       15.9994           0
     78308 W2       27774    TIP3     H1       HT       0.417000       1.00800           0
     78309 W2       27774    TIP3     H2       HT       0.417000       1.00800           0
     78310 W2       27775    TIP3     OH2      OT      -0.834000       15.9994           0
     78311 W2       27775    TIP3     H1       HT       0.417000       1.00800           0
     78312 W2       27775    TIP3     H2       HT       0.417000       1.00800           0
     78313 W2       27777    TIP3     OH2      OT      -0.834000       15.9994           0
     78314 W2       27777    TIP3     H1       HT       0.417000       1.00800           0
     78315 W2       27777    TIP3     H2       HT       0.417000       1.00800           0
     78316 W2       27778    TIP3     OH2      OT      -0.834000       15.9994           0
     78317 W2       27778    TIP3     H1       HT       0.417000       1.00800           0
     78318 W2       27778    TIP3     H2       HT       0.417000       1.00800           0
     78319 W2       27779    TIP3     OH2      OT      -0.834000       15.9994           0
     78320 W2       27779    TIP3     H1       HT       0.417000       1.00800           0
     78321 W2       27779    TIP3     H2       HT       0.417000       1.00800           0
     78322 W2       27780    TIP3     OH2      OT      -0.834000       15.9994           0
     78323 W2       27780    TIP3     H1       HT       0.417000       1.00800           0
     78324 W2       27780    TIP3     H2       HT       0.417000       1.00800           0
     78325 W2       27782    TIP3     OH2      OT      -0.834000       15.9994           0
     78326 W2       27782    TIP3     H1       HT       0.417000       1.00800           0
     78327 W2       27782    TIP3     H2       HT       0.417000       1.00800           0
     78328 W2       27786    TIP3     OH2      OT      -0.834000       15.9994           0
     78329 W2       27786    TIP3     H1       HT       0.417000       1.00800           0
     78330 W2       27786    TIP3     H2       HT       0.417000       1.00800           0
     78331 W2       27787    TIP3     OH2      OT      -0.834000       15.9994           0
     78332 W2       27787    TIP3     H1       HT       0.417000       1.00800           0
     78333 W2       27787    TIP3     H2       HT       0.417000       1.00800           0
     78334 W2       27788    TIP3     OH2      OT      -0.834000       15.9994           0
     78335 W2       27788    TIP3     H1       HT       0.417000       1.00800           0
     78336 W2       27788    TIP3     H2       HT       0.417000       1.00800           0
     78337 W2       27789    TIP3     OH2      OT      -0.834000       15.9994           0
     78338 W2       27789    TIP3     H1       HT       0.417000       1.00800           0
     78339 W2       27789    TIP3     H2       HT       0.417000       1.00800           0
     78340 W2       27790    TIP3     OH2      OT      -0.834000       15.9994           0
     78341 W2       27790    TIP3     H1       HT       0.417000       1.00800           0
     78342 W2       27790    TIP3     H2       HT       0.417000       1.00800           0
     78343 W2       27791    TIP3     OH2      OT      -0.834000       15.9994           0
     78344 W2       27791    TIP3     H1       HT       0.417000       1.00800           0
     78345 W2       27791    TIP3     H2       HT       0.417000       1.00800           0
     78346 W2       27792    TIP3     OH2      OT      -0.834000       15.9994           0
     78347 W2       27792    TIP3     H1       HT       0.417000       1.00800           0
     78348 W2       27792    TIP3     H2       HT       0.417000       1.00800           0
     78349 W2       27793    TIP3     OH2      OT      -0.834000       15.9994           0
     78350 W2       27793    TIP3     H1       HT       0.417000       1.00800           0
     78351 W2       27793    TIP3     H2       HT       0.417000       1.00800           0
     78352 W2       27794    TIP3     OH2      OT      -0.834000       15.9994           0
     78353 W2       27794    TIP3     H1       HT       0.417000       1.00800           0
     78354 W2       27794    TIP3     H2       HT       0.417000       1.00800           0
     78355 W2       27795    TIP3     OH2      OT      -0.834000       15.9994           0
     78356 W2       27795    TIP3     H1       HT       0.417000       1.00800           0
     78357 W2       27795    TIP3     H2       HT       0.417000       1.00800           0
     78358 W2       27796    TIP3     OH2      OT      -0.834000       15.9994           0
     78359 W2       27796    TIP3     H1       HT       0.417000       1.00800           0
     78360 W2       27796    TIP3     H2       HT       0.417000       1.00800           0
     78361 W2       27797    TIP3     OH2      OT      -0.834000       15.9994           0
     78362 W2       27797    TIP3     H1       HT       0.417000       1.00800           0
     78363 W2       27797    TIP3     H2       HT       0.417000       1.00800           0
     78364 W2       27798    TIP3     OH2      OT      -0.834000       15.9994           0
     78365 W2       27798    TIP3     H1       HT       0.417000       1.00800           0
     78366 W2       27798    TIP3     H2       HT       0.417000       1.00800           0
     78367 W2       27799    TIP3     OH2      OT      -0.834000       15.9994           0
     78368 W2       27799    TIP3     H1       HT       0.417000       1.00800           0
     78369 W2       27799    TIP3     H2       HT       0.417000       1.00800           0
     78370 W2       27800    TIP3     OH2      OT      -0.834000       15.9994           0
     78371 W2       27800    TIP3     H1       HT       0.417000       1.00800           0
     78372 W2       27800    TIP3     H2       HT       0.417000       1.00800           0
     78373 W2       27801    TIP3     OH2      OT      -0.834000       15.9994           0
     78374 W2       27801    TIP3     H1       HT       0.417000       1.00800           0
     78375 W2       27801    TIP3     H2       HT       0.417000       1.00800           0
     78376 W2       27802    TIP3     OH2      OT      -0.834000       15.9994           0
     78377 W2       27802    TIP3     H1       HT       0.417000       1.00800           0
     78378 W2       27802    TIP3     H2       HT       0.417000       1.00800           0
     78379 W2       27803    TIP3     OH2      OT      -0.834000       15.9994           0
     78380 W2       27803    TIP3     H1       HT       0.417000       1.00800           0
     78381 W2       27803    TIP3     H2       HT       0.417000       1.00800           0
     78382 W2       27804    TIP3     OH2      OT      -0.834000       15.9994           0
     78383 W2       27804    TIP3     H1       HT       0.417000       1.00800           0
     78384 W2       27804    TIP3     H2       HT       0.417000       1.00800           0
     78385 W2       27805    TIP3     OH2      OT      -0.834000       15.9994           0
     78386 W2       27805    TIP3     H1       HT       0.417000       1.00800           0
     78387 W2       27805    TIP3     H2       HT       0.417000       1.00800           0
     78388 W2       27806    TIP3     OH2      OT      -0.834000       15.9994           0
     78389 W2       27806    TIP3     H1       HT       0.417000       1.00800           0
     78390 W2       27806    TIP3     H2       HT       0.417000       1.00800           0
     78391 W2       27809    TIP3     OH2      OT      -0.834000       15.9994           0
     78392 W2       27809    TIP3     H1       HT       0.417000       1.00800           0
     78393 W2       27809    TIP3     H2       HT       0.417000       1.00800           0
     78394 W2       27812    TIP3     OH2      OT      -0.834000       15.9994           0
     78395 W2       27812    TIP3     H1       HT       0.417000       1.00800           0
     78396 W2       27812    TIP3     H2       HT       0.417000       1.00800           0
     78397 W2       27813    TIP3     OH2      OT      -0.834000       15.9994           0
     78398 W2       27813    TIP3     H1       HT       0.417000       1.00800           0
     78399 W2       27813    TIP3     H2       HT       0.417000       1.00800           0
     78400 W2       27814    TIP3     OH2      OT      -0.834000       15.9994           0
     78401 W2       27814    TIP3     H1       HT       0.417000       1.00800           0
     78402 W2       27814    TIP3     H2       HT       0.417000       1.00800           0
     78403 W2       27815    TIP3     OH2      OT      -0.834000       15.9994           0
     78404 W2       27815    TIP3     H1       HT       0.417000       1.00800           0
     78405 W2       27815    TIP3     H2       HT       0.417000       1.00800           0
     78406 W2       27816    TIP3     OH2      OT      -0.834000       15.9994           0
     78407 W2       27816    TIP3     H1       HT       0.417000       1.00800           0
     78408 W2       27816    TIP3     H2       HT       0.417000       1.00800           0
     78409 W2       27817    TIP3     OH2      OT      -0.834000       15.9994           0
     78410 W2       27817    TIP3     H1       HT       0.417000       1.00800           0
     78411 W2       27817    TIP3     H2       HT       0.417000       1.00800           0
     78412 W2       27818    TIP3     OH2      OT      -0.834000       15.9994           0
     78413 W2       27818    TIP3     H1       HT       0.417000       1.00800           0
     78414 W2       27818    TIP3     H2       HT       0.417000       1.00800           0
     78415 W2       27819    TIP3     OH2      OT      -0.834000       15.9994           0
     78416 W2       27819    TIP3     H1       HT       0.417000       1.00800           0
     78417 W2       27819    TIP3     H2       HT       0.417000       1.00800           0
     78418 W2       27820    TIP3     OH2      OT      -0.834000       15.9994           0
     78419 W2       27820    TIP3     H1       HT       0.417000       1.00800           0
     78420 W2       27820    TIP3     H2       HT       0.417000       1.00800           0
     78421 W2       27821    TIP3     OH2      OT      -0.834000       15.9994           0
     78422 W2       27821    TIP3     H1       HT       0.417000       1.00800           0
     78423 W2       27821    TIP3     H2       HT       0.417000       1.00800           0
     78424 W2       27822    TIP3     OH2      OT      -0.834000       15.9994           0
     78425 W2       27822    TIP3     H1       HT       0.417000       1.00800           0
     78426 W2       27822    TIP3     H2       HT       0.417000       1.00800           0
     78427 W2       27823    TIP3     OH2      OT      -0.834000       15.9994           0
     78428 W2       27823    TIP3     H1       HT       0.417000       1.00800           0
     78429 W2       27823    TIP3     H2       HT       0.417000       1.00800           0
     78430 W2       27824    TIP3     OH2      OT      -0.834000       15.9994           0
     78431 W2       27824    TIP3     H1       HT       0.417000       1.00800           0
     78432 W2       27824    TIP3     H2       HT       0.417000       1.00800           0
     78433 W2       27825    TIP3     OH2      OT      -0.834000       15.9994           0
     78434 W2       27825    TIP3     H1       HT       0.417000       1.00800           0
     78435 W2       27825    TIP3     H2       HT       0.417000       1.00800           0
     78436 W2       27826    TIP3     OH2      OT      -0.834000       15.9994           0
     78437 W2       27826    TIP3     H1       HT       0.417000       1.00800           0
     78438 W2       27826    TIP3     H2       HT       0.417000       1.00800           0
     78439 W2       27827    TIP3     OH2      OT      -0.834000       15.9994           0
     78440 W2       27827    TIP3     H1       HT       0.417000       1.00800           0
     78441 W2       27827    TIP3     H2       HT       0.417000       1.00800           0
     78442 W2       27828    TIP3     OH2      OT      -0.834000       15.9994           0
     78443 W2       27828    TIP3     H1       HT       0.417000       1.00800           0
     78444 W2       27828    TIP3     H2       HT       0.417000       1.00800           0
     78445 W2       27829    TIP3     OH2      OT      -0.834000       15.9994           0
     78446 W2       27829    TIP3     H1       HT       0.417000       1.00800           0
     78447 W2       27829    TIP3     H2       HT       0.417000       1.00800           0
     78448 W2       27830    TIP3     OH2      OT      -0.834000       15.9994           0
     78449 W2       27830    TIP3     H1       HT       0.417000       1.00800           0
     78450 W2       27830    TIP3     H2       HT       0.417000       1.00800           0
     78451 W2       27831    TIP3     OH2      OT      -0.834000       15.9994           0
     78452 W2       27831    TIP3     H1       HT       0.417000       1.00800           0
     78453 W2       27831    TIP3     H2       HT       0.417000       1.00800           0
     78454 W2       27832    TIP3     OH2      OT      -0.834000       15.9994           0
     78455 W2       27832    TIP3     H1       HT       0.417000       1.00800           0
     78456 W2       27832    TIP3     H2       HT       0.417000       1.00800           0
     78457 W2       27833    TIP3     OH2      OT      -0.834000       15.9994           0
     78458 W2       27833    TIP3     H1       HT       0.417000       1.00800           0
     78459 W2       27833    TIP3     H2       HT       0.417000       1.00800           0
     78460 W2       27834    TIP3     OH2      OT      -0.834000       15.9994           0
     78461 W2       27834    TIP3     H1       HT       0.417000       1.00800           0
     78462 W2       27834    TIP3     H2       HT       0.417000       1.00800           0
     78463 W2       27835    TIP3     OH2      OT      -0.834000       15.9994           0
     78464 W2       27835    TIP3     H1       HT       0.417000       1.00800           0
     78465 W2       27835    TIP3     H2       HT       0.417000       1.00800           0
     78466 W2       27836    TIP3     OH2      OT      -0.834000       15.9994           0
     78467 W2       27836    TIP3     H1       HT       0.417000       1.00800           0
     78468 W2       27836    TIP3     H2       HT       0.417000       1.00800           0
     78469 W2       27837    TIP3     OH2      OT      -0.834000       15.9994           0
     78470 W2       27837    TIP3     H1       HT       0.417000       1.00800           0
     78471 W2       27837    TIP3     H2       HT       0.417000       1.00800           0
     78472 W2       27839    TIP3     OH2      OT      -0.834000       15.9994           0
     78473 W2       27839    TIP3     H1       HT       0.417000       1.00800           0
     78474 W2       27839    TIP3     H2       HT       0.417000       1.00800           0
     78475 W2       27840    TIP3     OH2      OT      -0.834000       15.9994           0
     78476 W2       27840    TIP3     H1       HT       0.417000       1.00800           0
     78477 W2       27840    TIP3     H2       HT       0.417000       1.00800           0
     78478 W2       27841    TIP3     OH2      OT      -0.834000       15.9994           0
     78479 W2       27841    TIP3     H1       HT       0.417000       1.00800           0
     78480 W2       27841    TIP3     H2       HT       0.417000       1.00800           0
     78481 W2       27842    TIP3     OH2      OT      -0.834000       15.9994           0
     78482 W2       27842    TIP3     H1       HT       0.417000       1.00800           0
     78483 W2       27842    TIP3     H2       HT       0.417000       1.00800           0
     78484 W2       27844    TIP3     OH2      OT      -0.834000       15.9994           0
     78485 W2       27844    TIP3     H1       HT       0.417000       1.00800           0
     78486 W2       27844    TIP3     H2       HT       0.417000       1.00800           0
     78487 W2       27846    TIP3     OH2      OT      -0.834000       15.9994           0
     78488 W2       27846    TIP3     H1       HT       0.417000       1.00800           0
     78489 W2       27846    TIP3     H2       HT       0.417000       1.00800           0
     78490 W2       27848    TIP3     OH2      OT      -0.834000       15.9994           0
     78491 W2       27848    TIP3     H1       HT       0.417000       1.00800           0
     78492 W2       27848    TIP3     H2       HT       0.417000       1.00800           0
     78493 W2       27849    TIP3     OH2      OT      -0.834000       15.9994           0
     78494 W2       27849    TIP3     H1       HT       0.417000       1.00800           0
     78495 W2       27849    TIP3     H2       HT       0.417000       1.00800           0
     78496 W2       27850    TIP3     OH2      OT      -0.834000       15.9994           0
     78497 W2       27850    TIP3     H1       HT       0.417000       1.00800           0
     78498 W2       27850    TIP3     H2       HT       0.417000       1.00800           0
     78499 W2       27852    TIP3     OH2      OT      -0.834000       15.9994           0
     78500 W2       27852    TIP3     H1       HT       0.417000       1.00800           0
     78501 W2       27852    TIP3     H2       HT       0.417000       1.00800           0
     78502 W2       27853    TIP3     OH2      OT      -0.834000       15.9994           0
     78503 W2       27853    TIP3     H1       HT       0.417000       1.00800           0
     78504 W2       27853    TIP3     H2       HT       0.417000       1.00800           0
     78505 W2       27854    TIP3     OH2      OT      -0.834000       15.9994           0
     78506 W2       27854    TIP3     H1       HT       0.417000       1.00800           0
     78507 W2       27854    TIP3     H2       HT       0.417000       1.00800           0
     78508 W2       27855    TIP3     OH2      OT      -0.834000       15.9994           0
     78509 W2       27855    TIP3     H1       HT       0.417000       1.00800           0
     78510 W2       27855    TIP3     H2       HT       0.417000       1.00800           0
     78511 W2       27857    TIP3     OH2      OT      -0.834000       15.9994           0
     78512 W2       27857    TIP3     H1       HT       0.417000       1.00800           0
     78513 W2       27857    TIP3     H2       HT       0.417000       1.00800           0
     78514 W2       27860    TIP3     OH2      OT      -0.834000       15.9994           0
     78515 W2       27860    TIP3     H1       HT       0.417000       1.00800           0
     78516 W2       27860    TIP3     H2       HT       0.417000       1.00800           0
     78517 W2       27861    TIP3     OH2      OT      -0.834000       15.9994           0
     78518 W2       27861    TIP3     H1       HT       0.417000       1.00800           0
     78519 W2       27861    TIP3     H2       HT       0.417000       1.00800           0
     78520 W2       27862    TIP3     OH2      OT      -0.834000       15.9994           0
     78521 W2       27862    TIP3     H1       HT       0.417000       1.00800           0
     78522 W2       27862    TIP3     H2       HT       0.417000       1.00800           0
     78523 W2       27863    TIP3     OH2      OT      -0.834000       15.9994           0
     78524 W2       27863    TIP3     H1       HT       0.417000       1.00800           0
     78525 W2       27863    TIP3     H2       HT       0.417000       1.00800           0
     78526 W2       27864    TIP3     OH2      OT      -0.834000       15.9994           0
     78527 W2       27864    TIP3     H1       HT       0.417000       1.00800           0
     78528 W2       27864    TIP3     H2       HT       0.417000       1.00800           0
     78529 W2       27866    TIP3     OH2      OT      -0.834000       15.9994           0
     78530 W2       27866    TIP3     H1       HT       0.417000       1.00800           0
     78531 W2       27866    TIP3     H2       HT       0.417000       1.00800           0
     78532 W2       27867    TIP3     OH2      OT      -0.834000       15.9994           0
     78533 W2       27867    TIP3     H1       HT       0.417000       1.00800           0
     78534 W2       27867    TIP3     H2       HT       0.417000       1.00800           0
     78535 W2       27868    TIP3     OH2      OT      -0.834000       15.9994           0
     78536 W2       27868    TIP3     H1       HT       0.417000       1.00800           0
     78537 W2       27868    TIP3     H2       HT       0.417000       1.00800           0
     78538 W2       27869    TIP3     OH2      OT      -0.834000       15.9994           0
     78539 W2       27869    TIP3     H1       HT       0.417000       1.00800           0
     78540 W2       27869    TIP3     H2       HT       0.417000       1.00800           0
     78541 W2       27870    TIP3     OH2      OT      -0.834000       15.9994           0
     78542 W2       27870    TIP3     H1       HT       0.417000       1.00800           0
     78543 W2       27870    TIP3     H2       HT       0.417000       1.00800           0
     78544 W2       27871    TIP3     OH2      OT      -0.834000       15.9994           0
     78545 W2       27871    TIP3     H1       HT       0.417000       1.00800           0
     78546 W2       27871    TIP3     H2       HT       0.417000       1.00800           0
     78547 W2       27872    TIP3     OH2      OT      -0.834000       15.9994           0
     78548 W2       27872    TIP3     H1       HT       0.417000       1.00800           0
     78549 W2       27872    TIP3     H2       HT       0.417000       1.00800           0
     78550 W2       27873    TIP3     OH2      OT      -0.834000       15.9994           0
     78551 W2       27873    TIP3     H1       HT       0.417000       1.00800           0
     78552 W2       27873    TIP3     H2       HT       0.417000       1.00800           0
     78553 W2       27874    TIP3     OH2      OT      -0.834000       15.9994           0
     78554 W2       27874    TIP3     H1       HT       0.417000       1.00800           0
     78555 W2       27874    TIP3     H2       HT       0.417000       1.00800           0
     78556 W2       27875    TIP3     OH2      OT      -0.834000       15.9994           0
     78557 W2       27875    TIP3     H1       HT       0.417000       1.00800           0
     78558 W2       27875    TIP3     H2       HT       0.417000       1.00800           0
     78559 W2       27876    TIP3     OH2      OT      -0.834000       15.9994           0
     78560 W2       27876    TIP3     H1       HT       0.417000       1.00800           0
     78561 W2       27876    TIP3     H2       HT       0.417000       1.00800           0
     78562 W2       27878    TIP3     OH2      OT      -0.834000       15.9994           0
     78563 W2       27878    TIP3     H1       HT       0.417000       1.00800           0
     78564 W2       27878    TIP3     H2       HT       0.417000       1.00800           0
     78565 W2       27879    TIP3     OH2      OT      -0.834000       15.9994           0
     78566 W2       27879    TIP3     H1       HT       0.417000       1.00800           0
     78567 W2       27879    TIP3     H2       HT       0.417000       1.00800           0
     78568 W2       27880    TIP3     OH2      OT      -0.834000       15.9994           0
     78569 W2       27880    TIP3     H1       HT       0.417000       1.00800           0
     78570 W2       27880    TIP3     H2       HT       0.417000       1.00800           0
     78571 W2       27881    TIP3     OH2      OT      -0.834000       15.9994           0
     78572 W2       27881    TIP3     H1       HT       0.417000       1.00800           0
     78573 W2       27881    TIP3     H2       HT       0.417000       1.00800           0
     78574 W2       27882    TIP3     OH2      OT      -0.834000       15.9994           0
     78575 W2       27882    TIP3     H1       HT       0.417000       1.00800           0
     78576 W2       27882    TIP3     H2       HT       0.417000       1.00800           0
     78577 W2       27884    TIP3     OH2      OT      -0.834000       15.9994           0
     78578 W2       27884    TIP3     H1       HT       0.417000       1.00800           0
     78579 W2       27884    TIP3     H2       HT       0.417000       1.00800           0
     78580 W2       27885    TIP3     OH2      OT      -0.834000       15.9994           0
     78581 W2       27885    TIP3     H1       HT       0.417000       1.00800           0
     78582 W2       27885    TIP3     H2       HT       0.417000       1.00800           0
     78583 W2       27886    TIP3     OH2      OT      -0.834000       15.9994           0
     78584 W2       27886    TIP3     H1       HT       0.417000       1.00800           0
     78585 W2       27886    TIP3     H2       HT       0.417000       1.00800           0
     78586 W2       27890    TIP3     OH2      OT      -0.834000       15.9994           0
     78587 W2       27890    TIP3     H1       HT       0.417000       1.00800           0
     78588 W2       27890    TIP3     H2       HT       0.417000       1.00800           0
     78589 W2       27891    TIP3     OH2      OT      -0.834000       15.9994           0
     78590 W2       27891    TIP3     H1       HT       0.417000       1.00800           0
     78591 W2       27891    TIP3     H2       HT       0.417000       1.00800           0
     78592 W2       27892    TIP3     OH2      OT      -0.834000       15.9994           0
     78593 W2       27892    TIP3     H1       HT       0.417000       1.00800           0
     78594 W2       27892    TIP3     H2       HT       0.417000       1.00800           0
     78595 W2       27893    TIP3     OH2      OT      -0.834000       15.9994           0
     78596 W2       27893    TIP3     H1       HT       0.417000       1.00800           0
     78597 W2       27893    TIP3     H2       HT       0.417000       1.00800           0
     78598 W2       27894    TIP3     OH2      OT      -0.834000       15.9994           0
     78599 W2       27894    TIP3     H1       HT       0.417000       1.00800           0
     78600 W2       27894    TIP3     H2       HT       0.417000       1.00800           0
     78601 W2       27895    TIP3     OH2      OT      -0.834000       15.9994           0
     78602 W2       27895    TIP3     H1       HT       0.417000       1.00800           0
     78603 W2       27895    TIP3     H2       HT       0.417000       1.00800           0
     78604 W2       27896    TIP3     OH2      OT      -0.834000       15.9994           0
     78605 W2       27896    TIP3     H1       HT       0.417000       1.00800           0
     78606 W2       27896    TIP3     H2       HT       0.417000       1.00800           0
     78607 W2       27897    TIP3     OH2      OT      -0.834000       15.9994           0
     78608 W2       27897    TIP3     H1       HT       0.417000       1.00800           0
     78609 W2       27897    TIP3     H2       HT       0.417000       1.00800           0
     78610 W2       27900    TIP3     OH2      OT      -0.834000       15.9994           0
     78611 W2       27900    TIP3     H1       HT       0.417000       1.00800           0
     78612 W2       27900    TIP3     H2       HT       0.417000       1.00800           0
     78613 W2       27901    TIP3     OH2      OT      -0.834000       15.9994           0
     78614 W2       27901    TIP3     H1       HT       0.417000       1.00800           0
     78615 W2       27901    TIP3     H2       HT       0.417000       1.00800           0
     78616 W2       27902    TIP3     OH2      OT      -0.834000       15.9994           0
     78617 W2       27902    TIP3     H1       HT       0.417000       1.00800           0
     78618 W2       27902    TIP3     H2       HT       0.417000       1.00800           0
     78619 W2       27903    TIP3     OH2      OT      -0.834000       15.9994           0
     78620 W2       27903    TIP3     H1       HT       0.417000       1.00800           0
     78621 W2       27903    TIP3     H2       HT       0.417000       1.00800           0
     78622 W2       27904    TIP3     OH2      OT      -0.834000       15.9994           0
     78623 W2       27904    TIP3     H1       HT       0.417000       1.00800           0
     78624 W2       27904    TIP3     H2       HT       0.417000       1.00800           0
     78625 W2       27905    TIP3     OH2      OT      -0.834000       15.9994           0
     78626 W2       27905    TIP3     H1       HT       0.417000       1.00800           0
     78627 W2       27905    TIP3     H2       HT       0.417000       1.00800           0
     78628 W2       27906    TIP3     OH2      OT      -0.834000       15.9994           0
     78629 W2       27906    TIP3     H1       HT       0.417000       1.00800           0
     78630 W2       27906    TIP3     H2       HT       0.417000       1.00800           0
     78631 W2       27907    TIP3     OH2      OT      -0.834000       15.9994           0
     78632 W2       27907    TIP3     H1       HT       0.417000       1.00800           0
     78633 W2       27907    TIP3     H2       HT       0.417000       1.00800           0
     78634 W2       27908    TIP3     OH2      OT      -0.834000       15.9994           0
     78635 W2       27908    TIP3     H1       HT       0.417000       1.00800           0
     78636 W2       27908    TIP3     H2       HT       0.417000       1.00800           0
     78637 W2       27910    TIP3     OH2      OT      -0.834000       15.9994           0
     78638 W2       27910    TIP3     H1       HT       0.417000       1.00800           0
     78639 W2       27910    TIP3     H2       HT       0.417000       1.00800           0
     78640 W2       27911    TIP3     OH2      OT      -0.834000       15.9994           0
     78641 W2       27911    TIP3     H1       HT       0.417000       1.00800           0
     78642 W2       27911    TIP3     H2       HT       0.417000       1.00800           0
     78643 W2       27912    TIP3     OH2      OT      -0.834000       15.9994           0
     78644 W2       27912    TIP3     H1       HT       0.417000       1.00800           0
     78645 W2       27912    TIP3     H2       HT       0.417000       1.00800           0
     78646 W2       27913    TIP3     OH2      OT      -0.834000       15.9994           0
     78647 W2       27913    TIP3     H1       HT       0.417000       1.00800           0
     78648 W2       27913    TIP3     H2       HT       0.417000       1.00800           0
     78649 W2       27914    TIP3     OH2      OT      -0.834000       15.9994           0
     78650 W2       27914    TIP3     H1       HT       0.417000       1.00800           0
     78651 W2       27914    TIP3     H2       HT       0.417000       1.00800           0
     78652 W2       27915    TIP3     OH2      OT      -0.834000       15.9994           0
     78653 W2       27915    TIP3     H1       HT       0.417000       1.00800           0
     78654 W2       27915    TIP3     H2       HT       0.417000       1.00800           0
     78655 W2       27916    TIP3     OH2      OT      -0.834000       15.9994           0
     78656 W2       27916    TIP3     H1       HT       0.417000       1.00800           0
     78657 W2       27916    TIP3     H2       HT       0.417000       1.00800           0
     78658 W2       27917    TIP3     OH2      OT      -0.834000       15.9994           0
     78659 W2       27917    TIP3     H1       HT       0.417000       1.00800           0
     78660 W2       27917    TIP3     H2       HT       0.417000       1.00800           0
     78661 W2       27920    TIP3     OH2      OT      -0.834000       15.9994           0
     78662 W2       27920    TIP3     H1       HT       0.417000       1.00800           0
     78663 W2       27920    TIP3     H2       HT       0.417000       1.00800           0
     78664 W2       27922    TIP3     OH2      OT      -0.834000       15.9994           0
     78665 W2       27922    TIP3     H1       HT       0.417000       1.00800           0
     78666 W2       27922    TIP3     H2       HT       0.417000       1.00800           0
     78667 W2       27924    TIP3     OH2      OT      -0.834000       15.9994           0
     78668 W2       27924    TIP3     H1       HT       0.417000       1.00800           0
     78669 W2       27924    TIP3     H2       HT       0.417000       1.00800           0
     78670 W2       27926    TIP3     OH2      OT      -0.834000       15.9994           0
     78671 W2       27926    TIP3     H1       HT       0.417000       1.00800           0
     78672 W2       27926    TIP3     H2       HT       0.417000       1.00800           0
     78673 W2       27929    TIP3     OH2      OT      -0.834000       15.9994           0
     78674 W2       27929    TIP3     H1       HT       0.417000       1.00800           0
     78675 W2       27929    TIP3     H2       HT       0.417000       1.00800           0
     78676 W2       27931    TIP3     OH2      OT      -0.834000       15.9994           0
     78677 W2       27931    TIP3     H1       HT       0.417000       1.00800           0
     78678 W2       27931    TIP3     H2       HT       0.417000       1.00800           0
     78679 W2       27934    TIP3     OH2      OT      -0.834000       15.9994           0
     78680 W2       27934    TIP3     H1       HT       0.417000       1.00800           0
     78681 W2       27934    TIP3     H2       HT       0.417000       1.00800           0
     78682 W2       27946    TIP3     OH2      OT      -0.834000       15.9994           0
     78683 W2       27946    TIP3     H1       HT       0.417000       1.00800           0
     78684 W2       27946    TIP3     H2       HT       0.417000       1.00800           0
     78685 W2       27947    TIP3     OH2      OT      -0.834000       15.9994           0
     78686 W2       27947    TIP3     H1       HT       0.417000       1.00800           0
     78687 W2       27947    TIP3     H2       HT       0.417000       1.00800           0
     78688 W2       27948    TIP3     OH2      OT      -0.834000       15.9994           0
     78689 W2       27948    TIP3     H1       HT       0.417000       1.00800           0
     78690 W2       27948    TIP3     H2       HT       0.417000       1.00800           0
     78691 W2       27949    TIP3     OH2      OT      -0.834000       15.9994           0
     78692 W2       27949    TIP3     H1       HT       0.417000       1.00800           0
     78693 W2       27949    TIP3     H2       HT       0.417000       1.00800           0
     78694 W2       27950    TIP3     OH2      OT      -0.834000       15.9994           0
     78695 W2       27950    TIP3     H1       HT       0.417000       1.00800           0
     78696 W2       27950    TIP3     H2       HT       0.417000       1.00800           0
     78697 W2       27952    TIP3     OH2      OT      -0.834000       15.9994           0
     78698 W2       27952    TIP3     H1       HT       0.417000       1.00800           0
     78699 W2       27952    TIP3     H2       HT       0.417000       1.00800           0
     78700 W2       27953    TIP3     OH2      OT      -0.834000       15.9994           0
     78701 W2       27953    TIP3     H1       HT       0.417000       1.00800           0
     78702 W2       27953    TIP3     H2       HT       0.417000       1.00800           0
     78703 W2       27954    TIP3     OH2      OT      -0.834000       15.9994           0
     78704 W2       27954    TIP3     H1       HT       0.417000       1.00800           0
     78705 W2       27954    TIP3     H2       HT       0.417000       1.00800           0
     78706 W2       27955    TIP3     OH2      OT      -0.834000       15.9994           0
     78707 W2       27955    TIP3     H1       HT       0.417000       1.00800           0
     78708 W2       27955    TIP3     H2       HT       0.417000       1.00800           0
     78709 W2       27957    TIP3     OH2      OT      -0.834000       15.9994           0
     78710 W2       27957    TIP3     H1       HT       0.417000       1.00800           0
     78711 W2       27957    TIP3     H2       HT       0.417000       1.00800           0
     78712 W2       27960    TIP3     OH2      OT      -0.834000       15.9994           0
     78713 W2       27960    TIP3     H1       HT       0.417000       1.00800           0
     78714 W2       27960    TIP3     H2       HT       0.417000       1.00800           0
     78715 W2       27961    TIP3     OH2      OT      -0.834000       15.9994           0
     78716 W2       27961    TIP3     H1       HT       0.417000       1.00800           0
     78717 W2       27961    TIP3     H2       HT       0.417000       1.00800           0
     78718 W2       27962    TIP3     OH2      OT      -0.834000       15.9994           0
     78719 W2       27962    TIP3     H1       HT       0.417000       1.00800           0
     78720 W2       27962    TIP3     H2       HT       0.417000       1.00800           0
     78721 W2       27963    TIP3     OH2      OT      -0.834000       15.9994           0
     78722 W2       27963    TIP3     H1       HT       0.417000       1.00800           0
     78723 W2       27963    TIP3     H2       HT       0.417000       1.00800           0
     78724 W2       27964    TIP3     OH2      OT      -0.834000       15.9994           0
     78725 W2       27964    TIP3     H1       HT       0.417000       1.00800           0
     78726 W2       27964    TIP3     H2       HT       0.417000       1.00800           0
     78727 W2       27965    TIP3     OH2      OT      -0.834000       15.9994           0
     78728 W2       27965    TIP3     H1       HT       0.417000       1.00800           0
     78729 W2       27965    TIP3     H2       HT       0.417000       1.00800           0
     78730 W2       27966    TIP3     OH2      OT      -0.834000       15.9994           0
     78731 W2       27966    TIP3     H1       HT       0.417000       1.00800           0
     78732 W2       27966    TIP3     H2       HT       0.417000       1.00800           0
     78733 W2       27967    TIP3     OH2      OT      -0.834000       15.9994           0
     78734 W2       27967    TIP3     H1       HT       0.417000       1.00800           0
     78735 W2       27967    TIP3     H2       HT       0.417000       1.00800           0
     78736 W2       27968    TIP3     OH2      OT      -0.834000       15.9994           0
     78737 W2       27968    TIP3     H1       HT       0.417000       1.00800           0
     78738 W2       27968    TIP3     H2       HT       0.417000       1.00800           0
     78739 W2       27969    TIP3     OH2      OT      -0.834000       15.9994           0
     78740 W2       27969    TIP3     H1       HT       0.417000       1.00800           0
     78741 W2       27969    TIP3     H2       HT       0.417000       1.00800           0
     78742 W2       27970    TIP3     OH2      OT      -0.834000       15.9994           0
     78743 W2       27970    TIP3     H1       HT       0.417000       1.00800           0
     78744 W2       27970    TIP3     H2       HT       0.417000       1.00800           0
     78745 W2       27971    TIP3     OH2      OT      -0.834000       15.9994           0
     78746 W2       27971    TIP3     H1       HT       0.417000       1.00800           0
     78747 W2       27971    TIP3     H2       HT       0.417000       1.00800           0
     78748 W2       27972    TIP3     OH2      OT      -0.834000       15.9994           0
     78749 W2       27972    TIP3     H1       HT       0.417000       1.00800           0
     78750 W2       27972    TIP3     H2       HT       0.417000       1.00800           0
     78751 W2       27973    TIP3     OH2      OT      -0.834000       15.9994           0
     78752 W2       27973    TIP3     H1       HT       0.417000       1.00800           0
     78753 W2       27973    TIP3     H2       HT       0.417000       1.00800           0
     78754 W2       27974    TIP3     OH2      OT      -0.834000       15.9994           0
     78755 W2       27974    TIP3     H1       HT       0.417000       1.00800           0
     78756 W2       27974    TIP3     H2       HT       0.417000       1.00800           0
     78757 W2       27975    TIP3     OH2      OT      -0.834000       15.9994           0
     78758 W2       27975    TIP3     H1       HT       0.417000       1.00800           0
     78759 W2       27975    TIP3     H2       HT       0.417000       1.00800           0
     78760 W2       27976    TIP3     OH2      OT      -0.834000       15.9994           0
     78761 W2       27976    TIP3     H1       HT       0.417000       1.00800           0
     78762 W2       27976    TIP3     H2       HT       0.417000       1.00800           0
     78763 W2       27979    TIP3     OH2      OT      -0.834000       15.9994           0
     78764 W2       27979    TIP3     H1       HT       0.417000       1.00800           0
     78765 W2       27979    TIP3     H2       HT       0.417000       1.00800           0
     78766 W2       27981    TIP3     OH2      OT      -0.834000       15.9994           0
     78767 W2       27981    TIP3     H1       HT       0.417000       1.00800           0
     78768 W2       27981    TIP3     H2       HT       0.417000       1.00800           0
     78769 W2       27982    TIP3     OH2      OT      -0.834000       15.9994           0
     78770 W2       27982    TIP3     H1       HT       0.417000       1.00800           0
     78771 W2       27982    TIP3     H2       HT       0.417000       1.00800           0
     78772 W2       27983    TIP3     OH2      OT      -0.834000       15.9994           0
     78773 W2       27983    TIP3     H1       HT       0.417000       1.00800           0
     78774 W2       27983    TIP3     H2       HT       0.417000       1.00800           0
     78775 W2       27984    TIP3     OH2      OT      -0.834000       15.9994           0
     78776 W2       27984    TIP3     H1       HT       0.417000       1.00800           0
     78777 W2       27984    TIP3     H2       HT       0.417000       1.00800           0
     78778 W2       27985    TIP3     OH2      OT      -0.834000       15.9994           0
     78779 W2       27985    TIP3     H1       HT       0.417000       1.00800           0
     78780 W2       27985    TIP3     H2       HT       0.417000       1.00800           0
     78781 W2       27986    TIP3     OH2      OT      -0.834000       15.9994           0
     78782 W2       27986    TIP3     H1       HT       0.417000       1.00800           0
     78783 W2       27986    TIP3     H2       HT       0.417000       1.00800           0
     78784 W2       27987    TIP3     OH2      OT      -0.834000       15.9994           0
     78785 W2       27987    TIP3     H1       HT       0.417000       1.00800           0
     78786 W2       27987    TIP3     H2       HT       0.417000       1.00800           0
     78787 W2       27988    TIP3     OH2      OT      -0.834000       15.9994           0
     78788 W2       27988    TIP3     H1       HT       0.417000       1.00800           0
     78789 W2       27988    TIP3     H2       HT       0.417000       1.00800           0
     78790 W2       27989    TIP3     OH2      OT      -0.834000       15.9994           0
     78791 W2       27989    TIP3     H1       HT       0.417000       1.00800           0
     78792 W2       27989    TIP3     H2       HT       0.417000       1.00800           0
     78793 W2       27990    TIP3     OH2      OT      -0.834000       15.9994           0
     78794 W2       27990    TIP3     H1       HT       0.417000       1.00800           0
     78795 W2       27990    TIP3     H2       HT       0.417000       1.00800           0
     78796 W2       27991    TIP3     OH2      OT      -0.834000       15.9994           0
     78797 W2       27991    TIP3     H1       HT       0.417000       1.00800           0
     78798 W2       27991    TIP3     H2       HT       0.417000       1.00800           0
     78799 W2       27992    TIP3     OH2      OT      -0.834000       15.9994           0
     78800 W2       27992    TIP3     H1       HT       0.417000       1.00800           0
     78801 W2       27992    TIP3     H2       HT       0.417000       1.00800           0
     78802 W2       27993    TIP3     OH2      OT      -0.834000       15.9994           0
     78803 W2       27993    TIP3     H1       HT       0.417000       1.00800           0
     78804 W2       27993    TIP3     H2       HT       0.417000       1.00800           0
     78805 W2       27994    TIP3     OH2      OT      -0.834000       15.9994           0
     78806 W2       27994    TIP3     H1       HT       0.417000       1.00800           0
     78807 W2       27994    TIP3     H2       HT       0.417000       1.00800           0
     78808 W2       27996    TIP3     OH2      OT      -0.834000       15.9994           0
     78809 W2       27996    TIP3     H1       HT       0.417000       1.00800           0
     78810 W2       27996    TIP3     H2       HT       0.417000       1.00800           0
     78811 W2       27997    TIP3     OH2      OT      -0.834000       15.9994           0
     78812 W2       27997    TIP3     H1       HT       0.417000       1.00800           0
     78813 W2       27997    TIP3     H2       HT       0.417000       1.00800           0
     78814 W2       27998    TIP3     OH2      OT      -0.834000       15.9994           0
     78815 W2       27998    TIP3     H1       HT       0.417000       1.00800           0
     78816 W2       27998    TIP3     H2       HT       0.417000       1.00800           0
     78817 W2       27999    TIP3     OH2      OT      -0.834000       15.9994           0
     78818 W2       27999    TIP3     H1       HT       0.417000       1.00800           0
     78819 W2       27999    TIP3     H2       HT       0.417000       1.00800           0
     78820 W2       28000    TIP3     OH2      OT      -0.834000       15.9994           0
     78821 W2       28000    TIP3     H1       HT       0.417000       1.00800           0
     78822 W2       28000    TIP3     H2       HT       0.417000       1.00800           0
     78823 W2       28001    TIP3     OH2      OT      -0.834000       15.9994           0
     78824 W2       28001    TIP3     H1       HT       0.417000       1.00800           0
     78825 W2       28001    TIP3     H2       HT       0.417000       1.00800           0
     78826 W2       28002    TIP3     OH2      OT      -0.834000       15.9994           0
     78827 W2       28002    TIP3     H1       HT       0.417000       1.00800           0
     78828 W2       28002    TIP3     H2       HT       0.417000       1.00800           0
     78829 W2       28003    TIP3     OH2      OT      -0.834000       15.9994           0
     78830 W2       28003    TIP3     H1       HT       0.417000       1.00800           0
     78831 W2       28003    TIP3     H2       HT       0.417000       1.00800           0
     78832 W2       28004    TIP3     OH2      OT      -0.834000       15.9994           0
     78833 W2       28004    TIP3     H1       HT       0.417000       1.00800           0
     78834 W2       28004    TIP3     H2       HT       0.417000       1.00800           0
     78835 W2       28005    TIP3     OH2      OT      -0.834000       15.9994           0
     78836 W2       28005    TIP3     H1       HT       0.417000       1.00800           0
     78837 W2       28005    TIP3     H2       HT       0.417000       1.00800           0
     78838 W2       28006    TIP3     OH2      OT      -0.834000       15.9994           0
     78839 W2       28006    TIP3     H1       HT       0.417000       1.00800           0
     78840 W2       28006    TIP3     H2       HT       0.417000       1.00800           0
     78841 W2       28008    TIP3     OH2      OT      -0.834000       15.9994           0
     78842 W2       28008    TIP3     H1       HT       0.417000       1.00800           0
     78843 W2       28008    TIP3     H2       HT       0.417000       1.00800           0
     78844 W2       28009    TIP3     OH2      OT      -0.834000       15.9994           0
     78845 W2       28009    TIP3     H1       HT       0.417000       1.00800           0
     78846 W2       28009    TIP3     H2       HT       0.417000       1.00800           0
     78847 W2       28010    TIP3     OH2      OT      -0.834000       15.9994           0
     78848 W2       28010    TIP3     H1       HT       0.417000       1.00800           0
     78849 W2       28010    TIP3     H2       HT       0.417000       1.00800           0
     78850 W2       28011    TIP3     OH2      OT      -0.834000       15.9994           0
     78851 W2       28011    TIP3     H1       HT       0.417000       1.00800           0
     78852 W2       28011    TIP3     H2       HT       0.417000       1.00800           0
     78853 W2       28013    TIP3     OH2      OT      -0.834000       15.9994           0
     78854 W2       28013    TIP3     H1       HT       0.417000       1.00800           0
     78855 W2       28013    TIP3     H2       HT       0.417000       1.00800           0
     78856 W2       28014    TIP3     OH2      OT      -0.834000       15.9994           0
     78857 W2       28014    TIP3     H1       HT       0.417000       1.00800           0
     78858 W2       28014    TIP3     H2       HT       0.417000       1.00800           0
     78859 W2       28015    TIP3     OH2      OT      -0.834000       15.9994           0
     78860 W2       28015    TIP3     H1       HT       0.417000       1.00800           0
     78861 W2       28015    TIP3     H2       HT       0.417000       1.00800           0
     78862 W2       28016    TIP3     OH2      OT      -0.834000       15.9994           0
     78863 W2       28016    TIP3     H1       HT       0.417000       1.00800           0
     78864 W2       28016    TIP3     H2       HT       0.417000       1.00800           0
     78865 W2       28018    TIP3     OH2      OT      -0.834000       15.9994           0
     78866 W2       28018    TIP3     H1       HT       0.417000       1.00800           0
     78867 W2       28018    TIP3     H2       HT       0.417000       1.00800           0
     78868 W2       28020    TIP3     OH2      OT      -0.834000       15.9994           0
     78869 W2       28020    TIP3     H1       HT       0.417000       1.00800           0
     78870 W2       28020    TIP3     H2       HT       0.417000       1.00800           0
     78871 W2       28021    TIP3     OH2      OT      -0.834000       15.9994           0
     78872 W2       28021    TIP3     H1       HT       0.417000       1.00800           0
     78873 W2       28021    TIP3     H2       HT       0.417000       1.00800           0
     78874 W2       28022    TIP3     OH2      OT      -0.834000       15.9994           0
     78875 W2       28022    TIP3     H1       HT       0.417000       1.00800           0
     78876 W2       28022    TIP3     H2       HT       0.417000       1.00800           0
     78877 W2       28023    TIP3     OH2      OT      -0.834000       15.9994           0
     78878 W2       28023    TIP3     H1       HT       0.417000       1.00800           0
     78879 W2       28023    TIP3     H2       HT       0.417000       1.00800           0
     78880 W2       28024    TIP3     OH2      OT      -0.834000       15.9994           0
     78881 W2       28024    TIP3     H1       HT       0.417000       1.00800           0
     78882 W2       28024    TIP3     H2       HT       0.417000       1.00800           0
     78883 W2       28029    TIP3     OH2      OT      -0.834000       15.9994           0
     78884 W2       28029    TIP3     H1       HT       0.417000       1.00800           0
     78885 W2       28029    TIP3     H2       HT       0.417000       1.00800           0
     78886 W2       28032    TIP3     OH2      OT      -0.834000       15.9994           0
     78887 W2       28032    TIP3     H1       HT       0.417000       1.00800           0
     78888 W2       28032    TIP3     H2       HT       0.417000       1.00800           0
     78889 W2       28033    TIP3     OH2      OT      -0.834000       15.9994           0
     78890 W2       28033    TIP3     H1       HT       0.417000       1.00800           0
     78891 W2       28033    TIP3     H2       HT       0.417000       1.00800           0
     78892 W2       28034    TIP3     OH2      OT      -0.834000       15.9994           0
     78893 W2       28034    TIP3     H1       HT       0.417000       1.00800           0
     78894 W2       28034    TIP3     H2       HT       0.417000       1.00800           0
     78895 W2       28035    TIP3     OH2      OT      -0.834000       15.9994           0
     78896 W2       28035    TIP3     H1       HT       0.417000       1.00800           0
     78897 W2       28035    TIP3     H2       HT       0.417000       1.00800           0
     78898 W2       28036    TIP3     OH2      OT      -0.834000       15.9994           0
     78899 W2       28036    TIP3     H1       HT       0.417000       1.00800           0
     78900 W2       28036    TIP3     H2       HT       0.417000       1.00800           0
     78901 W2       28038    TIP3     OH2      OT      -0.834000       15.9994           0
     78902 W2       28038    TIP3     H1       HT       0.417000       1.00800           0
     78903 W2       28038    TIP3     H2       HT       0.417000       1.00800           0
     78904 W2       28039    TIP3     OH2      OT      -0.834000       15.9994           0
     78905 W2       28039    TIP3     H1       HT       0.417000       1.00800           0
     78906 W2       28039    TIP3     H2       HT       0.417000       1.00800           0
     78907 W2       28040    TIP3     OH2      OT      -0.834000       15.9994           0
     78908 W2       28040    TIP3     H1       HT       0.417000       1.00800           0
     78909 W2       28040    TIP3     H2       HT       0.417000       1.00800           0
     78910 W2       28041    TIP3     OH2      OT      -0.834000       15.9994           0
     78911 W2       28041    TIP3     H1       HT       0.417000       1.00800           0
     78912 W2       28041    TIP3     H2       HT       0.417000       1.00800           0
     78913 W2       28042    TIP3     OH2      OT      -0.834000       15.9994           0
     78914 W2       28042    TIP3     H1       HT       0.417000       1.00800           0
     78915 W2       28042    TIP3     H2       HT       0.417000       1.00800           0
     78916 W2       28043    TIP3     OH2      OT      -0.834000       15.9994           0
     78917 W2       28043    TIP3     H1       HT       0.417000       1.00800           0
     78918 W2       28043    TIP3     H2       HT       0.417000       1.00800           0
     78919 W2       28044    TIP3     OH2      OT      -0.834000       15.9994           0
     78920 W2       28044    TIP3     H1       HT       0.417000       1.00800           0
     78921 W2       28044    TIP3     H2       HT       0.417000       1.00800           0
     78922 W2       28045    TIP3     OH2      OT      -0.834000       15.9994           0
     78923 W2       28045    TIP3     H1       HT       0.417000       1.00800           0
     78924 W2       28045    TIP3     H2       HT       0.417000       1.00800           0
     78925 W2       28046    TIP3     OH2      OT      -0.834000       15.9994           0
     78926 W2       28046    TIP3     H1       HT       0.417000       1.00800           0
     78927 W2       28046    TIP3     H2       HT       0.417000       1.00800           0
     78928 W2       28047    TIP3     OH2      OT      -0.834000       15.9994           0
     78929 W2       28047    TIP3     H1       HT       0.417000       1.00800           0
     78930 W2       28047    TIP3     H2       HT       0.417000       1.00800           0
     78931 W2       28048    TIP3     OH2      OT      -0.834000       15.9994           0
     78932 W2       28048    TIP3     H1       HT       0.417000       1.00800           0
     78933 W2       28048    TIP3     H2       HT       0.417000       1.00800           0
     78934 W2       28050    TIP3     OH2      OT      -0.834000       15.9994           0
     78935 W2       28050    TIP3     H1       HT       0.417000       1.00800           0
     78936 W2       28050    TIP3     H2       HT       0.417000       1.00800           0
     78937 W2       28051    TIP3     OH2      OT      -0.834000       15.9994           0
     78938 W2       28051    TIP3     H1       HT       0.417000       1.00800           0
     78939 W2       28051    TIP3     H2       HT       0.417000       1.00800           0
     78940 W2       28052    TIP3     OH2      OT      -0.834000       15.9994           0
     78941 W2       28052    TIP3     H1       HT       0.417000       1.00800           0
     78942 W2       28052    TIP3     H2       HT       0.417000       1.00800           0
     78943 W2       28053    TIP3     OH2      OT      -0.834000       15.9994           0
     78944 W2       28053    TIP3     H1       HT       0.417000       1.00800           0
     78945 W2       28053    TIP3     H2       HT       0.417000       1.00800           0
     78946 W2       28054    TIP3     OH2      OT      -0.834000       15.9994           0
     78947 W2       28054    TIP3     H1       HT       0.417000       1.00800           0
     78948 W2       28054    TIP3     H2       HT       0.417000       1.00800           0
     78949 W2       28055    TIP3     OH2      OT      -0.834000       15.9994           0
     78950 W2       28055    TIP3     H1       HT       0.417000       1.00800           0
     78951 W2       28055    TIP3     H2       HT       0.417000       1.00800           0
     78952 W2       28057    TIP3     OH2      OT      -0.834000       15.9994           0
     78953 W2       28057    TIP3     H1       HT       0.417000       1.00800           0
     78954 W2       28057    TIP3     H2       HT       0.417000       1.00800           0
     78955 W2       28058    TIP3     OH2      OT      -0.834000       15.9994           0
     78956 W2       28058    TIP3     H1       HT       0.417000       1.00800           0
     78957 W2       28058    TIP3     H2       HT       0.417000       1.00800           0
     78958 W2       28059    TIP3     OH2      OT      -0.834000       15.9994           0
     78959 W2       28059    TIP3     H1       HT       0.417000       1.00800           0
     78960 W2       28059    TIP3     H2       HT       0.417000       1.00800           0
     78961 W2       28063    TIP3     OH2      OT      -0.834000       15.9994           0
     78962 W2       28063    TIP3     H1       HT       0.417000       1.00800           0
     78963 W2       28063    TIP3     H2       HT       0.417000       1.00800           0
     78964 W2       28065    TIP3     OH2      OT      -0.834000       15.9994           0
     78965 W2       28065    TIP3     H1       HT       0.417000       1.00800           0
     78966 W2       28065    TIP3     H2       HT       0.417000       1.00800           0
     78967 W2       28066    TIP3     OH2      OT      -0.834000       15.9994           0
     78968 W2       28066    TIP3     H1       HT       0.417000       1.00800           0
     78969 W2       28066    TIP3     H2       HT       0.417000       1.00800           0
     78970 W2       28067    TIP3     OH2      OT      -0.834000       15.9994           0
     78971 W2       28067    TIP3     H1       HT       0.417000       1.00800           0
     78972 W2       28067    TIP3     H2       HT       0.417000       1.00800           0
     78973 W2       28068    TIP3     OH2      OT      -0.834000       15.9994           0
     78974 W2       28068    TIP3     H1       HT       0.417000       1.00800           0
     78975 W2       28068    TIP3     H2       HT       0.417000       1.00800           0
     78976 W2       28069    TIP3     OH2      OT      -0.834000       15.9994           0
     78977 W2       28069    TIP3     H1       HT       0.417000       1.00800           0
     78978 W2       28069    TIP3     H2       HT       0.417000       1.00800           0
     78979 W2       28070    TIP3     OH2      OT      -0.834000       15.9994           0
     78980 W2       28070    TIP3     H1       HT       0.417000       1.00800           0
     78981 W2       28070    TIP3     H2       HT       0.417000       1.00800           0
     78982 W2       28071    TIP3     OH2      OT      -0.834000       15.9994           0
     78983 W2       28071    TIP3     H1       HT       0.417000       1.00800           0
     78984 W2       28071    TIP3     H2       HT       0.417000       1.00800           0
     78985 W2       28073    TIP3     OH2      OT      -0.834000       15.9994           0
     78986 W2       28073    TIP3     H1       HT       0.417000       1.00800           0
     78987 W2       28073    TIP3     H2       HT       0.417000       1.00800           0
     78988 W2       28074    TIP3     OH2      OT      -0.834000       15.9994           0
     78989 W2       28074    TIP3     H1       HT       0.417000       1.00800           0
     78990 W2       28074    TIP3     H2       HT       0.417000       1.00800           0
     78991 W2       28075    TIP3     OH2      OT      -0.834000       15.9994           0
     78992 W2       28075    TIP3     H1       HT       0.417000       1.00800           0
     78993 W2       28075    TIP3     H2       HT       0.417000       1.00800           0
     78994 W2       28076    TIP3     OH2      OT      -0.834000       15.9994           0
     78995 W2       28076    TIP3     H1       HT       0.417000       1.00800           0
     78996 W2       28076    TIP3     H2       HT       0.417000       1.00800           0
     78997 W2       28077    TIP3     OH2      OT      -0.834000       15.9994           0
     78998 W2       28077    TIP3     H1       HT       0.417000       1.00800           0
     78999 W2       28077    TIP3     H2       HT       0.417000       1.00800           0
     79000 W2       28078    TIP3     OH2      OT      -0.834000       15.9994           0
     79001 W2       28078    TIP3     H1       HT       0.417000       1.00800           0
     79002 W2       28078    TIP3     H2       HT       0.417000       1.00800           0
     79003 W2       28079    TIP3     OH2      OT      -0.834000       15.9994           0
     79004 W2       28079    TIP3     H1       HT       0.417000       1.00800           0
     79005 W2       28079    TIP3     H2       HT       0.417000       1.00800           0
     79006 W2       28081    TIP3     OH2      OT      -0.834000       15.9994           0
     79007 W2       28081    TIP3     H1       HT       0.417000       1.00800           0
     79008 W2       28081    TIP3     H2       HT       0.417000       1.00800           0
     79009 W2       28082    TIP3     OH2      OT      -0.834000       15.9994           0
     79010 W2       28082    TIP3     H1       HT       0.417000       1.00800           0
     79011 W2       28082    TIP3     H2       HT       0.417000       1.00800           0
     79012 W2       28084    TIP3     OH2      OT      -0.834000       15.9994           0
     79013 W2       28084    TIP3     H1       HT       0.417000       1.00800           0
     79014 W2       28084    TIP3     H2       HT       0.417000       1.00800           0
     79015 W2       28085    TIP3     OH2      OT      -0.834000       15.9994           0
     79016 W2       28085    TIP3     H1       HT       0.417000       1.00800           0
     79017 W2       28085    TIP3     H2       HT       0.417000       1.00800           0
     79018 W2       28086    TIP3     OH2      OT      -0.834000       15.9994           0
     79019 W2       28086    TIP3     H1       HT       0.417000       1.00800           0
     79020 W2       28086    TIP3     H2       HT       0.417000       1.00800           0
     79021 W2       28087    TIP3     OH2      OT      -0.834000       15.9994           0
     79022 W2       28087    TIP3     H1       HT       0.417000       1.00800           0
     79023 W2       28087    TIP3     H2       HT       0.417000       1.00800           0
     79024 W2       28088    TIP3     OH2      OT      -0.834000       15.9994           0
     79025 W2       28088    TIP3     H1       HT       0.417000       1.00800           0
     79026 W2       28088    TIP3     H2       HT       0.417000       1.00800           0
     79027 W2       28091    TIP3     OH2      OT      -0.834000       15.9994           0
     79028 W2       28091    TIP3     H1       HT       0.417000       1.00800           0
     79029 W2       28091    TIP3     H2       HT       0.417000       1.00800           0
     79030 W2       28093    TIP3     OH2      OT      -0.834000       15.9994           0
     79031 W2       28093    TIP3     H1       HT       0.417000       1.00800           0
     79032 W2       28093    TIP3     H2       HT       0.417000       1.00800           0
     79033 W2       28096    TIP3     OH2      OT      -0.834000       15.9994           0
     79034 W2       28096    TIP3     H1       HT       0.417000       1.00800           0
     79035 W2       28096    TIP3     H2       HT       0.417000       1.00800           0
     79036 W2       28098    TIP3     OH2      OT      -0.834000       15.9994           0
     79037 W2       28098    TIP3     H1       HT       0.417000       1.00800           0
     79038 W2       28098    TIP3     H2       HT       0.417000       1.00800           0
     79039 W2       28100    TIP3     OH2      OT      -0.834000       15.9994           0
     79040 W2       28100    TIP3     H1       HT       0.417000       1.00800           0
     79041 W2       28100    TIP3     H2       HT       0.417000       1.00800           0
     79042 W2       28102    TIP3     OH2      OT      -0.834000       15.9994           0
     79043 W2       28102    TIP3     H1       HT       0.417000       1.00800           0
     79044 W2       28102    TIP3     H2       HT       0.417000       1.00800           0
     79045 W2       28114    TIP3     OH2      OT      -0.834000       15.9994           0
     79046 W2       28114    TIP3     H1       HT       0.417000       1.00800           0
     79047 W2       28114    TIP3     H2       HT       0.417000       1.00800           0
     79048 W2       28116    TIP3     OH2      OT      -0.834000       15.9994           0
     79049 W2       28116    TIP3     H1       HT       0.417000       1.00800           0
     79050 W2       28116    TIP3     H2       HT       0.417000       1.00800           0
     79051 W2       28117    TIP3     OH2      OT      -0.834000       15.9994           0
     79052 W2       28117    TIP3     H1       HT       0.417000       1.00800           0
     79053 W2       28117    TIP3     H2       HT       0.417000       1.00800           0
     79054 W2       28118    TIP3     OH2      OT      -0.834000       15.9994           0
     79055 W2       28118    TIP3     H1       HT       0.417000       1.00800           0
     79056 W2       28118    TIP3     H2       HT       0.417000       1.00800           0
     79057 W2       28119    TIP3     OH2      OT      -0.834000       15.9994           0
     79058 W2       28119    TIP3     H1       HT       0.417000       1.00800           0
     79059 W2       28119    TIP3     H2       HT       0.417000       1.00800           0
     79060 W2       28120    TIP3     OH2      OT      -0.834000       15.9994           0
     79061 W2       28120    TIP3     H1       HT       0.417000       1.00800           0
     79062 W2       28120    TIP3     H2       HT       0.417000       1.00800           0
     79063 W2       28121    TIP3     OH2      OT      -0.834000       15.9994           0
     79064 W2       28121    TIP3     H1       HT       0.417000       1.00800           0
     79065 W2       28121    TIP3     H2       HT       0.417000       1.00800           0
     79066 W2       28122    TIP3     OH2      OT      -0.834000       15.9994           0
     79067 W2       28122    TIP3     H1       HT       0.417000       1.00800           0
     79068 W2       28122    TIP3     H2       HT       0.417000       1.00800           0
     79069 W2       28123    TIP3     OH2      OT      -0.834000       15.9994           0
     79070 W2       28123    TIP3     H1       HT       0.417000       1.00800           0
     79071 W2       28123    TIP3     H2       HT       0.417000       1.00800           0
     79072 W2       28126    TIP3     OH2      OT      -0.834000       15.9994           0
     79073 W2       28126    TIP3     H1       HT       0.417000       1.00800           0
     79074 W2       28126    TIP3     H2       HT       0.417000       1.00800           0
     79075 W2       28127    TIP3     OH2      OT      -0.834000       15.9994           0
     79076 W2       28127    TIP3     H1       HT       0.417000       1.00800           0
     79077 W2       28127    TIP3     H2       HT       0.417000       1.00800           0
     79078 W2       28128    TIP3     OH2      OT      -0.834000       15.9994           0
     79079 W2       28128    TIP3     H1       HT       0.417000       1.00800           0
     79080 W2       28128    TIP3     H2       HT       0.417000       1.00800           0
     79081 W2       28129    TIP3     OH2      OT      -0.834000       15.9994           0
     79082 W2       28129    TIP3     H1       HT       0.417000       1.00800           0
     79083 W2       28129    TIP3     H2       HT       0.417000       1.00800           0
     79084 W2       28132    TIP3     OH2      OT      -0.834000       15.9994           0
     79085 W2       28132    TIP3     H1       HT       0.417000       1.00800           0
     79086 W2       28132    TIP3     H2       HT       0.417000       1.00800           0
     79087 W2       28133    TIP3     OH2      OT      -0.834000       15.9994           0
     79088 W2       28133    TIP3     H1       HT       0.417000       1.00800           0
     79089 W2       28133    TIP3     H2       HT       0.417000       1.00800           0
     79090 W2       28134    TIP3     OH2      OT      -0.834000       15.9994           0
     79091 W2       28134    TIP3     H1       HT       0.417000       1.00800           0
     79092 W2       28134    TIP3     H2       HT       0.417000       1.00800           0
     79093 W2       28136    TIP3     OH2      OT      -0.834000       15.9994           0
     79094 W2       28136    TIP3     H1       HT       0.417000       1.00800           0
     79095 W2       28136    TIP3     H2       HT       0.417000       1.00800           0
     79096 W2       28137    TIP3     OH2      OT      -0.834000       15.9994           0
     79097 W2       28137    TIP3     H1       HT       0.417000       1.00800           0
     79098 W2       28137    TIP3     H2       HT       0.417000       1.00800           0
     79099 W2       28138    TIP3     OH2      OT      -0.834000       15.9994           0
     79100 W2       28138    TIP3     H1       HT       0.417000       1.00800           0
     79101 W2       28138    TIP3     H2       HT       0.417000       1.00800           0
     79102 W2       28141    TIP3     OH2      OT      -0.834000       15.9994           0
     79103 W2       28141    TIP3     H1       HT       0.417000       1.00800           0
     79104 W2       28141    TIP3     H2       HT       0.417000       1.00800           0
     79105 W2       28142    TIP3     OH2      OT      -0.834000       15.9994           0
     79106 W2       28142    TIP3     H1       HT       0.417000       1.00800           0
     79107 W2       28142    TIP3     H2       HT       0.417000       1.00800           0
     79108 W2       28143    TIP3     OH2      OT      -0.834000       15.9994           0
     79109 W2       28143    TIP3     H1       HT       0.417000       1.00800           0
     79110 W2       28143    TIP3     H2       HT       0.417000       1.00800           0
     79111 W2       28144    TIP3     OH2      OT      -0.834000       15.9994           0
     79112 W2       28144    TIP3     H1       HT       0.417000       1.00800           0
     79113 W2       28144    TIP3     H2       HT       0.417000       1.00800           0
     79114 W2       28145    TIP3     OH2      OT      -0.834000       15.9994           0
     79115 W2       28145    TIP3     H1       HT       0.417000       1.00800           0
     79116 W2       28145    TIP3     H2       HT       0.417000       1.00800           0
     79117 W2       28146    TIP3     OH2      OT      -0.834000       15.9994           0
     79118 W2       28146    TIP3     H1       HT       0.417000       1.00800           0
     79119 W2       28146    TIP3     H2       HT       0.417000       1.00800           0
     79120 W2       28147    TIP3     OH2      OT      -0.834000       15.9994           0
     79121 W2       28147    TIP3     H1       HT       0.417000       1.00800           0
     79122 W2       28147    TIP3     H2       HT       0.417000       1.00800           0
     79123 W2       28148    TIP3     OH2      OT      -0.834000       15.9994           0
     79124 W2       28148    TIP3     H1       HT       0.417000       1.00800           0
     79125 W2       28148    TIP3     H2       HT       0.417000       1.00800           0
     79126 W2       28149    TIP3     OH2      OT      -0.834000       15.9994           0
     79127 W2       28149    TIP3     H1       HT       0.417000       1.00800           0
     79128 W2       28149    TIP3     H2       HT       0.417000       1.00800           0
     79129 W2       28150    TIP3     OH2      OT      -0.834000       15.9994           0
     79130 W2       28150    TIP3     H1       HT       0.417000       1.00800           0
     79131 W2       28150    TIP3     H2       HT       0.417000       1.00800           0
     79132 W2       28154    TIP3     OH2      OT      -0.834000       15.9994           0
     79133 W2       28154    TIP3     H1       HT       0.417000       1.00800           0
     79134 W2       28154    TIP3     H2       HT       0.417000       1.00800           0
     79135 W2       28155    TIP3     OH2      OT      -0.834000       15.9994           0
     79136 W2       28155    TIP3     H1       HT       0.417000       1.00800           0
     79137 W2       28155    TIP3     H2       HT       0.417000       1.00800           0
     79138 W2       28156    TIP3     OH2      OT      -0.834000       15.9994           0
     79139 W2       28156    TIP3     H1       HT       0.417000       1.00800           0
     79140 W2       28156    TIP3     H2       HT       0.417000       1.00800           0
     79141 W2       28157    TIP3     OH2      OT      -0.834000       15.9994           0
     79142 W2       28157    TIP3     H1       HT       0.417000       1.00800           0
     79143 W2       28157    TIP3     H2       HT       0.417000       1.00800           0
     79144 W2       28158    TIP3     OH2      OT      -0.834000       15.9994           0
     79145 W2       28158    TIP3     H1       HT       0.417000       1.00800           0
     79146 W2       28158    TIP3     H2       HT       0.417000       1.00800           0
     79147 W2       28159    TIP3     OH2      OT      -0.834000       15.9994           0
     79148 W2       28159    TIP3     H1       HT       0.417000       1.00800           0
     79149 W2       28159    TIP3     H2       HT       0.417000       1.00800           0
     79150 W2       28160    TIP3     OH2      OT      -0.834000       15.9994           0
     79151 W2       28160    TIP3     H1       HT       0.417000       1.00800           0
     79152 W2       28160    TIP3     H2       HT       0.417000       1.00800           0
     79153 W2       28161    TIP3     OH2      OT      -0.834000       15.9994           0
     79154 W2       28161    TIP3     H1       HT       0.417000       1.00800           0
     79155 W2       28161    TIP3     H2       HT       0.417000       1.00800           0
     79156 W2       28162    TIP3     OH2      OT      -0.834000       15.9994           0
     79157 W2       28162    TIP3     H1       HT       0.417000       1.00800           0
     79158 W2       28162    TIP3     H2       HT       0.417000       1.00800           0
     79159 W2       28163    TIP3     OH2      OT      -0.834000       15.9994           0
     79160 W2       28163    TIP3     H1       HT       0.417000       1.00800           0
     79161 W2       28163    TIP3     H2       HT       0.417000       1.00800           0
     79162 W2       28164    TIP3     OH2      OT      -0.834000       15.9994           0
     79163 W2       28164    TIP3     H1       HT       0.417000       1.00800           0
     79164 W2       28164    TIP3     H2       HT       0.417000       1.00800           0
     79165 W2       28165    TIP3     OH2      OT      -0.834000       15.9994           0
     79166 W2       28165    TIP3     H1       HT       0.417000       1.00800           0
     79167 W2       28165    TIP3     H2       HT       0.417000       1.00800           0
     79168 W2       28166    TIP3     OH2      OT      -0.834000       15.9994           0
     79169 W2       28166    TIP3     H1       HT       0.417000       1.00800           0
     79170 W2       28166    TIP3     H2       HT       0.417000       1.00800           0
     79171 W2       28167    TIP3     OH2      OT      -0.834000       15.9994           0
     79172 W2       28167    TIP3     H1       HT       0.417000       1.00800           0
     79173 W2       28167    TIP3     H2       HT       0.417000       1.00800           0
     79174 W2       28169    TIP3     OH2      OT      -0.834000       15.9994           0
     79175 W2       28169    TIP3     H1       HT       0.417000       1.00800           0
     79176 W2       28169    TIP3     H2       HT       0.417000       1.00800           0
     79177 W2       28170    TIP3     OH2      OT      -0.834000       15.9994           0
     79178 W2       28170    TIP3     H1       HT       0.417000       1.00800           0
     79179 W2       28170    TIP3     H2       HT       0.417000       1.00800           0
     79180 W2       28171    TIP3     OH2      OT      -0.834000       15.9994           0
     79181 W2       28171    TIP3     H1       HT       0.417000       1.00800           0
     79182 W2       28171    TIP3     H2       HT       0.417000       1.00800           0
     79183 W2       28172    TIP3     OH2      OT      -0.834000       15.9994           0
     79184 W2       28172    TIP3     H1       HT       0.417000       1.00800           0
     79185 W2       28172    TIP3     H2       HT       0.417000       1.00800           0
     79186 W2       28173    TIP3     OH2      OT      -0.834000       15.9994           0
     79187 W2       28173    TIP3     H1       HT       0.417000       1.00800           0
     79188 W2       28173    TIP3     H2       HT       0.417000       1.00800           0
     79189 W2       28174    TIP3     OH2      OT      -0.834000       15.9994           0
     79190 W2       28174    TIP3     H1       HT       0.417000       1.00800           0
     79191 W2       28174    TIP3     H2       HT       0.417000       1.00800           0
     79192 W2       28175    TIP3     OH2      OT      -0.834000       15.9994           0
     79193 W2       28175    TIP3     H1       HT       0.417000       1.00800           0
     79194 W2       28175    TIP3     H2       HT       0.417000       1.00800           0
     79195 W2       28176    TIP3     OH2      OT      -0.834000       15.9994           0
     79196 W2       28176    TIP3     H1       HT       0.417000       1.00800           0
     79197 W2       28176    TIP3     H2       HT       0.417000       1.00800           0
     79198 W2       28177    TIP3     OH2      OT      -0.834000       15.9994           0
     79199 W2       28177    TIP3     H1       HT       0.417000       1.00800           0
     79200 W2       28177    TIP3     H2       HT       0.417000       1.00800           0
     79201 W2       28178    TIP3     OH2      OT      -0.834000       15.9994           0
     79202 W2       28178    TIP3     H1       HT       0.417000       1.00800           0
     79203 W2       28178    TIP3     H2       HT       0.417000       1.00800           0
     79204 W2       28179    TIP3     OH2      OT      -0.834000       15.9994           0
     79205 W2       28179    TIP3     H1       HT       0.417000       1.00800           0
     79206 W2       28179    TIP3     H2       HT       0.417000       1.00800           0
     79207 W2       28181    TIP3     OH2      OT      -0.834000       15.9994           0
     79208 W2       28181    TIP3     H1       HT       0.417000       1.00800           0
     79209 W2       28181    TIP3     H2       HT       0.417000       1.00800           0
     79210 W2       28182    TIP3     OH2      OT      -0.834000       15.9994           0
     79211 W2       28182    TIP3     H1       HT       0.417000       1.00800           0
     79212 W2       28182    TIP3     H2       HT       0.417000       1.00800           0
     79213 W2       28183    TIP3     OH2      OT      -0.834000       15.9994           0
     79214 W2       28183    TIP3     H1       HT       0.417000       1.00800           0
     79215 W2       28183    TIP3     H2       HT       0.417000       1.00800           0
     79216 W2       28184    TIP3     OH2      OT      -0.834000       15.9994           0
     79217 W2       28184    TIP3     H1       HT       0.417000       1.00800           0
     79218 W2       28184    TIP3     H2       HT       0.417000       1.00800           0
     79219 W2       28186    TIP3     OH2      OT      -0.834000       15.9994           0
     79220 W2       28186    TIP3     H1       HT       0.417000       1.00800           0
     79221 W2       28186    TIP3     H2       HT       0.417000       1.00800           0
     79222 W2       28187    TIP3     OH2      OT      -0.834000       15.9994           0
     79223 W2       28187    TIP3     H1       HT       0.417000       1.00800           0
     79224 W2       28187    TIP3     H2       HT       0.417000       1.00800           0
     79225 W2       28188    TIP3     OH2      OT      -0.834000       15.9994           0
     79226 W2       28188    TIP3     H1       HT       0.417000       1.00800           0
     79227 W2       28188    TIP3     H2       HT       0.417000       1.00800           0
     79228 W2       28189    TIP3     OH2      OT      -0.834000       15.9994           0
     79229 W2       28189    TIP3     H1       HT       0.417000       1.00800           0
     79230 W2       28189    TIP3     H2       HT       0.417000       1.00800           0
     79231 W2       28191    TIP3     OH2      OT      -0.834000       15.9994           0
     79232 W2       28191    TIP3     H1       HT       0.417000       1.00800           0
     79233 W2       28191    TIP3     H2       HT       0.417000       1.00800           0
     79234 W2       28193    TIP3     OH2      OT      -0.834000       15.9994           0
     79235 W2       28193    TIP3     H1       HT       0.417000       1.00800           0
     79236 W2       28193    TIP3     H2       HT       0.417000       1.00800           0
     79237 W2       28194    TIP3     OH2      OT      -0.834000       15.9994           0
     79238 W2       28194    TIP3     H1       HT       0.417000       1.00800           0
     79239 W2       28194    TIP3     H2       HT       0.417000       1.00800           0
     79240 W2       28195    TIP3     OH2      OT      -0.834000       15.9994           0
     79241 W2       28195    TIP3     H1       HT       0.417000       1.00800           0
     79242 W2       28195    TIP3     H2       HT       0.417000       1.00800           0
     79243 W2       28196    TIP3     OH2      OT      -0.834000       15.9994           0
     79244 W2       28196    TIP3     H1       HT       0.417000       1.00800           0
     79245 W2       28196    TIP3     H2       HT       0.417000       1.00800           0
     79246 W2       28197    TIP3     OH2      OT      -0.834000       15.9994           0
     79247 W2       28197    TIP3     H1       HT       0.417000       1.00800           0
     79248 W2       28197    TIP3     H2       HT       0.417000       1.00800           0
     79249 W2       28202    TIP3     OH2      OT      -0.834000       15.9994           0
     79250 W2       28202    TIP3     H1       HT       0.417000       1.00800           0
     79251 W2       28202    TIP3     H2       HT       0.417000       1.00800           0
     79252 W2       28205    TIP3     OH2      OT      -0.834000       15.9994           0
     79253 W2       28205    TIP3     H1       HT       0.417000       1.00800           0
     79254 W2       28205    TIP3     H2       HT       0.417000       1.00800           0
     79255 W2       28206    TIP3     OH2      OT      -0.834000       15.9994           0
     79256 W2       28206    TIP3     H1       HT       0.417000       1.00800           0
     79257 W2       28206    TIP3     H2       HT       0.417000       1.00800           0
     79258 W2       28207    TIP3     OH2      OT      -0.834000       15.9994           0
     79259 W2       28207    TIP3     H1       HT       0.417000       1.00800           0
     79260 W2       28207    TIP3     H2       HT       0.417000       1.00800           0
     79261 W2       28208    TIP3     OH2      OT      -0.834000       15.9994           0
     79262 W2       28208    TIP3     H1       HT       0.417000       1.00800           0
     79263 W2       28208    TIP3     H2       HT       0.417000       1.00800           0
     79264 W2       28209    TIP3     OH2      OT      -0.834000       15.9994           0
     79265 W2       28209    TIP3     H1       HT       0.417000       1.00800           0
     79266 W2       28209    TIP3     H2       HT       0.417000       1.00800           0
     79267 W2       28211    TIP3     OH2      OT      -0.834000       15.9994           0
     79268 W2       28211    TIP3     H1       HT       0.417000       1.00800           0
     79269 W2       28211    TIP3     H2       HT       0.417000       1.00800           0
     79270 W2       28212    TIP3     OH2      OT      -0.834000       15.9994           0
     79271 W2       28212    TIP3     H1       HT       0.417000       1.00800           0
     79272 W2       28212    TIP3     H2       HT       0.417000       1.00800           0
     79273 W2       28213    TIP3     OH2      OT      -0.834000       15.9994           0
     79274 W2       28213    TIP3     H1       HT       0.417000       1.00800           0
     79275 W2       28213    TIP3     H2       HT       0.417000       1.00800           0
     79276 W2       28214    TIP3     OH2      OT      -0.834000       15.9994           0
     79277 W2       28214    TIP3     H1       HT       0.417000       1.00800           0
     79278 W2       28214    TIP3     H2       HT       0.417000       1.00800           0
     79279 W2       28215    TIP3     OH2      OT      -0.834000       15.9994           0
     79280 W2       28215    TIP3     H1       HT       0.417000       1.00800           0
     79281 W2       28215    TIP3     H2       HT       0.417000       1.00800           0
     79282 W2       28216    TIP3     OH2      OT      -0.834000       15.9994           0
     79283 W2       28216    TIP3     H1       HT       0.417000       1.00800           0
     79284 W2       28216    TIP3     H2       HT       0.417000       1.00800           0
     79285 W2       28217    TIP3     OH2      OT      -0.834000       15.9994           0
     79286 W2       28217    TIP3     H1       HT       0.417000       1.00800           0
     79287 W2       28217    TIP3     H2       HT       0.417000       1.00800           0
     79288 W2       28218    TIP3     OH2      OT      -0.834000       15.9994           0
     79289 W2       28218    TIP3     H1       HT       0.417000       1.00800           0
     79290 W2       28218    TIP3     H2       HT       0.417000       1.00800           0
     79291 W2       28219    TIP3     OH2      OT      -0.834000       15.9994           0
     79292 W2       28219    TIP3     H1       HT       0.417000       1.00800           0
     79293 W2       28219    TIP3     H2       HT       0.417000       1.00800           0
     79294 W2       28220    TIP3     OH2      OT      -0.834000       15.9994           0
     79295 W2       28220    TIP3     H1       HT       0.417000       1.00800           0
     79296 W2       28220    TIP3     H2       HT       0.417000       1.00800           0
     79297 W2       28221    TIP3     OH2      OT      -0.834000       15.9994           0
     79298 W2       28221    TIP3     H1       HT       0.417000       1.00800           0
     79299 W2       28221    TIP3     H2       HT       0.417000       1.00800           0
     79300 W2       28223    TIP3     OH2      OT      -0.834000       15.9994           0
     79301 W2       28223    TIP3     H1       HT       0.417000       1.00800           0
     79302 W2       28223    TIP3     H2       HT       0.417000       1.00800           0
     79303 W2       28224    TIP3     OH2      OT      -0.834000       15.9994           0
     79304 W2       28224    TIP3     H1       HT       0.417000       1.00800           0
     79305 W2       28224    TIP3     H2       HT       0.417000       1.00800           0
     79306 W2       28225    TIP3     OH2      OT      -0.834000       15.9994           0
     79307 W2       28225    TIP3     H1       HT       0.417000       1.00800           0
     79308 W2       28225    TIP3     H2       HT       0.417000       1.00800           0
     79309 W2       28226    TIP3     OH2      OT      -0.834000       15.9994           0
     79310 W2       28226    TIP3     H1       HT       0.417000       1.00800           0
     79311 W2       28226    TIP3     H2       HT       0.417000       1.00800           0
     79312 W2       28227    TIP3     OH2      OT      -0.834000       15.9994           0
     79313 W2       28227    TIP3     H1       HT       0.417000       1.00800           0
     79314 W2       28227    TIP3     H2       HT       0.417000       1.00800           0
     79315 W2       28228    TIP3     OH2      OT      -0.834000       15.9994           0
     79316 W2       28228    TIP3     H1       HT       0.417000       1.00800           0
     79317 W2       28228    TIP3     H2       HT       0.417000       1.00800           0
     79318 W2       28230    TIP3     OH2      OT      -0.834000       15.9994           0
     79319 W2       28230    TIP3     H1       HT       0.417000       1.00800           0
     79320 W2       28230    TIP3     H2       HT       0.417000       1.00800           0
     79321 W2       28231    TIP3     OH2      OT      -0.834000       15.9994           0
     79322 W2       28231    TIP3     H1       HT       0.417000       1.00800           0
     79323 W2       28231    TIP3     H2       HT       0.417000       1.00800           0
     79324 W2       28232    TIP3     OH2      OT      -0.834000       15.9994           0
     79325 W2       28232    TIP3     H1       HT       0.417000       1.00800           0
     79326 W2       28232    TIP3     H2       HT       0.417000       1.00800           0
     79327 W2       28236    TIP3     OH2      OT      -0.834000       15.9994           0
     79328 W2       28236    TIP3     H1       HT       0.417000       1.00800           0
     79329 W2       28236    TIP3     H2       HT       0.417000       1.00800           0
     79330 W2       28238    TIP3     OH2      OT      -0.834000       15.9994           0
     79331 W2       28238    TIP3     H1       HT       0.417000       1.00800           0
     79332 W2       28238    TIP3     H2       HT       0.417000       1.00800           0
     79333 W2       28239    TIP3     OH2      OT      -0.834000       15.9994           0
     79334 W2       28239    TIP3     H1       HT       0.417000       1.00800           0
     79335 W2       28239    TIP3     H2       HT       0.417000       1.00800           0
     79336 W2       28240    TIP3     OH2      OT      -0.834000       15.9994           0
     79337 W2       28240    TIP3     H1       HT       0.417000       1.00800           0
     79338 W2       28240    TIP3     H2       HT       0.417000       1.00800           0
     79339 W2       28241    TIP3     OH2      OT      -0.834000       15.9994           0
     79340 W2       28241    TIP3     H1       HT       0.417000       1.00800           0
     79341 W2       28241    TIP3     H2       HT       0.417000       1.00800           0
     79342 W2       28242    TIP3     OH2      OT      -0.834000       15.9994           0
     79343 W2       28242    TIP3     H1       HT       0.417000       1.00800           0
     79344 W2       28242    TIP3     H2       HT       0.417000       1.00800           0
     79345 W2       28243    TIP3     OH2      OT      -0.834000       15.9994           0
     79346 W2       28243    TIP3     H1       HT       0.417000       1.00800           0
     79347 W2       28243    TIP3     H2       HT       0.417000       1.00800           0
     79348 W2       28244    TIP3     OH2      OT      -0.834000       15.9994           0
     79349 W2       28244    TIP3     H1       HT       0.417000       1.00800           0
     79350 W2       28244    TIP3     H2       HT       0.417000       1.00800           0
     79351 W2       28246    TIP3     OH2      OT      -0.834000       15.9994           0
     79352 W2       28246    TIP3     H1       HT       0.417000       1.00800           0
     79353 W2       28246    TIP3     H2       HT       0.417000       1.00800           0
     79354 W2       28247    TIP3     OH2      OT      -0.834000       15.9994           0
     79355 W2       28247    TIP3     H1       HT       0.417000       1.00800           0
     79356 W2       28247    TIP3     H2       HT       0.417000       1.00800           0
     79357 W2       28248    TIP3     OH2      OT      -0.834000       15.9994           0
     79358 W2       28248    TIP3     H1       HT       0.417000       1.00800           0
     79359 W2       28248    TIP3     H2       HT       0.417000       1.00800           0
     79360 W2       28249    TIP3     OH2      OT      -0.834000       15.9994           0
     79361 W2       28249    TIP3     H1       HT       0.417000       1.00800           0
     79362 W2       28249    TIP3     H2       HT       0.417000       1.00800           0
     79363 W2       28250    TIP3     OH2      OT      -0.834000       15.9994           0
     79364 W2       28250    TIP3     H1       HT       0.417000       1.00800           0
     79365 W2       28250    TIP3     H2       HT       0.417000       1.00800           0
     79366 W2       28251    TIP3     OH2      OT      -0.834000       15.9994           0
     79367 W2       28251    TIP3     H1       HT       0.417000       1.00800           0
     79368 W2       28251    TIP3     H2       HT       0.417000       1.00800           0
     79369 W2       28252    TIP3     OH2      OT      -0.834000       15.9994           0
     79370 W2       28252    TIP3     H1       HT       0.417000       1.00800           0
     79371 W2       28252    TIP3     H2       HT       0.417000       1.00800           0
     79372 W2       28254    TIP3     OH2      OT      -0.834000       15.9994           0
     79373 W2       28254    TIP3     H1       HT       0.417000       1.00800           0
     79374 W2       28254    TIP3     H2       HT       0.417000       1.00800           0
     79375 W2       28255    TIP3     OH2      OT      -0.834000       15.9994           0
     79376 W2       28255    TIP3     H1       HT       0.417000       1.00800           0
     79377 W2       28255    TIP3     H2       HT       0.417000       1.00800           0
     79378 W2       28257    TIP3     OH2      OT      -0.834000       15.9994           0
     79379 W2       28257    TIP3     H1       HT       0.417000       1.00800           0
     79380 W2       28257    TIP3     H2       HT       0.417000       1.00800           0
     79381 W2       28258    TIP3     OH2      OT      -0.834000       15.9994           0
     79382 W2       28258    TIP3     H1       HT       0.417000       1.00800           0
     79383 W2       28258    TIP3     H2       HT       0.417000       1.00800           0
     79384 W2       28259    TIP3     OH2      OT      -0.834000       15.9994           0
     79385 W2       28259    TIP3     H1       HT       0.417000       1.00800           0
     79386 W2       28259    TIP3     H2       HT       0.417000       1.00800           0
     79387 W2       28260    TIP3     OH2      OT      -0.834000       15.9994           0
     79388 W2       28260    TIP3     H1       HT       0.417000       1.00800           0
     79389 W2       28260    TIP3     H2       HT       0.417000       1.00800           0
     79390 W2       28261    TIP3     OH2      OT      -0.834000       15.9994           0
     79391 W2       28261    TIP3     H1       HT       0.417000       1.00800           0
     79392 W2       28261    TIP3     H2       HT       0.417000       1.00800           0
     79393 W2       28264    TIP3     OH2      OT      -0.834000       15.9994           0
     79394 W2       28264    TIP3     H1       HT       0.417000       1.00800           0
     79395 W2       28264    TIP3     H2       HT       0.417000       1.00800           0
     79396 W2       28266    TIP3     OH2      OT      -0.834000       15.9994           0
     79397 W2       28266    TIP3     H1       HT       0.417000       1.00800           0
     79398 W2       28266    TIP3     H2       HT       0.417000       1.00800           0
     79399 W2       28269    TIP3     OH2      OT      -0.834000       15.9994           0
     79400 W2       28269    TIP3     H1       HT       0.417000       1.00800           0
     79401 W2       28269    TIP3     H2       HT       0.417000       1.00800           0
     79402 W2       28271    TIP3     OH2      OT      -0.834000       15.9994           0
     79403 W2       28271    TIP3     H1       HT       0.417000       1.00800           0
     79404 W2       28271    TIP3     H2       HT       0.417000       1.00800           0
     79405 W2       28273    TIP3     OH2      OT      -0.834000       15.9994           0
     79406 W2       28273    TIP3     H1       HT       0.417000       1.00800           0
     79407 W2       28273    TIP3     H2       HT       0.417000       1.00800           0
     79408 W2       28275    TIP3     OH2      OT      -0.834000       15.9994           0
     79409 W2       28275    TIP3     H1       HT       0.417000       1.00800           0
     79410 W2       28275    TIP3     H2       HT       0.417000       1.00800           0
     79411 W2       28287    TIP3     OH2      OT      -0.834000       15.9994           0
     79412 W2       28287    TIP3     H1       HT       0.417000       1.00800           0
     79413 W2       28287    TIP3     H2       HT       0.417000       1.00800           0
     79414 W2       28289    TIP3     OH2      OT      -0.834000       15.9994           0
     79415 W2       28289    TIP3     H1       HT       0.417000       1.00800           0
     79416 W2       28289    TIP3     H2       HT       0.417000       1.00800           0
     79417 W2       28290    TIP3     OH2      OT      -0.834000       15.9994           0
     79418 W2       28290    TIP3     H1       HT       0.417000       1.00800           0
     79419 W2       28290    TIP3     H2       HT       0.417000       1.00800           0
     79420 W2       28291    TIP3     OH2      OT      -0.834000       15.9994           0
     79421 W2       28291    TIP3     H1       HT       0.417000       1.00800           0
     79422 W2       28291    TIP3     H2       HT       0.417000       1.00800           0
     79423 W2       28292    TIP3     OH2      OT      -0.834000       15.9994           0
     79424 W2       28292    TIP3     H1       HT       0.417000       1.00800           0
     79425 W2       28292    TIP3     H2       HT       0.417000       1.00800           0
     79426 W2       28293    TIP3     OH2      OT      -0.834000       15.9994           0
     79427 W2       28293    TIP3     H1       HT       0.417000       1.00800           0
     79428 W2       28293    TIP3     H2       HT       0.417000       1.00800           0
     79429 W2       28294    TIP3     OH2      OT      -0.834000       15.9994           0
     79430 W2       28294    TIP3     H1       HT       0.417000       1.00800           0
     79431 W2       28294    TIP3     H2       HT       0.417000       1.00800           0
     79432 W2       28295    TIP3     OH2      OT      -0.834000       15.9994           0
     79433 W2       28295    TIP3     H1       HT       0.417000       1.00800           0
     79434 W2       28295    TIP3     H2       HT       0.417000       1.00800           0
     79435 W2       28296    TIP3     OH2      OT      -0.834000       15.9994           0
     79436 W2       28296    TIP3     H1       HT       0.417000       1.00800           0
     79437 W2       28296    TIP3     H2       HT       0.417000       1.00800           0
     79438 W2       28299    TIP3     OH2      OT      -0.834000       15.9994           0
     79439 W2       28299    TIP3     H1       HT       0.417000       1.00800           0
     79440 W2       28299    TIP3     H2       HT       0.417000       1.00800           0
     79441 W2       28300    TIP3     OH2      OT      -0.834000       15.9994           0
     79442 W2       28300    TIP3     H1       HT       0.417000       1.00800           0
     79443 W2       28300    TIP3     H2       HT       0.417000       1.00800           0
     79444 W2       28301    TIP3     OH2      OT      -0.834000       15.9994           0
     79445 W2       28301    TIP3     H1       HT       0.417000       1.00800           0
     79446 W2       28301    TIP3     H2       HT       0.417000       1.00800           0
     79447 W2       28302    TIP3     OH2      OT      -0.834000       15.9994           0
     79448 W2       28302    TIP3     H1       HT       0.417000       1.00800           0
     79449 W2       28302    TIP3     H2       HT       0.417000       1.00800           0
     79450 W2       28305    TIP3     OH2      OT      -0.834000       15.9994           0
     79451 W2       28305    TIP3     H1       HT       0.417000       1.00800           0
     79452 W2       28305    TIP3     H2       HT       0.417000       1.00800           0
     79453 W2       28306    TIP3     OH2      OT      -0.834000       15.9994           0
     79454 W2       28306    TIP3     H1       HT       0.417000       1.00800           0
     79455 W2       28306    TIP3     H2       HT       0.417000       1.00800           0
     79456 W2       28307    TIP3     OH2      OT      -0.834000       15.9994           0
     79457 W2       28307    TIP3     H1       HT       0.417000       1.00800           0
     79458 W2       28307    TIP3     H2       HT       0.417000       1.00800           0
     79459 W2       28309    TIP3     OH2      OT      -0.834000       15.9994           0
     79460 W2       28309    TIP3     H1       HT       0.417000       1.00800           0
     79461 W2       28309    TIP3     H2       HT       0.417000       1.00800           0
     79462 W2       28310    TIP3     OH2      OT      -0.834000       15.9994           0
     79463 W2       28310    TIP3     H1       HT       0.417000       1.00800           0
     79464 W2       28310    TIP3     H2       HT       0.417000       1.00800           0
     79465 W2       28311    TIP3     OH2      OT      -0.834000       15.9994           0
     79466 W2       28311    TIP3     H1       HT       0.417000       1.00800           0
     79467 W2       28311    TIP3     H2       HT       0.417000       1.00800           0
     79468 W2       28314    TIP3     OH2      OT      -0.834000       15.9994           0
     79469 W2       28314    TIP3     H1       HT       0.417000       1.00800           0
     79470 W2       28314    TIP3     H2       HT       0.417000       1.00800           0
     79471 W2       28315    TIP3     OH2      OT      -0.834000       15.9994           0
     79472 W2       28315    TIP3     H1       HT       0.417000       1.00800           0
     79473 W2       28315    TIP3     H2       HT       0.417000       1.00800           0
     79474 W2       28316    TIP3     OH2      OT      -0.834000       15.9994           0
     79475 W2       28316    TIP3     H1       HT       0.417000       1.00800           0
     79476 W2       28316    TIP3     H2       HT       0.417000       1.00800           0
     79477 W2       28317    TIP3     OH2      OT      -0.834000       15.9994           0
     79478 W2       28317    TIP3     H1       HT       0.417000       1.00800           0
     79479 W2       28317    TIP3     H2       HT       0.417000       1.00800           0
     79480 W2       28318    TIP3     OH2      OT      -0.834000       15.9994           0
     79481 W2       28318    TIP3     H1       HT       0.417000       1.00800           0
     79482 W2       28318    TIP3     H2       HT       0.417000       1.00800           0
     79483 W2       28319    TIP3     OH2      OT      -0.834000       15.9994           0
     79484 W2       28319    TIP3     H1       HT       0.417000       1.00800           0
     79485 W2       28319    TIP3     H2       HT       0.417000       1.00800           0
     79486 W2       28320    TIP3     OH2      OT      -0.834000       15.9994           0
     79487 W2       28320    TIP3     H1       HT       0.417000       1.00800           0
     79488 W2       28320    TIP3     H2       HT       0.417000       1.00800           0
     79489 W2       28321    TIP3     OH2      OT      -0.834000       15.9994           0
     79490 W2       28321    TIP3     H1       HT       0.417000       1.00800           0
     79491 W2       28321    TIP3     H2       HT       0.417000       1.00800           0
     79492 W2       28322    TIP3     OH2      OT      -0.834000       15.9994           0
     79493 W2       28322    TIP3     H1       HT       0.417000       1.00800           0
     79494 W2       28322    TIP3     H2       HT       0.417000       1.00800           0
     79495 W2       28323    TIP3     OH2      OT      -0.834000       15.9994           0
     79496 W2       28323    TIP3     H1       HT       0.417000       1.00800           0
     79497 W2       28323    TIP3     H2       HT       0.417000       1.00800           0
     79498 W2       28327    TIP3     OH2      OT      -0.834000       15.9994           0
     79499 W2       28327    TIP3     H1       HT       0.417000       1.00800           0
     79500 W2       28327    TIP3     H2       HT       0.417000       1.00800           0
     79501 W2       28328    TIP3     OH2      OT      -0.834000       15.9994           0
     79502 W2       28328    TIP3     H1       HT       0.417000       1.00800           0
     79503 W2       28328    TIP3     H2       HT       0.417000       1.00800           0
     79504 W2       28329    TIP3     OH2      OT      -0.834000       15.9994           0
     79505 W2       28329    TIP3     H1       HT       0.417000       1.00800           0
     79506 W2       28329    TIP3     H2       HT       0.417000       1.00800           0
     79507 W2       28330    TIP3     OH2      OT      -0.834000       15.9994           0
     79508 W2       28330    TIP3     H1       HT       0.417000       1.00800           0
     79509 W2       28330    TIP3     H2       HT       0.417000       1.00800           0
     79510 W2       28331    TIP3     OH2      OT      -0.834000       15.9994           0
     79511 W2       28331    TIP3     H1       HT       0.417000       1.00800           0
     79512 W2       28331    TIP3     H2       HT       0.417000       1.00800           0
     79513 W2       28332    TIP3     OH2      OT      -0.834000       15.9994           0
     79514 W2       28332    TIP3     H1       HT       0.417000       1.00800           0
     79515 W2       28332    TIP3     H2       HT       0.417000       1.00800           0
     79516 W2       28333    TIP3     OH2      OT      -0.834000       15.9994           0
     79517 W2       28333    TIP3     H1       HT       0.417000       1.00800           0
     79518 W2       28333    TIP3     H2       HT       0.417000       1.00800           0
     79519 W2       28334    TIP3     OH2      OT      -0.834000       15.9994           0
     79520 W2       28334    TIP3     H1       HT       0.417000       1.00800           0
     79521 W2       28334    TIP3     H2       HT       0.417000       1.00800           0
     79522 W2       28335    TIP3     OH2      OT      -0.834000       15.9994           0
     79523 W2       28335    TIP3     H1       HT       0.417000       1.00800           0
     79524 W2       28335    TIP3     H2       HT       0.417000       1.00800           0
     79525 W2       28336    TIP3     OH2      OT      -0.834000       15.9994           0
     79526 W2       28336    TIP3     H1       HT       0.417000       1.00800           0
     79527 W2       28336    TIP3     H2       HT       0.417000       1.00800           0
     79528 W2       28337    TIP3     OH2      OT      -0.834000       15.9994           0
     79529 W2       28337    TIP3     H1       HT       0.417000       1.00800           0
     79530 W2       28337    TIP3     H2       HT       0.417000       1.00800           0
     79531 W2       28338    TIP3     OH2      OT      -0.834000       15.9994           0
     79532 W2       28338    TIP3     H1       HT       0.417000       1.00800           0
     79533 W2       28338    TIP3     H2       HT       0.417000       1.00800           0
     79534 W2       28339    TIP3     OH2      OT      -0.834000       15.9994           0
     79535 W2       28339    TIP3     H1       HT       0.417000       1.00800           0
     79536 W2       28339    TIP3     H2       HT       0.417000       1.00800           0
     79537 W2       28340    TIP3     OH2      OT      -0.834000       15.9994           0
     79538 W2       28340    TIP3     H1       HT       0.417000       1.00800           0
     79539 W2       28340    TIP3     H2       HT       0.417000       1.00800           0
     79540 W2       28342    TIP3     OH2      OT      -0.834000       15.9994           0
     79541 W2       28342    TIP3     H1       HT       0.417000       1.00800           0
     79542 W2       28342    TIP3     H2       HT       0.417000       1.00800           0
     79543 W2       28343    TIP3     OH2      OT      -0.834000       15.9994           0
     79544 W2       28343    TIP3     H1       HT       0.417000       1.00800           0
     79545 W2       28343    TIP3     H2       HT       0.417000       1.00800           0
     79546 W2       28344    TIP3     OH2      OT      -0.834000       15.9994           0
     79547 W2       28344    TIP3     H1       HT       0.417000       1.00800           0
     79548 W2       28344    TIP3     H2       HT       0.417000       1.00800           0
     79549 W2       28345    TIP3     OH2      OT      -0.834000       15.9994           0
     79550 W2       28345    TIP3     H1       HT       0.417000       1.00800           0
     79551 W2       28345    TIP3     H2       HT       0.417000       1.00800           0
     79552 W2       28346    TIP3     OH2      OT      -0.834000       15.9994           0
     79553 W2       28346    TIP3     H1       HT       0.417000       1.00800           0
     79554 W2       28346    TIP3     H2       HT       0.417000       1.00800           0
     79555 W2       28347    TIP3     OH2      OT      -0.834000       15.9994           0
     79556 W2       28347    TIP3     H1       HT       0.417000       1.00800           0
     79557 W2       28347    TIP3     H2       HT       0.417000       1.00800           0
     79558 W2       28348    TIP3     OH2      OT      -0.834000       15.9994           0
     79559 W2       28348    TIP3     H1       HT       0.417000       1.00800           0
     79560 W2       28348    TIP3     H2       HT       0.417000       1.00800           0
     79561 W2       28349    TIP3     OH2      OT      -0.834000       15.9994           0
     79562 W2       28349    TIP3     H1       HT       0.417000       1.00800           0
     79563 W2       28349    TIP3     H2       HT       0.417000       1.00800           0
     79564 W2       28350    TIP3     OH2      OT      -0.834000       15.9994           0
     79565 W2       28350    TIP3     H1       HT       0.417000       1.00800           0
     79566 W2       28350    TIP3     H2       HT       0.417000       1.00800           0
     79567 W2       28351    TIP3     OH2      OT      -0.834000       15.9994           0
     79568 W2       28351    TIP3     H1       HT       0.417000       1.00800           0
     79569 W2       28351    TIP3     H2       HT       0.417000       1.00800           0
     79570 W2       28352    TIP3     OH2      OT      -0.834000       15.9994           0
     79571 W2       28352    TIP3     H1       HT       0.417000       1.00800           0
     79572 W2       28352    TIP3     H2       HT       0.417000       1.00800           0
     79573 W2       28354    TIP3     OH2      OT      -0.834000       15.9994           0
     79574 W2       28354    TIP3     H1       HT       0.417000       1.00800           0
     79575 W2       28354    TIP3     H2       HT       0.417000       1.00800           0
     79576 W2       28355    TIP3     OH2      OT      -0.834000       15.9994           0
     79577 W2       28355    TIP3     H1       HT       0.417000       1.00800           0
     79578 W2       28355    TIP3     H2       HT       0.417000       1.00800           0
     79579 W2       28356    TIP3     OH2      OT      -0.834000       15.9994           0
     79580 W2       28356    TIP3     H1       HT       0.417000       1.00800           0
     79581 W2       28356    TIP3     H2       HT       0.417000       1.00800           0
     79582 W2       28357    TIP3     OH2      OT      -0.834000       15.9994           0
     79583 W2       28357    TIP3     H1       HT       0.417000       1.00800           0
     79584 W2       28357    TIP3     H2       HT       0.417000       1.00800           0
     79585 W2       28359    TIP3     OH2      OT      -0.834000       15.9994           0
     79586 W2       28359    TIP3     H1       HT       0.417000       1.00800           0
     79587 W2       28359    TIP3     H2       HT       0.417000       1.00800           0
     79588 W2       28360    TIP3     OH2      OT      -0.834000       15.9994           0
     79589 W2       28360    TIP3     H1       HT       0.417000       1.00800           0
     79590 W2       28360    TIP3     H2       HT       0.417000       1.00800           0
     79591 W2       28361    TIP3     OH2      OT      -0.834000       15.9994           0
     79592 W2       28361    TIP3     H1       HT       0.417000       1.00800           0
     79593 W2       28361    TIP3     H2       HT       0.417000       1.00800           0
     79594 W2       28362    TIP3     OH2      OT      -0.834000       15.9994           0
     79595 W2       28362    TIP3     H1       HT       0.417000       1.00800           0
     79596 W2       28362    TIP3     H2       HT       0.417000       1.00800           0
     79597 W2       28364    TIP3     OH2      OT      -0.834000       15.9994           0
     79598 W2       28364    TIP3     H1       HT       0.417000       1.00800           0
     79599 W2       28364    TIP3     H2       HT       0.417000       1.00800           0
     79600 W2       28366    TIP3     OH2      OT      -0.834000       15.9994           0
     79601 W2       28366    TIP3     H1       HT       0.417000       1.00800           0
     79602 W2       28366    TIP3     H2       HT       0.417000       1.00800           0
     79603 W2       28367    TIP3     OH2      OT      -0.834000       15.9994           0
     79604 W2       28367    TIP3     H1       HT       0.417000       1.00800           0
     79605 W2       28367    TIP3     H2       HT       0.417000       1.00800           0
     79606 W2       28368    TIP3     OH2      OT      -0.834000       15.9994           0
     79607 W2       28368    TIP3     H1       HT       0.417000       1.00800           0
     79608 W2       28368    TIP3     H2       HT       0.417000       1.00800           0
     79609 W2       28369    TIP3     OH2      OT      -0.834000       15.9994           0
     79610 W2       28369    TIP3     H1       HT       0.417000       1.00800           0
     79611 W2       28369    TIP3     H2       HT       0.417000       1.00800           0
     79612 W2       28370    TIP3     OH2      OT      -0.834000       15.9994           0
     79613 W2       28370    TIP3     H1       HT       0.417000       1.00800           0
     79614 W2       28370    TIP3     H2       HT       0.417000       1.00800           0
     79615 W2       28375    TIP3     OH2      OT      -0.834000       15.9994           0
     79616 W2       28375    TIP3     H1       HT       0.417000       1.00800           0
     79617 W2       28375    TIP3     H2       HT       0.417000       1.00800           0
     79618 W2       28378    TIP3     OH2      OT      -0.834000       15.9994           0
     79619 W2       28378    TIP3     H1       HT       0.417000       1.00800           0
     79620 W2       28378    TIP3     H2       HT       0.417000       1.00800           0
     79621 W2       28379    TIP3     OH2      OT      -0.834000       15.9994           0
     79622 W2       28379    TIP3     H1       HT       0.417000       1.00800           0
     79623 W2       28379    TIP3     H2       HT       0.417000       1.00800           0
     79624 W2       28380    TIP3     OH2      OT      -0.834000       15.9994           0
     79625 W2       28380    TIP3     H1       HT       0.417000       1.00800           0
     79626 W2       28380    TIP3     H2       HT       0.417000       1.00800           0
     79627 W2       28381    TIP3     OH2      OT      -0.834000       15.9994           0
     79628 W2       28381    TIP3     H1       HT       0.417000       1.00800           0
     79629 W2       28381    TIP3     H2       HT       0.417000       1.00800           0
     79630 W2       28382    TIP3     OH2      OT      -0.834000       15.9994           0
     79631 W2       28382    TIP3     H1       HT       0.417000       1.00800           0
     79632 W2       28382    TIP3     H2       HT       0.417000       1.00800           0
     79633 W2       28384    TIP3     OH2      OT      -0.834000       15.9994           0
     79634 W2       28384    TIP3     H1       HT       0.417000       1.00800           0
     79635 W2       28384    TIP3     H2       HT       0.417000       1.00800           0
     79636 W2       28385    TIP3     OH2      OT      -0.834000       15.9994           0
     79637 W2       28385    TIP3     H1       HT       0.417000       1.00800           0
     79638 W2       28385    TIP3     H2       HT       0.417000       1.00800           0
     79639 W2       28386    TIP3     OH2      OT      -0.834000       15.9994           0
     79640 W2       28386    TIP3     H1       HT       0.417000       1.00800           0
     79641 W2       28386    TIP3     H2       HT       0.417000       1.00800           0
     79642 W2       28387    TIP3     OH2      OT      -0.834000       15.9994           0
     79643 W2       28387    TIP3     H1       HT       0.417000       1.00800           0
     79644 W2       28387    TIP3     H2       HT       0.417000       1.00800           0
     79645 W2       28388    TIP3     OH2      OT      -0.834000       15.9994           0
     79646 W2       28388    TIP3     H1       HT       0.417000       1.00800           0
     79647 W2       28388    TIP3     H2       HT       0.417000       1.00800           0
     79648 W2       28389    TIP3     OH2      OT      -0.834000       15.9994           0
     79649 W2       28389    TIP3     H1       HT       0.417000       1.00800           0
     79650 W2       28389    TIP3     H2       HT       0.417000       1.00800           0
     79651 W2       28390    TIP3     OH2      OT      -0.834000       15.9994           0
     79652 W2       28390    TIP3     H1       HT       0.417000       1.00800           0
     79653 W2       28390    TIP3     H2       HT       0.417000       1.00800           0
     79654 W2       28391    TIP3     OH2      OT      -0.834000       15.9994           0
     79655 W2       28391    TIP3     H1       HT       0.417000       1.00800           0
     79656 W2       28391    TIP3     H2       HT       0.417000       1.00800           0
     79657 W2       28392    TIP3     OH2      OT      -0.834000       15.9994           0
     79658 W2       28392    TIP3     H1       HT       0.417000       1.00800           0
     79659 W2       28392    TIP3     H2       HT       0.417000       1.00800           0
     79660 W2       28393    TIP3     OH2      OT      -0.834000       15.9994           0
     79661 W2       28393    TIP3     H1       HT       0.417000       1.00800           0
     79662 W2       28393    TIP3     H2       HT       0.417000       1.00800           0
     79663 W2       28394    TIP3     OH2      OT      -0.834000       15.9994           0
     79664 W2       28394    TIP3     H1       HT       0.417000       1.00800           0
     79665 W2       28394    TIP3     H2       HT       0.417000       1.00800           0
     79666 W2       28396    TIP3     OH2      OT      -0.834000       15.9994           0
     79667 W2       28396    TIP3     H1       HT       0.417000       1.00800           0
     79668 W2       28396    TIP3     H2       HT       0.417000       1.00800           0
     79669 W2       28397    TIP3     OH2      OT      -0.834000       15.9994           0
     79670 W2       28397    TIP3     H1       HT       0.417000       1.00800           0
     79671 W2       28397    TIP3     H2       HT       0.417000       1.00800           0
     79672 W2       28398    TIP3     OH2      OT      -0.834000       15.9994           0
     79673 W2       28398    TIP3     H1       HT       0.417000       1.00800           0
     79674 W2       28398    TIP3     H2       HT       0.417000       1.00800           0
     79675 W2       28399    TIP3     OH2      OT      -0.834000       15.9994           0
     79676 W2       28399    TIP3     H1       HT       0.417000       1.00800           0
     79677 W2       28399    TIP3     H2       HT       0.417000       1.00800           0
     79678 W2       28400    TIP3     OH2      OT      -0.834000       15.9994           0
     79679 W2       28400    TIP3     H1       HT       0.417000       1.00800           0
     79680 W2       28400    TIP3     H2       HT       0.417000       1.00800           0
     79681 W2       28401    TIP3     OH2      OT      -0.834000       15.9994           0
     79682 W2       28401    TIP3     H1       HT       0.417000       1.00800           0
     79683 W2       28401    TIP3     H2       HT       0.417000       1.00800           0
     79684 W2       28403    TIP3     OH2      OT      -0.834000       15.9994           0
     79685 W2       28403    TIP3     H1       HT       0.417000       1.00800           0
     79686 W2       28403    TIP3     H2       HT       0.417000       1.00800           0
     79687 W2       28404    TIP3     OH2      OT      -0.834000       15.9994           0
     79688 W2       28404    TIP3     H1       HT       0.417000       1.00800           0
     79689 W2       28404    TIP3     H2       HT       0.417000       1.00800           0
     79690 W2       28405    TIP3     OH2      OT      -0.834000       15.9994           0
     79691 W2       28405    TIP3     H1       HT       0.417000       1.00800           0
     79692 W2       28405    TIP3     H2       HT       0.417000       1.00800           0
     79693 W2       28409    TIP3     OH2      OT      -0.834000       15.9994           0
     79694 W2       28409    TIP3     H1       HT       0.417000       1.00800           0
     79695 W2       28409    TIP3     H2       HT       0.417000       1.00800           0
     79696 W2       28411    TIP3     OH2      OT      -0.834000       15.9994           0
     79697 W2       28411    TIP3     H1       HT       0.417000       1.00800           0
     79698 W2       28411    TIP3     H2       HT       0.417000       1.00800           0
     79699 W2       28412    TIP3     OH2      OT      -0.834000       15.9994           0
     79700 W2       28412    TIP3     H1       HT       0.417000       1.00800           0
     79701 W2       28412    TIP3     H2       HT       0.417000       1.00800           0
     79702 W2       28413    TIP3     OH2      OT      -0.834000       15.9994           0
     79703 W2       28413    TIP3     H1       HT       0.417000       1.00800           0
     79704 W2       28413    TIP3     H2       HT       0.417000       1.00800           0
     79705 W2       28414    TIP3     OH2      OT      -0.834000       15.9994           0
     79706 W2       28414    TIP3     H1       HT       0.417000       1.00800           0
     79707 W2       28414    TIP3     H2       HT       0.417000       1.00800           0
     79708 W2       28415    TIP3     OH2      OT      -0.834000       15.9994           0
     79709 W2       28415    TIP3     H1       HT       0.417000       1.00800           0
     79710 W2       28415    TIP3     H2       HT       0.417000       1.00800           0
     79711 W2       28416    TIP3     OH2      OT      -0.834000       15.9994           0
     79712 W2       28416    TIP3     H1       HT       0.417000       1.00800           0
     79713 W2       28416    TIP3     H2       HT       0.417000       1.00800           0
     79714 W2       28417    TIP3     OH2      OT      -0.834000       15.9994           0
     79715 W2       28417    TIP3     H1       HT       0.417000       1.00800           0
     79716 W2       28417    TIP3     H2       HT       0.417000       1.00800           0
     79717 W2       28419    TIP3     OH2      OT      -0.834000       15.9994           0
     79718 W2       28419    TIP3     H1       HT       0.417000       1.00800           0
     79719 W2       28419    TIP3     H2       HT       0.417000       1.00800           0
     79720 W2       28420    TIP3     OH2      OT      -0.834000       15.9994           0
     79721 W2       28420    TIP3     H1       HT       0.417000       1.00800           0
     79722 W2       28420    TIP3     H2       HT       0.417000       1.00800           0
     79723 W2       28421    TIP3     OH2      OT      -0.834000       15.9994           0
     79724 W2       28421    TIP3     H1       HT       0.417000       1.00800           0
     79725 W2       28421    TIP3     H2       HT       0.417000       1.00800           0
     79726 W2       28422    TIP3     OH2      OT      -0.834000       15.9994           0
     79727 W2       28422    TIP3     H1       HT       0.417000       1.00800           0
     79728 W2       28422    TIP3     H2       HT       0.417000       1.00800           0
     79729 W2       28423    TIP3     OH2      OT      -0.834000       15.9994           0
     79730 W2       28423    TIP3     H1       HT       0.417000       1.00800           0
     79731 W2       28423    TIP3     H2       HT       0.417000       1.00800           0
     79732 W2       28424    TIP3     OH2      OT      -0.834000       15.9994           0
     79733 W2       28424    TIP3     H1       HT       0.417000       1.00800           0
     79734 W2       28424    TIP3     H2       HT       0.417000       1.00800           0
     79735 W2       28425    TIP3     OH2      OT      -0.834000       15.9994           0
     79736 W2       28425    TIP3     H1       HT       0.417000       1.00800           0
     79737 W2       28425    TIP3     H2       HT       0.417000       1.00800           0
     79738 W2       28427    TIP3     OH2      OT      -0.834000       15.9994           0
     79739 W2       28427    TIP3     H1       HT       0.417000       1.00800           0
     79740 W2       28427    TIP3     H2       HT       0.417000       1.00800           0
     79741 W2       28428    TIP3     OH2      OT      -0.834000       15.9994           0
     79742 W2       28428    TIP3     H1       HT       0.417000       1.00800           0
     79743 W2       28428    TIP3     H2       HT       0.417000       1.00800           0
     79744 W2       28430    TIP3     OH2      OT      -0.834000       15.9994           0
     79745 W2       28430    TIP3     H1       HT       0.417000       1.00800           0
     79746 W2       28430    TIP3     H2       HT       0.417000       1.00800           0
     79747 W2       28431    TIP3     OH2      OT      -0.834000       15.9994           0
     79748 W2       28431    TIP3     H1       HT       0.417000       1.00800           0
     79749 W2       28431    TIP3     H2       HT       0.417000       1.00800           0
     79750 W2       28432    TIP3     OH2      OT      -0.834000       15.9994           0
     79751 W2       28432    TIP3     H1       HT       0.417000       1.00800           0
     79752 W2       28432    TIP3     H2       HT       0.417000       1.00800           0
     79753 W2       28433    TIP3     OH2      OT      -0.834000       15.9994           0
     79754 W2       28433    TIP3     H1       HT       0.417000       1.00800           0
     79755 W2       28433    TIP3     H2       HT       0.417000       1.00800           0
     79756 W2       28434    TIP3     OH2      OT      -0.834000       15.9994           0
     79757 W2       28434    TIP3     H1       HT       0.417000       1.00800           0
     79758 W2       28434    TIP3     H2       HT       0.417000       1.00800           0
     79759 W2       28437    TIP3     OH2      OT      -0.834000       15.9994           0
     79760 W2       28437    TIP3     H1       HT       0.417000       1.00800           0
     79761 W2       28437    TIP3     H2       HT       0.417000       1.00800           0
     79762 W2       28439    TIP3     OH2      OT      -0.834000       15.9994           0
     79763 W2       28439    TIP3     H1       HT       0.417000       1.00800           0
     79764 W2       28439    TIP3     H2       HT       0.417000       1.00800           0
     79765 W2       28442    TIP3     OH2      OT      -0.834000       15.9994           0
     79766 W2       28442    TIP3     H1       HT       0.417000       1.00800           0
     79767 W2       28442    TIP3     H2       HT       0.417000       1.00800           0
     79768 W2       28444    TIP3     OH2      OT      -0.834000       15.9994           0
     79769 W2       28444    TIP3     H1       HT       0.417000       1.00800           0
     79770 W2       28444    TIP3     H2       HT       0.417000       1.00800           0
     79771 W2       28446    TIP3     OH2      OT      -0.834000       15.9994           0
     79772 W2       28446    TIP3     H1       HT       0.417000       1.00800           0
     79773 W2       28446    TIP3     H2       HT       0.417000       1.00800           0
     79774 W2       28448    TIP3     OH2      OT      -0.834000       15.9994           0
     79775 W2       28448    TIP3     H1       HT       0.417000       1.00800           0
     79776 W2       28448    TIP3     H2       HT       0.417000       1.00800           0
     79777 W2       28460    TIP3     OH2      OT      -0.834000       15.9994           0
     79778 W2       28460    TIP3     H1       HT       0.417000       1.00800           0
     79779 W2       28460    TIP3     H2       HT       0.417000       1.00800           0
     79780 W2       28462    TIP3     OH2      OT      -0.834000       15.9994           0
     79781 W2       28462    TIP3     H1       HT       0.417000       1.00800           0
     79782 W2       28462    TIP3     H2       HT       0.417000       1.00800           0
     79783 W2       28463    TIP3     OH2      OT      -0.834000       15.9994           0
     79784 W2       28463    TIP3     H1       HT       0.417000       1.00800           0
     79785 W2       28463    TIP3     H2       HT       0.417000       1.00800           0
     79786 W2       28464    TIP3     OH2      OT      -0.834000       15.9994           0
     79787 W2       28464    TIP3     H1       HT       0.417000       1.00800           0
     79788 W2       28464    TIP3     H2       HT       0.417000       1.00800           0
     79789 W2       28465    TIP3     OH2      OT      -0.834000       15.9994           0
     79790 W2       28465    TIP3     H1       HT       0.417000       1.00800           0
     79791 W2       28465    TIP3     H2       HT       0.417000       1.00800           0
     79792 W2       28466    TIP3     OH2      OT      -0.834000       15.9994           0
     79793 W2       28466    TIP3     H1       HT       0.417000       1.00800           0
     79794 W2       28466    TIP3     H2       HT       0.417000       1.00800           0
     79795 W2       28467    TIP3     OH2      OT      -0.834000       15.9994           0
     79796 W2       28467    TIP3     H1       HT       0.417000       1.00800           0
     79797 W2       28467    TIP3     H2       HT       0.417000       1.00800           0
     79798 W2       28468    TIP3     OH2      OT      -0.834000       15.9994           0
     79799 W2       28468    TIP3     H1       HT       0.417000       1.00800           0
     79800 W2       28468    TIP3     H2       HT       0.417000       1.00800           0
     79801 W2       28469    TIP3     OH2      OT      -0.834000       15.9994           0
     79802 W2       28469    TIP3     H1       HT       0.417000       1.00800           0
     79803 W2       28469    TIP3     H2       HT       0.417000       1.00800           0
     79804 W2       28472    TIP3     OH2      OT      -0.834000       15.9994           0
     79805 W2       28472    TIP3     H1       HT       0.417000       1.00800           0
     79806 W2       28472    TIP3     H2       HT       0.417000       1.00800           0
     79807 W2       28473    TIP3     OH2      OT      -0.834000       15.9994           0
     79808 W2       28473    TIP3     H1       HT       0.417000       1.00800           0
     79809 W2       28473    TIP3     H2       HT       0.417000       1.00800           0
     79810 W2       28474    TIP3     OH2      OT      -0.834000       15.9994           0
     79811 W2       28474    TIP3     H1       HT       0.417000       1.00800           0
     79812 W2       28474    TIP3     H2       HT       0.417000       1.00800           0
     79813 W2       28475    TIP3     OH2      OT      -0.834000       15.9994           0
     79814 W2       28475    TIP3     H1       HT       0.417000       1.00800           0
     79815 W2       28475    TIP3     H2       HT       0.417000       1.00800           0
     79816 W2       28478    TIP3     OH2      OT      -0.834000       15.9994           0
     79817 W2       28478    TIP3     H1       HT       0.417000       1.00800           0
     79818 W2       28478    TIP3     H2       HT       0.417000       1.00800           0
     79819 W2       28479    TIP3     OH2      OT      -0.834000       15.9994           0
     79820 W2       28479    TIP3     H1       HT       0.417000       1.00800           0
     79821 W2       28479    TIP3     H2       HT       0.417000       1.00800           0
     79822 W2       28480    TIP3     OH2      OT      -0.834000       15.9994           0
     79823 W2       28480    TIP3     H1       HT       0.417000       1.00800           0
     79824 W2       28480    TIP3     H2       HT       0.417000       1.00800           0
     79825 W2       28482    TIP3     OH2      OT      -0.834000       15.9994           0
     79826 W2       28482    TIP3     H1       HT       0.417000       1.00800           0
     79827 W2       28482    TIP3     H2       HT       0.417000       1.00800           0
     79828 W2       28483    TIP3     OH2      OT      -0.834000       15.9994           0
     79829 W2       28483    TIP3     H1       HT       0.417000       1.00800           0
     79830 W2       28483    TIP3     H2       HT       0.417000       1.00800           0
     79831 W2       28484    TIP3     OH2      OT      -0.834000       15.9994           0
     79832 W2       28484    TIP3     H1       HT       0.417000       1.00800           0
     79833 W2       28484    TIP3     H2       HT       0.417000       1.00800           0
     79834 W2       28487    TIP3     OH2      OT      -0.834000       15.9994           0
     79835 W2       28487    TIP3     H1       HT       0.417000       1.00800           0
     79836 W2       28487    TIP3     H2       HT       0.417000       1.00800           0
     79837 W2       28488    TIP3     OH2      OT      -0.834000       15.9994           0
     79838 W2       28488    TIP3     H1       HT       0.417000       1.00800           0
     79839 W2       28488    TIP3     H2       HT       0.417000       1.00800           0
     79840 W2       28489    TIP3     OH2      OT      -0.834000       15.9994           0
     79841 W2       28489    TIP3     H1       HT       0.417000       1.00800           0
     79842 W2       28489    TIP3     H2       HT       0.417000       1.00800           0
     79843 W2       28490    TIP3     OH2      OT      -0.834000       15.9994           0
     79844 W2       28490    TIP3     H1       HT       0.417000       1.00800           0
     79845 W2       28490    TIP3     H2       HT       0.417000       1.00800           0
     79846 W2       28491    TIP3     OH2      OT      -0.834000       15.9994           0
     79847 W2       28491    TIP3     H1       HT       0.417000       1.00800           0
     79848 W2       28491    TIP3     H2       HT       0.417000       1.00800           0
     79849 W2       28492    TIP3     OH2      OT      -0.834000       15.9994           0
     79850 W2       28492    TIP3     H1       HT       0.417000       1.00800           0
     79851 W2       28492    TIP3     H2       HT       0.417000       1.00800           0
     79852 W2       28493    TIP3     OH2      OT      -0.834000       15.9994           0
     79853 W2       28493    TIP3     H1       HT       0.417000       1.00800           0
     79854 W2       28493    TIP3     H2       HT       0.417000       1.00800           0
     79855 W2       28494    TIP3     OH2      OT      -0.834000       15.9994           0
     79856 W2       28494    TIP3     H1       HT       0.417000       1.00800           0
     79857 W2       28494    TIP3     H2       HT       0.417000       1.00800           0
     79858 W2       28495    TIP3     OH2      OT      -0.834000       15.9994           0
     79859 W2       28495    TIP3     H1       HT       0.417000       1.00800           0
     79860 W2       28495    TIP3     H2       HT       0.417000       1.00800           0
     79861 W2       28496    TIP3     OH2      OT      -0.834000       15.9994           0
     79862 W2       28496    TIP3     H1       HT       0.417000       1.00800           0
     79863 W2       28496    TIP3     H2       HT       0.417000       1.00800           0
     79864 W2       28500    TIP3     OH2      OT      -0.834000       15.9994           0
     79865 W2       28500    TIP3     H1       HT       0.417000       1.00800           0
     79866 W2       28500    TIP3     H2       HT       0.417000       1.00800           0
     79867 W2       28501    TIP3     OH2      OT      -0.834000       15.9994           0
     79868 W2       28501    TIP3     H1       HT       0.417000       1.00800           0
     79869 W2       28501    TIP3     H2       HT       0.417000       1.00800           0
     79870 W2       28502    TIP3     OH2      OT      -0.834000       15.9994           0
     79871 W2       28502    TIP3     H1       HT       0.417000       1.00800           0
     79872 W2       28502    TIP3     H2       HT       0.417000       1.00800           0
     79873 W2       28503    TIP3     OH2      OT      -0.834000       15.9994           0
     79874 W2       28503    TIP3     H1       HT       0.417000       1.00800           0
     79875 W2       28503    TIP3     H2       HT       0.417000       1.00800           0
     79876 W2       28504    TIP3     OH2      OT      -0.834000       15.9994           0
     79877 W2       28504    TIP3     H1       HT       0.417000       1.00800           0
     79878 W2       28504    TIP3     H2       HT       0.417000       1.00800           0
     79879 W2       28505    TIP3     OH2      OT      -0.834000       15.9994           0
     79880 W2       28505    TIP3     H1       HT       0.417000       1.00800           0
     79881 W2       28505    TIP3     H2       HT       0.417000       1.00800           0
     79882 W2       28506    TIP3     OH2      OT      -0.834000       15.9994           0
     79883 W2       28506    TIP3     H1       HT       0.417000       1.00800           0
     79884 W2       28506    TIP3     H2       HT       0.417000       1.00800           0
     79885 W2       28507    TIP3     OH2      OT      -0.834000       15.9994           0
     79886 W2       28507    TIP3     H1       HT       0.417000       1.00800           0
     79887 W2       28507    TIP3     H2       HT       0.417000       1.00800           0
     79888 W2       28508    TIP3     OH2      OT      -0.834000       15.9994           0
     79889 W2       28508    TIP3     H1       HT       0.417000       1.00800           0
     79890 W2       28508    TIP3     H2       HT       0.417000       1.00800           0
     79891 W2       28509    TIP3     OH2      OT      -0.834000       15.9994           0
     79892 W2       28509    TIP3     H1       HT       0.417000       1.00800           0
     79893 W2       28509    TIP3     H2       HT       0.417000       1.00800           0
     79894 W2       28510    TIP3     OH2      OT      -0.834000       15.9994           0
     79895 W2       28510    TIP3     H1       HT       0.417000       1.00800           0
     79896 W2       28510    TIP3     H2       HT       0.417000       1.00800           0
     79897 W2       28511    TIP3     OH2      OT      -0.834000       15.9994           0
     79898 W2       28511    TIP3     H1       HT       0.417000       1.00800           0
     79899 W2       28511    TIP3     H2       HT       0.417000       1.00800           0
     79900 W2       28512    TIP3     OH2      OT      -0.834000       15.9994           0
     79901 W2       28512    TIP3     H1       HT       0.417000       1.00800           0
     79902 W2       28512    TIP3     H2       HT       0.417000       1.00800           0
     79903 W2       28513    TIP3     OH2      OT      -0.834000       15.9994           0
     79904 W2       28513    TIP3     H1       HT       0.417000       1.00800           0
     79905 W2       28513    TIP3     H2       HT       0.417000       1.00800           0
     79906 W2       28515    TIP3     OH2      OT      -0.834000       15.9994           0
     79907 W2       28515    TIP3     H1       HT       0.417000       1.00800           0
     79908 W2       28515    TIP3     H2       HT       0.417000       1.00800           0
     79909 W2       28516    TIP3     OH2      OT      -0.834000       15.9994           0
     79910 W2       28516    TIP3     H1       HT       0.417000       1.00800           0
     79911 W2       28516    TIP3     H2       HT       0.417000       1.00800           0
     79912 W2       28517    TIP3     OH2      OT      -0.834000       15.9994           0
     79913 W2       28517    TIP3     H1       HT       0.417000       1.00800           0
     79914 W2       28517    TIP3     H2       HT       0.417000       1.00800           0
     79915 W2       28518    TIP3     OH2      OT      -0.834000       15.9994           0
     79916 W2       28518    TIP3     H1       HT       0.417000       1.00800           0
     79917 W2       28518    TIP3     H2       HT       0.417000       1.00800           0
     79918 W2       28519    TIP3     OH2      OT      -0.834000       15.9994           0
     79919 W2       28519    TIP3     H1       HT       0.417000       1.00800           0
     79920 W2       28519    TIP3     H2       HT       0.417000       1.00800           0
     79921 W2       28520    TIP3     OH2      OT      -0.834000       15.9994           0
     79922 W2       28520    TIP3     H1       HT       0.417000       1.00800           0
     79923 W2       28520    TIP3     H2       HT       0.417000       1.00800           0
     79924 W2       28521    TIP3     OH2      OT      -0.834000       15.9994           0
     79925 W2       28521    TIP3     H1       HT       0.417000       1.00800           0
     79926 W2       28521    TIP3     H2       HT       0.417000       1.00800           0
     79927 W2       28522    TIP3     OH2      OT      -0.834000       15.9994           0
     79928 W2       28522    TIP3     H1       HT       0.417000       1.00800           0
     79929 W2       28522    TIP3     H2       HT       0.417000       1.00800           0
     79930 W2       28523    TIP3     OH2      OT      -0.834000       15.9994           0
     79931 W2       28523    TIP3     H1       HT       0.417000       1.00800           0
     79932 W2       28523    TIP3     H2       HT       0.417000       1.00800           0
     79933 W2       28524    TIP3     OH2      OT      -0.834000       15.9994           0
     79934 W2       28524    TIP3     H1       HT       0.417000       1.00800           0
     79935 W2       28524    TIP3     H2       HT       0.417000       1.00800           0
     79936 W2       28525    TIP3     OH2      OT      -0.834000       15.9994           0
     79937 W2       28525    TIP3     H1       HT       0.417000       1.00800           0
     79938 W2       28525    TIP3     H2       HT       0.417000       1.00800           0
     79939 W2       28527    TIP3     OH2      OT      -0.834000       15.9994           0
     79940 W2       28527    TIP3     H1       HT       0.417000       1.00800           0
     79941 W2       28527    TIP3     H2       HT       0.417000       1.00800           0
     79942 W2       28528    TIP3     OH2      OT      -0.834000       15.9994           0
     79943 W2       28528    TIP3     H1       HT       0.417000       1.00800           0
     79944 W2       28528    TIP3     H2       HT       0.417000       1.00800           0
     79945 W2       28529    TIP3     OH2      OT      -0.834000       15.9994           0
     79946 W2       28529    TIP3     H1       HT       0.417000       1.00800           0
     79947 W2       28529    TIP3     H2       HT       0.417000       1.00800           0
     79948 W2       28530    TIP3     OH2      OT      -0.834000       15.9994           0
     79949 W2       28530    TIP3     H1       HT       0.417000       1.00800           0
     79950 W2       28530    TIP3     H2       HT       0.417000       1.00800           0
     79951 W2       28532    TIP3     OH2      OT      -0.834000       15.9994           0
     79952 W2       28532    TIP3     H1       HT       0.417000       1.00800           0
     79953 W2       28532    TIP3     H2       HT       0.417000       1.00800           0
     79954 W2       28533    TIP3     OH2      OT      -0.834000       15.9994           0
     79955 W2       28533    TIP3     H1       HT       0.417000       1.00800           0
     79956 W2       28533    TIP3     H2       HT       0.417000       1.00800           0
     79957 W2       28534    TIP3     OH2      OT      -0.834000       15.9994           0
     79958 W2       28534    TIP3     H1       HT       0.417000       1.00800           0
     79959 W2       28534    TIP3     H2       HT       0.417000       1.00800           0
     79960 W2       28535    TIP3     OH2      OT      -0.834000       15.9994           0
     79961 W2       28535    TIP3     H1       HT       0.417000       1.00800           0
     79962 W2       28535    TIP3     H2       HT       0.417000       1.00800           0
     79963 W2       28537    TIP3     OH2      OT      -0.834000       15.9994           0
     79964 W2       28537    TIP3     H1       HT       0.417000       1.00800           0
     79965 W2       28537    TIP3     H2       HT       0.417000       1.00800           0
     79966 W2       28539    TIP3     OH2      OT      -0.834000       15.9994           0
     79967 W2       28539    TIP3     H1       HT       0.417000       1.00800           0
     79968 W2       28539    TIP3     H2       HT       0.417000       1.00800           0
     79969 W2       28540    TIP3     OH2      OT      -0.834000       15.9994           0
     79970 W2       28540    TIP3     H1       HT       0.417000       1.00800           0
     79971 W2       28540    TIP3     H2       HT       0.417000       1.00800           0
     79972 W2       28541    TIP3     OH2      OT      -0.834000       15.9994           0
     79973 W2       28541    TIP3     H1       HT       0.417000       1.00800           0
     79974 W2       28541    TIP3     H2       HT       0.417000       1.00800           0
     79975 W2       28542    TIP3     OH2      OT      -0.834000       15.9994           0
     79976 W2       28542    TIP3     H1       HT       0.417000       1.00800           0
     79977 W2       28542    TIP3     H2       HT       0.417000       1.00800           0
     79978 W2       28543    TIP3     OH2      OT      -0.834000       15.9994           0
     79979 W2       28543    TIP3     H1       HT       0.417000       1.00800           0
     79980 W2       28543    TIP3     H2       HT       0.417000       1.00800           0
     79981 W2       28548    TIP3     OH2      OT      -0.834000       15.9994           0
     79982 W2       28548    TIP3     H1       HT       0.417000       1.00800           0
     79983 W2       28548    TIP3     H2       HT       0.417000       1.00800           0
     79984 W2       28551    TIP3     OH2      OT      -0.834000       15.9994           0
     79985 W2       28551    TIP3     H1       HT       0.417000       1.00800           0
     79986 W2       28551    TIP3     H2       HT       0.417000       1.00800           0
     79987 W2       28552    TIP3     OH2      OT      -0.834000       15.9994           0
     79988 W2       28552    TIP3     H1       HT       0.417000       1.00800           0
     79989 W2       28552    TIP3     H2       HT       0.417000       1.00800           0
     79990 W2       28553    TIP3     OH2      OT      -0.834000       15.9994           0
     79991 W2       28553    TIP3     H1       HT       0.417000       1.00800           0
     79992 W2       28553    TIP3     H2       HT       0.417000       1.00800           0
     79993 W2       28554    TIP3     OH2      OT      -0.834000       15.9994           0
     79994 W2       28554    TIP3     H1       HT       0.417000       1.00800           0
     79995 W2       28554    TIP3     H2       HT       0.417000       1.00800           0
     79996 W2       28555    TIP3     OH2      OT      -0.834000       15.9994           0
     79997 W2       28555    TIP3     H1       HT       0.417000       1.00800           0
     79998 W2       28555    TIP3     H2       HT       0.417000       1.00800           0
     79999 W2       28557    TIP3     OH2      OT      -0.834000       15.9994           0
     80000 W2       28557    TIP3     H1       HT       0.417000       1.00800           0
     80001 W2       28557    TIP3     H2       HT       0.417000       1.00800           0
     80002 W2       28558    TIP3     OH2      OT      -0.834000       15.9994           0
     80003 W2       28558    TIP3     H1       HT       0.417000       1.00800           0
     80004 W2       28558    TIP3     H2       HT       0.417000       1.00800           0
     80005 W2       28559    TIP3     OH2      OT      -0.834000       15.9994           0
     80006 W2       28559    TIP3     H1       HT       0.417000       1.00800           0
     80007 W2       28559    TIP3     H2       HT       0.417000       1.00800           0
     80008 W2       28560    TIP3     OH2      OT      -0.834000       15.9994           0
     80009 W2       28560    TIP3     H1       HT       0.417000       1.00800           0
     80010 W2       28560    TIP3     H2       HT       0.417000       1.00800           0
     80011 W2       28561    TIP3     OH2      OT      -0.834000       15.9994           0
     80012 W2       28561    TIP3     H1       HT       0.417000       1.00800           0
     80013 W2       28561    TIP3     H2       HT       0.417000       1.00800           0
     80014 W2       28562    TIP3     OH2      OT      -0.834000       15.9994           0
     80015 W2       28562    TIP3     H1       HT       0.417000       1.00800           0
     80016 W2       28562    TIP3     H2       HT       0.417000       1.00800           0
     80017 W2       28563    TIP3     OH2      OT      -0.834000       15.9994           0
     80018 W2       28563    TIP3     H1       HT       0.417000       1.00800           0
     80019 W2       28563    TIP3     H2       HT       0.417000       1.00800           0
     80020 W2       28564    TIP3     OH2      OT      -0.834000       15.9994           0
     80021 W2       28564    TIP3     H1       HT       0.417000       1.00800           0
     80022 W2       28564    TIP3     H2       HT       0.417000       1.00800           0
     80023 W2       28565    TIP3     OH2      OT      -0.834000       15.9994           0
     80024 W2       28565    TIP3     H1       HT       0.417000       1.00800           0
     80025 W2       28565    TIP3     H2       HT       0.417000       1.00800           0
     80026 W2       28566    TIP3     OH2      OT      -0.834000       15.9994           0
     80027 W2       28566    TIP3     H1       HT       0.417000       1.00800           0
     80028 W2       28566    TIP3     H2       HT       0.417000       1.00800           0
     80029 W2       28567    TIP3     OH2      OT      -0.834000       15.9994           0
     80030 W2       28567    TIP3     H1       HT       0.417000       1.00800           0
     80031 W2       28567    TIP3     H2       HT       0.417000       1.00800           0
     80032 W2       28569    TIP3     OH2      OT      -0.834000       15.9994           0
     80033 W2       28569    TIP3     H1       HT       0.417000       1.00800           0
     80034 W2       28569    TIP3     H2       HT       0.417000       1.00800           0
     80035 W2       28570    TIP3     OH2      OT      -0.834000       15.9994           0
     80036 W2       28570    TIP3     H1       HT       0.417000       1.00800           0
     80037 W2       28570    TIP3     H2       HT       0.417000       1.00800           0
     80038 W2       28571    TIP3     OH2      OT      -0.834000       15.9994           0
     80039 W2       28571    TIP3     H1       HT       0.417000       1.00800           0
     80040 W2       28571    TIP3     H2       HT       0.417000       1.00800           0
     80041 W2       28572    TIP3     OH2      OT      -0.834000       15.9994           0
     80042 W2       28572    TIP3     H1       HT       0.417000       1.00800           0
     80043 W2       28572    TIP3     H2       HT       0.417000       1.00800           0
     80044 W2       28573    TIP3     OH2      OT      -0.834000       15.9994           0
     80045 W2       28573    TIP3     H1       HT       0.417000       1.00800           0
     80046 W2       28573    TIP3     H2       HT       0.417000       1.00800           0
     80047 W2       28574    TIP3     OH2      OT      -0.834000       15.9994           0
     80048 W2       28574    TIP3     H1       HT       0.417000       1.00800           0
     80049 W2       28574    TIP3     H2       HT       0.417000       1.00800           0
     80050 W2       28576    TIP3     OH2      OT      -0.834000       15.9994           0
     80051 W2       28576    TIP3     H1       HT       0.417000       1.00800           0
     80052 W2       28576    TIP3     H2       HT       0.417000       1.00800           0
     80053 W2       28577    TIP3     OH2      OT      -0.834000       15.9994           0
     80054 W2       28577    TIP3     H1       HT       0.417000       1.00800           0
     80055 W2       28577    TIP3     H2       HT       0.417000       1.00800           0
     80056 W2       28578    TIP3     OH2      OT      -0.834000       15.9994           0
     80057 W2       28578    TIP3     H1       HT       0.417000       1.00800           0
     80058 W2       28578    TIP3     H2       HT       0.417000       1.00800           0
     80059 W2       28582    TIP3     OH2      OT      -0.834000       15.9994           0
     80060 W2       28582    TIP3     H1       HT       0.417000       1.00800           0
     80061 W2       28582    TIP3     H2       HT       0.417000       1.00800           0
     80062 W2       28584    TIP3     OH2      OT      -0.834000       15.9994           0
     80063 W2       28584    TIP3     H1       HT       0.417000       1.00800           0
     80064 W2       28584    TIP3     H2       HT       0.417000       1.00800           0
     80065 W2       28585    TIP3     OH2      OT      -0.834000       15.9994           0
     80066 W2       28585    TIP3     H1       HT       0.417000       1.00800           0
     80067 W2       28585    TIP3     H2       HT       0.417000       1.00800           0
     80068 W2       28586    TIP3     OH2      OT      -0.834000       15.9994           0
     80069 W2       28586    TIP3     H1       HT       0.417000       1.00800           0
     80070 W2       28586    TIP3     H2       HT       0.417000       1.00800           0
     80071 W2       28587    TIP3     OH2      OT      -0.834000       15.9994           0
     80072 W2       28587    TIP3     H1       HT       0.417000       1.00800           0
     80073 W2       28587    TIP3     H2       HT       0.417000       1.00800           0
     80074 W2       28588    TIP3     OH2      OT      -0.834000       15.9994           0
     80075 W2       28588    TIP3     H1       HT       0.417000       1.00800           0
     80076 W2       28588    TIP3     H2       HT       0.417000       1.00800           0
     80077 W2       28589    TIP3     OH2      OT      -0.834000       15.9994           0
     80078 W2       28589    TIP3     H1       HT       0.417000       1.00800           0
     80079 W2       28589    TIP3     H2       HT       0.417000       1.00800           0
     80080 W2       28590    TIP3     OH2      OT      -0.834000       15.9994           0
     80081 W2       28590    TIP3     H1       HT       0.417000       1.00800           0
     80082 W2       28590    TIP3     H2       HT       0.417000       1.00800           0
     80083 W2       28592    TIP3     OH2      OT      -0.834000       15.9994           0
     80084 W2       28592    TIP3     H1       HT       0.417000       1.00800           0
     80085 W2       28592    TIP3     H2       HT       0.417000       1.00800           0
     80086 W2       28593    TIP3     OH2      OT      -0.834000       15.9994           0
     80087 W2       28593    TIP3     H1       HT       0.417000       1.00800           0
     80088 W2       28593    TIP3     H2       HT       0.417000       1.00800           0
     80089 W2       28594    TIP3     OH2      OT      -0.834000       15.9994           0
     80090 W2       28594    TIP3     H1       HT       0.417000       1.00800           0
     80091 W2       28594    TIP3     H2       HT       0.417000       1.00800           0
     80092 W2       28595    TIP3     OH2      OT      -0.834000       15.9994           0
     80093 W2       28595    TIP3     H1       HT       0.417000       1.00800           0
     80094 W2       28595    TIP3     H2       HT       0.417000       1.00800           0
     80095 W2       28596    TIP3     OH2      OT      -0.834000       15.9994           0
     80096 W2       28596    TIP3     H1       HT       0.417000       1.00800           0
     80097 W2       28596    TIP3     H2       HT       0.417000       1.00800           0
     80098 W2       28597    TIP3     OH2      OT      -0.834000       15.9994           0
     80099 W2       28597    TIP3     H1       HT       0.417000       1.00800           0
     80100 W2       28597    TIP3     H2       HT       0.417000       1.00800           0
     80101 W2       28598    TIP3     OH2      OT      -0.834000       15.9994           0
     80102 W2       28598    TIP3     H1       HT       0.417000       1.00800           0
     80103 W2       28598    TIP3     H2       HT       0.417000       1.00800           0
     80104 W2       28600    TIP3     OH2      OT      -0.834000       15.9994           0
     80105 W2       28600    TIP3     H1       HT       0.417000       1.00800           0
     80106 W2       28600    TIP3     H2       HT       0.417000       1.00800           0
     80107 W2       28601    TIP3     OH2      OT      -0.834000       15.9994           0
     80108 W2       28601    TIP3     H1       HT       0.417000       1.00800           0
     80109 W2       28601    TIP3     H2       HT       0.417000       1.00800           0
     80110 W2       28603    TIP3     OH2      OT      -0.834000       15.9994           0
     80111 W2       28603    TIP3     H1       HT       0.417000       1.00800           0
     80112 W2       28603    TIP3     H2       HT       0.417000       1.00800           0
     80113 W2       28604    TIP3     OH2      OT      -0.834000       15.9994           0
     80114 W2       28604    TIP3     H1       HT       0.417000       1.00800           0
     80115 W2       28604    TIP3     H2       HT       0.417000       1.00800           0
     80116 W2       28605    TIP3     OH2      OT      -0.834000       15.9994           0
     80117 W2       28605    TIP3     H1       HT       0.417000       1.00800           0
     80118 W2       28605    TIP3     H2       HT       0.417000       1.00800           0
     80119 W2       28606    TIP3     OH2      OT      -0.834000       15.9994           0
     80120 W2       28606    TIP3     H1       HT       0.417000       1.00800           0
     80121 W2       28606    TIP3     H2       HT       0.417000       1.00800           0
     80122 W2       28607    TIP3     OH2      OT      -0.834000       15.9994           0
     80123 W2       28607    TIP3     H1       HT       0.417000       1.00800           0
     80124 W2       28607    TIP3     H2       HT       0.417000       1.00800           0
     80125 W2       28610    TIP3     OH2      OT      -0.834000       15.9994           0
     80126 W2       28610    TIP3     H1       HT       0.417000       1.00800           0
     80127 W2       28610    TIP3     H2       HT       0.417000       1.00800           0
     80128 W2       28612    TIP3     OH2      OT      -0.834000       15.9994           0
     80129 W2       28612    TIP3     H1       HT       0.417000       1.00800           0
     80130 W2       28612    TIP3     H2       HT       0.417000       1.00800           0
     80131 W2       28615    TIP3     OH2      OT      -0.834000       15.9994           0
     80132 W2       28615    TIP3     H1       HT       0.417000       1.00800           0
     80133 W2       28615    TIP3     H2       HT       0.417000       1.00800           0
     80134 W2       28617    TIP3     OH2      OT      -0.834000       15.9994           0
     80135 W2       28617    TIP3     H1       HT       0.417000       1.00800           0
     80136 W2       28617    TIP3     H2       HT       0.417000       1.00800           0
     80137 W2       28619    TIP3     OH2      OT      -0.834000       15.9994           0
     80138 W2       28619    TIP3     H1       HT       0.417000       1.00800           0
     80139 W2       28619    TIP3     H2       HT       0.417000       1.00800           0
     80140 W2       28621    TIP3     OH2      OT      -0.834000       15.9994           0
     80141 W2       28621    TIP3     H1       HT       0.417000       1.00800           0
     80142 W2       28621    TIP3     H2       HT       0.417000       1.00800           0
     80143 W2       28633    TIP3     OH2      OT      -0.834000       15.9994           0
     80144 W2       28633    TIP3     H1       HT       0.417000       1.00800           0
     80145 W2       28633    TIP3     H2       HT       0.417000       1.00800           0
     80146 W2       28635    TIP3     OH2      OT      -0.834000       15.9994           0
     80147 W2       28635    TIP3     H1       HT       0.417000       1.00800           0
     80148 W2       28635    TIP3     H2       HT       0.417000       1.00800           0
     80149 W2       28636    TIP3     OH2      OT      -0.834000       15.9994           0
     80150 W2       28636    TIP3     H1       HT       0.417000       1.00800           0
     80151 W2       28636    TIP3     H2       HT       0.417000       1.00800           0
     80152 W2       28637    TIP3     OH2      OT      -0.834000       15.9994           0
     80153 W2       28637    TIP3     H1       HT       0.417000       1.00800           0
     80154 W2       28637    TIP3     H2       HT       0.417000       1.00800           0
     80155 W2       28638    TIP3     OH2      OT      -0.834000       15.9994           0
     80156 W2       28638    TIP3     H1       HT       0.417000       1.00800           0
     80157 W2       28638    TIP3     H2       HT       0.417000       1.00800           0
     80158 W2       28639    TIP3     OH2      OT      -0.834000       15.9994           0
     80159 W2       28639    TIP3     H1       HT       0.417000       1.00800           0
     80160 W2       28639    TIP3     H2       HT       0.417000       1.00800           0
     80161 W2       28640    TIP3     OH2      OT      -0.834000       15.9994           0
     80162 W2       28640    TIP3     H1       HT       0.417000       1.00800           0
     80163 W2       28640    TIP3     H2       HT       0.417000       1.00800           0
     80164 W2       28641    TIP3     OH2      OT      -0.834000       15.9994           0
     80165 W2       28641    TIP3     H1       HT       0.417000       1.00800           0
     80166 W2       28641    TIP3     H2       HT       0.417000       1.00800           0
     80167 W2       28642    TIP3     OH2      OT      -0.834000       15.9994           0
     80168 W2       28642    TIP3     H1       HT       0.417000       1.00800           0
     80169 W2       28642    TIP3     H2       HT       0.417000       1.00800           0
     80170 W2       28645    TIP3     OH2      OT      -0.834000       15.9994           0
     80171 W2       28645    TIP3     H1       HT       0.417000       1.00800           0
     80172 W2       28645    TIP3     H2       HT       0.417000       1.00800           0
     80173 W2       28646    TIP3     OH2      OT      -0.834000       15.9994           0
     80174 W2       28646    TIP3     H1       HT       0.417000       1.00800           0
     80175 W2       28646    TIP3     H2       HT       0.417000       1.00800           0
     80176 W2       28647    TIP3     OH2      OT      -0.834000       15.9994           0
     80177 W2       28647    TIP3     H1       HT       0.417000       1.00800           0
     80178 W2       28647    TIP3     H2       HT       0.417000       1.00800           0
     80179 W2       28648    TIP3     OH2      OT      -0.834000       15.9994           0
     80180 W2       28648    TIP3     H1       HT       0.417000       1.00800           0
     80181 W2       28648    TIP3     H2       HT       0.417000       1.00800           0
     80182 W2       28651    TIP3     OH2      OT      -0.834000       15.9994           0
     80183 W2       28651    TIP3     H1       HT       0.417000       1.00800           0
     80184 W2       28651    TIP3     H2       HT       0.417000       1.00800           0
     80185 W2       28652    TIP3     OH2      OT      -0.834000       15.9994           0
     80186 W2       28652    TIP3     H1       HT       0.417000       1.00800           0
     80187 W2       28652    TIP3     H2       HT       0.417000       1.00800           0
     80188 W2       28653    TIP3     OH2      OT      -0.834000       15.9994           0
     80189 W2       28653    TIP3     H1       HT       0.417000       1.00800           0
     80190 W2       28653    TIP3     H2       HT       0.417000       1.00800           0
     80191 W2       28655    TIP3     OH2      OT      -0.834000       15.9994           0
     80192 W2       28655    TIP3     H1       HT       0.417000       1.00800           0
     80193 W2       28655    TIP3     H2       HT       0.417000       1.00800           0
     80194 W2       28656    TIP3     OH2      OT      -0.834000       15.9994           0
     80195 W2       28656    TIP3     H1       HT       0.417000       1.00800           0
     80196 W2       28656    TIP3     H2       HT       0.417000       1.00800           0
     80197 W2       28657    TIP3     OH2      OT      -0.834000       15.9994           0
     80198 W2       28657    TIP3     H1       HT       0.417000       1.00800           0
     80199 W2       28657    TIP3     H2       HT       0.417000       1.00800           0
     80200 W2       28660    TIP3     OH2      OT      -0.834000       15.9994           0
     80201 W2       28660    TIP3     H1       HT       0.417000       1.00800           0
     80202 W2       28660    TIP3     H2       HT       0.417000       1.00800           0
     80203 W2       28661    TIP3     OH2      OT      -0.834000       15.9994           0
     80204 W2       28661    TIP3     H1       HT       0.417000       1.00800           0
     80205 W2       28661    TIP3     H2       HT       0.417000       1.00800           0
     80206 W2       28662    TIP3     OH2      OT      -0.834000       15.9994           0
     80207 W2       28662    TIP3     H1       HT       0.417000       1.00800           0
     80208 W2       28662    TIP3     H2       HT       0.417000       1.00800           0
     80209 W2       28663    TIP3     OH2      OT      -0.834000       15.9994           0
     80210 W2       28663    TIP3     H1       HT       0.417000       1.00800           0
     80211 W2       28663    TIP3     H2       HT       0.417000       1.00800           0
     80212 W2       28664    TIP3     OH2      OT      -0.834000       15.9994           0
     80213 W2       28664    TIP3     H1       HT       0.417000       1.00800           0
     80214 W2       28664    TIP3     H2       HT       0.417000       1.00800           0
     80215 W2       28665    TIP3     OH2      OT      -0.834000       15.9994           0
     80216 W2       28665    TIP3     H1       HT       0.417000       1.00800           0
     80217 W2       28665    TIP3     H2       HT       0.417000       1.00800           0
     80218 W2       28666    TIP3     OH2      OT      -0.834000       15.9994           0
     80219 W2       28666    TIP3     H1       HT       0.417000       1.00800           0
     80220 W2       28666    TIP3     H2       HT       0.417000       1.00800           0
     80221 W2       28667    TIP3     OH2      OT      -0.834000       15.9994           0
     80222 W2       28667    TIP3     H1       HT       0.417000       1.00800           0
     80223 W2       28667    TIP3     H2       HT       0.417000       1.00800           0
     80224 W2       28668    TIP3     OH2      OT      -0.834000       15.9994           0
     80225 W2       28668    TIP3     H1       HT       0.417000       1.00800           0
     80226 W2       28668    TIP3     H2       HT       0.417000       1.00800           0
     80227 W2       28669    TIP3     OH2      OT      -0.834000       15.9994           0
     80228 W2       28669    TIP3     H1       HT       0.417000       1.00800           0
     80229 W2       28669    TIP3     H2       HT       0.417000       1.00800           0
     80230 W2       28673    TIP3     OH2      OT      -0.834000       15.9994           0
     80231 W2       28673    TIP3     H1       HT       0.417000       1.00800           0
     80232 W2       28673    TIP3     H2       HT       0.417000       1.00800           0
     80233 W2       28674    TIP3     OH2      OT      -0.834000       15.9994           0
     80234 W2       28674    TIP3     H1       HT       0.417000       1.00800           0
     80235 W2       28674    TIP3     H2       HT       0.417000       1.00800           0
     80236 W2       28675    TIP3     OH2      OT      -0.834000       15.9994           0
     80237 W2       28675    TIP3     H1       HT       0.417000       1.00800           0
     80238 W2       28675    TIP3     H2       HT       0.417000       1.00800           0
     80239 W2       28676    TIP3     OH2      OT      -0.834000       15.9994           0
     80240 W2       28676    TIP3     H1       HT       0.417000       1.00800           0
     80241 W2       28676    TIP3     H2       HT       0.417000       1.00800           0
     80242 W2       28677    TIP3     OH2      OT      -0.834000       15.9994           0
     80243 W2       28677    TIP3     H1       HT       0.417000       1.00800           0
     80244 W2       28677    TIP3     H2       HT       0.417000       1.00800           0
     80245 W2       28678    TIP3     OH2      OT      -0.834000       15.9994           0
     80246 W2       28678    TIP3     H1       HT       0.417000       1.00800           0
     80247 W2       28678    TIP3     H2       HT       0.417000       1.00800           0
     80248 W2       28679    TIP3     OH2      OT      -0.834000       15.9994           0
     80249 W2       28679    TIP3     H1       HT       0.417000       1.00800           0
     80250 W2       28679    TIP3     H2       HT       0.417000       1.00800           0
     80251 W2       28680    TIP3     OH2      OT      -0.834000       15.9994           0
     80252 W2       28680    TIP3     H1       HT       0.417000       1.00800           0
     80253 W2       28680    TIP3     H2       HT       0.417000       1.00800           0
     80254 W2       28681    TIP3     OH2      OT      -0.834000       15.9994           0
     80255 W2       28681    TIP3     H1       HT       0.417000       1.00800           0
     80256 W2       28681    TIP3     H2       HT       0.417000       1.00800           0
     80257 W2       28682    TIP3     OH2      OT      -0.834000       15.9994           0
     80258 W2       28682    TIP3     H1       HT       0.417000       1.00800           0
     80259 W2       28682    TIP3     H2       HT       0.417000       1.00800           0
     80260 W2       28683    TIP3     OH2      OT      -0.834000       15.9994           0
     80261 W2       28683    TIP3     H1       HT       0.417000       1.00800           0
     80262 W2       28683    TIP3     H2       HT       0.417000       1.00800           0
     80263 W2       28684    TIP3     OH2      OT      -0.834000       15.9994           0
     80264 W2       28684    TIP3     H1       HT       0.417000       1.00800           0
     80265 W2       28684    TIP3     H2       HT       0.417000       1.00800           0
     80266 W2       28685    TIP3     OH2      OT      -0.834000       15.9994           0
     80267 W2       28685    TIP3     H1       HT       0.417000       1.00800           0
     80268 W2       28685    TIP3     H2       HT       0.417000       1.00800           0
     80269 W2       28686    TIP3     OH2      OT      -0.834000       15.9994           0
     80270 W2       28686    TIP3     H1       HT       0.417000       1.00800           0
     80271 W2       28686    TIP3     H2       HT       0.417000       1.00800           0
     80272 W2       28688    TIP3     OH2      OT      -0.834000       15.9994           0
     80273 W2       28688    TIP3     H1       HT       0.417000       1.00800           0
     80274 W2       28688    TIP3     H2       HT       0.417000       1.00800           0
     80275 W2       28689    TIP3     OH2      OT      -0.834000       15.9994           0
     80276 W2       28689    TIP3     H1       HT       0.417000       1.00800           0
     80277 W2       28689    TIP3     H2       HT       0.417000       1.00800           0
     80278 W2       28690    TIP3     OH2      OT      -0.834000       15.9994           0
     80279 W2       28690    TIP3     H1       HT       0.417000       1.00800           0
     80280 W2       28690    TIP3     H2       HT       0.417000       1.00800           0
     80281 W2       28691    TIP3     OH2      OT      -0.834000       15.9994           0
     80282 W2       28691    TIP3     H1       HT       0.417000       1.00800           0
     80283 W2       28691    TIP3     H2       HT       0.417000       1.00800           0
     80284 W2       28692    TIP3     OH2      OT      -0.834000       15.9994           0
     80285 W2       28692    TIP3     H1       HT       0.417000       1.00800           0
     80286 W2       28692    TIP3     H2       HT       0.417000       1.00800           0
     80287 W2       28693    TIP3     OH2      OT      -0.834000       15.9994           0
     80288 W2       28693    TIP3     H1       HT       0.417000       1.00800           0
     80289 W2       28693    TIP3     H2       HT       0.417000       1.00800           0
     80290 W2       28694    TIP3     OH2      OT      -0.834000       15.9994           0
     80291 W2       28694    TIP3     H1       HT       0.417000       1.00800           0
     80292 W2       28694    TIP3     H2       HT       0.417000       1.00800           0
     80293 W2       28695    TIP3     OH2      OT      -0.834000       15.9994           0
     80294 W2       28695    TIP3     H1       HT       0.417000       1.00800           0
     80295 W2       28695    TIP3     H2       HT       0.417000       1.00800           0
     80296 W2       28696    TIP3     OH2      OT      -0.834000       15.9994           0
     80297 W2       28696    TIP3     H1       HT       0.417000       1.00800           0
     80298 W2       28696    TIP3     H2       HT       0.417000       1.00800           0
     80299 W2       28697    TIP3     OH2      OT      -0.834000       15.9994           0
     80300 W2       28697    TIP3     H1       HT       0.417000       1.00800           0
     80301 W2       28697    TIP3     H2       HT       0.417000       1.00800           0
     80302 W2       28698    TIP3     OH2      OT      -0.834000       15.9994           0
     80303 W2       28698    TIP3     H1       HT       0.417000       1.00800           0
     80304 W2       28698    TIP3     H2       HT       0.417000       1.00800           0
     80305 W2       28700    TIP3     OH2      OT      -0.834000       15.9994           0
     80306 W2       28700    TIP3     H1       HT       0.417000       1.00800           0
     80307 W2       28700    TIP3     H2       HT       0.417000       1.00800           0
     80308 W2       28701    TIP3     OH2      OT      -0.834000       15.9994           0
     80309 W2       28701    TIP3     H1       HT       0.417000       1.00800           0
     80310 W2       28701    TIP3     H2       HT       0.417000       1.00800           0
     80311 W2       28702    TIP3     OH2      OT      -0.834000       15.9994           0
     80312 W2       28702    TIP3     H1       HT       0.417000       1.00800           0
     80313 W2       28702    TIP3     H2       HT       0.417000       1.00800           0
     80314 W2       28703    TIP3     OH2      OT      -0.834000       15.9994           0
     80315 W2       28703    TIP3     H1       HT       0.417000       1.00800           0
     80316 W2       28703    TIP3     H2       HT       0.417000       1.00800           0
     80317 W2       28705    TIP3     OH2      OT      -0.834000       15.9994           0
     80318 W2       28705    TIP3     H1       HT       0.417000       1.00800           0
     80319 W2       28705    TIP3     H2       HT       0.417000       1.00800           0
     80320 W2       28706    TIP3     OH2      OT      -0.834000       15.9994           0
     80321 W2       28706    TIP3     H1       HT       0.417000       1.00800           0
     80322 W2       28706    TIP3     H2       HT       0.417000       1.00800           0
     80323 W2       28707    TIP3     OH2      OT      -0.834000       15.9994           0
     80324 W2       28707    TIP3     H1       HT       0.417000       1.00800           0
     80325 W2       28707    TIP3     H2       HT       0.417000       1.00800           0
     80326 W2       28708    TIP3     OH2      OT      -0.834000       15.9994           0
     80327 W2       28708    TIP3     H1       HT       0.417000       1.00800           0
     80328 W2       28708    TIP3     H2       HT       0.417000       1.00800           0
     80329 W2       28710    TIP3     OH2      OT      -0.834000       15.9994           0
     80330 W2       28710    TIP3     H1       HT       0.417000       1.00800           0
     80331 W2       28710    TIP3     H2       HT       0.417000       1.00800           0
     80332 W2       28712    TIP3     OH2      OT      -0.834000       15.9994           0
     80333 W2       28712    TIP3     H1       HT       0.417000       1.00800           0
     80334 W2       28712    TIP3     H2       HT       0.417000       1.00800           0
     80335 W2       28713    TIP3     OH2      OT      -0.834000       15.9994           0
     80336 W2       28713    TIP3     H1       HT       0.417000       1.00800           0
     80337 W2       28713    TIP3     H2       HT       0.417000       1.00800           0
     80338 W2       28714    TIP3     OH2      OT      -0.834000       15.9994           0
     80339 W2       28714    TIP3     H1       HT       0.417000       1.00800           0
     80340 W2       28714    TIP3     H2       HT       0.417000       1.00800           0
     80341 W2       28715    TIP3     OH2      OT      -0.834000       15.9994           0
     80342 W2       28715    TIP3     H1       HT       0.417000       1.00800           0
     80343 W2       28715    TIP3     H2       HT       0.417000       1.00800           0
     80344 W2       28716    TIP3     OH2      OT      -0.834000       15.9994           0
     80345 W2       28716    TIP3     H1       HT       0.417000       1.00800           0
     80346 W2       28716    TIP3     H2       HT       0.417000       1.00800           0
     80347 W2       28721    TIP3     OH2      OT      -0.834000       15.9994           0
     80348 W2       28721    TIP3     H1       HT       0.417000       1.00800           0
     80349 W2       28721    TIP3     H2       HT       0.417000       1.00800           0
     80350 W2       28724    TIP3     OH2      OT      -0.834000       15.9994           0
     80351 W2       28724    TIP3     H1       HT       0.417000       1.00800           0
     80352 W2       28724    TIP3     H2       HT       0.417000       1.00800           0
     80353 W2       28725    TIP3     OH2      OT      -0.834000       15.9994           0
     80354 W2       28725    TIP3     H1       HT       0.417000       1.00800           0
     80355 W2       28725    TIP3     H2       HT       0.417000       1.00800           0
     80356 W2       28726    TIP3     OH2      OT      -0.834000       15.9994           0
     80357 W2       28726    TIP3     H1       HT       0.417000       1.00800           0
     80358 W2       28726    TIP3     H2       HT       0.417000       1.00800           0
     80359 W2       28727    TIP3     OH2      OT      -0.834000       15.9994           0
     80360 W2       28727    TIP3     H1       HT       0.417000       1.00800           0
     80361 W2       28727    TIP3     H2       HT       0.417000       1.00800           0
     80362 W2       28728    TIP3     OH2      OT      -0.834000       15.9994           0
     80363 W2       28728    TIP3     H1       HT       0.417000       1.00800           0
     80364 W2       28728    TIP3     H2       HT       0.417000       1.00800           0
     80365 W2       28730    TIP3     OH2      OT      -0.834000       15.9994           0
     80366 W2       28730    TIP3     H1       HT       0.417000       1.00800           0
     80367 W2       28730    TIP3     H2       HT       0.417000       1.00800           0
     80368 W2       28731    TIP3     OH2      OT      -0.834000       15.9994           0
     80369 W2       28731    TIP3     H1       HT       0.417000       1.00800           0
     80370 W2       28731    TIP3     H2       HT       0.417000       1.00800           0
     80371 W2       28732    TIP3     OH2      OT      -0.834000       15.9994           0
     80372 W2       28732    TIP3     H1       HT       0.417000       1.00800           0
     80373 W2       28732    TIP3     H2       HT       0.417000       1.00800           0
     80374 W2       28733    TIP3     OH2      OT      -0.834000       15.9994           0
     80375 W2       28733    TIP3     H1       HT       0.417000       1.00800           0
     80376 W2       28733    TIP3     H2       HT       0.417000       1.00800           0
     80377 W2       28734    TIP3     OH2      OT      -0.834000       15.9994           0
     80378 W2       28734    TIP3     H1       HT       0.417000       1.00800           0
     80379 W2       28734    TIP3     H2       HT       0.417000       1.00800           0
     80380 W2       28735    TIP3     OH2      OT      -0.834000       15.9994           0
     80381 W2       28735    TIP3     H1       HT       0.417000       1.00800           0
     80382 W2       28735    TIP3     H2       HT       0.417000       1.00800           0
     80383 W2       28736    TIP3     OH2      OT      -0.834000       15.9994           0
     80384 W2       28736    TIP3     H1       HT       0.417000       1.00800           0
     80385 W2       28736    TIP3     H2       HT       0.417000       1.00800           0
     80386 W2       28737    TIP3     OH2      OT      -0.834000       15.9994           0
     80387 W2       28737    TIP3     H1       HT       0.417000       1.00800           0
     80388 W2       28737    TIP3     H2       HT       0.417000       1.00800           0
     80389 W2       28738    TIP3     OH2      OT      -0.834000       15.9994           0
     80390 W2       28738    TIP3     H1       HT       0.417000       1.00800           0
     80391 W2       28738    TIP3     H2       HT       0.417000       1.00800           0
     80392 W2       28739    TIP3     OH2      OT      -0.834000       15.9994           0
     80393 W2       28739    TIP3     H1       HT       0.417000       1.00800           0
     80394 W2       28739    TIP3     H2       HT       0.417000       1.00800           0
     80395 W2       28740    TIP3     OH2      OT      -0.834000       15.9994           0
     80396 W2       28740    TIP3     H1       HT       0.417000       1.00800           0
     80397 W2       28740    TIP3     H2       HT       0.417000       1.00800           0
     80398 W2       28742    TIP3     OH2      OT      -0.834000       15.9994           0
     80399 W2       28742    TIP3     H1       HT       0.417000       1.00800           0
     80400 W2       28742    TIP3     H2       HT       0.417000       1.00800           0
     80401 W2       28743    TIP3     OH2      OT      -0.834000       15.9994           0
     80402 W2       28743    TIP3     H1       HT       0.417000       1.00800           0
     80403 W2       28743    TIP3     H2       HT       0.417000       1.00800           0
     80404 W2       28744    TIP3     OH2      OT      -0.834000       15.9994           0
     80405 W2       28744    TIP3     H1       HT       0.417000       1.00800           0
     80406 W2       28744    TIP3     H2       HT       0.417000       1.00800           0
     80407 W2       28745    TIP3     OH2      OT      -0.834000       15.9994           0
     80408 W2       28745    TIP3     H1       HT       0.417000       1.00800           0
     80409 W2       28745    TIP3     H2       HT       0.417000       1.00800           0
     80410 W2       28746    TIP3     OH2      OT      -0.834000       15.9994           0
     80411 W2       28746    TIP3     H1       HT       0.417000       1.00800           0
     80412 W2       28746    TIP3     H2       HT       0.417000       1.00800           0
     80413 W2       28747    TIP3     OH2      OT      -0.834000       15.9994           0
     80414 W2       28747    TIP3     H1       HT       0.417000       1.00800           0
     80415 W2       28747    TIP3     H2       HT       0.417000       1.00800           0
     80416 W2       28749    TIP3     OH2      OT      -0.834000       15.9994           0
     80417 W2       28749    TIP3     H1       HT       0.417000       1.00800           0
     80418 W2       28749    TIP3     H2       HT       0.417000       1.00800           0
     80419 W2       28750    TIP3     OH2      OT      -0.834000       15.9994           0
     80420 W2       28750    TIP3     H1       HT       0.417000       1.00800           0
     80421 W2       28750    TIP3     H2       HT       0.417000       1.00800           0
     80422 W2       28751    TIP3     OH2      OT      -0.834000       15.9994           0
     80423 W2       28751    TIP3     H1       HT       0.417000       1.00800           0
     80424 W2       28751    TIP3     H2       HT       0.417000       1.00800           0
     80425 W2       28755    TIP3     OH2      OT      -0.834000       15.9994           0
     80426 W2       28755    TIP3     H1       HT       0.417000       1.00800           0
     80427 W2       28755    TIP3     H2       HT       0.417000       1.00800           0
     80428 W2       28757    TIP3     OH2      OT      -0.834000       15.9994           0
     80429 W2       28757    TIP3     H1       HT       0.417000       1.00800           0
     80430 W2       28757    TIP3     H2       HT       0.417000       1.00800           0
     80431 W2       28758    TIP3     OH2      OT      -0.834000       15.9994           0
     80432 W2       28758    TIP3     H1       HT       0.417000       1.00800           0
     80433 W2       28758    TIP3     H2       HT       0.417000       1.00800           0
     80434 W2       28759    TIP3     OH2      OT      -0.834000       15.9994           0
     80435 W2       28759    TIP3     H1       HT       0.417000       1.00800           0
     80436 W2       28759    TIP3     H2       HT       0.417000       1.00800           0
     80437 W2       28760    TIP3     OH2      OT      -0.834000       15.9994           0
     80438 W2       28760    TIP3     H1       HT       0.417000       1.00800           0
     80439 W2       28760    TIP3     H2       HT       0.417000       1.00800           0
     80440 W2       28761    TIP3     OH2      OT      -0.834000       15.9994           0
     80441 W2       28761    TIP3     H1       HT       0.417000       1.00800           0
     80442 W2       28761    TIP3     H2       HT       0.417000       1.00800           0
     80443 W2       28762    TIP3     OH2      OT      -0.834000       15.9994           0
     80444 W2       28762    TIP3     H1       HT       0.417000       1.00800           0
     80445 W2       28762    TIP3     H2       HT       0.417000       1.00800           0
     80446 W2       28763    TIP3     OH2      OT      -0.834000       15.9994           0
     80447 W2       28763    TIP3     H1       HT       0.417000       1.00800           0
     80448 W2       28763    TIP3     H2       HT       0.417000       1.00800           0
     80449 W2       28765    TIP3     OH2      OT      -0.834000       15.9994           0
     80450 W2       28765    TIP3     H1       HT       0.417000       1.00800           0
     80451 W2       28765    TIP3     H2       HT       0.417000       1.00800           0
     80452 W2       28766    TIP3     OH2      OT      -0.834000       15.9994           0
     80453 W2       28766    TIP3     H1       HT       0.417000       1.00800           0
     80454 W2       28766    TIP3     H2       HT       0.417000       1.00800           0
     80455 W2       28767    TIP3     OH2      OT      -0.834000       15.9994           0
     80456 W2       28767    TIP3     H1       HT       0.417000       1.00800           0
     80457 W2       28767    TIP3     H2       HT       0.417000       1.00800           0
     80458 W2       28768    TIP3     OH2      OT      -0.834000       15.9994           0
     80459 W2       28768    TIP3     H1       HT       0.417000       1.00800           0
     80460 W2       28768    TIP3     H2       HT       0.417000       1.00800           0
     80461 W2       28769    TIP3     OH2      OT      -0.834000       15.9994           0
     80462 W2       28769    TIP3     H1       HT       0.417000       1.00800           0
     80463 W2       28769    TIP3     H2       HT       0.417000       1.00800           0
     80464 W2       28770    TIP3     OH2      OT      -0.834000       15.9994           0
     80465 W2       28770    TIP3     H1       HT       0.417000       1.00800           0
     80466 W2       28770    TIP3     H2       HT       0.417000       1.00800           0
     80467 W2       28771    TIP3     OH2      OT      -0.834000       15.9994           0
     80468 W2       28771    TIP3     H1       HT       0.417000       1.00800           0
     80469 W2       28771    TIP3     H2       HT       0.417000       1.00800           0
     80470 W2       28773    TIP3     OH2      OT      -0.834000       15.9994           0
     80471 W2       28773    TIP3     H1       HT       0.417000       1.00800           0
     80472 W2       28773    TIP3     H2       HT       0.417000       1.00800           0
     80473 W2       28774    TIP3     OH2      OT      -0.834000       15.9994           0
     80474 W2       28774    TIP3     H1       HT       0.417000       1.00800           0
     80475 W2       28774    TIP3     H2       HT       0.417000       1.00800           0
     80476 W2       28776    TIP3     OH2      OT      -0.834000       15.9994           0
     80477 W2       28776    TIP3     H1       HT       0.417000       1.00800           0
     80478 W2       28776    TIP3     H2       HT       0.417000       1.00800           0
     80479 W2       28777    TIP3     OH2      OT      -0.834000       15.9994           0
     80480 W2       28777    TIP3     H1       HT       0.417000       1.00800           0
     80481 W2       28777    TIP3     H2       HT       0.417000       1.00800           0
     80482 W2       28778    TIP3     OH2      OT      -0.834000       15.9994           0
     80483 W2       28778    TIP3     H1       HT       0.417000       1.00800           0
     80484 W2       28778    TIP3     H2       HT       0.417000       1.00800           0
     80485 W2       28779    TIP3     OH2      OT      -0.834000       15.9994           0
     80486 W2       28779    TIP3     H1       HT       0.417000       1.00800           0
     80487 W2       28779    TIP3     H2       HT       0.417000       1.00800           0
     80488 W2       28780    TIP3     OH2      OT      -0.834000       15.9994           0
     80489 W2       28780    TIP3     H1       HT       0.417000       1.00800           0
     80490 W2       28780    TIP3     H2       HT       0.417000       1.00800           0
     80491 W2       28783    TIP3     OH2      OT      -0.834000       15.9994           0
     80492 W2       28783    TIP3     H1       HT       0.417000       1.00800           0
     80493 W2       28783    TIP3     H2       HT       0.417000       1.00800           0
     80494 W2       28785    TIP3     OH2      OT      -0.834000       15.9994           0
     80495 W2       28785    TIP3     H1       HT       0.417000       1.00800           0
     80496 W2       28785    TIP3     H2       HT       0.417000       1.00800           0
     80497 W2       28788    TIP3     OH2      OT      -0.834000       15.9994           0
     80498 W2       28788    TIP3     H1       HT       0.417000       1.00800           0
     80499 W2       28788    TIP3     H2       HT       0.417000       1.00800           0
     80500 W2       28790    TIP3     OH2      OT      -0.834000       15.9994           0
     80501 W2       28790    TIP3     H1       HT       0.417000       1.00800           0
     80502 W2       28790    TIP3     H2       HT       0.417000       1.00800           0
     80503 W2       28792    TIP3     OH2      OT      -0.834000       15.9994           0
     80504 W2       28792    TIP3     H1       HT       0.417000       1.00800           0
     80505 W2       28792    TIP3     H2       HT       0.417000       1.00800           0
     80506 W2       28794    TIP3     OH2      OT      -0.834000       15.9994           0
     80507 W2       28794    TIP3     H1       HT       0.417000       1.00800           0
     80508 W2       28794    TIP3     H2       HT       0.417000       1.00800           0
     80509 W2       28806    TIP3     OH2      OT      -0.834000       15.9994           0
     80510 W2       28806    TIP3     H1       HT       0.417000       1.00800           0
     80511 W2       28806    TIP3     H2       HT       0.417000       1.00800           0
     80512 W2       28808    TIP3     OH2      OT      -0.834000       15.9994           0
     80513 W2       28808    TIP3     H1       HT       0.417000       1.00800           0
     80514 W2       28808    TIP3     H2       HT       0.417000       1.00800           0
     80515 W2       28809    TIP3     OH2      OT      -0.834000       15.9994           0
     80516 W2       28809    TIP3     H1       HT       0.417000       1.00800           0
     80517 W2       28809    TIP3     H2       HT       0.417000       1.00800           0
     80518 W2       28810    TIP3     OH2      OT      -0.834000       15.9994           0
     80519 W2       28810    TIP3     H1       HT       0.417000       1.00800           0
     80520 W2       28810    TIP3     H2       HT       0.417000       1.00800           0
     80521 W2       28811    TIP3     OH2      OT      -0.834000       15.9994           0
     80522 W2       28811    TIP3     H1       HT       0.417000       1.00800           0
     80523 W2       28811    TIP3     H2       HT       0.417000       1.00800           0
     80524 W2       28812    TIP3     OH2      OT      -0.834000       15.9994           0
     80525 W2       28812    TIP3     H1       HT       0.417000       1.00800           0
     80526 W2       28812    TIP3     H2       HT       0.417000       1.00800           0
     80527 W2       28813    TIP3     OH2      OT      -0.834000       15.9994           0
     80528 W2       28813    TIP3     H1       HT       0.417000       1.00800           0
     80529 W2       28813    TIP3     H2       HT       0.417000       1.00800           0
     80530 W2       28814    TIP3     OH2      OT      -0.834000       15.9994           0
     80531 W2       28814    TIP3     H1       HT       0.417000       1.00800           0
     80532 W2       28814    TIP3     H2       HT       0.417000       1.00800           0
     80533 W2       28815    TIP3     OH2      OT      -0.834000       15.9994           0
     80534 W2       28815    TIP3     H1       HT       0.417000       1.00800           0
     80535 W2       28815    TIP3     H2       HT       0.417000       1.00800           0
     80536 W2       28818    TIP3     OH2      OT      -0.834000       15.9994           0
     80537 W2       28818    TIP3     H1       HT       0.417000       1.00800           0
     80538 W2       28818    TIP3     H2       HT       0.417000       1.00800           0
     80539 W2       28819    TIP3     OH2      OT      -0.834000       15.9994           0
     80540 W2       28819    TIP3     H1       HT       0.417000       1.00800           0
     80541 W2       28819    TIP3     H2       HT       0.417000       1.00800           0
     80542 W2       28820    TIP3     OH2      OT      -0.834000       15.9994           0
     80543 W2       28820    TIP3     H1       HT       0.417000       1.00800           0
     80544 W2       28820    TIP3     H2       HT       0.417000       1.00800           0
     80545 W2       28821    TIP3     OH2      OT      -0.834000       15.9994           0
     80546 W2       28821    TIP3     H1       HT       0.417000       1.00800           0
     80547 W2       28821    TIP3     H2       HT       0.417000       1.00800           0
     80548 W2       28824    TIP3     OH2      OT      -0.834000       15.9994           0
     80549 W2       28824    TIP3     H1       HT       0.417000       1.00800           0
     80550 W2       28824    TIP3     H2       HT       0.417000       1.00800           0
     80551 W2       28825    TIP3     OH2      OT      -0.834000       15.9994           0
     80552 W2       28825    TIP3     H1       HT       0.417000       1.00800           0
     80553 W2       28825    TIP3     H2       HT       0.417000       1.00800           0
     80554 W2       28826    TIP3     OH2      OT      -0.834000       15.9994           0
     80555 W2       28826    TIP3     H1       HT       0.417000       1.00800           0
     80556 W2       28826    TIP3     H2       HT       0.417000       1.00800           0
     80557 W2       28828    TIP3     OH2      OT      -0.834000       15.9994           0
     80558 W2       28828    TIP3     H1       HT       0.417000       1.00800           0
     80559 W2       28828    TIP3     H2       HT       0.417000       1.00800           0
     80560 W2       28829    TIP3     OH2      OT      -0.834000       15.9994           0
     80561 W2       28829    TIP3     H1       HT       0.417000       1.00800           0
     80562 W2       28829    TIP3     H2       HT       0.417000       1.00800           0
     80563 W2       28830    TIP3     OH2      OT      -0.834000       15.9994           0
     80564 W2       28830    TIP3     H1       HT       0.417000       1.00800           0
     80565 W2       28830    TIP3     H2       HT       0.417000       1.00800           0
     80566 W2       28833    TIP3     OH2      OT      -0.834000       15.9994           0
     80567 W2       28833    TIP3     H1       HT       0.417000       1.00800           0
     80568 W2       28833    TIP3     H2       HT       0.417000       1.00800           0
     80569 W2       28834    TIP3     OH2      OT      -0.834000       15.9994           0
     80570 W2       28834    TIP3     H1       HT       0.417000       1.00800           0
     80571 W2       28834    TIP3     H2       HT       0.417000       1.00800           0
     80572 W2       28835    TIP3     OH2      OT      -0.834000       15.9994           0
     80573 W2       28835    TIP3     H1       HT       0.417000       1.00800           0
     80574 W2       28835    TIP3     H2       HT       0.417000       1.00800           0
     80575 W2       28836    TIP3     OH2      OT      -0.834000       15.9994           0
     80576 W2       28836    TIP3     H1       HT       0.417000       1.00800           0
     80577 W2       28836    TIP3     H2       HT       0.417000       1.00800           0
     80578 W2       28837    TIP3     OH2      OT      -0.834000       15.9994           0
     80579 W2       28837    TIP3     H1       HT       0.417000       1.00800           0
     80580 W2       28837    TIP3     H2       HT       0.417000       1.00800           0
     80581 W2       28838    TIP3     OH2      OT      -0.834000       15.9994           0
     80582 W2       28838    TIP3     H1       HT       0.417000       1.00800           0
     80583 W2       28838    TIP3     H2       HT       0.417000       1.00800           0
     80584 W2       28839    TIP3     OH2      OT      -0.834000       15.9994           0
     80585 W2       28839    TIP3     H1       HT       0.417000       1.00800           0
     80586 W2       28839    TIP3     H2       HT       0.417000       1.00800           0
     80587 W2       28840    TIP3     OH2      OT      -0.834000       15.9994           0
     80588 W2       28840    TIP3     H1       HT       0.417000       1.00800           0
     80589 W2       28840    TIP3     H2       HT       0.417000       1.00800           0
     80590 W2       28841    TIP3     OH2      OT      -0.834000       15.9994           0
     80591 W2       28841    TIP3     H1       HT       0.417000       1.00800           0
     80592 W2       28841    TIP3     H2       HT       0.417000       1.00800           0
     80593 W2       28842    TIP3     OH2      OT      -0.834000       15.9994           0
     80594 W2       28842    TIP3     H1       HT       0.417000       1.00800           0
     80595 W2       28842    TIP3     H2       HT       0.417000       1.00800           0
     80596 W2       28846    TIP3     OH2      OT      -0.834000       15.9994           0
     80597 W2       28846    TIP3     H1       HT       0.417000       1.00800           0
     80598 W2       28846    TIP3     H2       HT       0.417000       1.00800           0
     80599 W2       28847    TIP3     OH2      OT      -0.834000       15.9994           0
     80600 W2       28847    TIP3     H1       HT       0.417000       1.00800           0
     80601 W2       28847    TIP3     H2       HT       0.417000       1.00800           0
     80602 W2       28848    TIP3     OH2      OT      -0.834000       15.9994           0
     80603 W2       28848    TIP3     H1       HT       0.417000       1.00800           0
     80604 W2       28848    TIP3     H2       HT       0.417000       1.00800           0
     80605 W2       28849    TIP3     OH2      OT      -0.834000       15.9994           0
     80606 W2       28849    TIP3     H1       HT       0.417000       1.00800           0
     80607 W2       28849    TIP3     H2       HT       0.417000       1.00800           0
     80608 W2       28850    TIP3     OH2      OT      -0.834000       15.9994           0
     80609 W2       28850    TIP3     H1       HT       0.417000       1.00800           0
     80610 W2       28850    TIP3     H2       HT       0.417000       1.00800           0
     80611 W2       28851    TIP3     OH2      OT      -0.834000       15.9994           0
     80612 W2       28851    TIP3     H1       HT       0.417000       1.00800           0
     80613 W2       28851    TIP3     H2       HT       0.417000       1.00800           0
     80614 W2       28852    TIP3     OH2      OT      -0.834000       15.9994           0
     80615 W2       28852    TIP3     H1       HT       0.417000       1.00800           0
     80616 W2       28852    TIP3     H2       HT       0.417000       1.00800           0
     80617 W2       28853    TIP3     OH2      OT      -0.834000       15.9994           0
     80618 W2       28853    TIP3     H1       HT       0.417000       1.00800           0
     80619 W2       28853    TIP3     H2       HT       0.417000       1.00800           0
     80620 W2       28854    TIP3     OH2      OT      -0.834000       15.9994           0
     80621 W2       28854    TIP3     H1       HT       0.417000       1.00800           0
     80622 W2       28854    TIP3     H2       HT       0.417000       1.00800           0
     80623 W2       28855    TIP3     OH2      OT      -0.834000       15.9994           0
     80624 W2       28855    TIP3     H1       HT       0.417000       1.00800           0
     80625 W2       28855    TIP3     H2       HT       0.417000       1.00800           0
     80626 W2       28856    TIP3     OH2      OT      -0.834000       15.9994           0
     80627 W2       28856    TIP3     H1       HT       0.417000       1.00800           0
     80628 W2       28856    TIP3     H2       HT       0.417000       1.00800           0
     80629 W2       28857    TIP3     OH2      OT      -0.834000       15.9994           0
     80630 W2       28857    TIP3     H1       HT       0.417000       1.00800           0
     80631 W2       28857    TIP3     H2       HT       0.417000       1.00800           0
     80632 W2       28858    TIP3     OH2      OT      -0.834000       15.9994           0
     80633 W2       28858    TIP3     H1       HT       0.417000       1.00800           0
     80634 W2       28858    TIP3     H2       HT       0.417000       1.00800           0
     80635 W2       28859    TIP3     OH2      OT      -0.834000       15.9994           0
     80636 W2       28859    TIP3     H1       HT       0.417000       1.00800           0
     80637 W2       28859    TIP3     H2       HT       0.417000       1.00800           0
     80638 W2       28860    TIP3     OH2      OT      -0.834000       15.9994           0
     80639 W2       28860    TIP3     H1       HT       0.417000       1.00800           0
     80640 W2       28860    TIP3     H2       HT       0.417000       1.00800           0
     80641 W2       28861    TIP3     OH2      OT      -0.834000       15.9994           0
     80642 W2       28861    TIP3     H1       HT       0.417000       1.00800           0
     80643 W2       28861    TIP3     H2       HT       0.417000       1.00800           0
     80644 W2       28862    TIP3     OH2      OT      -0.834000       15.9994           0
     80645 W2       28862    TIP3     H1       HT       0.417000       1.00800           0
     80646 W2       28862    TIP3     H2       HT       0.417000       1.00800           0
     80647 W2       28863    TIP3     OH2      OT      -0.834000       15.9994           0
     80648 W2       28863    TIP3     H1       HT       0.417000       1.00800           0
     80649 W2       28863    TIP3     H2       HT       0.417000       1.00800           0
     80650 W2       28864    TIP3     OH2      OT      -0.834000       15.9994           0
     80651 W2       28864    TIP3     H1       HT       0.417000       1.00800           0
     80652 W2       28864    TIP3     H2       HT       0.417000       1.00800           0
     80653 W2       28865    TIP3     OH2      OT      -0.834000       15.9994           0
     80654 W2       28865    TIP3     H1       HT       0.417000       1.00800           0
     80655 W2       28865    TIP3     H2       HT       0.417000       1.00800           0
     80656 W2       28866    TIP3     OH2      OT      -0.834000       15.9994           0
     80657 W2       28866    TIP3     H1       HT       0.417000       1.00800           0
     80658 W2       28866    TIP3     H2       HT       0.417000       1.00800           0
     80659 W2       28867    TIP3     OH2      OT      -0.834000       15.9994           0
     80660 W2       28867    TIP3     H1       HT       0.417000       1.00800           0
     80661 W2       28867    TIP3     H2       HT       0.417000       1.00800           0
     80662 W2       28868    TIP3     OH2      OT      -0.834000       15.9994           0
     80663 W2       28868    TIP3     H1       HT       0.417000       1.00800           0
     80664 W2       28868    TIP3     H2       HT       0.417000       1.00800           0
     80665 W2       28869    TIP3     OH2      OT      -0.834000       15.9994           0
     80666 W2       28869    TIP3     H1       HT       0.417000       1.00800           0
     80667 W2       28869    TIP3     H2       HT       0.417000       1.00800           0
     80668 W2       28871    TIP3     OH2      OT      -0.834000       15.9994           0
     80669 W2       28871    TIP3     H1       HT       0.417000       1.00800           0
     80670 W2       28871    TIP3     H2       HT       0.417000       1.00800           0
     80671 W2       28872    TIP3     OH2      OT      -0.834000       15.9994           0
     80672 W2       28872    TIP3     H1       HT       0.417000       1.00800           0
     80673 W2       28872    TIP3     H2       HT       0.417000       1.00800           0
     80674 W2       28873    TIP3     OH2      OT      -0.834000       15.9994           0
     80675 W2       28873    TIP3     H1       HT       0.417000       1.00800           0
     80676 W2       28873    TIP3     H2       HT       0.417000       1.00800           0
     80677 W2       28874    TIP3     OH2      OT      -0.834000       15.9994           0
     80678 W2       28874    TIP3     H1       HT       0.417000       1.00800           0
     80679 W2       28874    TIP3     H2       HT       0.417000       1.00800           0
     80680 W2       28876    TIP3     OH2      OT      -0.834000       15.9994           0
     80681 W2       28876    TIP3     H1       HT       0.417000       1.00800           0
     80682 W2       28876    TIP3     H2       HT       0.417000       1.00800           0
     80683 W2       28878    TIP3     OH2      OT      -0.834000       15.9994           0
     80684 W2       28878    TIP3     H1       HT       0.417000       1.00800           0
     80685 W2       28878    TIP3     H2       HT       0.417000       1.00800           0
     80686 W2       28879    TIP3     OH2      OT      -0.834000       15.9994           0
     80687 W2       28879    TIP3     H1       HT       0.417000       1.00800           0
     80688 W2       28879    TIP3     H2       HT       0.417000       1.00800           0
     80689 W2       28880    TIP3     OH2      OT      -0.834000       15.9994           0
     80690 W2       28880    TIP3     H1       HT       0.417000       1.00800           0
     80691 W2       28880    TIP3     H2       HT       0.417000       1.00800           0
     80692 W2       28883    TIP3     OH2      OT      -0.834000       15.9994           0
     80693 W2       28883    TIP3     H1       HT       0.417000       1.00800           0
     80694 W2       28883    TIP3     H2       HT       0.417000       1.00800           0
     80695 W2       28886    TIP3     OH2      OT      -0.834000       15.9994           0
     80696 W2       28886    TIP3     H1       HT       0.417000       1.00800           0
     80697 W2       28886    TIP3     H2       HT       0.417000       1.00800           0
     80698 W2       28887    TIP3     OH2      OT      -0.834000       15.9994           0
     80699 W2       28887    TIP3     H1       HT       0.417000       1.00800           0
     80700 W2       28887    TIP3     H2       HT       0.417000       1.00800           0
     80701 W2       28888    TIP3     OH2      OT      -0.834000       15.9994           0
     80702 W2       28888    TIP3     H1       HT       0.417000       1.00800           0
     80703 W2       28888    TIP3     H2       HT       0.417000       1.00800           0
     80704 W2       28889    TIP3     OH2      OT      -0.834000       15.9994           0
     80705 W2       28889    TIP3     H1       HT       0.417000       1.00800           0
     80706 W2       28889    TIP3     H2       HT       0.417000       1.00800           0
     80707 W2       28890    TIP3     OH2      OT      -0.834000       15.9994           0
     80708 W2       28890    TIP3     H1       HT       0.417000       1.00800           0
     80709 W2       28890    TIP3     H2       HT       0.417000       1.00800           0
     80710 W2       28892    TIP3     OH2      OT      -0.834000       15.9994           0
     80711 W2       28892    TIP3     H1       HT       0.417000       1.00800           0
     80712 W2       28892    TIP3     H2       HT       0.417000       1.00800           0
     80713 W2       28893    TIP3     OH2      OT      -0.834000       15.9994           0
     80714 W2       28893    TIP3     H1       HT       0.417000       1.00800           0
     80715 W2       28893    TIP3     H2       HT       0.417000       1.00800           0
     80716 W2       28894    TIP3     OH2      OT      -0.834000       15.9994           0
     80717 W2       28894    TIP3     H1       HT       0.417000       1.00800           0
     80718 W2       28894    TIP3     H2       HT       0.417000       1.00800           0
     80719 W2       28895    TIP3     OH2      OT      -0.834000       15.9994           0
     80720 W2       28895    TIP3     H1       HT       0.417000       1.00800           0
     80721 W2       28895    TIP3     H2       HT       0.417000       1.00800           0
     80722 W2       28896    TIP3     OH2      OT      -0.834000       15.9994           0
     80723 W2       28896    TIP3     H1       HT       0.417000       1.00800           0
     80724 W2       28896    TIP3     H2       HT       0.417000       1.00800           0
     80725 W2       28897    TIP3     OH2      OT      -0.834000       15.9994           0
     80726 W2       28897    TIP3     H1       HT       0.417000       1.00800           0
     80727 W2       28897    TIP3     H2       HT       0.417000       1.00800           0
     80728 W2       28898    TIP3     OH2      OT      -0.834000       15.9994           0
     80729 W2       28898    TIP3     H1       HT       0.417000       1.00800           0
     80730 W2       28898    TIP3     H2       HT       0.417000       1.00800           0
     80731 W2       28899    TIP3     OH2      OT      -0.834000       15.9994           0
     80732 W2       28899    TIP3     H1       HT       0.417000       1.00800           0
     80733 W2       28899    TIP3     H2       HT       0.417000       1.00800           0
     80734 W2       28900    TIP3     OH2      OT      -0.834000       15.9994           0
     80735 W2       28900    TIP3     H1       HT       0.417000       1.00800           0
     80736 W2       28900    TIP3     H2       HT       0.417000       1.00800           0
     80737 W2       28901    TIP3     OH2      OT      -0.834000       15.9994           0
     80738 W2       28901    TIP3     H1       HT       0.417000       1.00800           0
     80739 W2       28901    TIP3     H2       HT       0.417000       1.00800           0
     80740 W2       28902    TIP3     OH2      OT      -0.834000       15.9994           0
     80741 W2       28902    TIP3     H1       HT       0.417000       1.00800           0
     80742 W2       28902    TIP3     H2       HT       0.417000       1.00800           0
     80743 W2       28904    TIP3     OH2      OT      -0.834000       15.9994           0
     80744 W2       28904    TIP3     H1       HT       0.417000       1.00800           0
     80745 W2       28904    TIP3     H2       HT       0.417000       1.00800           0
     80746 W2       28905    TIP3     OH2      OT      -0.834000       15.9994           0
     80747 W2       28905    TIP3     H1       HT       0.417000       1.00800           0
     80748 W2       28905    TIP3     H2       HT       0.417000       1.00800           0
     80749 W2       28906    TIP3     OH2      OT      -0.834000       15.9994           0
     80750 W2       28906    TIP3     H1       HT       0.417000       1.00800           0
     80751 W2       28906    TIP3     H2       HT       0.417000       1.00800           0
     80752 W2       28907    TIP3     OH2      OT      -0.834000       15.9994           0
     80753 W2       28907    TIP3     H1       HT       0.417000       1.00800           0
     80754 W2       28907    TIP3     H2       HT       0.417000       1.00800           0
     80755 W2       28908    TIP3     OH2      OT      -0.834000       15.9994           0
     80756 W2       28908    TIP3     H1       HT       0.417000       1.00800           0
     80757 W2       28908    TIP3     H2       HT       0.417000       1.00800           0
     80758 W2       28910    TIP3     OH2      OT      -0.834000       15.9994           0
     80759 W2       28910    TIP3     H1       HT       0.417000       1.00800           0
     80760 W2       28910    TIP3     H2       HT       0.417000       1.00800           0
     80761 W2       28911    TIP3     OH2      OT      -0.834000       15.9994           0
     80762 W2       28911    TIP3     H1       HT       0.417000       1.00800           0
     80763 W2       28911    TIP3     H2       HT       0.417000       1.00800           0
     80764 W2       28912    TIP3     OH2      OT      -0.834000       15.9994           0
     80765 W2       28912    TIP3     H1       HT       0.417000       1.00800           0
     80766 W2       28912    TIP3     H2       HT       0.417000       1.00800           0
     80767 W2       28916    TIP3     OH2      OT      -0.834000       15.9994           0
     80768 W2       28916    TIP3     H1       HT       0.417000       1.00800           0
     80769 W2       28916    TIP3     H2       HT       0.417000       1.00800           0
     80770 W2       28917    TIP3     OH2      OT      -0.834000       15.9994           0
     80771 W2       28917    TIP3     H1       HT       0.417000       1.00800           0
     80772 W2       28917    TIP3     H2       HT       0.417000       1.00800           0
     80773 W2       28918    TIP3     OH2      OT      -0.834000       15.9994           0
     80774 W2       28918    TIP3     H1       HT       0.417000       1.00800           0
     80775 W2       28918    TIP3     H2       HT       0.417000       1.00800           0
     80776 W2       28919    TIP3     OH2      OT      -0.834000       15.9994           0
     80777 W2       28919    TIP3     H1       HT       0.417000       1.00800           0
     80778 W2       28919    TIP3     H2       HT       0.417000       1.00800           0
     80779 W2       28920    TIP3     OH2      OT      -0.834000       15.9994           0
     80780 W2       28920    TIP3     H1       HT       0.417000       1.00800           0
     80781 W2       28920    TIP3     H2       HT       0.417000       1.00800           0
     80782 W2       28921    TIP3     OH2      OT      -0.834000       15.9994           0
     80783 W2       28921    TIP3     H1       HT       0.417000       1.00800           0
     80784 W2       28921    TIP3     H2       HT       0.417000       1.00800           0
     80785 W2       28923    TIP3     OH2      OT      -0.834000       15.9994           0
     80786 W2       28923    TIP3     H1       HT       0.417000       1.00800           0
     80787 W2       28923    TIP3     H2       HT       0.417000       1.00800           0
     80788 W2       28924    TIP3     OH2      OT      -0.834000       15.9994           0
     80789 W2       28924    TIP3     H1       HT       0.417000       1.00800           0
     80790 W2       28924    TIP3     H2       HT       0.417000       1.00800           0
     80791 W2       28925    TIP3     OH2      OT      -0.834000       15.9994           0
     80792 W2       28925    TIP3     H1       HT       0.417000       1.00800           0
     80793 W2       28925    TIP3     H2       HT       0.417000       1.00800           0
     80794 W2       28926    TIP3     OH2      OT      -0.834000       15.9994           0
     80795 W2       28926    TIP3     H1       HT       0.417000       1.00800           0
     80796 W2       28926    TIP3     H2       HT       0.417000       1.00800           0
     80797 W2       28927    TIP3     OH2      OT      -0.834000       15.9994           0
     80798 W2       28927    TIP3     H1       HT       0.417000       1.00800           0
     80799 W2       28927    TIP3     H2       HT       0.417000       1.00800           0
     80800 W2       28928    TIP3     OH2      OT      -0.834000       15.9994           0
     80801 W2       28928    TIP3     H1       HT       0.417000       1.00800           0
     80802 W2       28928    TIP3     H2       HT       0.417000       1.00800           0
     80803 W2       28929    TIP3     OH2      OT      -0.834000       15.9994           0
     80804 W2       28929    TIP3     H1       HT       0.417000       1.00800           0
     80805 W2       28929    TIP3     H2       HT       0.417000       1.00800           0
     80806 W2       28931    TIP3     OH2      OT      -0.834000       15.9994           0
     80807 W2       28931    TIP3     H1       HT       0.417000       1.00800           0
     80808 W2       28931    TIP3     H2       HT       0.417000       1.00800           0
     80809 W2       28932    TIP3     OH2      OT      -0.834000       15.9994           0
     80810 W2       28932    TIP3     H1       HT       0.417000       1.00800           0
     80811 W2       28932    TIP3     H2       HT       0.417000       1.00800           0
     80812 W2       28933    TIP3     OH2      OT      -0.834000       15.9994           0
     80813 W2       28933    TIP3     H1       HT       0.417000       1.00800           0
     80814 W2       28933    TIP3     H2       HT       0.417000       1.00800           0
     80815 W2       28934    TIP3     OH2      OT      -0.834000       15.9994           0
     80816 W2       28934    TIP3     H1       HT       0.417000       1.00800           0
     80817 W2       28934    TIP3     H2       HT       0.417000       1.00800           0
     80818 W2       28935    TIP3     OH2      OT      -0.834000       15.9994           0
     80819 W2       28935    TIP3     H1       HT       0.417000       1.00800           0
     80820 W2       28935    TIP3     H2       HT       0.417000       1.00800           0
     80821 W2       28936    TIP3     OH2      OT      -0.834000       15.9994           0
     80822 W2       28936    TIP3     H1       HT       0.417000       1.00800           0
     80823 W2       28936    TIP3     H2       HT       0.417000       1.00800           0
     80824 W2       28937    TIP3     OH2      OT      -0.834000       15.9994           0
     80825 W2       28937    TIP3     H1       HT       0.417000       1.00800           0
     80826 W2       28937    TIP3     H2       HT       0.417000       1.00800           0
     80827 W2       28940    TIP3     OH2      OT      -0.834000       15.9994           0
     80828 W2       28940    TIP3     H1       HT       0.417000       1.00800           0
     80829 W2       28940    TIP3     H2       HT       0.417000       1.00800           0
     80830 W2       28942    TIP3     OH2      OT      -0.834000       15.9994           0
     80831 W2       28942    TIP3     H1       HT       0.417000       1.00800           0
     80832 W2       28942    TIP3     H2       HT       0.417000       1.00800           0
     80833 W2       28945    TIP3     OH2      OT      -0.834000       15.9994           0
     80834 W2       28945    TIP3     H1       HT       0.417000       1.00800           0
     80835 W2       28945    TIP3     H2       HT       0.417000       1.00800           0
     80836 W2       28947    TIP3     OH2      OT      -0.834000       15.9994           0
     80837 W2       28947    TIP3     H1       HT       0.417000       1.00800           0
     80838 W2       28947    TIP3     H2       HT       0.417000       1.00800           0
     80839 W2       28950    TIP3     OH2      OT      -0.834000       15.9994           0
     80840 W2       28950    TIP3     H1       HT       0.417000       1.00800           0
     80841 W2       28950    TIP3     H2       HT       0.417000       1.00800           0
     80842 W2       28962    TIP3     OH2      OT      -0.834000       15.9994           0
     80843 W2       28962    TIP3     H1       HT       0.417000       1.00800           0
     80844 W2       28962    TIP3     H2       HT       0.417000       1.00800           0
     80845 W2       28963    TIP3     OH2      OT      -0.834000       15.9994           0
     80846 W2       28963    TIP3     H1       HT       0.417000       1.00800           0
     80847 W2       28963    TIP3     H2       HT       0.417000       1.00800           0
     80848 W2       28965    TIP3     OH2      OT      -0.834000       15.9994           0
     80849 W2       28965    TIP3     H1       HT       0.417000       1.00800           0
     80850 W2       28965    TIP3     H2       HT       0.417000       1.00800           0
     80851 W2       28966    TIP3     OH2      OT      -0.834000       15.9994           0
     80852 W2       28966    TIP3     H1       HT       0.417000       1.00800           0
     80853 W2       28966    TIP3     H2       HT       0.417000       1.00800           0
     80854 W2       28967    TIP3     OH2      OT      -0.834000       15.9994           0
     80855 W2       28967    TIP3     H1       HT       0.417000       1.00800           0
     80856 W2       28967    TIP3     H2       HT       0.417000       1.00800           0
     80857 W2       28968    TIP3     OH2      OT      -0.834000       15.9994           0
     80858 W2       28968    TIP3     H1       HT       0.417000       1.00800           0
     80859 W2       28968    TIP3     H2       HT       0.417000       1.00800           0
     80860 W2       28970    TIP3     OH2      OT      -0.834000       15.9994           0
     80861 W2       28970    TIP3     H1       HT       0.417000       1.00800           0
     80862 W2       28970    TIP3     H2       HT       0.417000       1.00800           0
     80863 W2       28971    TIP3     OH2      OT      -0.834000       15.9994           0
     80864 W2       28971    TIP3     H1       HT       0.417000       1.00800           0
     80865 W2       28971    TIP3     H2       HT       0.417000       1.00800           0
     80866 W2       28972    TIP3     OH2      OT      -0.834000       15.9994           0
     80867 W2       28972    TIP3     H1       HT       0.417000       1.00800           0
     80868 W2       28972    TIP3     H2       HT       0.417000       1.00800           0
     80869 W2       28973    TIP3     OH2      OT      -0.834000       15.9994           0
     80870 W2       28973    TIP3     H1       HT       0.417000       1.00800           0
     80871 W2       28973    TIP3     H2       HT       0.417000       1.00800           0
     80872 W2       28974    TIP3     OH2      OT      -0.834000       15.9994           0
     80873 W2       28974    TIP3     H1       HT       0.417000       1.00800           0
     80874 W2       28974    TIP3     H2       HT       0.417000       1.00800           0
     80875 W2       28975    TIP3     OH2      OT      -0.834000       15.9994           0
     80876 W2       28975    TIP3     H1       HT       0.417000       1.00800           0
     80877 W2       28975    TIP3     H2       HT       0.417000       1.00800           0
     80878 W2       28976    TIP3     OH2      OT      -0.834000       15.9994           0
     80879 W2       28976    TIP3     H1       HT       0.417000       1.00800           0
     80880 W2       28976    TIP3     H2       HT       0.417000       1.00800           0
     80881 W2       28977    TIP3     OH2      OT      -0.834000       15.9994           0
     80882 W2       28977    TIP3     H1       HT       0.417000       1.00800           0
     80883 W2       28977    TIP3     H2       HT       0.417000       1.00800           0

     80883 !NBOND: bonds
         1         2         1         3         2         3         4         5
         4         6         5         6         7         8         7         9
         8         9        10        11        10        12        11        12
        13        14        13        15        14        15        16        17
        16        18        17        18        19        20        19        21
        20        21        22        23        22        24        23        24
        25        26        25        27        26        27        28        29
        28        30        29        30        31        32        31        33
        32        33        34        35        34        36        35        36
        37        38        37        39        38        39        40        41
        40        42        41        42        43        44        43        45
        44        45        46        47        46        48        47        48
        49        50        49        51        50        51        52        53
        52        54        53        54        55        56        55        57
        56        57        58        59        58        60        59        60
        61        62        61        63        62        63        64        65
        64        66        65        66        67        68        67        69
        68        69        70        71        70        72        71        72
        73        74        73        75        74        75        76        77
        76        78        77        78        79        80        79        81
        80        81        82        83        82        84        83        84
        85        86        85        87        86        87        88        89
        88        90        89        90        91        92        91        93
        92        93        94        95        94        96        95        96
        97        98        97        99        98        99       100       101
       100       102       101       102       103       104       103       105
       104       105       106       107       106       108       107       108
       109       110       109       111       110       111       112       113
       112       114       113       114       115       116       115       117
       116       117       118       119       118       120       119       120
       121       122       121       123       122       123       124       125
       124       126       125       126       127       128       127       129
       128       129       130       131       130       132       131       132
       133       134       133       135       134       135       136       137
       136       138       137       138       139       140       139       141
       140       141       142       143       142       144       143       144
       145       146       145       147       146       147       148       149
       148       150       149       150       151       152       151       153
       152       153       154       155       154       156       155       156
       157       158       157       159       158       159       160       161
       160       162       161       162       163       164       163       165
       164       165       166       167       166       168       167       168
       169       170       169       171       170       171       172       173
       172       174       173       174       175       176       175       177
       176       177       178       179       178       180       179       180
       181       182       181       183       182       183       184       185
       184       186       185       186       187       188       187       189
       188       189       190       191       190       192       191       192
       193       194       193       195       194       195       196       197
       196       198       197       198       199       200       199       201
       200       201       202       203       202       204       203       204
       205       206       205       207       206       207       208       209
       208       210       209       210       211       212       211       213
       212       213       214       215       214       216       215       216
       217       218       217       219       218       219       220       221
       220       222       221       222       223       224       223       225
       224       225       226       227       226       228       227       228
       229       230       229       231       230       231       232       233
       232       234       233       234       235       236       235       237
       236       237       238       239       238       240       239       240
       241       242       241       243       242       243       244       245
       244       246       245       246       247       248       247       249
       248       249       250       251       250       252       251       252
       253       254       253       255       254       255       256       257
       256       258       257       258       259       260       259       261
       260       261       262       263       262       264       263       264
       265       266       265       267       266       267       268       269
       268       270       269       270       271       272       271       273
       272       273       274       275       274       276       275       276
       277       278       277       279       278       279       280       281
       280       282       281       282       283       284       283       285
       284       285       286       287       286       288       287       288
       289       290       289       291       290       291       292       293
       292       294       293       294       295       296       295       297
       296       297       298       299       298       300       299       300
       301       302       301       303       302       303       304       305
       304       306       305       306       307       308       307       309
       308       309       310       311       310       312       311       312
       313       314       313       315       314       315       316       317
       316       318       317       318       319       320       319       321
       320       321       322       323       322       324       323       324
       325       326       325       327       326       327       328       329
       328       330       329       330       331       332       331       333
       332       333       334       335       334       336       335       336
       337       338       337       339       338       339       340       341
       340       342       341       342       343       344       343       345
       344       345       346       347       346       348       347       348
       349       350       349       351       350       351       352       353
       352       354       353       354       355       356       355       357
       356       357       358       359       358       360       359       360
       361       362       361       363       362       363       364       365
       364       366       365       366       367       368       367       369
       368       369       370       371       370       372       371       372
       373       374       373       375       374       375       376       377
       376       378       377       378       379       380       379       381
       380       381       382       383       382       384       383       384
       385       386       385       387       386       387       388       389
       388       390       389       390       391       392       391       393
       392       393       394       395       394       396       395       396
       397       398       397       399       398       399       400       401
       400       402       401       402       403       404       403       405
       404       405       406       407       406       408       407       408
       409       410       409       411       410       411       412       413
       412       414       413       414       415       416       415       417
       416       417       418       419       418       420       419       420
       421       422       421       423       422       423       424       425
       424       426       425       426       427       428       427       429
       428       429       430       431       430       432       431       432
       433       434       433       435       434       435       436       437
       436       438       437       438       439       440       439       441
       440       441       442       443       442       444       443       444
       445       446       445       447       446       447       448       449
       448       450       449       450       451       452       451       453
       452       453       454       455       454       456       455       456
       457       458       457       459       458       459       460       461
       460       462       461       462       463       464       463       465
       464       465       466       467       466       468       467       468
       469       470       469       471       470       471       472       473
       472       474       473       474       475       476       475       477
       476       477       478       479       478       480       479       480
       481       482       481       483       482       483       484       485
       484       486       485       486       487       488       487       489
       488       489       490       491       490       492       491       492
       493       494       493       495       494       495       496       497
       496       498       497       498       499       500       499       501
       500       501       502       503       502       504       503       504
       505       506       505       507       506       507       508       509
       508       510       509       510       511       512       511       513
       512       513       514       515       514       516       515       516
       517       518       517       519       518       519       520       521
       520       522       521       522       523       524       523       525
       524       525       526       527       526       528       527       528
       529       530       529       531       530       531       532       533
       532       534       533       534       535       536       535       537
       536       537       538       539       538       540       539       540
       541       542       541       543       542       543       544       545
       544       546       545       546       547       548       547       549
       548       549       550       551       550       552       551       552
       553       554       553       555       554       555       556       557
       556       558       557       558       559       560       559       561
       560       561       562       563       562       564       563       564
       565       566       565       567       566       567       568       569
       568       570       569       570       571       572       571       573
       572       573       574       575       574       576       575       576
       577       578       577       579       578       579       580       581
       580       582       581       582       583       584       583       585
       584       585       586       587       586       588       587       588
       589       590       589       591       590       591       592       593
       592       594       593       594       595       596       595       597
       596       597       598       599       598       600       599       600
       601       602       601       603       602       603       604       605
       604       606       605       606       607       608       607       609
       608       609       610       611       610       612       611       612
       613       614       613       615       614       615       616       617
       616       618       617       618       619       620       619       621
       620       621       622       623       622       624       623       624
       625       626       625       627       626       627       628       629
       628       630       629       630       631       632       631       633
       632       633       634       635       634       636       635       636
       637       638       637       639       638       639       640       641
       640       642       641       642       643       644       643       645
       644       645       646       647       646       648       647       648
       649       650       649       651       650       651       652       653
       652       654       653       654       655       656       655       657
       656       657       658       659       658       660       659       660
       661       662       661       663       662       663       664       665
       664       666       665       666       667       668       667       669
       668       669       670       671       670       672       671       672
       673       674       673       675       674       675       676       677
       676       678       677       678       679       680       679       681
       680       681       682       683       682       684       683       684
       685       686       685       687       686       687       688       689
       688       690       689       690       691       692       691       693
       692       693       694       695       694       696       695       696
       697       698       697       699       698       699       700       701
       700       702       701       702       703       704       703       705
       704       705       706       707       706       708       707       708
       709       710       709       711       710       711       712       713
       712       714       713       714       715       716       715       717
       716       717       718       719       718       720       719       720
       721       722       721       723       722       723       724       725
       724       726       725       726       727       728       727       729
       728       729       730       731       730       732       731       732
       733       734       733       735       734       735       736       737
       736       738       737       738       739       740       739       741
       740       741       742       743       742       744       743       744
       745       746       745       747       746       747       748       749
       748       750       749       750       751       752       751       753
       752       753       754       755       754       756       755       756
       757       758       757       759       758       759       760       761
       760       762       761       762       763       764       763       765
       764       765       766       767       766       768       767       768
       769       770       769       771       770       771       772       773
       772       774       773       774       775       776       775       777
       776       777       778       779       778       780       779       780
       781       782       781       783       782       783       784       785
       784       786       785       786       787       788       787       789
       788       789       790       791       790       792       791       792
       793       794       793       795       794       795       796       797
       796       798       797       798       799       800       799       801
       800       801       802       803       802       804       803       804
       805       806       805       807       806       807       808       809
       808       810       809       810       811       812       811       813
       812       813       814       815       814       816       815       816
       817       818       817       819       818       819       820       821
       820       822       821       822       823       824       823       825
       824       825       826       827       826       828       827       828
       829       830       829       831       830       831       832       833
       832       834       833       834       835       836       835       837
       836       837       838       839       838       840       839       840
       841       842       841       843       842       843       844       845
       844       846       845       846       847       848       847       849
       848       849       850       851       850       852       851       852
       853       854       853       855       854       855       856       857
       856       858       857       858       859       860       859       861
       860       861       862       863       862       864       863       864
       865       866       865       867       866       867       868       869
       868       870       869       870       871       872       871       873
       872       873       874       875       874       876       875       876
       877       878       877       879       878       879       880       881
       880       882       881       882       883       884       883       885
       884       885       886       887       886       888       887       888
       889       890       889       891       890       891       892       893
       892       894       893       894       895       896       895       897
       896       897       898       899       898       900       899       900
       901       902       901       903       902       903       904       905
       904       906       905       906       907       908       907       909
       908       909       910       911       910       912       911       912
       913       914       913       915       914       915       916       917
       916       918       917       918       919       920       919       921
       920       921       922       923       922       924       923       924
       925       926       925       927       926       927       928       929
       928       930       929       930       931       932       931       933
       932       933       934       935       934       936       935       936
       937       938       937       939       938       939       940       941
       940       942       941       942       943       944       943       945
       944       945       946       947       946       948       947       948
       949       950       949       951       950       951       952       953
       952       954       953       954       955       956       955       957
       956       957       958       959       958       960       959       960
       961       962       961       963       962       963       964       965
       964       966       965       966       967       968       967       969
       968       969       970       971       970       972       971       972
       973       974       973       975       974       975       976       977
       976       978       977       978       979       980       979       981
       980       981       982       983       982       984       983       984
       985       986       985       987       986       987       988       989
       988       990       989       990       991       992       991       993
       992       993       994       995       994       996       995       996
       997       998       997       999       998       999      1000      1001
      1000      1002      1001      1002      1003      1004      1003      1005
      1004      1005      1006      1007      1006      1008      1007      1008
      1009      1010      1009      1011      1010      1011      1012      1013
      1012      1014      1013      1014      1015      1016      1015      1017
      1016      1017      1018      1019      1018      1020      1019      1020
      1021      1022      1021      1023      1022      1023      1024      1025
      1024      1026      1025      1026      1027      1028      1027      1029
      1028      1029      1030      1031      1030      1032      1031      1032
      1033      1034      1033      1035      1034      1035      1036      1037
      1036      1038      1037      1038      1039      1040      1039      1041
      1040      1041      1042      1043      1042      1044      1043      1044
      1045      1046      1045      1047      1046      1047      1048      1049
      1048      1050      1049      1050      1051      1052      1051      1053
      1052      1053      1054      1055      1054      1056      1055      1056
      1057      1058      1057      1059      1058      1059      1060      1061
      1060      1062      1061      1062      1063      1064      1063      1065
      1064      1065      1066      1067      1066      1068      1067      1068
      1069      1070      1069      1071      1070      1071      1072      1073
      1072      1074      1073      1074      1075      1076      1075      1077
      1076      1077      1078      1079      1078      1080      1079      1080
      1081      1082      1081      1083      1082      1083      1084      1085
      1084      1086      1085      1086      1087      1088      1087      1089
      1088      1089      1090      1091      1090      1092      1091      1092
      1093      1094      1093      1095      1094      1095      1096      1097
      1096      1098      1097      1098      1099      1100      1099      1101
      1100      1101      1102      1103      1102      1104      1103      1104
      1105      1106      1105      1107      1106      1107      1108      1109
      1108      1110      1109      1110      1111      1112      1111      1113
      1112      1113      1114      1115      1114      1116      1115      1116
      1117      1118      1117      1119      1118      1119      1120      1121
      1120      1122      1121      1122      1123      1124      1123      1125
      1124      1125      1126      1127      1126      1128      1127      1128
      1129      1130      1129      1131      1130      1131      1132      1133
      1132      1134      1133      1134      1135      1136      1135      1137
      1136      1137      1138      1139      1138      1140      1139      1140
      1141      1142      1141      1143      1142      1143      1144      1145
      1144      1146      1145      1146      1147      1148      1147      1149
      1148      1149      1150      1151      1150      1152      1151      1152
      1153      1154      1153      1155      1154      1155      1156      1157
      1156      1158      1157      1158      1159      1160      1159      1161
      1160      1161      1162      1163      1162      1164      1163      1164
      1165      1166      1165      1167      1166      1167      1168      1169
      1168      1170      1169      1170      1171      1172      1171      1173
      1172      1173      1174      1175      1174      1176      1175      1176
      1177      1178      1177      1179      1178      1179      1180      1181
      1180      1182      1181      1182      1183      1184      1183      1185
      1184      1185      1186      1187      1186      1188      1187      1188
      1189      1190      1189      1191      1190      1191      1192      1193
      1192      1194      1193      1194      1195      1196      1195      1197
      1196      1197      1198      1199      1198      1200      1199      1200
      1201      1202      1201      1203      1202      1203      1204      1205
      1204      1206      1205      1206      1207      1208      1207      1209
      1208      1209      1210      1211      1210      1212      1211      1212
      1213      1214      1213      1215      1214      1215      1216      1217
      1216      1218      1217      1218      1219      1220      1219      1221
      1220      1221      1222      1223      1222      1224      1223      1224
      1225      1226      1225      1227      1226      1227      1228      1229
      1228      1230      1229      1230      1231      1232      1231      1233
      1232      1233      1234      1235      1234      1236      1235      1236
      1237      1238      1237      1239      1238      1239      1240      1241
      1240      1242      1241      1242      1243      1244      1243      1245
      1244      1245      1246      1247      1246      1248      1247      1248
      1249      1250      1249      1251      1250      1251      1252      1253
      1252      1254      1253      1254      1255      1256      1255      1257
      1256      1257      1258      1259      1258      1260      1259      1260
      1261      1262      1261      1263      1262      1263      1264      1265
      1264      1266      1265      1266      1267      1268      1267      1269
      1268      1269      1270      1271      1270      1272      1271      1272
      1273      1274      1273      1275      1274      1275      1276      1277
      1276      1278      1277      1278      1279      1280      1279      1281
      1280      1281      1282      1283      1282      1284      1283      1284
      1285      1286      1285      1287      1286      1287      1288      1289
      1288      1290      1289      1290      1291      1292      1291      1293
      1292      1293      1294      1295      1294      1296      1295      1296
      1297      1298      1297      1299      1298      1299      1300      1301
      1300      1302      1301      1302      1303      1304      1303      1305
      1304      1305      1306      1307      1306      1308      1307      1308
      1309      1310      1309      1311      1310      1311      1312      1313
      1312      1314      1313      1314      1315      1316      1315      1317
      1316      1317      1318      1319      1318      1320      1319      1320
      1321      1322      1321      1323      1322      1323      1324      1325
      1324      1326      1325      1326      1327      1328      1327      1329
      1328      1329      1330      1331      1330      1332      1331      1332
      1333      1334      1333      1335      1334      1335      1336      1337
      1336      1338      1337      1338      1339      1340      1339      1341
      1340      1341      1342      1343      1342      1344      1343      1344
      1345      1346      1345      1347      1346      1347      1348      1349
      1348      1350      1349      1350      1351      1352      1351      1353
      1352      1353      1354      1355      1354      1356      1355      1356
      1357      1358      1357      1359      1358      1359      1360      1361
      1360      1362      1361      1362      1363      1364      1363      1365
      1364      1365      1366      1367      1366      1368      1367      1368
      1369      1370      1369      1371      1370      1371      1372      1373
      1372      1374      1373      1374      1375      1376      1375      1377
      1376      1377      1378      1379      1378      1380      1379      1380
      1381      1382      1381      1383      1382      1383      1384      1385
      1384      1386      1385      1386      1387      1388      1387      1389
      1388      1389      1390      1391      1390      1392      1391      1392
      1393      1394      1393      1395      1394      1395      1396      1397
      1396      1398      1397      1398      1399      1400      1399      1401
      1400      1401      1402      1403      1402      1404      1403      1404
      1405      1406      1405      1407      1406      1407      1408      1409
      1408      1410      1409      1410      1411      1412      1411      1413
      1412      1413      1414      1415      1414      1416      1415      1416
      1417      1418      1417      1419      1418      1419      1420      1421
      1420      1422      1421      1422      1423      1424      1423      1425
      1424      1425      1426      1427      1426      1428      1427      1428
      1429      1430      1429      1431      1430      1431      1432      1433
      1432      1434      1433      1434      1435      1436      1435      1437
      1436      1437      1438      1439      1438      1440      1439      1440
      1441      1442      1441      1443      1442      1443      1444      1445
      1444      1446      1445      1446      1447      1448      1447      1449
      1448      1449      1450      1451      1450      1452      1451      1452
      1453      1454      1453      1455      1454      1455      1456      1457
      1456      1458      1457      1458      1459      1460      1459      1461
      1460      1461      1462      1463      1462      1464      1463      1464
      1465      1466      1465      1467      1466      1467      1468      1469
      1468      1470      1469      1470      1471      1472      1471      1473
      1472      1473      1474      1475      1474      1476      1475      1476
      1477      1478      1477      1479      1478      1479      1480      1481
      1480      1482      1481      1482      1483      1484      1483      1485
      1484      1485      1486      1487      1486      1488      1487      1488
      1489      1490      1489      1491      1490      1491      1492      1493
      1492      1494      1493      1494      1495      1496      1495      1497
      1496      1497      1498      1499      1498      1500      1499      1500
      1501      1502      1501      1503      1502      1503      1504      1505
      1504      1506      1505      1506      1507      1508      1507      1509
      1508      1509      1510      1511      1510      1512      1511      1512
      1513      1514      1513      1515      1514      1515      1516      1517
      1516      1518      1517      1518      1519      1520      1519      1521
      1520      1521      1522      1523      1522      1524      1523      1524
      1525      1526      1525      1527      1526      1527      1528      1529
      1528      1530      1529      1530      1531      1532      1531      1533
      1532      1533      1534      1535      1534      1536      1535      1536
      1537      1538      1537      1539      1538      1539      1540      1541
      1540      1542      1541      1542      1543      1544      1543      1545
      1544      1545      1546      1547      1546      1548      1547      1548
      1549      1550      1549      1551      1550      1551      1552      1553
      1552      1554      1553      1554      1555      1556      1555      1557
      1556      1557      1558      1559      1558      1560      1559      1560
      1561      1562      1561      1563      1562      1563      1564      1565
      1564      1566      1565      1566      1567      1568      1567      1569
      1568      1569      1570      1571      1570      1572      1571      1572
      1573      1574      1573      1575      1574      1575      1576      1577
      1576      1578      1577      1578      1579      1580      1579      1581
      1580      1581      1582      1583      1582      1584      1583      1584
      1585      1586      1585      1587      1586      1587      1588      1589
      1588      1590      1589      1590      1591      1592      1591      1593
      1592      1593      1594      1595      1594      1596      1595      1596
      1597      1598      1597      1599      1598      1599      1600      1601
      1600      1602      1601      1602      1603      1604      1603      1605
      1604      1605      1606      1607      1606      1608      1607      1608
      1609      1610      1609      1611      1610      1611      1612      1613
      1612      1614      1613      1614      1615      1616      1615      1617
      1616      1617      1618      1619      1618      1620      1619      1620
      1621      1622      1621      1623      1622      1623      1624      1625
      1624      1626      1625      1626      1627      1628      1627      1629
      1628      1629      1630      1631      1630      1632      1631      1632
      1633      1634      1633      1635      1634      1635      1636      1637
      1636      1638      1637      1638      1639      1640      1639      1641
      1640      1641      1642      1643      1642      1644      1643      1644
      1645      1646      1645      1647      1646      1647      1648      1649
      1648      1650      1649      1650      1651      1652      1651      1653
      1652      1653      1654      1655      1654      1656      1655      1656
      1657      1658      1657      1659      1658      1659      1660      1661
      1660      1662      1661      1662      1663      1664      1663      1665
      1664      1665      1666      1667      1666      1668      1667      1668
      1669      1670      1669      1671      1670      1671      1672      1673
      1672      1674      1673      1674      1675      1676      1675      1677
      1676      1677      1678      1679      1678      1680      1679      1680
      1681      1682      1681      1683      1682      1683      1684      1685
      1684      1686      1685      1686      1687      1688      1687      1689
      1688      1689      1690      1691      1690      1692      1691      1692
      1693      1694      1693      1695      1694      1695      1696      1697
      1696      1698      1697      1698      1699      1700      1699      1701
      1700      1701      1702      1703      1702      1704      1703      1704
      1705      1706      1705      1707      1706      1707      1708      1709
      1708      1710      1709      1710      1711      1712      1711      1713
      1712      1713      1714      1715      1714      1716      1715      1716
      1717      1718      1717      1719      1718      1719      1720      1721
      1720      1722      1721      1722      1723      1724      1723      1725
      1724      1725      1726      1727      1726      1728      1727      1728
      1729      1730      1729      1731      1730      1731      1732      1733
      1732      1734      1733      1734      1735      1736      1735      1737
      1736      1737      1738      1739      1738      1740      1739      1740
      1741      1742      1741      1743      1742      1743      1744      1745
      1744      1746      1745      1746      1747      1748      1747      1749
      1748      1749      1750      1751      1750      1752      1751      1752
      1753      1754      1753      1755      1754      1755      1756      1757
      1756      1758      1757      1758      1759      1760      1759      1761
      1760      1761      1762      1763      1762      1764      1763      1764
      1765      1766      1765      1767      1766      1767      1768      1769
      1768      1770      1769      1770      1771      1772      1771      1773
      1772      1773      1774      1775      1774      1776      1775      1776
      1777      1778      1777      1779      1778      1779      1780      1781
      1780      1782      1781      1782      1783      1784      1783      1785
      1784      1785      1786      1787      1786      1788      1787      1788
      1789      1790      1789      1791      1790      1791      1792      1793
      1792      1794      1793      1794      1795      1796      1795      1797
      1796      1797      1798      1799      1798      1800      1799      1800
      1801      1802      1801      1803      1802      1803      1804      1805
      1804      1806      1805      1806      1807      1808      1807      1809
      1808      1809      1810      1811      1810      1812      1811      1812
      1813      1814      1813      1815      1814      1815      1816      1817
      1816      1818      1817      1818      1819      1820      1819      1821
      1820      1821      1822      1823      1822      1824      1823      1824
      1825      1826      1825      1827      1826      1827      1828      1829
      1828      1830      1829      1830      1831      1832      1831      1833
      1832      1833      1834      1835      1834      1836      1835      1836
      1837      1838      1837      1839      1838      1839      1840      1841
      1840      1842      1841      1842      1843      1844      1843      1845
      1844      1845      1846      1847      1846      1848      1847      1848
      1849      1850      1849      1851      1850      1851      1852      1853
      1852      1854      1853      1854      1855      1856      1855      1857
      1856      1857      1858      1859      1858      1860      1859      1860
      1861      1862      1861      1863      1862      1863      1864      1865
      1864      1866      1865      1866      1867      1868      1867      1869
      1868      1869      1870      1871      1870      1872      1871      1872
      1873      1874      1873      1875      1874      1875      1876      1877
      1876      1878      1877      1878      1879      1880      1879      1881
      1880      1881      1882      1883      1882      1884      1883      1884
      1885      1886      1885      1887      1886      1887      1888      1889
      1888      1890      1889      1890      1891      1892      1891      1893
      1892      1893      1894      1895      1894      1896      1895      1896
      1897      1898      1897      1899      1898      1899      1900      1901
      1900      1902      1901      1902      1903      1904      1903      1905
      1904      1905      1906      1907      1906      1908      1907      1908
      1909      1910      1909      1911      1910      1911      1912      1913
      1912      1914      1913      1914      1915      1916      1915      1917
      1916      1917      1918      1919      1918      1920      1919      1920
      1921      1922      1921      1923      1922      1923      1924      1925
      1924      1926      1925      1926      1927      1928      1927      1929
      1928      1929      1930      1931      1930      1932      1931      1932
      1933      1934      1933      1935      1934      1935      1936      1937
      1936      1938      1937      1938      1939      1940      1939      1941
      1940      1941      1942      1943      1942      1944      1943      1944
      1945      1946      1945      1947      1946      1947      1948      1949
      1948      1950      1949      1950      1951      1952      1951      1953
      1952      1953      1954      1955      1954      1956      1955      1956
      1957      1958      1957      1959      1958      1959      1960      1961
      1960      1962      1961      1962      1963      1964      1963      1965
      1964      1965      1966      1967      1966      1968      1967      1968
      1969      1970      1969      1971      1970      1971      1972      1973
      1972      1974      1973      1974      1975      1976      1975      1977
      1976      1977      1978      1979      1978      1980      1979      1980
      1981      1982      1981      1983      1982      1983      1984      1985
      1984      1986      1985      1986      1987      1988      1987      1989
      1988      1989      1990      1991      1990      1992      1991      1992
      1993      1994      1993      1995      1994      1995      1996      1997
      1996      1998      1997      1998      1999      2000      1999      2001
      2000      2001      2002      2003      2002      2004      2003      2004
      2005      2006      2005      2007      2006      2007      2008      2009
      2008      2010      2009      2010      2011      2012      2011      2013
      2012      2013      2014      2015      2014      2016      2015      2016
      2017      2018      2017      2019      2018      2019      2020      2021
      2020      2022      2021      2022      2023      2024      2023      2025
      2024      2025      2026      2027      2026      2028      2027      2028
      2029      2030      2029      2031      2030      2031      2032      2033
      2032      2034      2033      2034      2035      2036      2035      2037
      2036      2037      2038      2039      2038      2040      2039      2040
      2041      2042      2041      2043      2042      2043      2044      2045
      2044      2046      2045      2046      2047      2048      2047      2049
      2048      2049      2050      2051      2050      2052      2051      2052
      2053      2054      2053      2055      2054      2055      2056      2057
      2056      2058      2057      2058      2059      2060      2059      2061
      2060      2061      2062      2063      2062      2064      2063      2064
      2065      2066      2065      2067      2066      2067      2068      2069
      2068      2070      2069      2070      2071      2072      2071      2073
      2072      2073      2074      2075      2074      2076      2075      2076
      2077      2078      2077      2079      2078      2079      2080      2081
      2080      2082      2081      2082      2083      2084      2083      2085
      2084      2085      2086      2087      2086      2088      2087      2088
      2089      2090      2089      2091      2090      2091      2092      2093
      2092      2094      2093      2094      2095      2096      2095      2097
      2096      2097      2098      2099      2098      2100      2099      2100
      2101      2102      2101      2103      2102      2103      2104      2105
      2104      2106      2105      2106      2107      2108      2107      2109
      2108      2109      2110      2111      2110      2112      2111      2112
      2113      2114      2113      2115      2114      2115      2116      2117
      2116      2118      2117      2118      2119      2120      2119      2121
      2120      2121      2122      2123      2122      2124      2123      2124
      2125      2126      2125      2127      2126      2127      2128      2129
      2128      2130      2129      2130      2131      2132      2131      2133
      2132      2133      2134      2135      2134      2136      2135      2136
      2137      2138      2137      2139      2138      2139      2140      2141
      2140      2142      2141      2142      2143      2144      2143      2145
      2144      2145      2146      2147      2146      2148      2147      2148
      2149      2150      2149      2151      2150      2151      2152      2153
      2152      2154      2153      2154      2155      2156      2155      2157
      2156      2157      2158      2159      2158      2160      2159      2160
      2161      2162      2161      2163      2162      2163      2164      2165
      2164      2166      2165      2166      2167      2168      2167      2169
      2168      2169      2170      2171      2170      2172      2171      2172
      2173      2174      2173      2175      2174      2175      2176      2177
      2176      2178      2177      2178      2179      2180      2179      2181
      2180      2181      2182      2183      2182      2184      2183      2184
      2185      2186      2185      2187      2186      2187      2188      2189
      2188      2190      2189      2190      2191      2192      2191      2193
      2192      2193      2194      2195      2194      2196      2195      2196
      2197      2198      2197      2199      2198      2199      2200      2201
      2200      2202      2201      2202      2203      2204      2203      2205
      2204      2205      2206      2207      2206      2208      2207      2208
      2209      2210      2209      2211      2210      2211      2212      2213
      2212      2214      2213      2214      2215      2216      2215      2217
      2216      2217      2218      2219      2218      2220      2219      2220
      2221      2222      2221      2223      2222      2223      2224      2225
      2224      2226      2225      2226      2227      2228      2227      2229
      2228      2229      2230      2231      2230      2232      2231      2232
      2233      2234      2233      2235      2234      2235      2236      2237
      2236      2238      2237      2238      2239      2240      2239      2241
      2240      2241      2242      2243      2242      2244      2243      2244
      2245      2246      2245      2247      2246      2247      2248      2249
      2248      2250      2249      2250      2251      2252      2251      2253
      2252      2253      2254      2255      2254      2256      2255      2256
      2257      2258      2257      2259      2258      2259      2260      2261
      2260      2262      2261      2262      2263      2264      2263      2265
      2264      2265      2266      2267      2266      2268      2267      2268
      2269      2270      2269      2271      2270      2271      2272      2273
      2272      2274      2273      2274      2275      2276      2275      2277
      2276      2277      2278      2279      2278      2280      2279      2280
      2281      2282      2281      2283      2282      2283      2284      2285
      2284      2286      2285      2286      2287      2288      2287      2289
      2288      2289      2290      2291      2290      2292      2291      2292
      2293      2294      2293      2295      2294      2295      2296      2297
      2296      2298      2297      2298      2299      2300      2299      2301
      2300      2301      2302      2303      2302      2304      2303      2304
      2305      2306      2305      2307      2306      2307      2308      2309
      2308      2310      2309      2310      2311      2312      2311      2313
      2312      2313      2314      2315      2314      2316      2315      2316
      2317      2318      2317      2319      2318      2319      2320      2321
      2320      2322      2321      2322      2323      2324      2323      2325
      2324      2325      2326      2327      2326      2328      2327      2328
      2329      2330      2329      2331      2330      2331      2332      2333
      2332      2334      2333      2334      2335      2336      2335      2337
      2336      2337      2338      2339      2338      2340      2339      2340
      2341      2342      2341      2343      2342      2343      2344      2345
      2344      2346      2345      2346      2347      2348      2347      2349
      2348      2349      2350      2351      2350      2352      2351      2352
      2353      2354      2353      2355      2354      2355      2356      2357
      2356      2358      2357      2358      2359      2360      2359      2361
      2360      2361      2362      2363      2362      2364      2363      2364
      2365      2366      2365      2367      2366      2367      2368      2369
      2368      2370      2369      2370      2371      2372      2371      2373
      2372      2373      2374      2375      2374      2376      2375      2376
      2377      2378      2377      2379      2378      2379      2380      2381
      2380      2382      2381      2382      2383      2384      2383      2385
      2384      2385      2386      2387      2386      2388      2387      2388
      2389      2390      2389      2391      2390      2391      2392      2393
      2392      2394      2393      2394      2395      2396      2395      2397
      2396      2397      2398      2399      2398      2400      2399      2400
      2401      2402      2401      2403      2402      2403      2404      2405
      2404      2406      2405      2406      2407      2408      2407      2409
      2408      2409      2410      2411      2410      2412      2411      2412
      2413      2414      2413      2415      2414      2415      2416      2417
      2416      2418      2417      2418      2419      2420      2419      2421
      2420      2421      2422      2423      2422      2424      2423      2424
      2425      2426      2425      2427      2426      2427      2428      2429
      2428      2430      2429      2430      2431      2432      2431      2433
      2432      2433      2434      2435      2434      2436      2435      2436
      2437      2438      2437      2439      2438      2439      2440      2441
      2440      2442      2441      2442      2443      2444      2443      2445
      2444      2445      2446      2447      2446      2448      2447      2448
      2449      2450      2449      2451      2450      2451      2452      2453
      2452      2454      2453      2454      2455      2456      2455      2457
      2456      2457      2458      2459      2458      2460      2459      2460
      2461      2462      2461      2463      2462      2463      2464      2465
      2464      2466      2465      2466      2467      2468      2467      2469
      2468      2469      2470      2471      2470      2472      2471      2472
      2473      2474      2473      2475      2474      2475      2476      2477
      2476      2478      2477      2478      2479      2480      2479      2481
      2480      2481      2482      2483      2482      2484      2483      2484
      2485      2486      2485      2487      2486      2487      2488      2489
      2488      2490      2489      2490      2491      2492      2491      2493
      2492      2493      2494      2495      2494      2496      2495      2496
      2497      2498      2497      2499      2498      2499      2500      2501
      2500      2502      2501      2502      2503      2504      2503      2505
      2504      2505      2506      2507      2506      2508      2507      2508
      2509      2510      2509      2511      2510      2511      2512      2513
      2512      2514      2513      2514      2515      2516      2515      2517
      2516      2517      2518      2519      2518      2520      2519      2520
      2521      2522      2521      2523      2522      2523      2524      2525
      2524      2526      2525      2526      2527      2528      2527      2529
      2528      2529      2530      2531      2530      2532      2531      2532
      2533      2534      2533      2535      2534      2535      2536      2537
      2536      2538      2537      2538      2539      2540      2539      2541
      2540      2541      2542      2543      2542      2544      2543      2544
      2545      2546      2545      2547      2546      2547      2548      2549
      2548      2550      2549      2550      2551      2552      2551      2553
      2552      2553      2554      2555      2554      2556      2555      2556
      2557      2558      2557      2559      2558      2559      2560      2561
      2560      2562      2561      2562      2563      2564      2563      2565
      2564      2565      2566      2567      2566      2568      2567      2568
      2569      2570      2569      2571      2570      2571      2572      2573
      2572      2574      2573      2574      2575      2576      2575      2577
      2576      2577      2578      2579      2578      2580      2579      2580
      2581      2582      2581      2583      2582      2583      2584      2585
      2584      2586      2585      2586      2587      2588      2587      2589
      2588      2589      2590      2591      2590      2592      2591      2592
      2593      2594      2593      2595      2594      2595      2596      2597
      2596      2598      2597      2598      2599      2600      2599      2601
      2600      2601      2602      2603      2602      2604      2603      2604
      2605      2606      2605      2607      2606      2607      2608      2609
      2608      2610      2609      2610      2611      2612      2611      2613
      2612      2613      2614      2615      2614      2616      2615      2616
      2617      2618      2617      2619      2618      2619      2620      2621
      2620      2622      2621      2622      2623      2624      2623      2625
      2624      2625      2626      2627      2626      2628      2627      2628
      2629      2630      2629      2631      2630      2631      2632      2633
      2632      2634      2633      2634      2635      2636      2635      2637
      2636      2637      2638      2639      2638      2640      2639      2640
      2641      2642      2641      2643      2642      2643      2644      2645
      2644      2646      2645      2646      2647      2648      2647      2649
      2648      2649      2650      2651      2650      2652      2651      2652
      2653      2654      2653      2655      2654      2655      2656      2657
      2656      2658      2657      2658      2659      2660      2659      2661
      2660      2661      2662      2663      2662      2664      2663      2664
      2665      2666      2665      2667      2666      2667      2668      2669
      2668      2670      2669      2670      2671      2672      2671      2673
      2672      2673      2674      2675      2674      2676      2675      2676
      2677      2678      2677      2679      2678      2679      2680      2681
      2680      2682      2681      2682      2683      2684      2683      2685
      2684      2685      2686      2687      2686      2688      2687      2688
      2689      2690      2689      2691      2690      2691      2692      2693
      2692      2694      2693      2694      2695      2696      2695      2697
      2696      2697      2698      2699      2698      2700      2699      2700
      2701      2702      2701      2703      2702      2703      2704      2705
      2704      2706      2705      2706      2707      2708      2707      2709
      2708      2709      2710      2711      2710      2712      2711      2712
      2713      2714      2713      2715      2714      2715      2716      2717
      2716      2718      2717      2718      2719      2720      2719      2721
      2720      2721      2722      2723      2722      2724      2723      2724
      2725      2726      2725      2727      2726      2727      2728      2729
      2728      2730      2729      2730      2731      2732      2731      2733
      2732      2733      2734      2735      2734      2736      2735      2736
      2737      2738      2737      2739      2738      2739      2740      2741
      2740      2742      2741      2742      2743      2744      2743      2745
      2744      2745      2746      2747      2746      2748      2747      2748
      2749      2750      2749      2751      2750      2751      2752      2753
      2752      2754      2753      2754      2755      2756      2755      2757
      2756      2757      2758      2759      2758      2760      2759      2760
      2761      2762      2761      2763      2762      2763      2764      2765
      2764      2766      2765      2766      2767      2768      2767      2769
      2768      2769      2770      2771      2770      2772      2771      2772
      2773      2774      2773      2775      2774      2775      2776      2777
      2776      2778      2777      2778      2779      2780      2779      2781
      2780      2781      2782      2783      2782      2784      2783      2784
      2785      2786      2785      2787      2786      2787      2788      2789
      2788      2790      2789      2790      2791      2792      2791      2793
      2792      2793      2794      2795      2794      2796      2795      2796
      2797      2798      2797      2799      2798      2799      2800      2801
      2800      2802      2801      2802      2803      2804      2803      2805
      2804      2805      2806      2807      2806      2808      2807      2808
      2809      2810      2809      2811      2810      2811      2812      2813
      2812      2814      2813      2814      2815      2816      2815      2817
      2816      2817      2818      2819      2818      2820      2819      2820
      2821      2822      2821      2823      2822      2823      2824      2825
      2824      2826      2825      2826      2827      2828      2827      2829
      2828      2829      2830      2831      2830      2832      2831      2832
      2833      2834      2833      2835      2834      2835      2836      2837
      2836      2838      2837      2838      2839      2840      2839      2841
      2840      2841      2842      2843      2842      2844      2843      2844
      2845      2846      2845      2847      2846      2847      2848      2849
      2848      2850      2849      2850      2851      2852      2851      2853
      2852      2853      2854      2855      2854      2856      2855      2856
      2857      2858      2857      2859      2858      2859      2860      2861
      2860      2862      2861      2862      2863      2864      2863      2865
      2864      2865      2866      2867      2866      2868      2867      2868
      2869      2870      2869      2871      2870      2871      2872      2873
      2872      2874      2873      2874      2875      2876      2875      2877
      2876      2877      2878      2879      2878      2880      2879      2880
      2881      2882      2881      2883      2882      2883      2884      2885
      2884      2886      2885      2886      2887      2888      2887      2889
      2888      2889      2890      2891      2890      2892      2891      2892
      2893      2894      2893      2895      2894      2895      2896      2897
      2896      2898      2897      2898      2899      2900      2899      2901
      2900      2901      2902      2903      2902      2904      2903      2904
      2905      2906      2905      2907      2906      2907      2908      2909
      2908      2910      2909      2910      2911      2912      2911      2913
      2912      2913      2914      2915      2914      2916      2915      2916
      2917      2918      2917      2919      2918      2919      2920      2921
      2920      2922      2921      2922      2923      2924      2923      2925
      2924      2925      2926      2927      2926      2928      2927      2928
      2929      2930      2929      2931      2930      2931      2932      2933
      2932      2934      2933      2934      2935      2936      2935      2937
      2936      2937      2938      2939      2938      2940      2939      2940
      2941      2942      2941      2943      2942      2943      2944      2945
      2944      2946      2945      2946      2947      2948      2947      2949
      2948      2949      2950      2951      2950      2952      2951      2952
      2953      2954      2953      2955      2954      2955      2956      2957
      2956      2958      2957      2958      2959      2960      2959      2961
      2960      2961      2962      2963      2962      2964      2963      2964
      2965      2966      2965      2967      2966      2967      2968      2969
      2968      2970      2969      2970      2971      2972      2971      2973
      2972      2973      2974      2975      2974      2976      2975      2976
      2977      2978      2977      2979      2978      2979      2980      2981
      2980      2982      2981      2982      2983      2984      2983      2985
      2984      2985      2986      2987      2986      2988      2987      2988
      2989      2990      2989      2991      2990      2991      2992      2993
      2992      2994      2993      2994      2995      2996      2995      2997
      2996      2997      2998      2999      2998      3000      2999      3000
      3001      3002      3001      3003      3002      3003      3004      3005
      3004      3006      3005      3006      3007      3008      3007      3009
      3008      3009      3010      3011      3010      3012      3011      3012
      3013      3014      3013      3015      3014      3015      3016      3017
      3016      3018      3017      3018      3019      3020      3019      3021
      3020      3021      3022      3023      3022      3024      3023      3024
      3025      3026      3025      3027      3026      3027      3028      3029
      3028      3030      3029      3030      3031      3032      3031      3033
      3032      3033      3034      3035      3034      3036      3035      3036
      3037      3038      3037      3039      3038      3039      3040      3041
      3040      3042      3041      3042      3043      3044      3043      3045
      3044      3045      3046      3047      3046      3048      3047      3048
      3049      3050      3049      3051      3050      3051      3052      3053
      3052      3054      3053      3054      3055      3056      3055      3057
      3056      3057      3058      3059      3058      3060      3059      3060
      3061      3062      3061      3063      3062      3063      3064      3065
      3064      3066      3065      3066      3067      3068      3067      3069
      3068      3069      3070      3071      3070      3072      3071      3072
      3073      3074      3073      3075      3074      3075      3076      3077
      3076      3078      3077      3078      3079      3080      3079      3081
      3080      3081      3082      3083      3082      3084      3083      3084
      3085      3086      3085      3087      3086      3087      3088      3089
      3088      3090      3089      3090      3091      3092      3091      3093
      3092      3093      3094      3095      3094      3096      3095      3096
      3097      3098      3097      3099      3098      3099      3100      3101
      3100      3102      3101      3102      3103      3104      3103      3105
      3104      3105      3106      3107      3106      3108      3107      3108
      3109      3110      3109      3111      3110      3111      3112      3113
      3112      3114      3113      3114      3115      3116      3115      3117
      3116      3117      3118      3119      3118      3120      3119      3120
      3121      3122      3121      3123      3122      3123      3124      3125
      3124      3126      3125      3126      3127      3128      3127      3129
      3128      3129      3130      3131      3130      3132      3131      3132
      3133      3134      3133      3135      3134      3135      3136      3137
      3136      3138      3137      3138      3139      3140      3139      3141
      3140      3141      3142      3143      3142      3144      3143      3144
      3145      3146      3145      3147      3146      3147      3148      3149
      3148      3150      3149      3150      3151      3152      3151      3153
      3152      3153      3154      3155      3154      3156      3155      3156
      3157      3158      3157      3159      3158      3159      3160      3161
      3160      3162      3161      3162      3163      3164      3163      3165
      3164      3165      3166      3167      3166      3168      3167      3168
      3169      3170      3169      3171      3170      3171      3172      3173
      3172      3174      3173      3174      3175      3176      3175      3177
      3176      3177      3178      3179      3178      3180      3179      3180
      3181      3182      3181      3183      3182      3183      3184      3185
      3184      3186      3185      3186      3187      3188      3187      3189
      3188      3189      3190      3191      3190      3192      3191      3192
      3193      3194      3193      3195      3194      3195      3196      3197
      3196      3198      3197      3198      3199      3200      3199      3201
      3200      3201      3202      3203      3202      3204      3203      3204
      3205      3206      3205      3207      3206      3207      3208      3209
      3208      3210      3209      3210      3211      3212      3211      3213
      3212      3213      3214      3215      3214      3216      3215      3216
      3217      3218      3217      3219      3218      3219      3220      3221
      3220      3222      3221      3222      3223      3224      3223      3225
      3224      3225      3226      3227      3226      3228      3227      3228
      3229      3230      3229      3231      3230      3231      3232      3233
      3232      3234      3233      3234      3235      3236      3235      3237
      3236      3237      3238      3239      3238      3240      3239      3240
      3241      3242      3241      3243      3242      3243      3244      3245
      3244      3246      3245      3246      3247      3248      3247      3249
      3248      3249      3250      3251      3250      3252      3251      3252
      3253      3254      3253      3255      3254      3255      3256      3257
      3256      3258      3257      3258      3259      3260      3259      3261
      3260      3261      3262      3263      3262      3264      3263      3264
      3265      3266      3265      3267      3266      3267      3268      3269
      3268      3270      3269      3270      3271      3272      3271      3273
      3272      3273      3274      3275      3274      3276      3275      3276
      3277      3278      3277      3279      3278      3279      3280      3281
      3280      3282      3281      3282      3283      3284      3283      3285
      3284      3285      3286      3287      3286      3288      3287      3288
      3289      3290      3289      3291      3290      3291      3292      3293
      3292      3294      3293      3294      3295      3296      3295      3297
      3296      3297      3298      3299      3298      3300      3299      3300
      3301      3302      3301      3303      3302      3303      3304      3305
      3304      3306      3305      3306      3307      3308      3307      3309
      3308      3309      3310      3311      3310      3312      3311      3312
      3313      3314      3313      3315      3314      3315      3316      3317
      3316      3318      3317      3318      3319      3320      3319      3321
      3320      3321      3322      3323      3322      3324      3323      3324
      3325      3326      3325      3327      3326      3327      3328      3329
      3328      3330      3329      3330      3331      3332      3331      3333
      3332      3333      3334      3335      3334      3336      3335      3336
      3337      3338      3337      3339      3338      3339      3340      3341
      3340      3342      3341      3342      3343      3344      3343      3345
      3344      3345      3346      3347      3346      3348      3347      3348
      3349      3350      3349      3351      3350      3351      3352      3353
      3352      3354      3353      3354      3355      3356      3355      3357
      3356      3357      3358      3359      3358      3360      3359      3360
      3361      3362      3361      3363      3362      3363      3364      3365
      3364      3366      3365      3366      3367      3368      3367      3369
      3368      3369      3370      3371      3370      3372      3371      3372
      3373      3374      3373      3375      3374      3375      3376      3377
      3376      3378      3377      3378      3379      3380      3379      3381
      3380      3381      3382      3383      3382      3384      3383      3384
      3385      3386      3385      3387      3386      3387      3388      3389
      3388      3390      3389      3390      3391      3392      3391      3393
      3392      3393      3394      3395      3394      3396      3395      3396
      3397      3398      3397      3399      3398      3399      3400      3401
      3400      3402      3401      3402      3403      3404      3403      3405
      3404      3405      3406      3407      3406      3408      3407      3408
      3409      3410      3409      3411      3410      3411      3412      3413
      3412      3414      3413      3414      3415      3416      3415      3417
      3416      3417      3418      3419      3418      3420      3419      3420
      3421      3422      3421      3423      3422      3423      3424      3425
      3424      3426      3425      3426      3427      3428      3427      3429
      3428      3429      3430      3431      3430      3432      3431      3432
      3433      3434      3433      3435      3434      3435      3436      3437
      3436      3438      3437      3438      3439      3440      3439      3441
      3440      3441      3442      3443      3442      3444      3443      3444
      3445      3446      3445      3447      3446      3447      3448      3449
      3448      3450      3449      3450      3451      3452      3451      3453
      3452      3453      3454      3455      3454      3456      3455      3456
      3457      3458      3457      3459      3458      3459      3460      3461
      3460      3462      3461      3462      3463      3464      3463      3465
      3464      3465      3466      3467      3466      3468      3467      3468
      3469      3470      3469      3471      3470      3471      3472      3473
      3472      3474      3473      3474      3475      3476      3475      3477
      3476      3477      3478      3479      3478      3480      3479      3480
      3481      3482      3481      3483      3482      3483      3484      3485
      3484      3486      3485      3486      3487      3488      3487      3489
      3488      3489      3490      3491      3490      3492      3491      3492
      3493      3494      3493      3495      3494      3495      3496      3497
      3496      3498      3497      3498      3499      3500      3499      3501
      3500      3501      3502      3503      3502      3504      3503      3504
      3505      3506      3505      3507      3506      3507      3508      3509
      3508      3510      3509      3510      3511      3512      3511      3513
      3512      3513      3514      3515      3514      3516      3515      3516
      3517      3518      3517      3519      3518      3519      3520      3521
      3520      3522      3521      3522      3523      3524      3523      3525
      3524      3525      3526      3527      3526      3528      3527      3528
      3529      3530      3529      3531      3530      3531      3532      3533
      3532      3534      3533      3534      3535      3536      3535      3537
      3536      3537      3538      3539      3538      3540      3539      3540
      3541      3542      3541      3543      3542      3543      3544      3545
      3544      3546      3545      3546      3547      3548      3547      3549
      3548      3549      3550      3551      3550      3552      3551      3552
      3553      3554      3553      3555      3554      3555      3556      3557
      3556      3558      3557      3558      3559      3560      3559      3561
      3560      3561      3562      3563      3562      3564      3563      3564
      3565      3566      3565      3567      3566      3567      3568      3569
      3568      3570      3569      3570      3571      3572      3571      3573
      3572      3573      3574      3575      3574      3576      3575      3576
      3577      3578      3577      3579      3578      3579      3580      3581
      3580      3582      3581      3582      3583      3584      3583      3585
      3584      3585      3586      3587      3586      3588      3587      3588
      3589      3590      3589      3591      3590      3591      3592      3593
      3592      3594      3593      3594      3595      3596      3595      3597
      3596      3597      3598      3599      3598      3600      3599      3600
      3601      3602      3601      3603      3602      3603      3604      3605
      3604      3606      3605      3606      3607      3608      3607      3609
      3608      3609      3610      3611      3610      3612      3611      3612
      3613      3614      3613      3615      3614      3615      3616      3617
      3616      3618      3617      3618      3619      3620      3619      3621
      3620      3621      3622      3623      3622      3624      3623      3624
      3625      3626      3625      3627      3626      3627      3628      3629
      3628      3630      3629      3630      3631      3632      3631      3633
      3632      3633      3634      3635      3634      3636      3635      3636
      3637      3638      3637      3639      3638      3639      3640      3641
      3640      3642      3641      3642      3643      3644      3643      3645
      3644      3645      3646      3647      3646      3648      3647      3648
      3649      3650      3649      3651      3650      3651      3652      3653
      3652      3654      3653      3654      3655      3656      3655      3657
      3656      3657      3658      3659      3658      3660      3659      3660
      3661      3662      3661      3663      3662      3663      3664      3665
      3664      3666      3665      3666      3667      3668      3667      3669
      3668      3669      3670      3671      3670      3672      3671      3672
      3673      3674      3673      3675      3674      3675      3676      3677
      3676      3678      3677      3678      3679      3680      3679      3681
      3680      3681      3682      3683      3682      3684      3683      3684
      3685      3686      3685      3687      3686      3687      3688      3689
      3688      3690      3689      3690      3691      3692      3691      3693
      3692      3693      3694      3695      3694      3696      3695      3696
      3697      3698      3697      3699      3698      3699      3700      3701
      3700      3702      3701      3702      3703      3704      3703      3705
      3704      3705      3706      3707      3706      3708      3707      3708
      3709      3710      3709      3711      3710      3711      3712      3713
      3712      3714      3713      3714      3715      3716      3715      3717
      3716      3717      3718      3719      3718      3720      3719      3720
      3721      3722      3721      3723      3722      3723      3724      3725
      3724      3726      3725      3726      3727      3728      3727      3729
      3728      3729      3730      3731      3730      3732      3731      3732
      3733      3734      3733      3735      3734      3735      3736      3737
      3736      3738      3737      3738      3739      3740      3739      3741
      3740      3741      3742      3743      3742      3744      3743      3744
      3745      3746      3745      3747      3746      3747      3748      3749
      3748      3750      3749      3750      3751      3752      3751      3753
      3752      3753      3754      3755      3754      3756      3755      3756
      3757      3758      3757      3759      3758      3759      3760      3761
      3760      3762      3761      3762      3763      3764      3763      3765
      3764      3765      3766      3767      3766      3768      3767      3768
      3769      3770      3769      3771      3770      3771      3772      3773
      3772      3774      3773      3774      3775      3776      3775      3777
      3776      3777      3778      3779      3778      3780      3779      3780
      3781      3782      3781      3783      3782      3783      3784      3785
      3784      3786      3785      3786      3787      3788      3787      3789
      3788      3789      3790      3791      3790      3792      3791      3792
      3793      3794      3793      3795      3794      3795      3796      3797
      3796      3798      3797      3798      3799      3800      3799      3801
      3800      3801      3802      3803      3802      3804      3803      3804
      3805      3806      3805      3807      3806      3807      3808      3809
      3808      3810      3809      3810      3811      3812      3811      3813
      3812      3813      3814      3815      3814      3816      3815      3816
      3817      3818      3817      3819      3818      3819      3820      3821
      3820      3822      3821      3822      3823      3824      3823      3825
      3824      3825      3826      3827      3826      3828      3827      3828
      3829      3830      3829      3831      3830      3831      3832      3833
      3832      3834      3833      3834      3835      3836      3835      3837
      3836      3837      3838      3839      3838      3840      3839      3840
      3841      3842      3841      3843      3842      3843      3844      3845
      3844      3846      3845      3846      3847      3848      3847      3849
      3848      3849      3850      3851      3850      3852      3851      3852
      3853      3854      3853      3855      3854      3855      3856      3857
      3856      3858      3857      3858      3859      3860      3859      3861
      3860      3861      3862      3863      3862      3864      3863      3864
      3865      3866      3865      3867      3866      3867      3868      3869
      3868      3870      3869      3870      3871      3872      3871      3873
      3872      3873      3874      3875      3874      3876      3875      3876
      3877      3878      3877      3879      3878      3879      3880      3881
      3880      3882      3881      3882      3883      3884      3883      3885
      3884      3885      3886      3887      3886      3888      3887      3888
      3889      3890      3889      3891      3890      3891      3892      3893
      3892      3894      3893      3894      3895      3896      3895      3897
      3896      3897      3898      3899      3898      3900      3899      3900
      3901      3902      3901      3903      3902      3903      3904      3905
      3904      3906      3905      3906      3907      3908      3907      3909
      3908      3909      3910      3911      3910      3912      3911      3912
      3913      3914      3913      3915      3914      3915      3916      3917
      3916      3918      3917      3918      3919      3920      3919      3921
      3920      3921      3922      3923      3922      3924      3923      3924
      3925      3926      3925      3927      3926      3927      3928      3929
      3928      3930      3929      3930      3931      3932      3931      3933
      3932      3933      3934      3935      3934      3936      3935      3936
      3937      3938      3937      3939      3938      3939      3940      3941
      3940      3942      3941      3942      3943      3944      3943      3945
      3944      3945      3946      3947      3946      3948      3947      3948
      3949      3950      3949      3951      3950      3951      3952      3953
      3952      3954      3953      3954      3955      3956      3955      3957
      3956      3957      3958      3959      3958      3960      3959      3960
      3961      3962      3961      3963      3962      3963      3964      3965
      3964      3966      3965      3966      3967      3968      3967      3969
      3968      3969      3970      3971      3970      3972      3971      3972
      3973      3974      3973      3975      3974      3975      3976      3977
      3976      3978      3977      3978      3979      3980      3979      3981
      3980      3981      3982      3983      3982      3984      3983      3984
      3985      3986      3985      3987      3986      3987      3988      3989
      3988      3990      3989      3990      3991      3992      3991      3993
      3992      3993      3994      3995      3994      3996      3995      3996
      3997      3998      3997      3999      3998      3999      4000      4001
      4000      4002      4001      4002      4003      4004      4003      4005
      4004      4005      4006      4007      4006      4008      4007      4008
      4009      4010      4009      4011      4010      4011      4012      4013
      4012      4014      4013      4014      4015      4016      4015      4017
      4016      4017      4018      4019      4018      4020      4019      4020
      4021      4022      4021      4023      4022      4023      4024      4025
      4024      4026      4025      4026      4027      4028      4027      4029
      4028      4029      4030      4031      4030      4032      4031      4032
      4033      4034      4033      4035      4034      4035      4036      4037
      4036      4038      4037      4038      4039      4040      4039      4041
      4040      4041      4042      4043      4042      4044      4043      4044
      4045      4046      4045      4047      4046      4047      4048      4049
      4048      4050      4049      4050      4051      4052      4051      4053
      4052      4053      4054      4055      4054      4056      4055      4056
      4057      4058      4057      4059      4058      4059      4060      4061
      4060      4062      4061      4062      4063      4064      4063      4065
      4064      4065      4066      4067      4066      4068      4067      4068
      4069      4070      4069      4071      4070      4071      4072      4073
      4072      4074      4073      4074      4075      4076      4075      4077
      4076      4077      4078      4079      4078      4080      4079      4080
      4081      4082      4081      4083      4082      4083      4084      4085
      4084      4086      4085      4086      4087      4088      4087      4089
      4088      4089      4090      4091      4090      4092      4091      4092
      4093      4094      4093      4095      4094      4095      4096      4097
      4096      4098      4097      4098      4099      4100      4099      4101
      4100      4101      4102      4103      4102      4104      4103      4104
      4105      4106      4105      4107      4106      4107      4108      4109
      4108      4110      4109      4110      4111      4112      4111      4113
      4112      4113      4114      4115      4114      4116      4115      4116
      4117      4118      4117      4119      4118      4119      4120      4121
      4120      4122      4121      4122      4123      4124      4123      4125
      4124      4125      4126      4127      4126      4128      4127      4128
      4129      4130      4129      4131      4130      4131      4132      4133
      4132      4134      4133      4134      4135      4136      4135      4137
      4136      4137      4138      4139      4138      4140      4139      4140
      4141      4142      4141      4143      4142      4143      4144      4145
      4144      4146      4145      4146      4147      4148      4147      4149
      4148      4149      4150      4151      4150      4152      4151      4152
      4153      4154      4153      4155      4154      4155      4156      4157
      4156      4158      4157      4158      4159      4160      4159      4161
      4160      4161      4162      4163      4162      4164      4163      4164
      4165      4166      4165      4167      4166      4167      4168      4169
      4168      4170      4169      4170      4171      4172      4171      4173
      4172      4173      4174      4175      4174      4176      4175      4176
      4177      4178      4177      4179      4178      4179      4180      4181
      4180      4182      4181      4182      4183      4184      4183      4185
      4184      4185      4186      4187      4186      4188      4187      4188
      4189      4190      4189      4191      4190      4191      4192      4193
      4192      4194      4193      4194      4195      4196      4195      4197
      4196      4197      4198      4199      4198      4200      4199      4200
      4201      4202      4201      4203      4202      4203      4204      4205
      4204      4206      4205      4206      4207      4208      4207      4209
      4208      4209      4210      4211      4210      4212      4211      4212
      4213      4214      4213      4215      4214      4215      4216      4217
      4216      4218      4217      4218      4219      4220      4219      4221
      4220      4221      4222      4223      4222      4224      4223      4224
      4225      4226      4225      4227      4226      4227      4228      4229
      4228      4230      4229      4230      4231      4232      4231      4233
      4232      4233      4234      4235      4234      4236      4235      4236
      4237      4238      4237      4239      4238      4239      4240      4241
      4240      4242      4241      4242      4243      4244      4243      4245
      4244      4245      4246      4247      4246      4248      4247      4248
      4249      4250      4249      4251      4250      4251      4252      4253
      4252      4254      4253      4254      4255      4256      4255      4257
      4256      4257      4258      4259      4258      4260      4259      4260
      4261      4262      4261      4263      4262      4263      4264      4265
      4264      4266      4265      4266      4267      4268      4267      4269
      4268      4269      4270      4271      4270      4272      4271      4272
      4273      4274      4273      4275      4274      4275      4276      4277
      4276      4278      4277      4278      4279      4280      4279      4281
      4280      4281      4282      4283      4282      4284      4283      4284
      4285      4286      4285      4287      4286      4287      4288      4289
      4288      4290      4289      4290      4291      4292      4291      4293
      4292      4293      4294      4295      4294      4296      4295      4296
      4297      4298      4297      4299      4298      4299      4300      4301
      4300      4302      4301      4302      4303      4304      4303      4305
      4304      4305      4306      4307      4306      4308      4307      4308
      4309      4310      4309      4311      4310      4311      4312      4313
      4312      4314      4313      4314      4315      4316      4315      4317
      4316      4317      4318      4319      4318      4320      4319      4320
      4321      4322      4321      4323      4322      4323      4324      4325
      4324      4326      4325      4326      4327      4328      4327      4329
      4328      4329      4330      4331      4330      4332      4331      4332
      4333      4334      4333      4335      4334      4335      4336      4337
      4336      4338      4337      4338      4339      4340      4339      4341
      4340      4341      4342      4343      4342      4344      4343      4344
      4345      4346      4345      4347      4346      4347      4348      4349
      4348      4350      4349      4350      4351      4352      4351      4353
      4352      4353      4354      4355      4354      4356      4355      4356
      4357      4358      4357      4359      4358      4359      4360      4361
      4360      4362      4361      4362      4363      4364      4363      4365
      4364      4365      4366      4367      4366      4368      4367      4368
      4369      4370      4369      4371      4370      4371      4372      4373
      4372      4374      4373      4374      4375      4376      4375      4377
      4376      4377      4378      4379      4378      4380      4379      4380
      4381      4382      4381      4383      4382      4383      4384      4385
      4384      4386      4385      4386      4387      4388      4387      4389
      4388      4389      4390      4391      4390      4392      4391      4392
      4393      4394      4393      4395      4394      4395      4396      4397
      4396      4398      4397      4398      4399      4400      4399      4401
      4400      4401      4402      4403      4402      4404      4403      4404
      4405      4406      4405      4407      4406      4407      4408      4409
      4408      4410      4409      4410      4411      4412      4411      4413
      4412      4413      4414      4415      4414      4416      4415      4416
      4417      4418      4417      4419      4418      4419      4420      4421
      4420      4422      4421      4422      4423      4424      4423      4425
      4424      4425      4426      4427      4426      4428      4427      4428
      4429      4430      4429      4431      4430      4431      4432      4433
      4432      4434      4433      4434      4435      4436      4435      4437
      4436      4437      4438      4439      4438      4440      4439      4440
      4441      4442      4441      4443      4442      4443      4444      4445
      4444      4446      4445      4446      4447      4448      4447      4449
      4448      4449      4450      4451      4450      4452      4451      4452
      4453      4454      4453      4455      4454      4455      4456      4457
      4456      4458      4457      4458      4459      4460      4459      4461
      4460      4461      4462      4463      4462      4464      4463      4464
      4465      4466      4465      4467      4466      4467      4468      4469
      4468      4470      4469      4470      4471      4472      4471      4473
      4472      4473      4474      4475      4474      4476      4475      4476
      4477      4478      4477      4479      4478      4479      4480      4481
      4480      4482      4481      4482      4483      4484      4483      4485
      4484      4485      4486      4487      4486      4488      4487      4488
      4489      4490      4489      4491      4490      4491      4492      4493
      4492      4494      4493      4494      4495      4496      4495      4497
      4496      4497      4498      4499      4498      4500      4499      4500
      4501      4502      4501      4503      4502      4503      4504      4505
      4504      4506      4505      4506      4507      4508      4507      4509
      4508      4509      4510      4511      4510      4512      4511      4512
      4513      4514      4513      4515      4514      4515      4516      4517
      4516      4518      4517      4518      4519      4520      4519      4521
      4520      4521      4522      4523      4522      4524      4523      4524
      4525      4526      4525      4527      4526      4527      4528      4529
      4528      4530      4529      4530      4531      4532      4531      4533
      4532      4533      4534      4535      4534      4536      4535      4536
      4537      4538      4537      4539      4538      4539      4540      4541
      4540      4542      4541      4542      4543      4544      4543      4545
      4544      4545      4546      4547      4546      4548      4547      4548
      4549      4550      4549      4551      4550      4551      4552      4553
      4552      4554      4553      4554      4555      4556      4555      4557
      4556      4557      4558      4559      4558      4560      4559      4560
      4561      4562      4561      4563      4562      4563      4564      4565
      4564      4566      4565      4566      4567      4568      4567      4569
      4568      4569      4570      4571      4570      4572      4571      4572
      4573      4574      4573      4575      4574      4575      4576      4577
      4576      4578      4577      4578      4579      4580      4579      4581
      4580      4581      4582      4583      4582      4584      4583      4584
      4585      4586      4585      4587      4586      4587      4588      4589
      4588      4590      4589      4590      4591      4592      4591      4593
      4592      4593      4594      4595      4594      4596      4595      4596
      4597      4598      4597      4599      4598      4599      4600      4601
      4600      4602      4601      4602      4603      4604      4603      4605
      4604      4605      4606      4607      4606      4608      4607      4608
      4609      4610      4609      4611      4610      4611      4612      4613
      4612      4614      4613      4614      4615      4616      4615      4617
      4616      4617      4618      4619      4618      4620      4619      4620
      4621      4622      4621      4623      4622      4623      4624      4625
      4624      4626      4625      4626      4627      4628      4627      4629
      4628      4629      4630      4631      4630      4632      4631      4632
      4633      4634      4633      4635      4634      4635      4636      4637
      4636      4638      4637      4638      4639      4640      4639      4641
      4640      4641      4642      4643      4642      4644      4643      4644
      4645      4646      4645      4647      4646      4647      4648      4649
      4648      4650      4649      4650      4651      4652      4651      4653
      4652      4653      4654      4655      4654      4656      4655      4656
      4657      4658      4657      4659      4658      4659      4660      4661
      4660      4662      4661      4662      4663      4664      4663      4665
      4664      4665      4666      4667      4666      4668      4667      4668
      4669      4670      4669      4671      4670      4671      4672      4673
      4672      4674      4673      4674      4675      4676      4675      4677
      4676      4677      4678      4679      4678      4680      4679      4680
      4681      4682      4681      4683      4682      4683      4684      4685
      4684      4686      4685      4686      4687      4688      4687      4689
      4688      4689      4690      4691      4690      4692      4691      4692
      4693      4694      4693      4695      4694      4695      4696      4697
      4696      4698      4697      4698      4699      4700      4699      4701
      4700      4701      4702      4703      4702      4704      4703      4704
      4705      4706      4705      4707      4706      4707      4708      4709
      4708      4710      4709      4710      4711      4712      4711      4713
      4712      4713      4714      4715      4714      4716      4715      4716
      4717      4718      4717      4719      4718      4719      4720      4721
      4720      4722      4721      4722      4723      4724      4723      4725
      4724      4725      4726      4727      4726      4728      4727      4728
      4729      4730      4729      4731      4730      4731      4732      4733
      4732      4734      4733      4734      4735      4736      4735      4737
      4736      4737      4738      4739      4738      4740      4739      4740
      4741      4742      4741      4743      4742      4743      4744      4745
      4744      4746      4745      4746      4747      4748      4747      4749
      4748      4749      4750      4751      4750      4752      4751      4752
      4753      4754      4753      4755      4754      4755      4756      4757
      4756      4758      4757      4758      4759      4760      4759      4761
      4760      4761      4762      4763      4762      4764      4763      4764
      4765      4766      4765      4767      4766      4767      4768      4769
      4768      4770      4769      4770      4771      4772      4771      4773
      4772      4773      4774      4775      4774      4776      4775      4776
      4777      4778      4777      4779      4778      4779      4780      4781
      4780      4782      4781      4782      4783      4784      4783      4785
      4784      4785      4786      4787      4786      4788      4787      4788
      4789      4790      4789      4791      4790      4791      4792      4793
      4792      4794      4793      4794      4795      4796      4795      4797
      4796      4797      4798      4799      4798      4800      4799      4800
      4801      4802      4801      4803      4802      4803      4804      4805
      4804      4806      4805      4806      4807      4808      4807      4809
      4808      4809      4810      4811      4810      4812      4811      4812
      4813      4814      4813      4815      4814      4815      4816      4817
      4816      4818      4817      4818      4819      4820      4819      4821
      4820      4821      4822      4823      4822      4824      4823      4824
      4825      4826      4825      4827      4826      4827      4828      4829
      4828      4830      4829      4830      4831      4832      4831      4833
      4832      4833      4834      4835      4834      4836      4835      4836
      4837      4838      4837      4839      4838      4839      4840      4841
      4840      4842      4841      4842      4843      4844      4843      4845
      4844      4845      4846      4847      4846      4848      4847      4848
      4849      4850      4849      4851      4850      4851      4852      4853
      4852      4854      4853      4854      4855      4856      4855      4857
      4856      4857      4858      4859      4858      4860      4859      4860
      4861      4862      4861      4863      4862      4863      4864      4865
      4864      4866      4865      4866      4867      4868      4867      4869
      4868      4869      4870      4871      4870      4872      4871      4872
      4873      4874      4873      4875      4874      4875      4876      4877
      4876      4878      4877      4878      4879      4880      4879      4881
      4880      4881      4882      4883      4882      4884      4883      4884
      4885      4886      4885      4887      4886      4887      4888      4889
      4888      4890      4889      4890      4891      4892      4891      4893
      4892      4893      4894      4895      4894      4896      4895      4896
      4897      4898      4897      4899      4898      4899      4900      4901
      4900      4902      4901      4902      4903      4904      4903      4905
      4904      4905      4906      4907      4906      4908      4907      4908
      4909      4910      4909      4911      4910      4911      4912      4913
      4912      4914      4913      4914      4915      4916      4915      4917
      4916      4917      4918      4919      4918      4920      4919      4920
      4921      4922      4921      4923      4922      4923      4924      4925
      4924      4926      4925      4926      4927      4928      4927      4929
      4928      4929      4930      4931      4930      4932      4931      4932
      4933      4934      4933      4935      4934      4935      4936      4937
      4936      4938      4937      4938      4939      4940      4939      4941
      4940      4941      4942      4943      4942      4944      4943      4944
      4945      4946      4945      4947      4946      4947      4948      4949
      4948      4950      4949      4950      4951      4952      4951      4953
      4952      4953      4954      4955      4954      4956      4955      4956
      4957      4958      4957      4959      4958      4959      4960      4961
      4960      4962      4961      4962      4963      4964      4963      4965
      4964      4965      4966      4967      4966      4968      4967      4968
      4969      4970      4969      4971      4970      4971      4972      4973
      4972      4974      4973      4974      4975      4976      4975      4977
      4976      4977      4978      4979      4978      4980      4979      4980
      4981      4982      4981      4983      4982      4983      4984      4985
      4984      4986      4985      4986      4987      4988      4987      4989
      4988      4989      4990      4991      4990      4992      4991      4992
      4993      4994      4993      4995      4994      4995      4996      4997
      4996      4998      4997      4998      4999      5000      4999      5001
      5000      5001      5002      5003      5002      5004      5003      5004
      5005      5006      5005      5007      5006      5007      5008      5009
      5008      5010      5009      5010      5011      5012      5011      5013
      5012      5013      5014      5015      5014      5016      5015      5016
      5017      5018      5017      5019      5018      5019      5020      5021
      5020      5022      5021      5022      5023      5024      5023      5025
      5024      5025      5026      5027      5026      5028      5027      5028
      5029      5030      5029      5031      5030      5031      5032      5033
      5032      5034      5033      5034      5035      5036      5035      5037
      5036      5037      5038      5039      5038      5040      5039      5040
      5041      5042      5041      5043      5042      5043      5044      5045
      5044      5046      5045      5046      5047      5048      5047      5049
      5048      5049      5050      5051      5050      5052      5051      5052
      5053      5054      5053      5055      5054      5055      5056      5057
      5056      5058      5057      5058      5059      5060      5059      5061
      5060      5061      5062      5063      5062      5064      5063      5064
      5065      5066      5065      5067      5066      5067      5068      5069
      5068      5070      5069      5070      5071      5072      5071      5073
      5072      5073      5074      5075      5074      5076      5075      5076
      5077      5078      5077      5079      5078      5079      5080      5081
      5080      5082      5081      5082      5083      5084      5083      5085
      5084      5085      5086      5087      5086      5088      5087      5088
      5089      5090      5089      5091      5090      5091      5092      5093
      5092      5094      5093      5094      5095      5096      5095      5097
      5096      5097      5098      5099      5098      5100      5099      5100
      5101      5102      5101      5103      5102      5103      5104      5105
      5104      5106      5105      5106      5107      5108      5107      5109
      5108      5109      5110      5111      5110      5112      5111      5112
      5113      5114      5113      5115      5114      5115      5116      5117
      5116      5118      5117      5118      5119      5120      5119      5121
      5120      5121      5122      5123      5122      5124      5123      5124
      5125      5126      5125      5127      5126      5127      5128      5129
      5128      5130      5129      5130      5131      5132      5131      5133
      5132      5133      5134      5135      5134      5136      5135      5136
      5137      5138      5137      5139      5138      5139      5140      5141
      5140      5142      5141      5142      5143      5144      5143      5145
      5144      5145      5146      5147      5146      5148      5147      5148
      5149      5150      5149      5151      5150      5151      5152      5153
      5152      5154      5153      5154      5155      5156      5155      5157
      5156      5157      5158      5159      5158      5160      5159      5160
      5161      5162      5161      5163      5162      5163      5164      5165
      5164      5166      5165      5166      5167      5168      5167      5169
      5168      5169      5170      5171      5170      5172      5171      5172
      5173      5174      5173      5175      5174      5175      5176      5177
      5176      5178      5177      5178      5179      5180      5179      5181
      5180      5181      5182      5183      5182      5184      5183      5184
      5185      5186      5185      5187      5186      5187      5188      5189
      5188      5190      5189      5190      5191      5192      5191      5193
      5192      5193      5194      5195      5194      5196      5195      5196
      5197      5198      5197      5199      5198      5199      5200      5201
      5200      5202      5201      5202      5203      5204      5203      5205
      5204      5205      5206      5207      5206      5208      5207      5208
      5209      5210      5209      5211      5210      5211      5212      5213
      5212      5214      5213      5214      5215      5216      5215      5217
      5216      5217      5218      5219      5218      5220      5219      5220
      5221      5222      5221      5223      5222      5223      5224      5225
      5224      5226      5225      5226      5227      5228      5227      5229
      5228      5229      5230      5231      5230      5232      5231      5232
      5233      5234      5233      5235      5234      5235      5236      5237
      5236      5238      5237      5238      5239      5240      5239      5241
      5240      5241      5242      5243      5242      5244      5243      5244
      5245      5246      5245      5247      5246      5247      5248      5249
      5248      5250      5249      5250      5251      5252      5251      5253
      5252      5253      5254      5255      5254      5256      5255      5256
      5257      5258      5257      5259      5258      5259      5260      5261
      5260      5262      5261      5262      5263      5264      5263      5265
      5264      5265      5266      5267      5266      5268      5267      5268
      5269      5270      5269      5271      5270      5271      5272      5273
      5272      5274      5273      5274      5275      5276      5275      5277
      5276      5277      5278      5279      5278      5280      5279      5280
      5281      5282      5281      5283      5282      5283      5284      5285
      5284      5286      5285      5286      5287      5288      5287      5289
      5288      5289      5290      5291      5290      5292      5291      5292
      5293      5294      5293      5295      5294      5295      5296      5297
      5296      5298      5297      5298      5299      5300      5299      5301
      5300      5301      5302      5303      5302      5304      5303      5304
      5305      5306      5305      5307      5306      5307      5308      5309
      5308      5310      5309      5310      5311      5312      5311      5313
      5312      5313      5314      5315      5314      5316      5315      5316
      5317      5318      5317      5319      5318      5319      5320      5321
      5320      5322      5321      5322      5323      5324      5323      5325
      5324      5325      5326      5327      5326      5328      5327      5328
      5329      5330      5329      5331      5330      5331      5332      5333
      5332      5334      5333      5334      5335      5336      5335      5337
      5336      5337      5338      5339      5338      5340      5339      5340
      5341      5342      5341      5343      5342      5343      5344      5345
      5344      5346      5345      5346      5347      5348      5347      5349
      5348      5349      5350      5351      5350      5352      5351      5352
      5353      5354      5353      5355      5354      5355      5356      5357
      5356      5358      5357      5358      5359      5360      5359      5361
      5360      5361      5362      5363      5362      5364      5363      5364
      5365      5366      5365      5367      5366      5367      5368      5369
      5368      5370      5369      5370      5371      5372      5371      5373
      5372      5373      5374      5375      5374      5376      5375      5376
      5377      5378      5377      5379      5378      5379      5380      5381
      5380      5382      5381      5382      5383      5384      5383      5385
      5384      5385      5386      5387      5386      5388      5387      5388
      5389      5390      5389      5391      5390      5391      5392      5393
      5392      5394      5393      5394      5395      5396      5395      5397
      5396      5397      5398      5399      5398      5400      5399      5400
      5401      5402      5401      5403      5402      5403      5404      5405
      5404      5406      5405      5406      5407      5408      5407      5409
      5408      5409      5410      5411      5410      5412      5411      5412
      5413      5414      5413      5415      5414      5415      5416      5417
      5416      5418      5417      5418      5419      5420      5419      5421
      5420      5421      5422      5423      5422      5424      5423      5424
      5425      5426      5425      5427      5426      5427      5428      5429
      5428      5430      5429      5430      5431      5432      5431      5433
      5432      5433      5434      5435      5434      5436      5435      5436
      5437      5438      5437      5439      5438      5439      5440      5441
      5440      5442      5441      5442      5443      5444      5443      5445
      5444      5445      5446      5447      5446      5448      5447      5448
      5449      5450      5449      5451      5450      5451      5452      5453
      5452      5454      5453      5454      5455      5456      5455      5457
      5456      5457      5458      5459      5458      5460      5459      5460
      5461      5462      5461      5463      5462      5463      5464      5465
      5464      5466      5465      5466      5467      5468      5467      5469
      5468      5469      5470      5471      5470      5472      5471      5472
      5473      5474      5473      5475      5474      5475      5476      5477
      5476      5478      5477      5478      5479      5480      5479      5481
      5480      5481      5482      5483      5482      5484      5483      5484
      5485      5486      5485      5487      5486      5487      5488      5489
      5488      5490      5489      5490      5491      5492      5491      5493
      5492      5493      5494      5495      5494      5496      5495      5496
      5497      5498      5497      5499      5498      5499      5500      5501
      5500      5502      5501      5502      5503      5504      5503      5505
      5504      5505      5506      5507      5506      5508      5507      5508
      5509      5510      5509      5511      5510      5511      5512      5513
      5512      5514      5513      5514      5515      5516      5515      5517
      5516      5517      5518      5519      5518      5520      5519      5520
      5521      5522      5521      5523      5522      5523      5524      5525
      5524      5526      5525      5526      5527      5528      5527      5529
      5528      5529      5530      5531      5530      5532      5531      5532
      5533      5534      5533      5535      5534      5535      5536      5537
      5536      5538      5537      5538      5539      5540      5539      5541
      5540      5541      5542      5543      5542      5544      5543      5544
      5545      5546      5545      5547      5546      5547      5548      5549
      5548      5550      5549      5550      5551      5552      5551      5553
      5552      5553      5554      5555      5554      5556      5555      5556
      5557      5558      5557      5559      5558      5559      5560      5561
      5560      5562      5561      5562      5563      5564      5563      5565
      5564      5565      5566      5567      5566      5568      5567      5568
      5569      5570      5569      5571      5570      5571      5572      5573
      5572      5574      5573      5574      5575      5576      5575      5577
      5576      5577      5578      5579      5578      5580      5579      5580
      5581      5582      5581      5583      5582      5583      5584      5585
      5584      5586      5585      5586      5587      5588      5587      5589
      5588      5589      5590      5591      5590      5592      5591      5592
      5593      5594      5593      5595      5594      5595      5596      5597
      5596      5598      5597      5598      5599      5600      5599      5601
      5600      5601      5602      5603      5602      5604      5603      5604
      5605      5606      5605      5607      5606      5607      5608      5609
      5608      5610      5609      5610      5611      5612      5611      5613
      5612      5613      5614      5615      5614      5616      5615      5616
      5617      5618      5617      5619      5618      5619      5620      5621
      5620      5622      5621      5622      5623      5624      5623      5625
      5624      5625      5626      5627      5626      5628      5627      5628
      5629      5630      5629      5631      5630      5631      5632      5633
      5632      5634      5633      5634      5635      5636      5635      5637
      5636      5637      5638      5639      5638      5640      5639      5640
      5641      5642      5641      5643      5642      5643      5644      5645
      5644      5646      5645      5646      5647      5648      5647      5649
      5648      5649      5650      5651      5650      5652      5651      5652
      5653      5654      5653      5655      5654      5655      5656      5657
      5656      5658      5657      5658      5659      5660      5659      5661
      5660      5661      5662      5663      5662      5664      5663      5664
      5665      5666      5665      5667      5666      5667      5668      5669
      5668      5670      5669      5670      5671      5672      5671      5673
      5672      5673      5674      5675      5674      5676      5675      5676
      5677      5678      5677      5679      5678      5679      5680      5681
      5680      5682      5681      5682      5683      5684      5683      5685
      5684      5685      5686      5687      5686      5688      5687      5688
      5689      5690      5689      5691      5690      5691      5692      5693
      5692      5694      5693      5694      5695      5696      5695      5697
      5696      5697      5698      5699      5698      5700      5699      5700
      5701      5702      5701      5703      5702      5703      5704      5705
      5704      5706      5705      5706      5707      5708      5707      5709
      5708      5709      5710      5711      5710      5712      5711      5712
      5713      5714      5713      5715      5714      5715      5716      5717
      5716      5718      5717      5718      5719      5720      5719      5721
      5720      5721      5722      5723      5722      5724      5723      5724
      5725      5726      5725      5727      5726      5727      5728      5729
      5728      5730      5729      5730      5731      5732      5731      5733
      5732      5733      5734      5735      5734      5736      5735      5736
      5737      5738      5737      5739      5738      5739      5740      5741
      5740      5742      5741      5742      5743      5744      5743      5745
      5744      5745      5746      5747      5746      5748      5747      5748
      5749      5750      5749      5751      5750      5751      5752      5753
      5752      5754      5753      5754      5755      5756      5755      5757
      5756      5757      5758      5759      5758      5760      5759      5760
      5761      5762      5761      5763      5762      5763      5764      5765
      5764      5766      5765      5766      5767      5768      5767      5769
      5768      5769      5770      5771      5770      5772      5771      5772
      5773      5774      5773      5775      5774      5775      5776      5777
      5776      5778      5777      5778      5779      5780      5779      5781
      5780      5781      5782      5783      5782      5784      5783      5784
      5785      5786      5785      5787      5786      5787      5788      5789
      5788      5790      5789      5790      5791      5792      5791      5793
      5792      5793      5794      5795      5794      5796      5795      5796
      5797      5798      5797      5799      5798      5799      5800      5801
      5800      5802      5801      5802      5803      5804      5803      5805
      5804      5805      5806      5807      5806      5808      5807      5808
      5809      5810      5809      5811      5810      5811      5812      5813
      5812      5814      5813      5814      5815      5816      5815      5817
      5816      5817      5818      5819      5818      5820      5819      5820
      5821      5822      5821      5823      5822      5823      5824      5825
      5824      5826      5825      5826      5827      5828      5827      5829
      5828      5829      5830      5831      5830      5832      5831      5832
      5833      5834      5833      5835      5834      5835      5836      5837
      5836      5838      5837      5838      5839      5840      5839      5841
      5840      5841      5842      5843      5842      5844      5843      5844
      5845      5846      5845      5847      5846      5847      5848      5849
      5848      5850      5849      5850      5851      5852      5851      5853
      5852      5853      5854      5855      5854      5856      5855      5856
      5857      5858      5857      5859      5858      5859      5860      5861
      5860      5862      5861      5862      5863      5864      5863      5865
      5864      5865      5866      5867      5866      5868      5867      5868
      5869      5870      5869      5871      5870      5871      5872      5873
      5872      5874      5873      5874      5875      5876      5875      5877
      5876      5877      5878      5879      5878      5880      5879      5880
      5881      5882      5881      5883      5882      5883      5884      5885
      5884      5886      5885      5886      5887      5888      5887      5889
      5888      5889      5890      5891      5890      5892      5891      5892
      5893      5894      5893      5895      5894      5895      5896      5897
      5896      5898      5897      5898      5899      5900      5899      5901
      5900      5901      5902      5903      5902      5904      5903      5904
      5905      5906      5905      5907      5906      5907      5908      5909
      5908      5910      5909      5910      5911      5912      5911      5913
      5912      5913      5914      5915      5914      5916      5915      5916
      5917      5918      5917      5919      5918      5919      5920      5921
      5920      5922      5921      5922      5923      5924      5923      5925
      5924      5925      5926      5927      5926      5928      5927      5928
      5929      5930      5929      5931      5930      5931      5932      5933
      5932      5934      5933      5934      5935      5936      5935      5937
      5936      5937      5938      5939      5938      5940      5939      5940
      5941      5942      5941      5943      5942      5943      5944      5945
      5944      5946      5945      5946      5947      5948      5947      5949
      5948      5949      5950      5951      5950      5952      5951      5952
      5953      5954      5953      5955      5954      5955      5956      5957
      5956      5958      5957      5958      5959      5960      5959      5961
      5960      5961      5962      5963      5962      5964      5963      5964
      5965      5966      5965      5967      5966      5967      5968      5969
      5968      5970      5969      5970      5971      5972      5971      5973
      5972      5973      5974      5975      5974      5976      5975      5976
      5977      5978      5977      5979      5978      5979      5980      5981
      5980      5982      5981      5982      5983      5984      5983      5985
      5984      5985      5986      5987      5986      5988      5987      5988
      5989      5990      5989      5991      5990      5991      5992      5993
      5992      5994      5993      5994      5995      5996      5995      5997
      5996      5997      5998      5999      5998      6000      5999      6000
      6001      6002      6001      6003      6002      6003      6004      6005
      6004      6006      6005      6006      6007      6008      6007      6009
      6008      6009      6010      6011      6010      6012      6011      6012
      6013      6014      6013      6015      6014      6015      6016      6017
      6016      6018      6017      6018      6019      6020      6019      6021
      6020      6021      6022      6023      6022      6024      6023      6024
      6025      6026      6025      6027      6026      6027      6028      6029
      6028      6030      6029      6030      6031      6032      6031      6033
      6032      6033      6034      6035      6034      6036      6035      6036
      6037      6038      6037      6039      6038      6039      6040      6041
      6040      6042      6041      6042      6043      6044      6043      6045
      6044      6045      6046      6047      6046      6048      6047      6048
      6049      6050      6049      6051      6050      6051      6052      6053
      6052      6054      6053      6054      6055      6056      6055      6057
      6056      6057      6058      6059      6058      6060      6059      6060
      6061      6062      6061      6063      6062      6063      6064      6065
      6064      6066      6065      6066      6067      6068      6067      6069
      6068      6069      6070      6071      6070      6072      6071      6072
      6073      6074      6073      6075      6074      6075      6076      6077
      6076      6078      6077      6078      6079      6080      6079      6081
      6080      6081      6082      6083      6082      6084      6083      6084
      6085      6086      6085      6087      6086      6087      6088      6089
      6088      6090      6089      6090      6091      6092      6091      6093
      6092      6093      6094      6095      6094      6096      6095      6096
      6097      6098      6097      6099      6098      6099      6100      6101
      6100      6102      6101      6102      6103      6104      6103      6105
      6104      6105      6106      6107      6106      6108      6107      6108
      6109      6110      6109      6111      6110      6111      6112      6113
      6112      6114      6113      6114      6115      6116      6115      6117
      6116      6117      6118      6119      6118      6120      6119      6120
      6121      6122      6121      6123      6122      6123      6124      6125
      6124      6126      6125      6126      6127      6128      6127      6129
      6128      6129      6130      6131      6130      6132      6131      6132
      6133      6134      6133      6135      6134      6135      6136      6137
      6136      6138      6137      6138      6139      6140      6139      6141
      6140      6141      6142      6143      6142      6144      6143      6144
      6145      6146      6145      6147      6146      6147      6148      6149
      6148      6150      6149      6150      6151      6152      6151      6153
      6152      6153      6154      6155      6154      6156      6155      6156
      6157      6158      6157      6159      6158      6159      6160      6161
      6160      6162      6161      6162      6163      6164      6163      6165
      6164      6165      6166      6167      6166      6168      6167      6168
      6169      6170      6169      6171      6170      6171      6172      6173
      6172      6174      6173      6174      6175      6176      6175      6177
      6176      6177      6178      6179      6178      6180      6179      6180
      6181      6182      6181      6183      6182      6183      6184      6185
      6184      6186      6185      6186      6187      6188      6187      6189
      6188      6189      6190      6191      6190      6192      6191      6192
      6193      6194      6193      6195      6194      6195      6196      6197
      6196      6198      6197      6198      6199      6200      6199      6201
      6200      6201      6202      6203      6202      6204      6203      6204
      6205      6206      6205      6207      6206      6207      6208      6209
      6208      6210      6209      6210      6211      6212      6211      6213
      6212      6213      6214      6215      6214      6216      6215      6216
      6217      6218      6217      6219      6218      6219      6220      6221
      6220      6222      6221      6222      6223      6224      6223      6225
      6224      6225      6226      6227      6226      6228      6227      6228
      6229      6230      6229      6231      6230      6231      6232      6233
      6232      6234      6233      6234      6235      6236      6235      6237
      6236      6237      6238      6239      6238      6240      6239      6240
      6241      6242      6241      6243      6242      6243      6244      6245
      6244      6246      6245      6246      6247      6248      6247      6249
      6248      6249      6250      6251      6250      6252      6251      6252
      6253      6254      6253      6255      6254      6255      6256      6257
      6256      6258      6257      6258      6259      6260      6259      6261
      6260      6261      6262      6263      6262      6264      6263      6264
      6265      6266      6265      6267      6266      6267      6268      6269
      6268      6270      6269      6270      6271      6272      6271      6273
      6272      6273      6274      6275      6274      6276      6275      6276
      6277      6278      6277      6279      6278      6279      6280      6281
      6280      6282      6281      6282      6283      6284      6283      6285
      6284      6285      6286      6287      6286      6288      6287      6288
      6289      6290      6289      6291      6290      6291      6292      6293
      6292      6294      6293      6294      6295      6296      6295      6297
      6296      6297      6298      6299      6298      6300      6299      6300
      6301      6302      6301      6303      6302      6303      6304      6305
      6304      6306      6305      6306      6307      6308      6307      6309
      6308      6309      6310      6311      6310      6312      6311      6312
      6313      6314      6313      6315      6314      6315      6316      6317
      6316      6318      6317      6318      6319      6320      6319      6321
      6320      6321      6322      6323      6322      6324      6323      6324
      6325      6326      6325      6327      6326      6327      6328      6329
      6328      6330      6329      6330      6331      6332      6331      6333
      6332      6333      6334      6335      6334      6336      6335      6336
      6337      6338      6337      6339      6338      6339      6340      6341
      6340      6342      6341      6342      6343      6344      6343      6345
      6344      6345      6346      6347      6346      6348      6347      6348
      6349      6350      6349      6351      6350      6351      6352      6353
      6352      6354      6353      6354      6355      6356      6355      6357
      6356      6357      6358      6359      6358      6360      6359      6360
      6361      6362      6361      6363      6362      6363      6364      6365
      6364      6366      6365      6366      6367      6368      6367      6369
      6368      6369      6370      6371      6370      6372      6371      6372
      6373      6374      6373      6375      6374      6375      6376      6377
      6376      6378      6377      6378      6379      6380      6379      6381
      6380      6381      6382      6383      6382      6384      6383      6384
      6385      6386      6385      6387      6386      6387      6388      6389
      6388      6390      6389      6390      6391      6392      6391      6393
      6392      6393      6394      6395      6394      6396      6395      6396
      6397      6398      6397      6399      6398      6399      6400      6401
      6400      6402      6401      6402      6403      6404      6403      6405
      6404      6405      6406      6407      6406      6408      6407      6408
      6409      6410      6409      6411      6410      6411      6412      6413
      6412      6414      6413      6414      6415      6416      6415      6417
      6416      6417      6418      6419      6418      6420      6419      6420
      6421      6422      6421      6423      6422      6423      6424      6425
      6424      6426      6425      6426      6427      6428      6427      6429
      6428      6429      6430      6431      6430      6432      6431      6432
      6433      6434      6433      6435      6434      6435      6436      6437
      6436      6438      6437      6438      6439      6440      6439      6441
      6440      6441      6442      6443      6442      6444      6443      6444
      6445      6446      6445      6447      6446      6447      6448      6449
      6448      6450      6449      6450      6451      6452      6451      6453
      6452      6453      6454      6455      6454      6456      6455      6456
      6457      6458      6457      6459      6458      6459      6460      6461
      6460      6462      6461      6462      6463      6464      6463      6465
      6464      6465      6466      6467      6466      6468      6467      6468
      6469      6470      6469      6471      6470      6471      6472      6473
      6472      6474      6473      6474      6475      6476      6475      6477
      6476      6477      6478      6479      6478      6480      6479      6480
      6481      6482      6481      6483      6482      6483      6484      6485
      6484      6486      6485      6486      6487      6488      6487      6489
      6488      6489      6490      6491      6490      6492      6491      6492
      6493      6494      6493      6495      6494      6495      6496      6497
      6496      6498      6497      6498      6499      6500      6499      6501
      6500      6501      6502      6503      6502      6504      6503      6504
      6505      6506      6505      6507      6506      6507      6508      6509
      6508      6510      6509      6510      6511      6512      6511      6513
      6512      6513      6514      6515      6514      6516      6515      6516
      6517      6518      6517      6519      6518      6519      6520      6521
      6520      6522      6521      6522      6523      6524      6523      6525
      6524      6525      6526      6527      6526      6528      6527      6528
      6529      6530      6529      6531      6530      6531      6532      6533
      6532      6534      6533      6534      6535      6536      6535      6537
      6536      6537      6538      6539      6538      6540      6539      6540
      6541      6542      6541      6543      6542      6543      6544      6545
      6544      6546      6545      6546      6547      6548      6547      6549
      6548      6549      6550      6551      6550      6552      6551      6552
      6553      6554      6553      6555      6554      6555      6556      6557
      6556      6558      6557      6558      6559      6560      6559      6561
      6560      6561      6562      6563      6562      6564      6563      6564
      6565      6566      6565      6567      6566      6567      6568      6569
      6568      6570      6569      6570      6571      6572      6571      6573
      6572      6573      6574      6575      6574      6576      6575      6576
      6577      6578      6577      6579      6578      6579      6580      6581
      6580      6582      6581      6582      6583      6584      6583      6585
      6584      6585      6586      6587      6586      6588      6587      6588
      6589      6590      6589      6591      6590      6591      6592      6593
      6592      6594      6593      6594      6595      6596      6595      6597
      6596      6597      6598      6599      6598      6600      6599      6600
      6601      6602      6601      6603      6602      6603      6604      6605
      6604      6606      6605      6606      6607      6608      6607      6609
      6608      6609      6610      6611      6610      6612      6611      6612
      6613      6614      6613      6615      6614      6615      6616      6617
      6616      6618      6617      6618      6619      6620      6619      6621
      6620      6621      6622      6623      6622      6624      6623      6624
      6625      6626      6625      6627      6626      6627      6628      6629
      6628      6630      6629      6630      6631      6632      6631      6633
      6632      6633      6634      6635      6634      6636      6635      6636
      6637      6638      6637      6639      6638      6639      6640      6641
      6640      6642      6641      6642      6643      6644      6643      6645
      6644      6645      6646      6647      6646      6648      6647      6648
      6649      6650      6649      6651      6650      6651      6652      6653
      6652      6654      6653      6654      6655      6656      6655      6657
      6656      6657      6658      6659      6658      6660      6659      6660
      6661      6662      6661      6663      6662      6663      6664      6665
      6664      6666      6665      6666      6667      6668      6667      6669
      6668      6669      6670      6671      6670      6672      6671      6672
      6673      6674      6673      6675      6674      6675      6676      6677
      6676      6678      6677      6678      6679      6680      6679      6681
      6680      6681      6682      6683      6682      6684      6683      6684
      6685      6686      6685      6687      6686      6687      6688      6689
      6688      6690      6689      6690      6691      6692      6691      6693
      6692      6693      6694      6695      6694      6696      6695      6696
      6697      6698      6697      6699      6698      6699      6700      6701
      6700      6702      6701      6702      6703      6704      6703      6705
      6704      6705      6706      6707      6706      6708      6707      6708
      6709      6710      6709      6711      6710      6711      6712      6713
      6712      6714      6713      6714      6715      6716      6715      6717
      6716      6717      6718      6719      6718      6720      6719      6720
      6721      6722      6721      6723      6722      6723      6724      6725
      6724      6726      6725      6726      6727      6728      6727      6729
      6728      6729      6730      6731      6730      6732      6731      6732
      6733      6734      6733      6735      6734      6735      6736      6737
      6736      6738      6737      6738      6739      6740      6739      6741
      6740      6741      6742      6743      6742      6744      6743      6744
      6745      6746      6745      6747      6746      6747      6748      6749
      6748      6750      6749      6750      6751      6752      6751      6753
      6752      6753      6754      6755      6754      6756      6755      6756
      6757      6758      6757      6759      6758      6759      6760      6761
      6760      6762      6761      6762      6763      6764      6763      6765
      6764      6765      6766      6767      6766      6768      6767      6768
      6769      6770      6769      6771      6770      6771      6772      6773
      6772      6774      6773      6774      6775      6776      6775      6777
      6776      6777      6778      6779      6778      6780      6779      6780
      6781      6782      6781      6783      6782      6783      6784      6785
      6784      6786      6785      6786      6787      6788      6787      6789
      6788      6789      6790      6791      6790      6792      6791      6792
      6793      6794      6793      6795      6794      6795      6796      6797
      6796      6798      6797      6798      6799      6800      6799      6801
      6800      6801      6802      6803      6802      6804      6803      6804
      6805      6806      6805      6807      6806      6807      6808      6809
      6808      6810      6809      6810      6811      6812      6811      6813
      6812      6813      6814      6815      6814      6816      6815      6816
      6817      6818      6817      6819      6818      6819      6820      6821
      6820      6822      6821      6822      6823      6824      6823      6825
      6824      6825      6826      6827      6826      6828      6827      6828
      6829      6830      6829      6831      6830      6831      6832      6833
      6832      6834      6833      6834      6835      6836      6835      6837
      6836      6837      6838      6839      6838      6840      6839      6840
      6841      6842      6841      6843      6842      6843      6844      6845
      6844      6846      6845      6846      6847      6848      6847      6849
      6848      6849      6850      6851      6850      6852      6851      6852
      6853      6854      6853      6855      6854      6855      6856      6857
      6856      6858      6857      6858      6859      6860      6859      6861
      6860      6861      6862      6863      6862      6864      6863      6864
      6865      6866      6865      6867      6866      6867      6868      6869
      6868      6870      6869      6870      6871      6872      6871      6873
      6872      6873      6874      6875      6874      6876      6875      6876
      6877      6878      6877      6879      6878      6879      6880      6881
      6880      6882      6881      6882      6883      6884      6883      6885
      6884      6885      6886      6887      6886      6888      6887      6888
      6889      6890      6889      6891      6890      6891      6892      6893
      6892      6894      6893      6894      6895      6896      6895      6897
      6896      6897      6898      6899      6898      6900      6899      6900
      6901      6902      6901      6903      6902      6903      6904      6905
      6904      6906      6905      6906      6907      6908      6907      6909
      6908      6909      6910      6911      6910      6912      6911      6912
      6913      6914      6913      6915      6914      6915      6916      6917
      6916      6918      6917      6918      6919      6920      6919      6921
      6920      6921      6922      6923      6922      6924      6923      6924
      6925      6926      6925      6927      6926      6927      6928      6929
      6928      6930      6929      6930      6931      6932      6931      6933
      6932      6933      6934      6935      6934      6936      6935      6936
      6937      6938      6937      6939      6938      6939      6940      6941
      6940      6942      6941      6942      6943      6944      6943      6945
      6944      6945      6946      6947      6946      6948      6947      6948
      6949      6950      6949      6951      6950      6951      6952      6953
      6952      6954      6953      6954      6955      6956      6955      6957
      6956      6957      6958      6959      6958      6960      6959      6960
      6961      6962      6961      6963      6962      6963      6964      6965
      6964      6966      6965      6966      6967      6968      6967      6969
      6968      6969      6970      6971      6970      6972      6971      6972
      6973      6974      6973      6975      6974      6975      6976      6977
      6976      6978      6977      6978      6979      6980      6979      6981
      6980      6981      6982      6983      6982      6984      6983      6984
      6985      6986      6985      6987      6986      6987      6988      6989
      6988      6990      6989      6990      6991      6992      6991      6993
      6992      6993      6994      6995      6994      6996      6995      6996
      6997      6998      6997      6999      6998      6999      7000      7001
      7000      7002      7001      7002      7003      7004      7003      7005
      7004      7005      7006      7007      7006      7008      7007      7008
      7009      7010      7009      7011      7010      7011      7012      7013
      7012      7014      7013      7014      7015      7016      7015      7017
      7016      7017      7018      7019      7018      7020      7019      7020
      7021      7022      7021      7023      7022      7023      7024      7025
      7024      7026      7025      7026      7027      7028      7027      7029
      7028      7029      7030      7031      7030      7032      7031      7032
      7033      7034      7033      7035      7034      7035      7036      7037
      7036      7038      7037      7038      7039      7040      7039      7041
      7040      7041      7042      7043      7042      7044      7043      7044
      7045      7046      7045      7047      7046      7047      7048      7049
      7048      7050      7049      7050      7051      7052      7051      7053
      7052      7053      7054      7055      7054      7056      7055      7056
      7057      7058      7057      7059      7058      7059      7060      7061
      7060      7062      7061      7062      7063      7064      7063      7065
      7064      7065      7066      7067      7066      7068      7067      7068
      7069      7070      7069      7071      7070      7071      7072      7073
      7072      7074      7073      7074      7075      7076      7075      7077
      7076      7077      7078      7079      7078      7080      7079      7080
      7081      7082      7081      7083      7082      7083      7084      7085
      7084      7086      7085      7086      7087      7088      7087      7089
      7088      7089      7090      7091      7090      7092      7091      7092
      7093      7094      7093      7095      7094      7095      7096      7097
      7096      7098      7097      7098      7099      7100      7099      7101
      7100      7101      7102      7103      7102      7104      7103      7104
      7105      7106      7105      7107      7106      7107      7108      7109
      7108      7110      7109      7110      7111      7112      7111      7113
      7112      7113      7114      7115      7114      7116      7115      7116
      7117      7118      7117      7119      7118      7119      7120      7121
      7120      7122      7121      7122      7123      7124      7123      7125
      7124      7125      7126      7127      7126      7128      7127      7128
      7129      7130      7129      7131      7130      7131      7132      7133
      7132      7134      7133      7134      7135      7136      7135      7137
      7136      7137      7138      7139      7138      7140      7139      7140
      7141      7142      7141      7143      7142      7143      7144      7145
      7144      7146      7145      7146      7147      7148      7147      7149
      7148      7149      7150      7151      7150      7152      7151      7152
      7153      7154      7153      7155      7154      7155      7156      7157
      7156      7158      7157      7158      7159      7160      7159      7161
      7160      7161      7162      7163      7162      7164      7163      7164
      7165      7166      7165      7167      7166      7167      7168      7169
      7168      7170      7169      7170      7171      7172      7171      7173
      7172      7173      7174      7175      7174      7176      7175      7176
      7177      7178      7177      7179      7178      7179      7180      7181
      7180      7182      7181      7182      7183      7184      7183      7185
      7184      7185      7186      7187      7186      7188      7187      7188
      7189      7190      7189      7191      7190      7191      7192      7193
      7192      7194      7193      7194      7195      7196      7195      7197
      7196      7197      7198      7199      7198      7200      7199      7200
      7201      7202      7201      7203      7202      7203      7204      7205
      7204      7206      7205      7206      7207      7208      7207      7209
      7208      7209      7210      7211      7210      7212      7211      7212
      7213      7214      7213      7215      7214      7215      7216      7217
      7216      7218      7217      7218      7219      7220      7219      7221
      7220      7221      7222      7223      7222      7224      7223      7224
      7225      7226      7225      7227      7226      7227      7228      7229
      7228      7230      7229      7230      7231      7232      7231      7233
      7232      7233      7234      7235      7234      7236      7235      7236
      7237      7238      7237      7239      7238      7239      7240      7241
      7240      7242      7241      7242      7243      7244      7243      7245
      7244      7245      7246      7247      7246      7248      7247      7248
      7249      7250      7249      7251      7250      7251      7252      7253
      7252      7254      7253      7254      7255      7256      7255      7257
      7256      7257      7258      7259      7258      7260      7259      7260
      7261      7262      7261      7263      7262      7263      7264      7265
      7264      7266      7265      7266      7267      7268      7267      7269
      7268      7269      7270      7271      7270      7272      7271      7272
      7273      7274      7273      7275      7274      7275      7276      7277
      7276      7278      7277      7278      7279      7280      7279      7281
      7280      7281      7282      7283      7282      7284      7283      7284
      7285      7286      7285      7287      7286      7287      7288      7289
      7288      7290      7289      7290      7291      7292      7291      7293
      7292      7293      7294      7295      7294      7296      7295      7296
      7297      7298      7297      7299      7298      7299      7300      7301
      7300      7302      7301      7302      7303      7304      7303      7305
      7304      7305      7306      7307      7306      7308      7307      7308
      7309      7310      7309      7311      7310      7311      7312      7313
      7312      7314      7313      7314      7315      7316      7315      7317
      7316      7317      7318      7319      7318      7320      7319      7320
      7321      7322      7321      7323      7322      7323      7324      7325
      7324      7326      7325      7326      7327      7328      7327      7329
      7328      7329      7330      7331      7330      7332      7331      7332
      7333      7334      7333      7335      7334      7335      7336      7337
      7336      7338      7337      7338      7339      7340      7339      7341
      7340      7341      7342      7343      7342      7344      7343      7344
      7345      7346      7345      7347      7346      7347      7348      7349
      7348      7350      7349      7350      7351      7352      7351      7353
      7352      7353      7354      7355      7354      7356      7355      7356
      7357      7358      7357      7359      7358      7359      7360      7361
      7360      7362      7361      7362      7363      7364      7363      7365
      7364      7365      7366      7367      7366      7368      7367      7368
      7369      7370      7369      7371      7370      7371      7372      7373
      7372      7374      7373      7374      7375      7376      7375      7377
      7376      7377      7378      7379      7378      7380      7379      7380
      7381      7382      7381      7383      7382      7383      7384      7385
      7384      7386      7385      7386      7387      7388      7387      7389
      7388      7389      7390      7391      7390      7392      7391      7392
      7393      7394      7393      7395      7394      7395      7396      7397
      7396      7398      7397      7398      7399      7400      7399      7401
      7400      7401      7402      7403      7402      7404      7403      7404
      7405      7406      7405      7407      7406      7407      7408      7409
      7408      7410      7409      7410      7411      7412      7411      7413
      7412      7413      7414      7415      7414      7416      7415      7416
      7417      7418      7417      7419      7418      7419      7420      7421
      7420      7422      7421      7422      7423      7424      7423      7425
      7424      7425      7426      7427      7426      7428      7427      7428
      7429      7430      7429      7431      7430      7431      7432      7433
      7432      7434      7433      7434      7435      7436      7435      7437
      7436      7437      7438      7439      7438      7440      7439      7440
      7441      7442      7441      7443      7442      7443      7444      7445
      7444      7446      7445      7446      7447      7448      7447      7449
      7448      7449      7450      7451      7450      7452      7451      7452
      7453      7454      7453      7455      7454      7455      7456      7457
      7456      7458      7457      7458      7459      7460      7459      7461
      7460      7461      7462      7463      7462      7464      7463      7464
      7465      7466      7465      7467      7466      7467      7468      7469
      7468      7470      7469      7470      7471      7472      7471      7473
      7472      7473      7474      7475      7474      7476      7475      7476
      7477      7478      7477      7479      7478      7479      7480      7481
      7480      7482      7481      7482      7483      7484      7483      7485
      7484      7485      7486      7487      7486      7488      7487      7488
      7489      7490      7489      7491      7490      7491      7492      7493
      7492      7494      7493      7494      7495      7496      7495      7497
      7496      7497      7498      7499      7498      7500      7499      7500
      7501      7502      7501      7503      7502      7503      7504      7505
      7504      7506      7505      7506      7507      7508      7507      7509
      7508      7509      7510      7511      7510      7512      7511      7512
      7513      7514      7513      7515      7514      7515      7516      7517
      7516      7518      7517      7518      7519      7520      7519      7521
      7520      7521      7522      7523      7522      7524      7523      7524
      7525      7526      7525      7527      7526      7527      7528      7529
      7528      7530      7529      7530      7531      7532      7531      7533
      7532      7533      7534      7535      7534      7536      7535      7536
      7537      7538      7537      7539      7538      7539      7540      7541
      7540      7542      7541      7542      7543      7544      7543      7545
      7544      7545      7546      7547      7546      7548      7547      7548
      7549      7550      7549      7551      7550      7551      7552      7553
      7552      7554      7553      7554      7555      7556      7555      7557
      7556      7557      7558      7559      7558      7560      7559      7560
      7561      7562      7561      7563      7562      7563      7564      7565
      7564      7566      7565      7566      7567      7568      7567      7569
      7568      7569      7570      7571      7570      7572      7571      7572
      7573      7574      7573      7575      7574      7575      7576      7577
      7576      7578      7577      7578      7579      7580      7579      7581
      7580      7581      7582      7583      7582      7584      7583      7584
      7585      7586      7585      7587      7586      7587      7588      7589
      7588      7590      7589      7590      7591      7592      7591      7593
      7592      7593      7594      7595      7594      7596      7595      7596
      7597      7598      7597      7599      7598      7599      7600      7601
      7600      7602      7601      7602      7603      7604      7603      7605
      7604      7605      7606      7607      7606      7608      7607      7608
      7609      7610      7609      7611      7610      7611      7612      7613
      7612      7614      7613      7614      7615      7616      7615      7617
      7616      7617      7618      7619      7618      7620      7619      7620
      7621      7622      7621      7623      7622      7623      7624      7625
      7624      7626      7625      7626      7627      7628      7627      7629
      7628      7629      7630      7631      7630      7632      7631      7632
      7633      7634      7633      7635      7634      7635      7636      7637
      7636      7638      7637      7638      7639      7640      7639      7641
      7640      7641      7642      7643      7642      7644      7643      7644
      7645      7646      7645      7647      7646      7647      7648      7649
      7648      7650      7649      7650      7651      7652      7651      7653
      7652      7653      7654      7655      7654      7656      7655      7656
      7657      7658      7657      7659      7658      7659      7660      7661
      7660      7662      7661      7662      7663      7664      7663      7665
      7664      7665      7666      7667      7666      7668      7667      7668
      7669      7670      7669      7671      7670      7671      7672      7673
      7672      7674      7673      7674      7675      7676      7675      7677
      7676      7677      7678      7679      7678      7680      7679      7680
      7681      7682      7681      7683      7682      7683      7684      7685
      7684      7686      7685      7686      7687      7688      7687      7689
      7688      7689      7690      7691      7690      7692      7691      7692
      7693      7694      7693      7695      7694      7695      7696      7697
      7696      7698      7697      7698      7699      7700      7699      7701
      7700      7701      7702      7703      7702      7704      7703      7704
      7705      7706      7705      7707      7706      7707      7708      7709
      7708      7710      7709      7710      7711      7712      7711      7713
      7712      7713      7714      7715      7714      7716      7715      7716
      7717      7718      7717      7719      7718      7719      7720      7721
      7720      7722      7721      7722      7723      7724      7723      7725
      7724      7725      7726      7727      7726      7728      7727      7728
      7729      7730      7729      7731      7730      7731      7732      7733
      7732      7734      7733      7734      7735      7736      7735      7737
      7736      7737      7738      7739      7738      7740      7739      7740
      7741      7742      7741      7743      7742      7743      7744      7745
      7744      7746      7745      7746      7747      7748      7747      7749
      7748      7749      7750      7751      7750      7752      7751      7752
      7753      7754      7753      7755      7754      7755      7756      7757
      7756      7758      7757      7758      7759      7760      7759      7761
      7760      7761      7762      7763      7762      7764      7763      7764
      7765      7766      7765      7767      7766      7767      7768      7769
      7768      7770      7769      7770      7771      7772      7771      7773
      7772      7773      7774      7775      7774      7776      7775      7776
      7777      7778      7777      7779      7778      7779      7780      7781
      7780      7782      7781      7782      7783      7784      7783      7785
      7784      7785      7786      7787      7786      7788      7787      7788
      7789      7790      7789      7791      7790      7791      7792      7793
      7792      7794      7793      7794      7795      7796      7795      7797
      7796      7797      7798      7799      7798      7800      7799      7800
      7801      7802      7801      7803      7802      7803      7804      7805
      7804      7806      7805      7806      7807      7808      7807      7809
      7808      7809      7810      7811      7810      7812      7811      7812
      7813      7814      7813      7815      7814      7815      7816      7817
      7816      7818      7817      7818      7819      7820      7819      7821
      7820      7821      7822      7823      7822      7824      7823      7824
      7825      7826      7825      7827      7826      7827      7828      7829
      7828      7830      7829      7830      7831      7832      7831      7833
      7832      7833      7834      7835      7834      7836      7835      7836
      7837      7838      7837      7839      7838      7839      7840      7841
      7840      7842      7841      7842      7843      7844      7843      7845
      7844      7845      7846      7847      7846      7848      7847      7848
      7849      7850      7849      7851      7850      7851      7852      7853
      7852      7854      7853      7854      7855      7856      7855      7857
      7856      7857      7858      7859      7858      7860      7859      7860
      7861      7862      7861      7863      7862      7863      7864      7865
      7864      7866      7865      7866      7867      7868      7867      7869
      7868      7869      7870      7871      7870      7872      7871      7872
      7873      7874      7873      7875      7874      7875      7876      7877
      7876      7878      7877      7878      7879      7880      7879      7881
      7880      7881      7882      7883      7882      7884      7883      7884
      7885      7886      7885      7887      7886      7887      7888      7889
      7888      7890      7889      7890      7891      7892      7891      7893
      7892      7893      7894      7895      7894      7896      7895      7896
      7897      7898      7897      7899      7898      7899      7900      7901
      7900      7902      7901      7902      7903      7904      7903      7905
      7904      7905      7906      7907      7906      7908      7907      7908
      7909      7910      7909      7911      7910      7911      7912      7913
      7912      7914      7913      7914      7915      7916      7915      7917
      7916      7917      7918      7919      7918      7920      7919      7920
      7921      7922      7921      7923      7922      7923      7924      7925
      7924      7926      7925      7926      7927      7928      7927      7929
      7928      7929      7930      7931      7930      7932      7931      7932
      7933      7934      7933      7935      7934      7935      7936      7937
      7936      7938      7937      7938      7939      7940      7939      7941
      7940      7941      7942      7943      7942      7944      7943      7944
      7945      7946      7945      7947      7946      7947      7948      7949
      7948      7950      7949      7950      7951      7952      7951      7953
      7952      7953      7954      7955      7954      7956      7955      7956
      7957      7958      7957      7959      7958      7959      7960      7961
      7960      7962      7961      7962      7963      7964      7963      7965
      7964      7965      7966      7967      7966      7968      7967      7968
      7969      7970      7969      7971      7970      7971      7972      7973
      7972      7974      7973      7974      7975      7976      7975      7977
      7976      7977      7978      7979      7978      7980      7979      7980
      7981      7982      7981      7983      7982      7983      7984      7985
      7984      7986      7985      7986      7987      7988      7987      7989
      7988      7989      7990      7991      7990      7992      7991      7992
      7993      7994      7993      7995      7994      7995      7996      7997
      7996      7998      7997      7998      7999      8000      7999      8001
      8000      8001      8002      8003      8002      8004      8003      8004
      8005      8006      8005      8007      8006      8007      8008      8009
      8008      8010      8009      8010      8011      8012      8011      8013
      8012      8013      8014      8015      8014      8016      8015      8016
      8017      8018      8017      8019      8018      8019      8020      8021
      8020      8022      8021      8022      8023      8024      8023      8025
      8024      8025      8026      8027      8026      8028      8027      8028
      8029      8030      8029      8031      8030      8031      8032      8033
      8032      8034      8033      8034      8035      8036      8035      8037
      8036      8037      8038      8039      8038      8040      8039      8040
      8041      8042      8041      8043      8042      8043      8044      8045
      8044      8046      8045      8046      8047      8048      8047      8049
      8048      8049      8050      8051      8050      8052      8051      8052
      8053      8054      8053      8055      8054      8055      8056      8057
      8056      8058      8057      8058      8059      8060      8059      8061
      8060      8061      8062      8063      8062      8064      8063      8064
      8065      8066      8065      8067      8066      8067      8068      8069
      8068      8070      8069      8070      8071      8072      8071      8073
      8072      8073      8074      8075      8074      8076      8075      8076
      8077      8078      8077      8079      8078      8079      8080      8081
      8080      8082      8081      8082      8083      8084      8083      8085
      8084      8085      8086      8087      8086      8088      8087      8088
      8089      8090      8089      8091      8090      8091      8092      8093
      8092      8094      8093      8094      8095      8096      8095      8097
      8096      8097      8098      8099      8098      8100      8099      8100
      8101      8102      8101      8103      8102      8103      8104      8105
      8104      8106      8105      8106      8107      8108      8107      8109
      8108      8109      8110      8111      8110      8112      8111      8112
      8113      8114      8113      8115      8114      8115      8116      8117
      8116      8118      8117      8118      8119      8120      8119      8121
      8120      8121      8122      8123      8122      8124      8123      8124
      8125      8126      8125      8127      8126      8127      8128      8129
      8128      8130      8129      8130      8131      8132      8131      8133
      8132      8133      8134      8135      8134      8136      8135      8136
      8137      8138      8137      8139      8138      8139      8140      8141
      8140      8142      8141      8142      8143      8144      8143      8145
      8144      8145      8146      8147      8146      8148      8147      8148
      8149      8150      8149      8151      8150      8151      8152      8153
      8152      8154      8153      8154      8155      8156      8155      8157
      8156      8157      8158      8159      8158      8160      8159      8160
      8161      8162      8161      8163      8162      8163      8164      8165
      8164      8166      8165      8166      8167      8168      8167      8169
      8168      8169      8170      8171      8170      8172      8171      8172
      8173      8174      8173      8175      8174      8175      8176      8177
      8176      8178      8177      8178      8179      8180      8179      8181
      8180      8181      8182      8183      8182      8184      8183      8184
      8185      8186      8185      8187      8186      8187      8188      8189
      8188      8190      8189      8190      8191      8192      8191      8193
      8192      8193      8194      8195      8194      8196      8195      8196
      8197      8198      8197      8199      8198      8199      8200      8201
      8200      8202      8201      8202      8203      8204      8203      8205
      8204      8205      8206      8207      8206      8208      8207      8208
      8209      8210      8209      8211      8210      8211      8212      8213
      8212      8214      8213      8214      8215      8216      8215      8217
      8216      8217      8218      8219      8218      8220      8219      8220
      8221      8222      8221      8223      8222      8223      8224      8225
      8224      8226      8225      8226      8227      8228      8227      8229
      8228      8229      8230      8231      8230      8232      8231      8232
      8233      8234      8233      8235      8234      8235      8236      8237
      8236      8238      8237      8238      8239      8240      8239      8241
      8240      8241      8242      8243      8242      8244      8243      8244
      8245      8246      8245      8247      8246      8247      8248      8249
      8248      8250      8249      8250      8251      8252      8251      8253
      8252      8253      8254      8255      8254      8256      8255      8256
      8257      8258      8257      8259      8258      8259      8260      8261
      8260      8262      8261      8262      8263      8264      8263      8265
      8264      8265      8266      8267      8266      8268      8267      8268
      8269      8270      8269      8271      8270      8271      8272      8273
      8272      8274      8273      8274      8275      8276      8275      8277
      8276      8277      8278      8279      8278      8280      8279      8280
      8281      8282      8281      8283      8282      8283      8284      8285
      8284      8286      8285      8286      8287      8288      8287      8289
      8288      8289      8290      8291      8290      8292      8291      8292
      8293      8294      8293      8295      8294      8295      8296      8297
      8296      8298      8297      8298      8299      8300      8299      8301
      8300      8301      8302      8303      8302      8304      8303      8304
      8305      8306      8305      8307      8306      8307      8308      8309
      8308      8310      8309      8310      8311      8312      8311      8313
      8312      8313      8314      8315      8314      8316      8315      8316
      8317      8318      8317      8319      8318      8319      8320      8321
      8320      8322      8321      8322      8323      8324      8323      8325
      8324      8325      8326      8327      8326      8328      8327      8328
      8329      8330      8329      8331      8330      8331      8332      8333
      8332      8334      8333      8334      8335      8336      8335      8337
      8336      8337      8338      8339      8338      8340      8339      8340
      8341      8342      8341      8343      8342      8343      8344      8345
      8344      8346      8345      8346      8347      8348      8347      8349
      8348      8349      8350      8351      8350      8352      8351      8352
      8353      8354      8353      8355      8354      8355      8356      8357
      8356      8358      8357      8358      8359      8360      8359      8361
      8360      8361      8362      8363      8362      8364      8363      8364
      8365      8366      8365      8367      8366      8367      8368      8369
      8368      8370      8369      8370      8371      8372      8371      8373
      8372      8373      8374      8375      8374      8376      8375      8376
      8377      8378      8377      8379      8378      8379      8380      8381
      8380      8382      8381      8382      8383      8384      8383      8385
      8384      8385      8386      8387      8386      8388      8387      8388
      8389      8390      8389      8391      8390      8391      8392      8393
      8392      8394      8393      8394      8395      8396      8395      8397
      8396      8397      8398      8399      8398      8400      8399      8400
      8401      8402      8401      8403      8402      8403      8404      8405
      8404      8406      8405      8406      8407      8408      8407      8409
      8408      8409      8410      8411      8410      8412      8411      8412
      8413      8414      8413      8415      8414      8415      8416      8417
      8416      8418      8417      8418      8419      8420      8419      8421
      8420      8421      8422      8423      8422      8424      8423      8424
      8425      8426      8425      8427      8426      8427      8428      8429
      8428      8430      8429      8430      8431      8432      8431      8433
      8432      8433      8434      8435      8434      8436      8435      8436
      8437      8438      8437      8439      8438      8439      8440      8441
      8440      8442      8441      8442      8443      8444      8443      8445
      8444      8445      8446      8447      8446      8448      8447      8448
      8449      8450      8449      8451      8450      8451      8452      8453
      8452      8454      8453      8454      8455      8456      8455      8457
      8456      8457      8458      8459      8458      8460      8459      8460
      8461      8462      8461      8463      8462      8463      8464      8465
      8464      8466      8465      8466      8467      8468      8467      8469
      8468      8469      8470      8471      8470      8472      8471      8472
      8473      8474      8473      8475      8474      8475      8476      8477
      8476      8478      8477      8478      8479      8480      8479      8481
      8480      8481      8482      8483      8482      8484      8483      8484
      8485      8486      8485      8487      8486      8487      8488      8489
      8488      8490      8489      8490      8491      8492      8491      8493
      8492      8493      8494      8495      8494      8496      8495      8496
      8497      8498      8497      8499      8498      8499      8500      8501
      8500      8502      8501      8502      8503      8504      8503      8505
      8504      8505      8506      8507      8506      8508      8507      8508
      8509      8510      8509      8511      8510      8511      8512      8513
      8512      8514      8513      8514      8515      8516      8515      8517
      8516      8517      8518      8519      8518      8520      8519      8520
      8521      8522      8521      8523      8522      8523      8524      8525
      8524      8526      8525      8526      8527      8528      8527      8529
      8528      8529      8530      8531      8530      8532      8531      8532
      8533      8534      8533      8535      8534      8535      8536      8537
      8536      8538      8537      8538      8539      8540      8539      8541
      8540      8541      8542      8543      8542      8544      8543      8544
      8545      8546      8545      8547      8546      8547      8548      8549
      8548      8550      8549      8550      8551      8552      8551      8553
      8552      8553      8554      8555      8554      8556      8555      8556
      8557      8558      8557      8559      8558      8559      8560      8561
      8560      8562      8561      8562      8563      8564      8563      8565
      8564      8565      8566      8567      8566      8568      8567      8568
      8569      8570      8569      8571      8570      8571      8572      8573
      8572      8574      8573      8574      8575      8576      8575      8577
      8576      8577      8578      8579      8578      8580      8579      8580
      8581      8582      8581      8583      8582      8583      8584      8585
      8584      8586      8585      8586      8587      8588      8587      8589
      8588      8589      8590      8591      8590      8592      8591      8592
      8593      8594      8593      8595      8594      8595      8596      8597
      8596      8598      8597      8598      8599      8600      8599      8601
      8600      8601      8602      8603      8602      8604      8603      8604
      8605      8606      8605      8607      8606      8607      8608      8609
      8608      8610      8609      8610      8611      8612      8611      8613
      8612      8613      8614      8615      8614      8616      8615      8616
      8617      8618      8617      8619      8618      8619      8620      8621
      8620      8622      8621      8622      8623      8624      8623      8625
      8624      8625      8626      8627      8626      8628      8627      8628
      8629      8630      8629      8631      8630      8631      8632      8633
      8632      8634      8633      8634      8635      8636      8635      8637
      8636      8637      8638      8639      8638      8640      8639      8640
      8641      8642      8641      8643      8642      8643      8644      8645
      8644      8646      8645      8646      8647      8648      8647      8649
      8648      8649      8650      8651      8650      8652      8651      8652
      8653      8654      8653      8655      8654      8655      8656      8657
      8656      8658      8657      8658      8659      8660      8659      8661
      8660      8661      8662      8663      8662      8664      8663      8664
      8665      8666      8665      8667      8666      8667      8668      8669
      8668      8670      8669      8670      8671      8672      8671      8673
      8672      8673      8674      8675      8674      8676      8675      8676
      8677      8678      8677      8679      8678      8679      8680      8681
      8680      8682      8681      8682      8683      8684      8683      8685
      8684      8685      8686      8687      8686      8688      8687      8688
      8689      8690      8689      8691      8690      8691      8692      8693
      8692      8694      8693      8694      8695      8696      8695      8697
      8696      8697      8698      8699      8698      8700      8699      8700
      8701      8702      8701      8703      8702      8703      8704      8705
      8704      8706      8705      8706      8707      8708      8707      8709
      8708      8709      8710      8711      8710      8712      8711      8712
      8713      8714      8713      8715      8714      8715      8716      8717
      8716      8718      8717      8718      8719      8720      8719      8721
      8720      8721      8722      8723      8722      8724      8723      8724
      8725      8726      8725      8727      8726      8727      8728      8729
      8728      8730      8729      8730      8731      8732      8731      8733
      8732      8733      8734      8735      8734      8736      8735      8736
      8737      8738      8737      8739      8738      8739      8740      8741
      8740      8742      8741      8742      8743      8744      8743      8745
      8744      8745      8746      8747      8746      8748      8747      8748
      8749      8750      8749      8751      8750      8751      8752      8753
      8752      8754      8753      8754      8755      8756      8755      8757
      8756      8757      8758      8759      8758      8760      8759      8760
      8761      8762      8761      8763      8762      8763      8764      8765
      8764      8766      8765      8766      8767      8768      8767      8769
      8768      8769      8770      8771      8770      8772      8771      8772
      8773      8774      8773      8775      8774      8775      8776      8777
      8776      8778      8777      8778      8779      8780      8779      8781
      8780      8781      8782      8783      8782      8784      8783      8784
      8785      8786      8785      8787      8786      8787      8788      8789
      8788      8790      8789      8790      8791      8792      8791      8793
      8792      8793      8794      8795      8794      8796      8795      8796
      8797      8798      8797      8799      8798      8799      8800      8801
      8800      8802      8801      8802      8803      8804      8803      8805
      8804      8805      8806      8807      8806      8808      8807      8808
      8809      8810      8809      8811      8810      8811      8812      8813
      8812      8814      8813      8814      8815      8816      8815      8817
      8816      8817      8818      8819      8818      8820      8819      8820
      8821      8822      8821      8823      8822      8823      8824      8825
      8824      8826      8825      8826      8827      8828      8827      8829
      8828      8829      8830      8831      8830      8832      8831      8832
      8833      8834      8833      8835      8834      8835      8836      8837
      8836      8838      8837      8838      8839      8840      8839      8841
      8840      8841      8842      8843      8842      8844      8843      8844
      8845      8846      8845      8847      8846      8847      8848      8849
      8848      8850      8849      8850      8851      8852      8851      8853
      8852      8853      8854      8855      8854      8856      8855      8856
      8857      8858      8857      8859      8858      8859      8860      8861
      8860      8862      8861      8862      8863      8864      8863      8865
      8864      8865      8866      8867      8866      8868      8867      8868
      8869      8870      8869      8871      8870      8871      8872      8873
      8872      8874      8873      8874      8875      8876      8875      8877
      8876      8877      8878      8879      8878      8880      8879      8880
      8881      8882      8881      8883      8882      8883      8884      8885
      8884      8886      8885      8886      8887      8888      8887      8889
      8888      8889      8890      8891      8890      8892      8891      8892
      8893      8894      8893      8895      8894      8895      8896      8897
      8896      8898      8897      8898      8899      8900      8899      8901
      8900      8901      8902      8903      8902      8904      8903      8904
      8905      8906      8905      8907      8906      8907      8908      8909
      8908      8910      8909      8910      8911      8912      8911      8913
      8912      8913      8914      8915      8914      8916      8915      8916
      8917      8918      8917      8919      8918      8919      8920      8921
      8920      8922      8921      8922      8923      8924      8923      8925
      8924      8925      8926      8927      8926      8928      8927      8928
      8929      8930      8929      8931      8930      8931      8932      8933
      8932      8934      8933      8934      8935      8936      8935      8937
      8936      8937      8938      8939      8938      8940      8939      8940
      8941      8942      8941      8943      8942      8943      8944      8945
      8944      8946      8945      8946      8947      8948      8947      8949
      8948      8949      8950      8951      8950      8952      8951      8952
      8953      8954      8953      8955      8954      8955      8956      8957
      8956      8958      8957      8958      8959      8960      8959      8961
      8960      8961      8962      8963      8962      8964      8963      8964
      8965      8966      8965      8967      8966      8967      8968      8969
      8968      8970      8969      8970      8971      8972      8971      8973
      8972      8973      8974      8975      8974      8976      8975      8976
      8977      8978      8977      8979      8978      8979      8980      8981
      8980      8982      8981      8982      8983      8984      8983      8985
      8984      8985      8986      8987      8986      8988      8987      8988
      8989      8990      8989      8991      8990      8991      8992      8993
      8992      8994      8993      8994      8995      8996      8995      8997
      8996      8997      8998      8999      8998      9000      8999      9000
      9001      9002      9001      9003      9002      9003      9004      9005
      9004      9006      9005      9006      9007      9008      9007      9009
      9008      9009      9010      9011      9010      9012      9011      9012
      9013      9014      9013      9015      9014      9015      9016      9017
      9016      9018      9017      9018      9019      9020      9019      9021
      9020      9021      9022      9023      9022      9024      9023      9024
      9025      9026      9025      9027      9026      9027      9028      9029
      9028      9030      9029      9030      9031      9032      9031      9033
      9032      9033      9034      9035      9034      9036      9035      9036
      9037      9038      9037      9039      9038      9039      9040      9041
      9040      9042      9041      9042      9043      9044      9043      9045
      9044      9045      9046      9047      9046      9048      9047      9048
      9049      9050      9049      9051      9050      9051      9052      9053
      9052      9054      9053      9054      9055      9056      9055      9057
      9056      9057      9058      9059      9058      9060      9059      9060
      9061      9062      9061      9063      9062      9063      9064      9065
      9064      9066      9065      9066      9067      9068      9067      9069
      9068      9069      9070      9071      9070      9072      9071      9072
      9073      9074      9073      9075      9074      9075      9076      9077
      9076      9078      9077      9078      9079      9080      9079      9081
      9080      9081      9082      9083      9082      9084      9083      9084
      9085      9086      9085      9087      9086      9087      9088      9089
      9088      9090      9089      9090      9091      9092      9091      9093
      9092      9093      9094      9095      9094      9096      9095      9096
      9097      9098      9097      9099      9098      9099      9100      9101
      9100      9102      9101      9102      9103      9104      9103      9105
      9104      9105      9106      9107      9106      9108      9107      9108
      9109      9110      9109      9111      9110      9111      9112      9113
      9112      9114      9113      9114      9115      9116      9115      9117
      9116      9117      9118      9119      9118      9120      9119      9120
      9121      9122      9121      9123      9122      9123      9124      9125
      9124      9126      9125      9126      9127      9128      9127      9129
      9128      9129      9130      9131      9130      9132      9131      9132
      9133      9134      9133      9135      9134      9135      9136      9137
      9136      9138      9137      9138      9139      9140      9139      9141
      9140      9141      9142      9143      9142      9144      9143      9144
      9145      9146      9145      9147      9146      9147      9148      9149
      9148      9150      9149      9150      9151      9152      9151      9153
      9152      9153      9154      9155      9154      9156      9155      9156
      9157      9158      9157      9159      9158      9159      9160      9161
      9160      9162      9161      9162      9163      9164      9163      9165
      9164      9165      9166      9167      9166      9168      9167      9168
      9169      9170      9169      9171      9170      9171      9172      9173
      9172      9174      9173      9174      9175      9176      9175      9177
      9176      9177      9178      9179      9178      9180      9179      9180
      9181      9182      9181      9183      9182      9183      9184      9185
      9184      9186      9185      9186      9187      9188      9187      9189
      9188      9189      9190      9191      9190      9192      9191      9192
      9193      9194      9193      9195      9194      9195      9196      9197
      9196      9198      9197      9198      9199      9200      9199      9201
      9200      9201      9202      9203      9202      9204      9203      9204
      9205      9206      9205      9207      9206      9207      9208      9209
      9208      9210      9209      9210      9211      9212      9211      9213
      9212      9213      9214      9215      9214      9216      9215      9216
      9217      9218      9217      9219      9218      9219      9220      9221
      9220      9222      9221      9222      9223      9224      9223      9225
      9224      9225      9226      9227      9226      9228      9227      9228
      9229      9230      9229      9231      9230      9231      9232      9233
      9232      9234      9233      9234      9235      9236      9235      9237
      9236      9237      9238      9239      9238      9240      9239      9240
      9241      9242      9241      9243      9242      9243      9244      9245
      9244      9246      9245      9246      9247      9248      9247      9249
      9248      9249      9250      9251      9250      9252      9251      9252
      9253      9254      9253      9255      9254      9255      9256      9257
      9256      9258      9257      9258      9259      9260      9259      9261
      9260      9261      9262      9263      9262      9264      9263      9264
      9265      9266      9265      9267      9266      9267      9268      9269
      9268      9270      9269      9270      9271      9272      9271      9273
      9272      9273      9274      9275      9274      9276      9275      9276
      9277      9278      9277      9279      9278      9279      9280      9281
      9280      9282      9281      9282      9283      9284      9283      9285
      9284      9285      9286      9287      9286      9288      9287      9288
      9289      9290      9289      9291      9290      9291      9292      9293
      9292      9294      9293      9294      9295      9296      9295      9297
      9296      9297      9298      9299      9298      9300      9299      9300
      9301      9302      9301      9303      9302      9303      9304      9305
      9304      9306      9305      9306      9307      9308      9307      9309
      9308      9309      9310      9311      9310      9312      9311      9312
      9313      9314      9313      9315      9314      9315      9316      9317
      9316      9318      9317      9318      9319      9320      9319      9321
      9320      9321      9322      9323      9322      9324      9323      9324
      9325      9326      9325      9327      9326      9327      9328      9329
      9328      9330      9329      9330      9331      9332      9331      9333
      9332      9333      9334      9335      9334      9336      9335      9336
      9337      9338      9337      9339      9338      9339      9340      9341
      9340      9342      9341      9342      9343      9344      9343      9345
      9344      9345      9346      9347      9346      9348      9347      9348
      9349      9350      9349      9351      9350      9351      9352      9353
      9352      9354      9353      9354      9355      9356      9355      9357
      9356      9357      9358      9359      9358      9360      9359      9360
      9361      9362      9361      9363      9362      9363      9364      9365
      9364      9366      9365      9366      9367      9368      9367      9369
      9368      9369      9370      9371      9370      9372      9371      9372
      9373      9374      9373      9375      9374      9375      9376      9377
      9376      9378      9377      9378      9379      9380      9379      9381
      9380      9381      9382      9383      9382      9384      9383      9384
      9385      9386      9385      9387      9386      9387      9388      9389
      9388      9390      9389      9390      9391      9392      9391      9393
      9392      9393      9394      9395      9394      9396      9395      9396
      9397      9398      9397      9399      9398      9399      9400      9401
      9400      9402      9401      9402      9403      9404      9403      9405
      9404      9405      9406      9407      9406      9408      9407      9408
      9409      9410      9409      9411      9410      9411      9412      9413
      9412      9414      9413      9414      9415      9416      9415      9417
      9416      9417      9418      9419      9418      9420      9419      9420
      9421      9422      9421      9423      9422      9423      9424      9425
      9424      9426      9425      9426      9427      9428      9427      9429
      9428      9429      9430      9431      9430      9432      9431      9432
      9433      9434      9433      9435      9434      9435      9436      9437
      9436      9438      9437      9438      9439      9440      9439      9441
      9440      9441      9442      9443      9442      9444      9443      9444
      9445      9446      9445      9447      9446      9447      9448      9449
      9448      9450      9449      9450      9451      9452      9451      9453
      9452      9453      9454      9455      9454      9456      9455      9456
      9457      9458      9457      9459      9458      9459      9460      9461
      9460      9462      9461      9462      9463      9464      9463      9465
      9464      9465      9466      9467      9466      9468      9467      9468
      9469      9470      9469      9471      9470      9471      9472      9473
      9472      9474      9473      9474      9475      9476      9475      9477
      9476      9477      9478      9479      9478      9480      9479      9480
      9481      9482      9481      9483      9482      9483      9484      9485
      9484      9486      9485      9486      9487      9488      9487      9489
      9488      9489      9490      9491      9490      9492      9491      9492
      9493      9494      9493      9495      9494      9495      9496      9497
      9496      9498      9497      9498      9499      9500      9499      9501
      9500      9501      9502      9503      9502      9504      9503      9504
      9505      9506      9505      9507      9506      9507      9508      9509
      9508      9510      9509      9510      9511      9512      9511      9513
      9512      9513      9514      9515      9514      9516      9515      9516
      9517      9518      9517      9519      9518      9519      9520      9521
      9520      9522      9521      9522      9523      9524      9523      9525
      9524      9525      9526      9527      9526      9528      9527      9528
      9529      9530      9529      9531      9530      9531      9532      9533
      9532      9534      9533      9534      9535      9536      9535      9537
      9536      9537      9538      9539      9538      9540      9539      9540
      9541      9542      9541      9543      9542      9543      9544      9545
      9544      9546      9545      9546      9547      9548      9547      9549
      9548      9549      9550      9551      9550      9552      9551      9552
      9553      9554      9553      9555      9554      9555      9556      9557
      9556      9558      9557      9558      9559      9560      9559      9561
      9560      9561      9562      9563      9562      9564      9563      9564
      9565      9566      9565      9567      9566      9567      9568      9569
      9568      9570      9569      9570      9571      9572      9571      9573
      9572      9573      9574      9575      9574      9576      9575      9576
      9577      9578      9577      9579      9578      9579      9580      9581
      9580      9582      9581      9582      9583      9584      9583      9585
      9584      9585      9586      9587      9586      9588      9587      9588
      9589      9590      9589      9591      9590      9591      9592      9593
      9592      9594      9593      9594      9595      9596      9595      9597
      9596      9597      9598      9599      9598      9600      9599      9600
      9601      9602      9601      9603      9602      9603      9604      9605
      9604      9606      9605      9606      9607      9608      9607      9609
      9608      9609      9610      9611      9610      9612      9611      9612
      9613      9614      9613      9615      9614      9615      9616      9617
      9616      9618      9617      9618      9619      9620      9619      9621
      9620      9621      9622      9623      9622      9624      9623      9624
      9625      9626      9625      9627      9626      9627      9628      9629
      9628      9630      9629      9630      9631      9632      9631      9633
      9632      9633      9634      9635      9634      9636      9635      9636
      9637      9638      9637      9639      9638      9639      9640      9641
      9640      9642      9641      9642      9643      9644      9643      9645
      9644      9645      9646      9647      9646      9648      9647      9648
      9649      9650      9649      9651      9650      9651      9652      9653
      9652      9654      9653      9654      9655      9656      9655      9657
      9656      9657      9658      9659      9658      9660      9659      9660
      9661      9662      9661      9663      9662      9663      9664      9665
      9664      9666      9665      9666      9667      9668      9667      9669
      9668      9669      9670      9671      9670      9672      9671      9672
      9673      9674      9673      9675      9674      9675      9676      9677
      9676      9678      9677      9678      9679      9680      9679      9681
      9680      9681      9682      9683      9682      9684      9683      9684
      9685      9686      9685      9687      9686      9687      9688      9689
      9688      9690      9689      9690      9691      9692      9691      9693
      9692      9693      9694      9695      9694      9696      9695      9696
      9697      9698      9697      9699      9698      9699      9700      9701
      9700      9702      9701      9702      9703      9704      9703      9705
      9704      9705      9706      9707      9706      9708      9707      9708
      9709      9710      9709      9711      9710      9711      9712      9713
      9712      9714      9713      9714      9715      9716      9715      9717
      9716      9717      9718      9719      9718      9720      9719      9720
      9721      9722      9721      9723      9722      9723      9724      9725
      9724      9726      9725      9726      9727      9728      9727      9729
      9728      9729      9730      9731      9730      9732      9731      9732
      9733      9734      9733      9735      9734      9735      9736      9737
      9736      9738      9737      9738      9739      9740      9739      9741
      9740      9741      9742      9743      9742      9744      9743      9744
      9745      9746      9745      9747      9746      9747      9748      9749
      9748      9750      9749      9750      9751      9752      9751      9753
      9752      9753      9754      9755      9754      9756      9755      9756
      9757      9758      9757      9759      9758      9759      9760      9761
      9760      9762      9761      9762      9763      9764      9763      9765
      9764      9765      9766      9767      9766      9768      9767      9768
      9769      9770      9769      9771      9770      9771      9772      9773
      9772      9774      9773      9774      9775      9776      9775      9777
      9776      9777      9778      9779      9778      9780      9779      9780
      9781      9782      9781      9783      9782      9783      9784      9785
      9784      9786      9785      9786      9787      9788      9787      9789
      9788      9789      9790      9791      9790      9792      9791      9792
      9793      9794      9793      9795      9794      9795      9796      9797
      9796      9798      9797      9798      9799      9800      9799      9801
      9800      9801      9802      9803      9802      9804      9803      9804
      9805      9806      9805      9807      9806      9807      9808      9809
      9808      9810      9809      9810      9811      9812      9811      9813
      9812      9813      9814      9815      9814      9816      9815      9816
      9817      9818      9817      9819      9818      9819      9820      9821
      9820      9822      9821      9822      9823      9824      9823      9825
      9824      9825      9826      9827      9826      9828      9827      9828
      9829      9830      9829      9831      9830      9831      9832      9833
      9832      9834      9833      9834      9835      9836      9835      9837
      9836      9837      9838      9839      9838      9840      9839      9840
      9841      9842      9841      9843      9842      9843      9844      9845
      9844      9846      9845      9846      9847      9848      9847      9849
      9848      9849      9850      9851      9850      9852      9851      9852
      9853      9854      9853      9855      9854      9855      9856      9857
      9856      9858      9857      9858      9859      9860      9859      9861
      9860      9861      9862      9863      9862      9864      9863      9864
      9865      9866      9865      9867      9866      9867      9868      9869
      9868      9870      9869      9870      9871      9872      9871      9873
      9872      9873      9874      9875      9874      9876      9875      9876
      9877      9878      9877      9879      9878      9879      9880      9881
      9880      9882      9881      9882      9883      9884      9883      9885
      9884      9885      9886      9887      9886      9888      9887      9888
      9889      9890      9889      9891      9890      9891      9892      9893
      9892      9894      9893      9894      9895      9896      9895      9897
      9896      9897      9898      9899      9898      9900      9899      9900
      9901      9902      9901      9903      9902      9903      9904      9905
      9904      9906      9905      9906      9907      9908      9907      9909
      9908      9909      9910      9911      9910      9912      9911      9912
      9913      9914      9913      9915      9914      9915      9916      9917
      9916      9918      9917      9918      9919      9920      9919      9921
      9920      9921      9922      9923      9922      9924      9923      9924
      9925      9926      9925      9927      9926      9927      9928      9929
      9928      9930      9929      9930      9931      9932      9931      9933
      9932      9933      9934      9935      9934      9936      9935      9936
      9937      9938      9937      9939      9938      9939      9940      9941
      9940      9942      9941      9942      9943      9944      9943      9945
      9944      9945      9946      9947      9946      9948      9947      9948
      9949      9950      9949      9951      9950      9951      9952      9953
      9952      9954      9953      9954      9955      9956      9955      9957
      9956      9957      9958      9959      9958      9960      9959      9960
      9961      9962      9961      9963      9962      9963      9964      9965
      9964      9966      9965      9966      9967      9968      9967      9969
      9968      9969      9970      9971      9970      9972      9971      9972
      9973      9974      9973      9975      9974      9975      9976      9977
      9976      9978      9977      9978      9979      9980      9979      9981
      9980      9981      9982      9983      9982      9984      9983      9984
      9985      9986      9985      9987      9986      9987      9988      9989
      9988      9990      9989      9990      9991      9992      9991      9993
      9992      9993      9994      9995      9994      9996      9995      9996
      9997      9998      9997      9999      9998      9999     10000     10001
     10000     10002     10001     10002     10003     10004     10003     10005
     10004     10005     10006     10007     10006     10008     10007     10008
     10009     10010     10009     10011     10010     10011     10012     10013
     10012     10014     10013     10014     10015     10016     10015     10017
     10016     10017     10018     10019     10018     10020     10019     10020
     10021     10022     10021     10023     10022     10023     10024     10025
     10024     10026     10025     10026     10027     10028     10027     10029
     10028     10029     10030     10031     10030     10032     10031     10032
     10033     10034     10033     10035     10034     10035     10036     10037
     10036     10038     10037     10038     10039     10040     10039     10041
     10040     10041     10042     10043     10042     10044     10043     10044
     10045     10046     10045     10047     10046     10047     10048     10049
     10048     10050     10049     10050     10051     10052     10051     10053
     10052     10053     10054     10055     10054     10056     10055     10056
     10057     10058     10057     10059     10058     10059     10060     10061
     10060     10062     10061     10062     10063     10064     10063     10065
     10064     10065     10066     10067     10066     10068     10067     10068
     10069     10070     10069     10071     10070     10071     10072     10073
     10072     10074     10073     10074     10075     10076     10075     10077
     10076     10077     10078     10079     10078     10080     10079     10080
     10081     10082     10081     10083     10082     10083     10084     10085
     10084     10086     10085     10086     10087     10088     10087     10089
     10088     10089     10090     10091     10090     10092     10091     10092
     10093     10094     10093     10095     10094     10095     10096     10097
     10096     10098     10097     10098     10099     10100     10099     10101
     10100     10101     10102     10103     10102     10104     10103     10104
     10105     10106     10105     10107     10106     10107     10108     10109
     10108     10110     10109     10110     10111     10112     10111     10113
     10112     10113     10114     10115     10114     10116     10115     10116
     10117     10118     10117     10119     10118     10119     10120     10121
     10120     10122     10121     10122     10123     10124     10123     10125
     10124     10125     10126     10127     10126     10128     10127     10128
     10129     10130     10129     10131     10130     10131     10132     10133
     10132     10134     10133     10134     10135     10136     10135     10137
     10136     10137     10138     10139     10138     10140     10139     10140
     10141     10142     10141     10143     10142     10143     10144     10145
     10144     10146     10145     10146     10147     10148     10147     10149
     10148     10149     10150     10151     10150     10152     10151     10152
     10153     10154     10153     10155     10154     10155     10156     10157
     10156     10158     10157     10158     10159     10160     10159     10161
     10160     10161     10162     10163     10162     10164     10163     10164
     10165     10166     10165     10167     10166     10167     10168     10169
     10168     10170     10169     10170     10171     10172     10171     10173
     10172     10173     10174     10175     10174     10176     10175     10176
     10177     10178     10177     10179     10178     10179     10180     10181
     10180     10182     10181     10182     10183     10184     10183     10185
     10184     10185     10186     10187     10186     10188     10187     10188
     10189     10190     10189     10191     10190     10191     10192     10193
     10192     10194     10193     10194     10195     10196     10195     10197
     10196     10197     10198     10199     10198     10200     10199     10200
     10201     10202     10201     10203     10202     10203     10204     10205
     10204     10206     10205     10206     10207     10208     10207     10209
     10208     10209     10210     10211     10210     10212     10211     10212
     10213     10214     10213     10215     10214     10215     10216     10217
     10216     10218     10217     10218     10219     10220     10219     10221
     10220     10221     10222     10223     10222     10224     10223     10224
     10225     10226     10225     10227     10226     10227     10228     10229
     10228     10230     10229     10230     10231     10232     10231     10233
     10232     10233     10234     10235     10234     10236     10235     10236
     10237     10238     10237     10239     10238     10239     10240     10241
     10240     10242     10241     10242     10243     10244     10243     10245
     10244     10245     10246     10247     10246     10248     10247     10248
     10249     10250     10249     10251     10250     10251     10252     10253
     10252     10254     10253     10254     10255     10256     10255     10257
     10256     10257     10258     10259     10258     10260     10259     10260
     10261     10262     10261     10263     10262     10263     10264     10265
     10264     10266     10265     10266     10267     10268     10267     10269
     10268     10269     10270     10271     10270     10272     10271     10272
     10273     10274     10273     10275     10274     10275     10276     10277
     10276     10278     10277     10278     10279     10280     10279     10281
     10280     10281     10282     10283     10282     10284     10283     10284
     10285     10286     10285     10287     10286     10287     10288     10289
     10288     10290     10289     10290     10291     10292     10291     10293
     10292     10293     10294     10295     10294     10296     10295     10296
     10297     10298     10297     10299     10298     10299     10300     10301
     10300     10302     10301     10302     10303     10304     10303     10305
     10304     10305     10306     10307     10306     10308     10307     10308
     10309     10310     10309     10311     10310     10311     10312     10313
     10312     10314     10313     10314     10315     10316     10315     10317
     10316     10317     10318     10319     10318     10320     10319     10320
     10321     10322     10321     10323     10322     10323     10324     10325
     10324     10326     10325     10326     10327     10328     10327     10329
     10328     10329     10330     10331     10330     10332     10331     10332
     10333     10334     10333     10335     10334     10335     10336     10337
     10336     10338     10337     10338     10339     10340     10339     10341
     10340     10341     10342     10343     10342     10344     10343     10344
     10345     10346     10345     10347     10346     10347     10348     10349
     10348     10350     10349     10350     10351     10352     10351     10353
     10352     10353     10354     10355     10354     10356     10355     10356
     10357     10358     10357     10359     10358     10359     10360     10361
     10360     10362     10361     10362     10363     10364     10363     10365
     10364     10365     10366     10367     10366     10368     10367     10368
     10369     10370     10369     10371     10370     10371     10372     10373
     10372     10374     10373     10374     10375     10376     10375     10377
     10376     10377     10378     10379     10378     10380     10379     10380
     10381     10382     10381     10383     10382     10383     10384     10385
     10384     10386     10385     10386     10387     10388     10387     10389
     10388     10389     10390     10391     10390     10392     10391     10392
     10393     10394     10393     10395     10394     10395     10396     10397
     10396     10398     10397     10398     10399     10400     10399     10401
     10400     10401     10402     10403     10402     10404     10403     10404
     10405     10406     10405     10407     10406     10407     10408     10409
     10408     10410     10409     10410     10411     10412     10411     10413
     10412     10413     10414     10415     10414     10416     10415     10416
     10417     10418     10417     10419     10418     10419     10420     10421
     10420     10422     10421     10422     10423     10424     10423     10425
     10424     10425     10426     10427     10426     10428     10427     10428
     10429     10430     10429     10431     10430     10431     10432     10433
     10432     10434     10433     10434     10435     10436     10435     10437
     10436     10437     10438     10439     10438     10440     10439     10440
     10441     10442     10441     10443     10442     10443     10444     10445
     10444     10446     10445     10446     10447     10448     10447     10449
     10448     10449     10450     10451     10450     10452     10451     10452
     10453     10454     10453     10455     10454     10455     10456     10457
     10456     10458     10457     10458     10459     10460     10459     10461
     10460     10461     10462     10463     10462     10464     10463     10464
     10465     10466     10465     10467     10466     10467     10468     10469
     10468     10470     10469     10470     10471     10472     10471     10473
     10472     10473     10474     10475     10474     10476     10475     10476
     10477     10478     10477     10479     10478     10479     10480     10481
     10480     10482     10481     10482     10483     10484     10483     10485
     10484     10485     10486     10487     10486     10488     10487     10488
     10489     10490     10489     10491     10490     10491     10492     10493
     10492     10494     10493     10494     10495     10496     10495     10497
     10496     10497     10498     10499     10498     10500     10499     10500
     10501     10502     10501     10503     10502     10503     10504     10505
     10504     10506     10505     10506     10507     10508     10507     10509
     10508     10509     10510     10511     10510     10512     10511     10512
     10513     10514     10513     10515     10514     10515     10516     10517
     10516     10518     10517     10518     10519     10520     10519     10521
     10520     10521     10522     10523     10522     10524     10523     10524
     10525     10526     10525     10527     10526     10527     10528     10529
     10528     10530     10529     10530     10531     10532     10531     10533
     10532     10533     10534     10535     10534     10536     10535     10536
     10537     10538     10537     10539     10538     10539     10540     10541
     10540     10542     10541     10542     10543     10544     10543     10545
     10544     10545     10546     10547     10546     10548     10547     10548
     10549     10550     10549     10551     10550     10551     10552     10553
     10552     10554     10553     10554     10555     10556     10555     10557
     10556     10557     10558     10559     10558     10560     10559     10560
     10561     10562     10561     10563     10562     10563     10564     10565
     10564     10566     10565     10566     10567     10568     10567     10569
     10568     10569     10570     10571     10570     10572     10571     10572
     10573     10574     10573     10575     10574     10575     10576     10577
     10576     10578     10577     10578     10579     10580     10579     10581
     10580     10581     10582     10583     10582     10584     10583     10584
     10585     10586     10585     10587     10586     10587     10588     10589
     10588     10590     10589     10590     10591     10592     10591     10593
     10592     10593     10594     10595     10594     10596     10595     10596
     10597     10598     10597     10599     10598     10599     10600     10601
     10600     10602     10601     10602     10603     10604     10603     10605
     10604     10605     10606     10607     10606     10608     10607     10608
     10609     10610     10609     10611     10610     10611     10612     10613
     10612     10614     10613     10614     10615     10616     10615     10617
     10616     10617     10618     10619     10618     10620     10619     10620
     10621     10622     10621     10623     10622     10623     10624     10625
     10624     10626     10625     10626     10627     10628     10627     10629
     10628     10629     10630     10631     10630     10632     10631     10632
     10633     10634     10633     10635     10634     10635     10636     10637
     10636     10638     10637     10638     10639     10640     10639     10641
     10640     10641     10642     10643     10642     10644     10643     10644
     10645     10646     10645     10647     10646     10647     10648     10649
     10648     10650     10649     10650     10651     10652     10651     10653
     10652     10653     10654     10655     10654     10656     10655     10656
     10657     10658     10657     10659     10658     10659     10660     10661
     10660     10662     10661     10662     10663     10664     10663     10665
     10664     10665     10666     10667     10666     10668     10667     10668
     10669     10670     10669     10671     10670     10671     10672     10673
     10672     10674     10673     10674     10675     10676     10675     10677
     10676     10677     10678     10679     10678     10680     10679     10680
     10681     10682     10681     10683     10682     10683     10684     10685
     10684     10686     10685     10686     10687     10688     10687     10689
     10688     10689     10690     10691     10690     10692     10691     10692
     10693     10694     10693     10695     10694     10695     10696     10697
     10696     10698     10697     10698     10699     10700     10699     10701
     10700     10701     10702     10703     10702     10704     10703     10704
     10705     10706     10705     10707     10706     10707     10708     10709
     10708     10710     10709     10710     10711     10712     10711     10713
     10712     10713     10714     10715     10714     10716     10715     10716
     10717     10718     10717     10719     10718     10719     10720     10721
     10720     10722     10721     10722     10723     10724     10723     10725
     10724     10725     10726     10727     10726     10728     10727     10728
     10729     10730     10729     10731     10730     10731     10732     10733
     10732     10734     10733     10734     10735     10736     10735     10737
     10736     10737     10738     10739     10738     10740     10739     10740
     10741     10742     10741     10743     10742     10743     10744     10745
     10744     10746     10745     10746     10747     10748     10747     10749
     10748     10749     10750     10751     10750     10752     10751     10752
     10753     10754     10753     10755     10754     10755     10756     10757
     10756     10758     10757     10758     10759     10760     10759     10761
     10760     10761     10762     10763     10762     10764     10763     10764
     10765     10766     10765     10767     10766     10767     10768     10769
     10768     10770     10769     10770     10771     10772     10771     10773
     10772     10773     10774     10775     10774     10776     10775     10776
     10777     10778     10777     10779     10778     10779     10780     10781
     10780     10782     10781     10782     10783     10784     10783     10785
     10784     10785     10786     10787     10786     10788     10787     10788
     10789     10790     10789     10791     10790     10791     10792     10793
     10792     10794     10793     10794     10795     10796     10795     10797
     10796     10797     10798     10799     10798     10800     10799     10800
     10801     10802     10801     10803     10802     10803     10804     10805
     10804     10806     10805     10806     10807     10808     10807     10809
     10808     10809     10810     10811     10810     10812     10811     10812
     10813     10814     10813     10815     10814     10815     10816     10817
     10816     10818     10817     10818     10819     10820     10819     10821
     10820     10821     10822     10823     10822     10824     10823     10824
     10825     10826     10825     10827     10826     10827     10828     10829
     10828     10830     10829     10830     10831     10832     10831     10833
     10832     10833     10834     10835     10834     10836     10835     10836
     10837     10838     10837     10839     10838     10839     10840     10841
     10840     10842     10841     10842     10843     10844     10843     10845
     10844     10845     10846     10847     10846     10848     10847     10848
     10849     10850     10849     10851     10850     10851     10852     10853
     10852     10854     10853     10854     10855     10856     10855     10857
     10856     10857     10858     10859     10858     10860     10859     10860
     10861     10862     10861     10863     10862     10863     10864     10865
     10864     10866     10865     10866     10867     10868     10867     10869
     10868     10869     10870     10871     10870     10872     10871     10872
     10873     10874     10873     10875     10874     10875     10876     10877
     10876     10878     10877     10878     10879     10880     10879     10881
     10880     10881     10882     10883     10882     10884     10883     10884
     10885     10886     10885     10887     10886     10887     10888     10889
     10888     10890     10889     10890     10891     10892     10891     10893
     10892     10893     10894     10895     10894     10896     10895     10896
     10897     10898     10897     10899     10898     10899     10900     10901
     10900     10902     10901     10902     10903     10904     10903     10905
     10904     10905     10906     10907     10906     10908     10907     10908
     10909     10910     10909     10911     10910     10911     10912     10913
     10912     10914     10913     10914     10915     10916     10915     10917
     10916     10917     10918     10919     10918     10920     10919     10920
     10921     10922     10921     10923     10922     10923     10924     10925
     10924     10926     10925     10926     10927     10928     10927     10929
     10928     10929     10930     10931     10930     10932     10931     10932
     10933     10934     10933     10935     10934     10935     10936     10937
     10936     10938     10937     10938     10939     10940     10939     10941
     10940     10941     10942     10943     10942     10944     10943     10944
     10945     10946     10945     10947     10946     10947     10948     10949
     10948     10950     10949     10950     10951     10952     10951     10953
     10952     10953     10954     10955     10954     10956     10955     10956
     10957     10958     10957     10959     10958     10959     10960     10961
     10960     10962     10961     10962     10963     10964     10963     10965
     10964     10965     10966     10967     10966     10968     10967     10968
     10969     10970     10969     10971     10970     10971     10972     10973
     10972     10974     10973     10974     10975     10976     10975     10977
     10976     10977     10978     10979     10978     10980     10979     10980
     10981     10982     10981     10983     10982     10983     10984     10985
     10984     10986     10985     10986     10987     10988     10987     10989
     10988     10989     10990     10991     10990     10992     10991     10992
     10993     10994     10993     10995     10994     10995     10996     10997
     10996     10998     10997     10998     10999     11000     10999     11001
     11000     11001     11002     11003     11002     11004     11003     11004
     11005     11006     11005     11007     11006     11007     11008     11009
     11008     11010     11009     11010     11011     11012     11011     11013
     11012     11013     11014     11015     11014     11016     11015     11016
     11017     11018     11017     11019     11018     11019     11020     11021
     11020     11022     11021     11022     11023     11024     11023     11025
     11024     11025     11026     11027     11026     11028     11027     11028
     11029     11030     11029     11031     11030     11031     11032     11033
     11032     11034     11033     11034     11035     11036     11035     11037
     11036     11037     11038     11039     11038     11040     11039     11040
     11041     11042     11041     11043     11042     11043     11044     11045
     11044     11046     11045     11046     11047     11048     11047     11049
     11048     11049     11050     11051     11050     11052     11051     11052
     11053     11054     11053     11055     11054     11055     11056     11057
     11056     11058     11057     11058     11059     11060     11059     11061
     11060     11061     11062     11063     11062     11064     11063     11064
     11065     11066     11065     11067     11066     11067     11068     11069
     11068     11070     11069     11070     11071     11072     11071     11073
     11072     11073     11074     11075     11074     11076     11075     11076
     11077     11078     11077     11079     11078     11079     11080     11081
     11080     11082     11081     11082     11083     11084     11083     11085
     11084     11085     11086     11087     11086     11088     11087     11088
     11089     11090     11089     11091     11090     11091     11092     11093
     11092     11094     11093     11094     11095     11096     11095     11097
     11096     11097     11098     11099     11098     11100     11099     11100
     11101     11102     11101     11103     11102     11103     11104     11105
     11104     11106     11105     11106     11107     11108     11107     11109
     11108     11109     11110     11111     11110     11112     11111     11112
     11113     11114     11113     11115     11114     11115     11116     11117
     11116     11118     11117     11118     11119     11120     11119     11121
     11120     11121     11122     11123     11122     11124     11123     11124
     11125     11126     11125     11127     11126     11127     11128     11129
     11128     11130     11129     11130     11131     11132     11131     11133
     11132     11133     11134     11135     11134     11136     11135     11136
     11137     11138     11137     11139     11138     11139     11140     11141
     11140     11142     11141     11142     11143     11144     11143     11145
     11144     11145     11146     11147     11146     11148     11147     11148
     11149     11150     11149     11151     11150     11151     11152     11153
     11152     11154     11153     11154     11155     11156     11155     11157
     11156     11157     11158     11159     11158     11160     11159     11160
     11161     11162     11161     11163     11162     11163     11164     11165
     11164     11166     11165     11166     11167     11168     11167     11169
     11168     11169     11170     11171     11170     11172     11171     11172
     11173     11174     11173     11175     11174     11175     11176     11177
     11176     11178     11177     11178     11179     11180     11179     11181
     11180     11181     11182     11183     11182     11184     11183     11184
     11185     11186     11185     11187     11186     11187     11188     11189
     11188     11190     11189     11190     11191     11192     11191     11193
     11192     11193     11194     11195     11194     11196     11195     11196
     11197     11198     11197     11199     11198     11199     11200     11201
     11200     11202     11201     11202     11203     11204     11203     11205
     11204     11205     11206     11207     11206     11208     11207     11208
     11209     11210     11209     11211     11210     11211     11212     11213
     11212     11214     11213     11214     11215     11216     11215     11217
     11216     11217     11218     11219     11218     11220     11219     11220
     11221     11222     11221     11223     11222     11223     11224     11225
     11224     11226     11225     11226     11227     11228     11227     11229
     11228     11229     11230     11231     11230     11232     11231     11232
     11233     11234     11233     11235     11234     11235     11236     11237
     11236     11238     11237     11238     11239     11240     11239     11241
     11240     11241     11242     11243     11242     11244     11243     11244
     11245     11246     11245     11247     11246     11247     11248     11249
     11248     11250     11249     11250     11251     11252     11251     11253
     11252     11253     11254     11255     11254     11256     11255     11256
     11257     11258     11257     11259     11258     11259     11260     11261
     11260     11262     11261     11262     11263     11264     11263     11265
     11264     11265     11266     11267     11266     11268     11267     11268
     11269     11270     11269     11271     11270     11271     11272     11273
     11272     11274     11273     11274     11275     11276     11275     11277
     11276     11277     11278     11279     11278     11280     11279     11280
     11281     11282     11281     11283     11282     11283     11284     11285
     11284     11286     11285     11286     11287     11288     11287     11289
     11288     11289     11290     11291     11290     11292     11291     11292
     11293     11294     11293     11295     11294     11295     11296     11297
     11296     11298     11297     11298     11299     11300     11299     11301
     11300     11301     11302     11303     11302     11304     11303     11304
     11305     11306     11305     11307     11306     11307     11308     11309
     11308     11310     11309     11310     11311     11312     11311     11313
     11312     11313     11314     11315     11314     11316     11315     11316
     11317     11318     11317     11319     11318     11319     11320     11321
     11320     11322     11321     11322     11323     11324     11323     11325
     11324     11325     11326     11327     11326     11328     11327     11328
     11329     11330     11329     11331     11330     11331     11332     11333
     11332     11334     11333     11334     11335     11336     11335     11337
     11336     11337     11338     11339     11338     11340     11339     11340
     11341     11342     11341     11343     11342     11343     11344     11345
     11344     11346     11345     11346     11347     11348     11347     11349
     11348     11349     11350     11351     11350     11352     11351     11352
     11353     11354     11353     11355     11354     11355     11356     11357
     11356     11358     11357     11358     11359     11360     11359     11361
     11360     11361     11362     11363     11362     11364     11363     11364
     11365     11366     11365     11367     11366     11367     11368     11369
     11368     11370     11369     11370     11371     11372     11371     11373
     11372     11373     11374     11375     11374     11376     11375     11376
     11377     11378     11377     11379     11378     11379     11380     11381
     11380     11382     11381     11382     11383     11384     11383     11385
     11384     11385     11386     11387     11386     11388     11387     11388
     11389     11390     11389     11391     11390     11391     11392     11393
     11392     11394     11393     11394     11395     11396     11395     11397
     11396     11397     11398     11399     11398     11400     11399     11400
     11401     11402     11401     11403     11402     11403     11404     11405
     11404     11406     11405     11406     11407     11408     11407     11409
     11408     11409     11410     11411     11410     11412     11411     11412
     11413     11414     11413     11415     11414     11415     11416     11417
     11416     11418     11417     11418     11419     11420     11419     11421
     11420     11421     11422     11423     11422     11424     11423     11424
     11425     11426     11425     11427     11426     11427     11428     11429
     11428     11430     11429     11430     11431     11432     11431     11433
     11432     11433     11434     11435     11434     11436     11435     11436
     11437     11438     11437     11439     11438     11439     11440     11441
     11440     11442     11441     11442     11443     11444     11443     11445
     11444     11445     11446     11447     11446     11448     11447     11448
     11449     11450     11449     11451     11450     11451     11452     11453
     11452     11454     11453     11454     11455     11456     11455     11457
     11456     11457     11458     11459     11458     11460     11459     11460
     11461     11462     11461     11463     11462     11463     11464     11465
     11464     11466     11465     11466     11467     11468     11467     11469
     11468     11469     11470     11471     11470     11472     11471     11472
     11473     11474     11473     11475     11474     11475     11476     11477
     11476     11478     11477     11478     11479     11480     11479     11481
     11480     11481     11482     11483     11482     11484     11483     11484
     11485     11486     11485     11487     11486     11487     11488     11489
     11488     11490     11489     11490     11491     11492     11491     11493
     11492     11493     11494     11495     11494     11496     11495     11496
     11497     11498     11497     11499     11498     11499     11500     11501
     11500     11502     11501     11502     11503     11504     11503     11505
     11504     11505     11506     11507     11506     11508     11507     11508
     11509     11510     11509     11511     11510     11511     11512     11513
     11512     11514     11513     11514     11515     11516     11515     11517
     11516     11517     11518     11519     11518     11520     11519     11520
     11521     11522     11521     11523     11522     11523     11524     11525
     11524     11526     11525     11526     11527     11528     11527     11529
     11528     11529     11530     11531     11530     11532     11531     11532
     11533     11534     11533     11535     11534     11535     11536     11537
     11536     11538     11537     11538     11539     11540     11539     11541
     11540     11541     11542     11543     11542     11544     11543     11544
     11545     11546     11545     11547     11546     11547     11548     11549
     11548     11550     11549     11550     11551     11552     11551     11553
     11552     11553     11554     11555     11554     11556     11555     11556
     11557     11558     11557     11559     11558     11559     11560     11561
     11560     11562     11561     11562     11563     11564     11563     11565
     11564     11565     11566     11567     11566     11568     11567     11568
     11569     11570     11569     11571     11570     11571     11572     11573
     11572     11574     11573     11574     11575     11576     11575     11577
     11576     11577     11578     11579     11578     11580     11579     11580
     11581     11582     11581     11583     11582     11583     11584     11585
     11584     11586     11585     11586     11587     11588     11587     11589
     11588     11589     11590     11591     11590     11592     11591     11592
     11593     11594     11593     11595     11594     11595     11596     11597
     11596     11598     11597     11598     11599     11600     11599     11601
     11600     11601     11602     11603     11602     11604     11603     11604
     11605     11606     11605     11607     11606     11607     11608     11609
     11608     11610     11609     11610     11611     11612     11611     11613
     11612     11613     11614     11615     11614     11616     11615     11616
     11617     11618     11617     11619     11618     11619     11620     11621
     11620     11622     11621     11622     11623     11624     11623     11625
     11624     11625     11626     11627     11626     11628     11627     11628
     11629     11630     11629     11631     11630     11631     11632     11633
     11632     11634     11633     11634     11635     11636     11635     11637
     11636     11637     11638     11639     11638     11640     11639     11640
     11641     11642     11641     11643     11642     11643     11644     11645
     11644     11646     11645     11646     11647     11648     11647     11649
     11648     11649     11650     11651     11650     11652     11651     11652
     11653     11654     11653     11655     11654     11655     11656     11657
     11656     11658     11657     11658     11659     11660     11659     11661
     11660     11661     11662     11663     11662     11664     11663     11664
     11665     11666     11665     11667     11666     11667     11668     11669
     11668     11670     11669     11670     11671     11672     11671     11673
     11672     11673     11674     11675     11674     11676     11675     11676
     11677     11678     11677     11679     11678     11679     11680     11681
     11680     11682     11681     11682     11683     11684     11683     11685
     11684     11685     11686     11687     11686     11688     11687     11688
     11689     11690     11689     11691     11690     11691     11692     11693
     11692     11694     11693     11694     11695     11696     11695     11697
     11696     11697     11698     11699     11698     11700     11699     11700
     11701     11702     11701     11703     11702     11703     11704     11705
     11704     11706     11705     11706     11707     11708     11707     11709
     11708     11709     11710     11711     11710     11712     11711     11712
     11713     11714     11713     11715     11714     11715     11716     11717
     11716     11718     11717     11718     11719     11720     11719     11721
     11720     11721     11722     11723     11722     11724     11723     11724
     11725     11726     11725     11727     11726     11727     11728     11729
     11728     11730     11729     11730     11731     11732     11731     11733
     11732     11733     11734     11735     11734     11736     11735     11736
     11737     11738     11737     11739     11738     11739     11740     11741
     11740     11742     11741     11742     11743     11744     11743     11745
     11744     11745     11746     11747     11746     11748     11747     11748
     11749     11750     11749     11751     11750     11751     11752     11753
     11752     11754     11753     11754     11755     11756     11755     11757
     11756     11757     11758     11759     11758     11760     11759     11760
     11761     11762     11761     11763     11762     11763     11764     11765
     11764     11766     11765     11766     11767     11768     11767     11769
     11768     11769     11770     11771     11770     11772     11771     11772
     11773     11774     11773     11775     11774     11775     11776     11777
     11776     11778     11777     11778     11779     11780     11779     11781
     11780     11781     11782     11783     11782     11784     11783     11784
     11785     11786     11785     11787     11786     11787     11788     11789
     11788     11790     11789     11790     11791     11792     11791     11793
     11792     11793     11794     11795     11794     11796     11795     11796
     11797     11798     11797     11799     11798     11799     11800     11801
     11800     11802     11801     11802     11803     11804     11803     11805
     11804     11805     11806     11807     11806     11808     11807     11808
     11809     11810     11809     11811     11810     11811     11812     11813
     11812     11814     11813     11814     11815     11816     11815     11817
     11816     11817     11818     11819     11818     11820     11819     11820
     11821     11822     11821     11823     11822     11823     11824     11825
     11824     11826     11825     11826     11827     11828     11827     11829
     11828     11829     11830     11831     11830     11832     11831     11832
     11833     11834     11833     11835     11834     11835     11836     11837
     11836     11838     11837     11838     11839     11840     11839     11841
     11840     11841     11842     11843     11842     11844     11843     11844
     11845     11846     11845     11847     11846     11847     11848     11849
     11848     11850     11849     11850     11851     11852     11851     11853
     11852     11853     11854     11855     11854     11856     11855     11856
     11857     11858     11857     11859     11858     11859     11860     11861
     11860     11862     11861     11862     11863     11864     11863     11865
     11864     11865     11866     11867     11866     11868     11867     11868
     11869     11870     11869     11871     11870     11871     11872     11873
     11872     11874     11873     11874     11875     11876     11875     11877
     11876     11877     11878     11879     11878     11880     11879     11880
     11881     11882     11881     11883     11882     11883     11884     11885
     11884     11886     11885     11886     11887     11888     11887     11889
     11888     11889     11890     11891     11890     11892     11891     11892
     11893     11894     11893     11895     11894     11895     11896     11897
     11896     11898     11897     11898     11899     11900     11899     11901
     11900     11901     11902     11903     11902     11904     11903     11904
     11905     11906     11905     11907     11906     11907     11908     11909
     11908     11910     11909     11910     11911     11912     11911     11913
     11912     11913     11914     11915     11914     11916     11915     11916
     11917     11918     11917     11919     11918     11919     11920     11921
     11920     11922     11921     11922     11923     11924     11923     11925
     11924     11925     11926     11927     11926     11928     11927     11928
     11929     11930     11929     11931     11930     11931     11932     11933
     11932     11934     11933     11934     11935     11936     11935     11937
     11936     11937     11938     11939     11938     11940     11939     11940
     11941     11942     11941     11943     11942     11943     11944     11945
     11944     11946     11945     11946     11947     11948     11947     11949
     11948     11949     11950     11951     11950     11952     11951     11952
     11953     11954     11953     11955     11954     11955     11956     11957
     11956     11958     11957     11958     11959     11960     11959     11961
     11960     11961     11962     11963     11962     11964     11963     11964
     11965     11966     11965     11967     11966     11967     11968     11969
     11968     11970     11969     11970     11971     11972     11971     11973
     11972     11973     11974     11975     11974     11976     11975     11976
     11977     11978     11977     11979     11978     11979     11980     11981
     11980     11982     11981     11982     11983     11984     11983     11985
     11984     11985     11986     11987     11986     11988     11987     11988
     11989     11990     11989     11991     11990     11991     11992     11993
     11992     11994     11993     11994     11995     11996     11995     11997
     11996     11997     11998     11999     11998     12000     11999     12000
     12001     12002     12001     12003     12002     12003     12004     12005
     12004     12006     12005     12006     12007     12008     12007     12009
     12008     12009     12010     12011     12010     12012     12011     12012
     12013     12014     12013     12015     12014     12015     12016     12017
     12016     12018     12017     12018     12019     12020     12019     12021
     12020     12021     12022     12023     12022     12024     12023     12024
     12025     12026     12025     12027     12026     12027     12028     12029
     12028     12030     12029     12030     12031     12032     12031     12033
     12032     12033     12034     12035     12034     12036     12035     12036
     12037     12038     12037     12039     12038     12039     12040     12041
     12040     12042     12041     12042     12043     12044     12043     12045
     12044     12045     12046     12047     12046     12048     12047     12048
     12049     12050     12049     12051     12050     12051     12052     12053
     12052     12054     12053     12054     12055     12056     12055     12057
     12056     12057     12058     12059     12058     12060     12059     12060
     12061     12062     12061     12063     12062     12063     12064     12065
     12064     12066     12065     12066     12067     12068     12067     12069
     12068     12069     12070     12071     12070     12072     12071     12072
     12073     12074     12073     12075     12074     12075     12076     12077
     12076     12078     12077     12078     12079     12080     12079     12081
     12080     12081     12082     12083     12082     12084     12083     12084
     12085     12086     12085     12087     12086     12087     12088     12089
     12088     12090     12089     12090     12091     12092     12091     12093
     12092     12093     12094     12095     12094     12096     12095     12096
     12097     12098     12097     12099     12098     12099     12100     12101
     12100     12102     12101     12102     12103     12104     12103     12105
     12104     12105     12106     12107     12106     12108     12107     12108
     12109     12110     12109     12111     12110     12111     12112     12113
     12112     12114     12113     12114     12115     12116     12115     12117
     12116     12117     12118     12119     12118     12120     12119     12120
     12121     12122     12121     12123     12122     12123     12124     12125
     12124     12126     12125     12126     12127     12128     12127     12129
     12128     12129     12130     12131     12130     12132     12131     12132
     12133     12134     12133     12135     12134     12135     12136     12137
     12136     12138     12137     12138     12139     12140     12139     12141
     12140     12141     12142     12143     12142     12144     12143     12144
     12145     12146     12145     12147     12146     12147     12148     12149
     12148     12150     12149     12150     12151     12152     12151     12153
     12152     12153     12154     12155     12154     12156     12155     12156
     12157     12158     12157     12159     12158     12159     12160     12161
     12160     12162     12161     12162     12163     12164     12163     12165
     12164     12165     12166     12167     12166     12168     12167     12168
     12169     12170     12169     12171     12170     12171     12172     12173
     12172     12174     12173     12174     12175     12176     12175     12177
     12176     12177     12178     12179     12178     12180     12179     12180
     12181     12182     12181     12183     12182     12183     12184     12185
     12184     12186     12185     12186     12187     12188     12187     12189
     12188     12189     12190     12191     12190     12192     12191     12192
     12193     12194     12193     12195     12194     12195     12196     12197
     12196     12198     12197     12198     12199     12200     12199     12201
     12200     12201     12202     12203     12202     12204     12203     12204
     12205     12206     12205     12207     12206     12207     12208     12209
     12208     12210     12209     12210     12211     12212     12211     12213
     12212     12213     12214     12215     12214     12216     12215     12216
     12217     12218     12217     12219     12218     12219     12220     12221
     12220     12222     12221     12222     12223     12224     12223     12225
     12224     12225     12226     12227     12226     12228     12227     12228
     12229     12230     12229     12231     12230     12231     12232     12233
     12232     12234     12233     12234     12235     12236     12235     12237
     12236     12237     12238     12239     12238     12240     12239     12240
     12241     12242     12241     12243     12242     12243     12244     12245
     12244     12246     12245     12246     12247     12248     12247     12249
     12248     12249     12250     12251     12250     12252     12251     12252
     12253     12254     12253     12255     12254     12255     12256     12257
     12256     12258     12257     12258     12259     12260     12259     12261
     12260     12261     12262     12263     12262     12264     12263     12264
     12265     12266     12265     12267     12266     12267     12268     12269
     12268     12270     12269     12270     12271     12272     12271     12273
     12272     12273     12274     12275     12274     12276     12275     12276
     12277     12278     12277     12279     12278     12279     12280     12281
     12280     12282     12281     12282     12283     12284     12283     12285
     12284     12285     12286     12287     12286     12288     12287     12288
     12289     12290     12289     12291     12290     12291     12292     12293
     12292     12294     12293     12294     12295     12296     12295     12297
     12296     12297     12298     12299     12298     12300     12299     12300
     12301     12302     12301     12303     12302     12303     12304     12305
     12304     12306     12305     12306     12307     12308     12307     12309
     12308     12309     12310     12311     12310     12312     12311     12312
     12313     12314     12313     12315     12314     12315     12316     12317
     12316     12318     12317     12318     12319     12320     12319     12321
     12320     12321     12322     12323     12322     12324     12323     12324
     12325     12326     12325     12327     12326     12327     12328     12329
     12328     12330     12329     12330     12331     12332     12331     12333
     12332     12333     12334     12335     12334     12336     12335     12336
     12337     12338     12337     12339     12338     12339     12340     12341
     12340     12342     12341     12342     12343     12344     12343     12345
     12344     12345     12346     12347     12346     12348     12347     12348
     12349     12350     12349     12351     12350     12351     12352     12353
     12352     12354     12353     12354     12355     12356     12355     12357
     12356     12357     12358     12359     12358     12360     12359     12360
     12361     12362     12361     12363     12362     12363     12364     12365
     12364     12366     12365     12366     12367     12368     12367     12369
     12368     12369     12370     12371     12370     12372     12371     12372
     12373     12374     12373     12375     12374     12375     12376     12377
     12376     12378     12377     12378     12379     12380     12379     12381
     12380     12381     12382     12383     12382     12384     12383     12384
     12385     12386     12385     12387     12386     12387     12388     12389
     12388     12390     12389     12390     12391     12392     12391     12393
     12392     12393     12394     12395     12394     12396     12395     12396
     12397     12398     12397     12399     12398     12399     12400     12401
     12400     12402     12401     12402     12403     12404     12403     12405
     12404     12405     12406     12407     12406     12408     12407     12408
     12409     12410     12409     12411     12410     12411     12412     12413
     12412     12414     12413     12414     12415     12416     12415     12417
     12416     12417     12418     12419     12418     12420     12419     12420
     12421     12422     12421     12423     12422     12423     12424     12425
     12424     12426     12425     12426     12427     12428     12427     12429
     12428     12429     12430     12431     12430     12432     12431     12432
     12433     12434     12433     12435     12434     12435     12436     12437
     12436     12438     12437     12438     12439     12440     12439     12441
     12440     12441     12442     12443     12442     12444     12443     12444
     12445     12446     12445     12447     12446     12447     12448     12449
     12448     12450     12449     12450     12451     12452     12451     12453
     12452     12453     12454     12455     12454     12456     12455     12456
     12457     12458     12457     12459     12458     12459     12460     12461
     12460     12462     12461     12462     12463     12464     12463     12465
     12464     12465     12466     12467     12466     12468     12467     12468
     12469     12470     12469     12471     12470     12471     12472     12473
     12472     12474     12473     12474     12475     12476     12475     12477
     12476     12477     12478     12479     12478     12480     12479     12480
     12481     12482     12481     12483     12482     12483     12484     12485
     12484     12486     12485     12486     12487     12488     12487     12489
     12488     12489     12490     12491     12490     12492     12491     12492
     12493     12494     12493     12495     12494     12495     12496     12497
     12496     12498     12497     12498     12499     12500     12499     12501
     12500     12501     12502     12503     12502     12504     12503     12504
     12505     12506     12505     12507     12506     12507     12508     12509
     12508     12510     12509     12510     12511     12512     12511     12513
     12512     12513     12514     12515     12514     12516     12515     12516
     12517     12518     12517     12519     12518     12519     12520     12521
     12520     12522     12521     12522     12523     12524     12523     12525
     12524     12525     12526     12527     12526     12528     12527     12528
     12529     12530     12529     12531     12530     12531     12532     12533
     12532     12534     12533     12534     12535     12536     12535     12537
     12536     12537     12538     12539     12538     12540     12539     12540
     12541     12542     12541     12543     12542     12543     12544     12545
     12544     12546     12545     12546     12547     12548     12547     12549
     12548     12549     12550     12551     12550     12552     12551     12552
     12553     12554     12553     12555     12554     12555     12556     12557
     12556     12558     12557     12558     12559     12560     12559     12561
     12560     12561     12562     12563     12562     12564     12563     12564
     12565     12566     12565     12567     12566     12567     12568     12569
     12568     12570     12569     12570     12571     12572     12571     12573
     12572     12573     12574     12575     12574     12576     12575     12576
     12577     12578     12577     12579     12578     12579     12580     12581
     12580     12582     12581     12582     12583     12584     12583     12585
     12584     12585     12586     12587     12586     12588     12587     12588
     12589     12590     12589     12591     12590     12591     12592     12593
     12592     12594     12593     12594     12595     12596     12595     12597
     12596     12597     12598     12599     12598     12600     12599     12600
     12601     12602     12601     12603     12602     12603     12604     12605
     12604     12606     12605     12606     12607     12608     12607     12609
     12608     12609     12610     12611     12610     12612     12611     12612
     12613     12614     12613     12615     12614     12615     12616     12617
     12616     12618     12617     12618     12619     12620     12619     12621
     12620     12621     12622     12623     12622     12624     12623     12624
     12625     12626     12625     12627     12626     12627     12628     12629
     12628     12630     12629     12630     12631     12632     12631     12633
     12632     12633     12634     12635     12634     12636     12635     12636
     12637     12638     12637     12639     12638     12639     12640     12641
     12640     12642     12641     12642     12643     12644     12643     12645
     12644     12645     12646     12647     12646     12648     12647     12648
     12649     12650     12649     12651     12650     12651     12652     12653
     12652     12654     12653     12654     12655     12656     12655     12657
     12656     12657     12658     12659     12658     12660     12659     12660
     12661     12662     12661     12663     12662     12663     12664     12665
     12664     12666     12665     12666     12667     12668     12667     12669
     12668     12669     12670     12671     12670     12672     12671     12672
     12673     12674     12673     12675     12674     12675     12676     12677
     12676     12678     12677     12678     12679     12680     12679     12681
     12680     12681     12682     12683     12682     12684     12683     12684
     12685     12686     12685     12687     12686     12687     12688     12689
     12688     12690     12689     12690     12691     12692     12691     12693
     12692     12693     12694     12695     12694     12696     12695     12696
     12697     12698     12697     12699     12698     12699     12700     12701
     12700     12702     12701     12702     12703     12704     12703     12705
     12704     12705     12706     12707     12706     12708     12707     12708
     12709     12710     12709     12711     12710     12711     12712     12713
     12712     12714     12713     12714     12715     12716     12715     12717
     12716     12717     12718     12719     12718     12720     12719     12720
     12721     12722     12721     12723     12722     12723     12724     12725
     12724     12726     12725     12726     12727     12728     12727     12729
     12728     12729     12730     12731     12730     12732     12731     12732
     12733     12734     12733     12735     12734     12735     12736     12737
     12736     12738     12737     12738     12739     12740     12739     12741
     12740     12741     12742     12743     12742     12744     12743     12744
     12745     12746     12745     12747     12746     12747     12748     12749
     12748     12750     12749     12750     12751     12752     12751     12753
     12752     12753     12754     12755     12754     12756     12755     12756
     12757     12758     12757     12759     12758     12759     12760     12761
     12760     12762     12761     12762     12763     12764     12763     12765
     12764     12765     12766     12767     12766     12768     12767     12768
     12769     12770     12769     12771     12770     12771     12772     12773
     12772     12774     12773     12774     12775     12776     12775     12777
     12776     12777     12778     12779     12778     12780     12779     12780
     12781     12782     12781     12783     12782     12783     12784     12785
     12784     12786     12785     12786     12787     12788     12787     12789
     12788     12789     12790     12791     12790     12792     12791     12792
     12793     12794     12793     12795     12794     12795     12796     12797
     12796     12798     12797     12798     12799     12800     12799     12801
     12800     12801     12802     12803     12802     12804     12803     12804
     12805     12806     12805     12807     12806     12807     12808     12809
     12808     12810     12809     12810     12811     12812     12811     12813
     12812     12813     12814     12815     12814     12816     12815     12816
     12817     12818     12817     12819     12818     12819     12820     12821
     12820     12822     12821     12822     12823     12824     12823     12825
     12824     12825     12826     12827     12826     12828     12827     12828
     12829     12830     12829     12831     12830     12831     12832     12833
     12832     12834     12833     12834     12835     12836     12835     12837
     12836     12837     12838     12839     12838     12840     12839     12840
     12841     12842     12841     12843     12842     12843     12844     12845
     12844     12846     12845     12846     12847     12848     12847     12849
     12848     12849     12850     12851     12850     12852     12851     12852
     12853     12854     12853     12855     12854     12855     12856     12857
     12856     12858     12857     12858     12859     12860     12859     12861
     12860     12861     12862     12863     12862     12864     12863     12864
     12865     12866     12865     12867     12866     12867     12868     12869
     12868     12870     12869     12870     12871     12872     12871     12873
     12872     12873     12874     12875     12874     12876     12875     12876
     12877     12878     12877     12879     12878     12879     12880     12881
     12880     12882     12881     12882     12883     12884     12883     12885
     12884     12885     12886     12887     12886     12888     12887     12888
     12889     12890     12889     12891     12890     12891     12892     12893
     12892     12894     12893     12894     12895     12896     12895     12897
     12896     12897     12898     12899     12898     12900     12899     12900
     12901     12902     12901     12903     12902     12903     12904     12905
     12904     12906     12905     12906     12907     12908     12907     12909
     12908     12909     12910     12911     12910     12912     12911     12912
     12913     12914     12913     12915     12914     12915     12916     12917
     12916     12918     12917     12918     12919     12920     12919     12921
     12920     12921     12922     12923     12922     12924     12923     12924
     12925     12926     12925     12927     12926     12927     12928     12929
     12928     12930     12929     12930     12931     12932     12931     12933
     12932     12933     12934     12935     12934     12936     12935     12936
     12937     12938     12937     12939     12938     12939     12940     12941
     12940     12942     12941     12942     12943     12944     12943     12945
     12944     12945     12946     12947     12946     12948     12947     12948
     12949     12950     12949     12951     12950     12951     12952     12953
     12952     12954     12953     12954     12955     12956     12955     12957
     12956     12957     12958     12959     12958     12960     12959     12960
     12961     12962     12961     12963     12962     12963     12964     12965
     12964     12966     12965     12966     12967     12968     12967     12969
     12968     12969     12970     12971     12970     12972     12971     12972
     12973     12974     12973     12975     12974     12975     12976     12977
     12976     12978     12977     12978     12979     12980     12979     12981
     12980     12981     12982     12983     12982     12984     12983     12984
     12985     12986     12985     12987     12986     12987     12988     12989
     12988     12990     12989     12990     12991     12992     12991     12993
     12992     12993     12994     12995     12994     12996     12995     12996
     12997     12998     12997     12999     12998     12999     13000     13001
     13000     13002     13001     13002     13003     13004     13003     13005
     13004     13005     13006     13007     13006     13008     13007     13008
     13009     13010     13009     13011     13010     13011     13012     13013
     13012     13014     13013     13014     13015     13016     13015     13017
     13016     13017     13018     13019     13018     13020     13019     13020
     13021     13022     13021     13023     13022     13023     13024     13025
     13024     13026     13025     13026     13027     13028     13027     13029
     13028     13029     13030     13031     13030     13032     13031     13032
     13033     13034     13033     13035     13034     13035     13036     13037
     13036     13038     13037     13038     13039     13040     13039     13041
     13040     13041     13042     13043     13042     13044     13043     13044
     13045     13046     13045     13047     13046     13047     13048     13049
     13048     13050     13049     13050     13051     13052     13051     13053
     13052     13053     13054     13055     13054     13056     13055     13056
     13057     13058     13057     13059     13058     13059     13060     13061
     13060     13062     13061     13062     13063     13064     13063     13065
     13064     13065     13066     13067     13066     13068     13067     13068
     13069     13070     13069     13071     13070     13071     13072     13073
     13072     13074     13073     13074     13075     13076     13075     13077
     13076     13077     13078     13079     13078     13080     13079     13080
     13081     13082     13081     13083     13082     13083     13084     13085
     13084     13086     13085     13086     13087     13088     13087     13089
     13088     13089     13090     13091     13090     13092     13091     13092
     13093     13094     13093     13095     13094     13095     13096     13097
     13096     13098     13097     13098     13099     13100     13099     13101
     13100     13101     13102     13103     13102     13104     13103     13104
     13105     13106     13105     13107     13106     13107     13108     13109
     13108     13110     13109     13110     13111     13112     13111     13113
     13112     13113     13114     13115     13114     13116     13115     13116
     13117     13118     13117     13119     13118     13119     13120     13121
     13120     13122     13121     13122     13123     13124     13123     13125
     13124     13125     13126     13127     13126     13128     13127     13128
     13129     13130     13129     13131     13130     13131     13132     13133
     13132     13134     13133     13134     13135     13136     13135     13137
     13136     13137     13138     13139     13138     13140     13139     13140
     13141     13142     13141     13143     13142     13143     13144     13145
     13144     13146     13145     13146     13147     13148     13147     13149
     13148     13149     13150     13151     13150     13152     13151     13152
     13153     13154     13153     13155     13154     13155     13156     13157
     13156     13158     13157     13158     13159     13160     13159     13161
     13160     13161     13162     13163     13162     13164     13163     13164
     13165     13166     13165     13167     13166     13167     13168     13169
     13168     13170     13169     13170     13171     13172     13171     13173
     13172     13173     13174     13175     13174     13176     13175     13176
     13177     13178     13177     13179     13178     13179     13180     13181
     13180     13182     13181     13182     13183     13184     13183     13185
     13184     13185     13186     13187     13186     13188     13187     13188
     13189     13190     13189     13191     13190     13191     13192     13193
     13192     13194     13193     13194     13195     13196     13195     13197
     13196     13197     13198     13199     13198     13200     13199     13200
     13201     13202     13201     13203     13202     13203     13204     13205
     13204     13206     13205     13206     13207     13208     13207     13209
     13208     13209     13210     13211     13210     13212     13211     13212
     13213     13214     13213     13215     13214     13215     13216     13217
     13216     13218     13217     13218     13219     13220     13219     13221
     13220     13221     13222     13223     13222     13224     13223     13224
     13225     13226     13225     13227     13226     13227     13228     13229
     13228     13230     13229     13230     13231     13232     13231     13233
     13232     13233     13234     13235     13234     13236     13235     13236
     13237     13238     13237     13239     13238     13239     13240     13241
     13240     13242     13241     13242     13243     13244     13243     13245
     13244     13245     13246     13247     13246     13248     13247     13248
     13249     13250     13249     13251     13250     13251     13252     13253
     13252     13254     13253     13254     13255     13256     13255     13257
     13256     13257     13258     13259     13258     13260     13259     13260
     13261     13262     13261     13263     13262     13263     13264     13265
     13264     13266     13265     13266     13267     13268     13267     13269
     13268     13269     13270     13271     13270     13272     13271     13272
     13273     13274     13273     13275     13274     13275     13276     13277
     13276     13278     13277     13278     13279     13280     13279     13281
     13280     13281     13282     13283     13282     13284     13283     13284
     13285     13286     13285     13287     13286     13287     13288     13289
     13288     13290     13289     13290     13291     13292     13291     13293
     13292     13293     13294     13295     13294     13296     13295     13296
     13297     13298     13297     13299     13298     13299     13300     13301
     13300     13302     13301     13302     13303     13304     13303     13305
     13304     13305     13306     13307     13306     13308     13307     13308
     13309     13310     13309     13311     13310     13311     13312     13313
     13312     13314     13313     13314     13315     13316     13315     13317
     13316     13317     13318     13319     13318     13320     13319     13320
     13321     13322     13321     13323     13322     13323     13324     13325
     13324     13326     13325     13326     13327     13328     13327     13329
     13328     13329     13330     13331     13330     13332     13331     13332
     13333     13334     13333     13335     13334     13335     13336     13337
     13336     13338     13337     13338     13339     13340     13339     13341
     13340     13341     13342     13343     13342     13344     13343     13344
     13345     13346     13345     13347     13346     13347     13348     13349
     13348     13350     13349     13350     13351     13352     13351     13353
     13352     13353     13354     13355     13354     13356     13355     13356
     13357     13358     13357     13359     13358     13359     13360     13361
     13360     13362     13361     13362     13363     13364     13363     13365
     13364     13365     13366     13367     13366     13368     13367     13368
     13369     13370     13369     13371     13370     13371     13372     13373
     13372     13374     13373     13374     13375     13376     13375     13377
     13376     13377     13378     13379     13378     13380     13379     13380
     13381     13382     13381     13383     13382     13383     13384     13385
     13384     13386     13385     13386     13387     13388     13387     13389
     13388     13389     13390     13391     13390     13392     13391     13392
     13393     13394     13393     13395     13394     13395     13396     13397
     13396     13398     13397     13398     13399     13400     13399     13401
     13400     13401     13402     13403     13402     13404     13403     13404
     13405     13406     13405     13407     13406     13407     13408     13409
     13408     13410     13409     13410     13411     13412     13411     13413
     13412     13413     13414     13415     13414     13416     13415     13416
     13417     13418     13417     13419     13418     13419     13420     13421
     13420     13422     13421     13422     13423     13424     13423     13425
     13424     13425     13426     13427     13426     13428     13427     13428
     13429     13430     13429     13431     13430     13431     13432     13433
     13432     13434     13433     13434     13435     13436     13435     13437
     13436     13437     13438     13439     13438     13440     13439     13440
     13441     13442     13441     13443     13442     13443     13444     13445
     13444     13446     13445     13446     13447     13448     13447     13449
     13448     13449     13450     13451     13450     13452     13451     13452
     13453     13454     13453     13455     13454     13455     13456     13457
     13456     13458     13457     13458     13459     13460     13459     13461
     13460     13461     13462     13463     13462     13464     13463     13464
     13465     13466     13465     13467     13466     13467     13468     13469
     13468     13470     13469     13470     13471     13472     13471     13473
     13472     13473     13474     13475     13474     13476     13475     13476
     13477     13478     13477     13479     13478     13479     13480     13481
     13480     13482     13481     13482     13483     13484     13483     13485
     13484     13485     13486     13487     13486     13488     13487     13488
     13489     13490     13489     13491     13490     13491     13492     13493
     13492     13494     13493     13494     13495     13496     13495     13497
     13496     13497     13498     13499     13498     13500     13499     13500
     13501     13502     13501     13503     13502     13503     13504     13505
     13504     13506     13505     13506     13507     13508     13507     13509
     13508     13509     13510     13511     13510     13512     13511     13512
     13513     13514     13513     13515     13514     13515     13516     13517
     13516     13518     13517     13518     13519     13520     13519     13521
     13520     13521     13522     13523     13522     13524     13523     13524
     13525     13526     13525     13527     13526     13527     13528     13529
     13528     13530     13529     13530     13531     13532     13531     13533
     13532     13533     13534     13535     13534     13536     13535     13536
     13537     13538     13537     13539     13538     13539     13540     13541
     13540     13542     13541     13542     13543     13544     13543     13545
     13544     13545     13546     13547     13546     13548     13547     13548
     13549     13550     13549     13551     13550     13551     13552     13553
     13552     13554     13553     13554     13555     13556     13555     13557
     13556     13557     13558     13559     13558     13560     13559     13560
     13561     13562     13561     13563     13562     13563     13564     13565
     13564     13566     13565     13566     13567     13568     13567     13569
     13568     13569     13570     13571     13570     13572     13571     13572
     13573     13574     13573     13575     13574     13575     13576     13577
     13576     13578     13577     13578     13579     13580     13579     13581
     13580     13581     13582     13583     13582     13584     13583     13584
     13585     13586     13585     13587     13586     13587     13588     13589
     13588     13590     13589     13590     13591     13592     13591     13593
     13592     13593     13594     13595     13594     13596     13595     13596
     13597     13598     13597     13599     13598     13599     13600     13601
     13600     13602     13601     13602     13603     13604     13603     13605
     13604     13605     13606     13607     13606     13608     13607     13608
     13609     13610     13609     13611     13610     13611     13612     13613
     13612     13614     13613     13614     13615     13616     13615     13617
     13616     13617     13618     13619     13618     13620     13619     13620
     13621     13622     13621     13623     13622     13623     13624     13625
     13624     13626     13625     13626     13627     13628     13627     13629
     13628     13629     13630     13631     13630     13632     13631     13632
     13633     13634     13633     13635     13634     13635     13636     13637
     13636     13638     13637     13638     13639     13640     13639     13641
     13640     13641     13642     13643     13642     13644     13643     13644
     13645     13646     13645     13647     13646     13647     13648     13649
     13648     13650     13649     13650     13651     13652     13651     13653
     13652     13653     13654     13655     13654     13656     13655     13656
     13657     13658     13657     13659     13658     13659     13660     13661
     13660     13662     13661     13662     13663     13664     13663     13665
     13664     13665     13666     13667     13666     13668     13667     13668
     13669     13670     13669     13671     13670     13671     13672     13673
     13672     13674     13673     13674     13675     13676     13675     13677
     13676     13677     13678     13679     13678     13680     13679     13680
     13681     13682     13681     13683     13682     13683     13684     13685
     13684     13686     13685     13686     13687     13688     13687     13689
     13688     13689     13690     13691     13690     13692     13691     13692
     13693     13694     13693     13695     13694     13695     13696     13697
     13696     13698     13697     13698     13699     13700     13699     13701
     13700     13701     13702     13703     13702     13704     13703     13704
     13705     13706     13705     13707     13706     13707     13708     13709
     13708     13710     13709     13710     13711     13712     13711     13713
     13712     13713     13714     13715     13714     13716     13715     13716
     13717     13718     13717     13719     13718     13719     13720     13721
     13720     13722     13721     13722     13723     13724     13723     13725
     13724     13725     13726     13727     13726     13728     13727     13728
     13729     13730     13729     13731     13730     13731     13732     13733
     13732     13734     13733     13734     13735     13736     13735     13737
     13736     13737     13738     13739     13738     13740     13739     13740
     13741     13742     13741     13743     13742     13743     13744     13745
     13744     13746     13745     13746     13747     13748     13747     13749
     13748     13749     13750     13751     13750     13752     13751     13752
     13753     13754     13753     13755     13754     13755     13756     13757
     13756     13758     13757     13758     13759     13760     13759     13761
     13760     13761     13762     13763     13762     13764     13763     13764
     13765     13766     13765     13767     13766     13767     13768     13769
     13768     13770     13769     13770     13771     13772     13771     13773
     13772     13773     13774     13775     13774     13776     13775     13776
     13777     13778     13777     13779     13778     13779     13780     13781
     13780     13782     13781     13782     13783     13784     13783     13785
     13784     13785     13786     13787     13786     13788     13787     13788
     13789     13790     13789     13791     13790     13791     13792     13793
     13792     13794     13793     13794     13795     13796     13795     13797
     13796     13797     13798     13799     13798     13800     13799     13800
     13801     13802     13801     13803     13802     13803     13804     13805
     13804     13806     13805     13806     13807     13808     13807     13809
     13808     13809     13810     13811     13810     13812     13811     13812
     13813     13814     13813     13815     13814     13815     13816     13817
     13816     13818     13817     13818     13819     13820     13819     13821
     13820     13821     13822     13823     13822     13824     13823     13824
     13825     13826     13825     13827     13826     13827     13828     13829
     13828     13830     13829     13830     13831     13832     13831     13833
     13832     13833     13834     13835     13834     13836     13835     13836
     13837     13838     13837     13839     13838     13839     13840     13841
     13840     13842     13841     13842     13843     13844     13843     13845
     13844     13845     13846     13847     13846     13848     13847     13848
     13849     13850     13849     13851     13850     13851     13852     13853
     13852     13854     13853     13854     13855     13856     13855     13857
     13856     13857     13858     13859     13858     13860     13859     13860
     13861     13862     13861     13863     13862     13863     13864     13865
     13864     13866     13865     13866     13867     13868     13867     13869
     13868     13869     13870     13871     13870     13872     13871     13872
     13873     13874     13873     13875     13874     13875     13876     13877
     13876     13878     13877     13878     13879     13880     13879     13881
     13880     13881     13882     13883     13882     13884     13883     13884
     13885     13886     13885     13887     13886     13887     13888     13889
     13888     13890     13889     13890     13891     13892     13891     13893
     13892     13893     13894     13895     13894     13896     13895     13896
     13897     13898     13897     13899     13898     13899     13900     13901
     13900     13902     13901     13902     13903     13904     13903     13905
     13904     13905     13906     13907     13906     13908     13907     13908
     13909     13910     13909     13911     13910     13911     13912     13913
     13912     13914     13913     13914     13915     13916     13915     13917
     13916     13917     13918     13919     13918     13920     13919     13920
     13921     13922     13921     13923     13922     13923     13924     13925
     13924     13926     13925     13926     13927     13928     13927     13929
     13928     13929     13930     13931     13930     13932     13931     13932
     13933     13934     13933     13935     13934     13935     13936     13937
     13936     13938     13937     13938     13939     13940     13939     13941
     13940     13941     13942     13943     13942     13944     13943     13944
     13945     13946     13945     13947     13946     13947     13948     13949
     13948     13950     13949     13950     13951     13952     13951     13953
     13952     13953     13954     13955     13954     13956     13955     13956
     13957     13958     13957     13959     13958     13959     13960     13961
     13960     13962     13961     13962     13963     13964     13963     13965
     13964     13965     13966     13967     13966     13968     13967     13968
     13969     13970     13969     13971     13970     13971     13972     13973
     13972     13974     13973     13974     13975     13976     13975     13977
     13976     13977     13978     13979     13978     13980     13979     13980
     13981     13982     13981     13983     13982     13983     13984     13985
     13984     13986     13985     13986     13987     13988     13987     13989
     13988     13989     13990     13991     13990     13992     13991     13992
     13993     13994     13993     13995     13994     13995     13996     13997
     13996     13998     13997     13998     13999     14000     13999     14001
     14000     14001     14002     14003     14002     14004     14003     14004
     14005     14006     14005     14007     14006     14007     14008     14009
     14008     14010     14009     14010     14011     14012     14011     14013
     14012     14013     14014     14015     14014     14016     14015     14016
     14017     14018     14017     14019     14018     14019     14020     14021
     14020     14022     14021     14022     14023     14024     14023     14025
     14024     14025     14026     14027     14026     14028     14027     14028
     14029     14030     14029     14031     14030     14031     14032     14033
     14032     14034     14033     14034     14035     14036     14035     14037
     14036     14037     14038     14039     14038     14040     14039     14040
     14041     14042     14041     14043     14042     14043     14044     14045
     14044     14046     14045     14046     14047     14048     14047     14049
     14048     14049     14050     14051     14050     14052     14051     14052
     14053     14054     14053     14055     14054     14055     14056     14057
     14056     14058     14057     14058     14059     14060     14059     14061
     14060     14061     14062     14063     14062     14064     14063     14064
     14065     14066     14065     14067     14066     14067     14068     14069
     14068     14070     14069     14070     14071     14072     14071     14073
     14072     14073     14074     14075     14074     14076     14075     14076
     14077     14078     14077     14079     14078     14079     14080     14081
     14080     14082     14081     14082     14083     14084     14083     14085
     14084     14085     14086     14087     14086     14088     14087     14088
     14089     14090     14089     14091     14090     14091     14092     14093
     14092     14094     14093     14094     14095     14096     14095     14097
     14096     14097     14098     14099     14098     14100     14099     14100
     14101     14102     14101     14103     14102     14103     14104     14105
     14104     14106     14105     14106     14107     14108     14107     14109
     14108     14109     14110     14111     14110     14112     14111     14112
     14113     14114     14113     14115     14114     14115     14116     14117
     14116     14118     14117     14118     14119     14120     14119     14121
     14120     14121     14122     14123     14122     14124     14123     14124
     14125     14126     14125     14127     14126     14127     14128     14129
     14128     14130     14129     14130     14131     14132     14131     14133
     14132     14133     14134     14135     14134     14136     14135     14136
     14137     14138     14137     14139     14138     14139     14140     14141
     14140     14142     14141     14142     14143     14144     14143     14145
     14144     14145     14146     14147     14146     14148     14147     14148
     14149     14150     14149     14151     14150     14151     14152     14153
     14152     14154     14153     14154     14155     14156     14155     14157
     14156     14157     14158     14159     14158     14160     14159     14160
     14161     14162     14161     14163     14162     14163     14164     14165
     14164     14166     14165     14166     14167     14168     14167     14169
     14168     14169     14170     14171     14170     14172     14171     14172
     14173     14174     14173     14175     14174     14175     14176     14177
     14176     14178     14177     14178     14179     14180     14179     14181
     14180     14181     14182     14183     14182     14184     14183     14184
     14185     14186     14185     14187     14186     14187     14188     14189
     14188     14190     14189     14190     14191     14192     14191     14193
     14192     14193     14194     14195     14194     14196     14195     14196
     14197     14198     14197     14199     14198     14199     14200     14201
     14200     14202     14201     14202     14203     14204     14203     14205
     14204     14205     14206     14207     14206     14208     14207     14208
     14209     14210     14209     14211     14210     14211     14212     14213
     14212     14214     14213     14214     14215     14216     14215     14217
     14216     14217     14218     14219     14218     14220     14219     14220
     14221     14222     14221     14223     14222     14223     14224     14225
     14224     14226     14225     14226     14227     14228     14227     14229
     14228     14229     14230     14231     14230     14232     14231     14232
     14233     14234     14233     14235     14234     14235     14236     14237
     14236     14238     14237     14238     14239     14240     14239     14241
     14240     14241     14242     14243     14242     14244     14243     14244
     14245     14246     14245     14247     14246     14247     14248     14249
     14248     14250     14249     14250     14251     14252     14251     14253
     14252     14253     14254     14255     14254     14256     14255     14256
     14257     14258     14257     14259     14258     14259     14260     14261
     14260     14262     14261     14262     14263     14264     14263     14265
     14264     14265     14266     14267     14266     14268     14267     14268
     14269     14270     14269     14271     14270     14271     14272     14273
     14272     14274     14273     14274     14275     14276     14275     14277
     14276     14277     14278     14279     14278     14280     14279     14280
     14281     14282     14281     14283     14282     14283     14284     14285
     14284     14286     14285     14286     14287     14288     14287     14289
     14288     14289     14290     14291     14290     14292     14291     14292
     14293     14294     14293     14295     14294     14295     14296     14297
     14296     14298     14297     14298     14299     14300     14299     14301
     14300     14301     14302     14303     14302     14304     14303     14304
     14305     14306     14305     14307     14306     14307     14308     14309
     14308     14310     14309     14310     14311     14312     14311     14313
     14312     14313     14314     14315     14314     14316     14315     14316
     14317     14318     14317     14319     14318     14319     14320     14321
     14320     14322     14321     14322     14323     14324     14323     14325
     14324     14325     14326     14327     14326     14328     14327     14328
     14329     14330     14329     14331     14330     14331     14332     14333
     14332     14334     14333     14334     14335     14336     14335     14337
     14336     14337     14338     14339     14338     14340     14339     14340
     14341     14342     14341     14343     14342     14343     14344     14345
     14344     14346     14345     14346     14347     14348     14347     14349
     14348     14349     14350     14351     14350     14352     14351     14352
     14353     14354     14353     14355     14354     14355     14356     14357
     14356     14358     14357     14358     14359     14360     14359     14361
     14360     14361     14362     14363     14362     14364     14363     14364
     14365     14366     14365     14367     14366     14367     14368     14369
     14368     14370     14369     14370     14371     14372     14371     14373
     14372     14373     14374     14375     14374     14376     14375     14376
     14377     14378     14377     14379     14378     14379     14380     14381
     14380     14382     14381     14382     14383     14384     14383     14385
     14384     14385     14386     14387     14386     14388     14387     14388
     14389     14390     14389     14391     14390     14391     14392     14393
     14392     14394     14393     14394     14395     14396     14395     14397
     14396     14397     14398     14399     14398     14400     14399     14400
     14401     14402     14401     14403     14402     14403     14404     14405
     14404     14406     14405     14406     14407     14408     14407     14409
     14408     14409     14410     14411     14410     14412     14411     14412
     14413     14414     14413     14415     14414     14415     14416     14417
     14416     14418     14417     14418     14419     14420     14419     14421
     14420     14421     14422     14423     14422     14424     14423     14424
     14425     14426     14425     14427     14426     14427     14428     14429
     14428     14430     14429     14430     14431     14432     14431     14433
     14432     14433     14434     14435     14434     14436     14435     14436
     14437     14438     14437     14439     14438     14439     14440     14441
     14440     14442     14441     14442     14443     14444     14443     14445
     14444     14445     14446     14447     14446     14448     14447     14448
     14449     14450     14449     14451     14450     14451     14452     14453
     14452     14454     14453     14454     14455     14456     14455     14457
     14456     14457     14458     14459     14458     14460     14459     14460
     14461     14462     14461     14463     14462     14463     14464     14465
     14464     14466     14465     14466     14467     14468     14467     14469
     14468     14469     14470     14471     14470     14472     14471     14472
     14473     14474     14473     14475     14474     14475     14476     14477
     14476     14478     14477     14478     14479     14480     14479     14481
     14480     14481     14482     14483     14482     14484     14483     14484
     14485     14486     14485     14487     14486     14487     14488     14489
     14488     14490     14489     14490     14491     14492     14491     14493
     14492     14493     14494     14495     14494     14496     14495     14496
     14497     14498     14497     14499     14498     14499     14500     14501
     14500     14502     14501     14502     14503     14504     14503     14505
     14504     14505     14506     14507     14506     14508     14507     14508
     14509     14510     14509     14511     14510     14511     14512     14513
     14512     14514     14513     14514     14515     14516     14515     14517
     14516     14517     14518     14519     14518     14520     14519     14520
     14521     14522     14521     14523     14522     14523     14524     14525
     14524     14526     14525     14526     14527     14528     14527     14529
     14528     14529     14530     14531     14530     14532     14531     14532
     14533     14534     14533     14535     14534     14535     14536     14537
     14536     14538     14537     14538     14539     14540     14539     14541
     14540     14541     14542     14543     14542     14544     14543     14544
     14545     14546     14545     14547     14546     14547     14548     14549
     14548     14550     14549     14550     14551     14552     14551     14553
     14552     14553     14554     14555     14554     14556     14555     14556
     14557     14558     14557     14559     14558     14559     14560     14561
     14560     14562     14561     14562     14563     14564     14563     14565
     14564     14565     14566     14567     14566     14568     14567     14568
     14569     14570     14569     14571     14570     14571     14572     14573
     14572     14574     14573     14574     14575     14576     14575     14577
     14576     14577     14578     14579     14578     14580     14579     14580
     14581     14582     14581     14583     14582     14583     14584     14585
     14584     14586     14585     14586     14587     14588     14587     14589
     14588     14589     14590     14591     14590     14592     14591     14592
     14593     14594     14593     14595     14594     14595     14596     14597
     14596     14598     14597     14598     14599     14600     14599     14601
     14600     14601     14602     14603     14602     14604     14603     14604
     14605     14606     14605     14607     14606     14607     14608     14609
     14608     14610     14609     14610     14611     14612     14611     14613
     14612     14613     14614     14615     14614     14616     14615     14616
     14617     14618     14617     14619     14618     14619     14620     14621
     14620     14622     14621     14622     14623     14624     14623     14625
     14624     14625     14626     14627     14626     14628     14627     14628
     14629     14630     14629     14631     14630     14631     14632     14633
     14632     14634     14633     14634     14635     14636     14635     14637
     14636     14637     14638     14639     14638     14640     14639     14640
     14641     14642     14641     14643     14642     14643     14644     14645
     14644     14646     14645     14646     14647     14648     14647     14649
     14648     14649     14650     14651     14650     14652     14651     14652
     14653     14654     14653     14655     14654     14655     14656     14657
     14656     14658     14657     14658     14659     14660     14659     14661
     14660     14661     14662     14663     14662     14664     14663     14664
     14665     14666     14665     14667     14666     14667     14668     14669
     14668     14670     14669     14670     14671     14672     14671     14673
     14672     14673     14674     14675     14674     14676     14675     14676
     14677     14678     14677     14679     14678     14679     14680     14681
     14680     14682     14681     14682     14683     14684     14683     14685
     14684     14685     14686     14687     14686     14688     14687     14688
     14689     14690     14689     14691     14690     14691     14692     14693
     14692     14694     14693     14694     14695     14696     14695     14697
     14696     14697     14698     14699     14698     14700     14699     14700
     14701     14702     14701     14703     14702     14703     14704     14705
     14704     14706     14705     14706     14707     14708     14707     14709
     14708     14709     14710     14711     14710     14712     14711     14712
     14713     14714     14713     14715     14714     14715     14716     14717
     14716     14718     14717     14718     14719     14720     14719     14721
     14720     14721     14722     14723     14722     14724     14723     14724
     14725     14726     14725     14727     14726     14727     14728     14729
     14728     14730     14729     14730     14731     14732     14731     14733
     14732     14733     14734     14735     14734     14736     14735     14736
     14737     14738     14737     14739     14738     14739     14740     14741
     14740     14742     14741     14742     14743     14744     14743     14745
     14744     14745     14746     14747     14746     14748     14747     14748
     14749     14750     14749     14751     14750     14751     14752     14753
     14752     14754     14753     14754     14755     14756     14755     14757
     14756     14757     14758     14759     14758     14760     14759     14760
     14761     14762     14761     14763     14762     14763     14764     14765
     14764     14766     14765     14766     14767     14768     14767     14769
     14768     14769     14770     14771     14770     14772     14771     14772
     14773     14774     14773     14775     14774     14775     14776     14777
     14776     14778     14777     14778     14779     14780     14779     14781
     14780     14781     14782     14783     14782     14784     14783     14784
     14785     14786     14785     14787     14786     14787     14788     14789
     14788     14790     14789     14790     14791     14792     14791     14793
     14792     14793     14794     14795     14794     14796     14795     14796
     14797     14798     14797     14799     14798     14799     14800     14801
     14800     14802     14801     14802     14803     14804     14803     14805
     14804     14805     14806     14807     14806     14808     14807     14808
     14809     14810     14809     14811     14810     14811     14812     14813
     14812     14814     14813     14814     14815     14816     14815     14817
     14816     14817     14818     14819     14818     14820     14819     14820
     14821     14822     14821     14823     14822     14823     14824     14825
     14824     14826     14825     14826     14827     14828     14827     14829
     14828     14829     14830     14831     14830     14832     14831     14832
     14833     14834     14833     14835     14834     14835     14836     14837
     14836     14838     14837     14838     14839     14840     14839     14841
     14840     14841     14842     14843     14842     14844     14843     14844
     14845     14846     14845     14847     14846     14847     14848     14849
     14848     14850     14849     14850     14851     14852     14851     14853
     14852     14853     14854     14855     14854     14856     14855     14856
     14857     14858     14857     14859     14858     14859     14860     14861
     14860     14862     14861     14862     14863     14864     14863     14865
     14864     14865     14866     14867     14866     14868     14867     14868
     14869     14870     14869     14871     14870     14871     14872     14873
     14872     14874     14873     14874     14875     14876     14875     14877
     14876     14877     14878     14879     14878     14880     14879     14880
     14881     14882     14881     14883     14882     14883     14884     14885
     14884     14886     14885     14886     14887     14888     14887     14889
     14888     14889     14890     14891     14890     14892     14891     14892
     14893     14894     14893     14895     14894     14895     14896     14897
     14896     14898     14897     14898     14899     14900     14899     14901
     14900     14901     14902     14903     14902     14904     14903     14904
     14905     14906     14905     14907     14906     14907     14908     14909
     14908     14910     14909     14910     14911     14912     14911     14913
     14912     14913     14914     14915     14914     14916     14915     14916
     14917     14918     14917     14919     14918     14919     14920     14921
     14920     14922     14921     14922     14923     14924     14923     14925
     14924     14925     14926     14927     14926     14928     14927     14928
     14929     14930     14929     14931     14930     14931     14932     14933
     14932     14934     14933     14934     14935     14936     14935     14937
     14936     14937     14938     14939     14938     14940     14939     14940
     14941     14942     14941     14943     14942     14943     14944     14945
     14944     14946     14945     14946     14947     14948     14947     14949
     14948     14949     14950     14951     14950     14952     14951     14952
     14953     14954     14953     14955     14954     14955     14956     14957
     14956     14958     14957     14958     14959     14960     14959     14961
     14960     14961     14962     14963     14962     14964     14963     14964
     14965     14966     14965     14967     14966     14967     14968     14969
     14968     14970     14969     14970     14971     14972     14971     14973
     14972     14973     14974     14975     14974     14976     14975     14976
     14977     14978     14977     14979     14978     14979     14980     14981
     14980     14982     14981     14982     14983     14984     14983     14985
     14984     14985     14986     14987     14986     14988     14987     14988
     14989     14990     14989     14991     14990     14991     14992     14993
     14992     14994     14993     14994     14995     14996     14995     14997
     14996     14997     14998     14999     14998     15000     14999     15000
     15001     15002     15001     15003     15002     15003     15004     15005
     15004     15006     15005     15006     15007     15008     15007     15009
     15008     15009     15010     15011     15010     15012     15011     15012
     15013     15014     15013     15015     15014     15015     15016     15017
     15016     15018     15017     15018     15019     15020     15019     15021
     15020     15021     15022     15023     15022     15024     15023     15024
     15025     15026     15025     15027     15026     15027     15028     15029
     15028     15030     15029     15030     15031     15032     15031     15033
     15032     15033     15034     15035     15034     15036     15035     15036
     15037     15038     15037     15039     15038     15039     15040     15041
     15040     15042     15041     15042     15043     15044     15043     15045
     15044     15045     15046     15047     15046     15048     15047     15048
     15049     15050     15049     15051     15050     15051     15052     15053
     15052     15054     15053     15054     15055     15056     15055     15057
     15056     15057     15058     15059     15058     15060     15059     15060
     15061     15062     15061     15063     15062     15063     15064     15065
     15064     15066     15065     15066     15067     15068     15067     15069
     15068     15069     15070     15071     15070     15072     15071     15072
     15073     15074     15073     15075     15074     15075     15076     15077
     15076     15078     15077     15078     15079     15080     15079     15081
     15080     15081     15082     15083     15082     15084     15083     15084
     15085     15086     15085     15087     15086     15087     15088     15089
     15088     15090     15089     15090     15091     15092     15091     15093
     15092     15093     15094     15095     15094     15096     15095     15096
     15097     15098     15097     15099     15098     15099     15100     15101
     15100     15102     15101     15102     15103     15104     15103     15105
     15104     15105     15106     15107     15106     15108     15107     15108
     15109     15110     15109     15111     15110     15111     15112     15113
     15112     15114     15113     15114     15115     15116     15115     15117
     15116     15117     15118     15119     15118     15120     15119     15120
     15121     15122     15121     15123     15122     15123     15124     15125
     15124     15126     15125     15126     15127     15128     15127     15129
     15128     15129     15130     15131     15130     15132     15131     15132
     15133     15134     15133     15135     15134     15135     15136     15137
     15136     15138     15137     15138     15139     15140     15139     15141
     15140     15141     15142     15143     15142     15144     15143     15144
     15145     15146     15145     15147     15146     15147     15148     15149
     15148     15150     15149     15150     15151     15152     15151     15153
     15152     15153     15154     15155     15154     15156     15155     15156
     15157     15158     15157     15159     15158     15159     15160     15161
     15160     15162     15161     15162     15163     15164     15163     15165
     15164     15165     15166     15167     15166     15168     15167     15168
     15169     15170     15169     15171     15170     15171     15172     15173
     15172     15174     15173     15174     15175     15176     15175     15177
     15176     15177     15178     15179     15178     15180     15179     15180
     15181     15182     15181     15183     15182     15183     15184     15185
     15184     15186     15185     15186     15187     15188     15187     15189
     15188     15189     15190     15191     15190     15192     15191     15192
     15193     15194     15193     15195     15194     15195     15196     15197
     15196     15198     15197     15198     15199     15200     15199     15201
     15200     15201     15202     15203     15202     15204     15203     15204
     15205     15206     15205     15207     15206     15207     15208     15209
     15208     15210     15209     15210     15211     15212     15211     15213
     15212     15213     15214     15215     15214     15216     15215     15216
     15217     15218     15217     15219     15218     15219     15220     15221
     15220     15222     15221     15222     15223     15224     15223     15225
     15224     15225     15226     15227     15226     15228     15227     15228
     15229     15230     15229     15231     15230     15231     15232     15233
     15232     15234     15233     15234     15235     15236     15235     15237
     15236     15237     15238     15239     15238     15240     15239     15240
     15241     15242     15241     15243     15242     15243     15244     15245
     15244     15246     15245     15246     15247     15248     15247     15249
     15248     15249     15250     15251     15250     15252     15251     15252
     15253     15254     15253     15255     15254     15255     15256     15257
     15256     15258     15257     15258     15259     15260     15259     15261
     15260     15261     15262     15263     15262     15264     15263     15264
     15265     15266     15265     15267     15266     15267     15268     15269
     15268     15270     15269     15270     15271     15272     15271     15273
     15272     15273     15274     15275     15274     15276     15275     15276
     15277     15278     15277     15279     15278     15279     15280     15281
     15280     15282     15281     15282     15283     15284     15283     15285
     15284     15285     15286     15287     15286     15288     15287     15288
     15289     15290     15289     15291     15290     15291     15292     15293
     15292     15294     15293     15294     15295     15296     15295     15297
     15296     15297     15298     15299     15298     15300     15299     15300
     15301     15302     15301     15303     15302     15303     15304     15305
     15304     15306     15305     15306     15307     15308     15307     15309
     15308     15309     15310     15311     15310     15312     15311     15312
     15313     15314     15313     15315     15314     15315     15316     15317
     15316     15318     15317     15318     15319     15320     15319     15321
     15320     15321     15322     15323     15322     15324     15323     15324
     15325     15326     15325     15327     15326     15327     15328     15329
     15328     15330     15329     15330     15331     15332     15331     15333
     15332     15333     15334     15335     15334     15336     15335     15336
     15337     15338     15337     15339     15338     15339     15340     15341
     15340     15342     15341     15342     15343     15344     15343     15345
     15344     15345     15346     15347     15346     15348     15347     15348
     15349     15350     15349     15351     15350     15351     15352     15353
     15352     15354     15353     15354     15355     15356     15355     15357
     15356     15357     15358     15359     15358     15360     15359     15360
     15361     15362     15361     15363     15362     15363     15364     15365
     15364     15366     15365     15366     15367     15368     15367     15369
     15368     15369     15370     15371     15370     15372     15371     15372
     15373     15374     15373     15375     15374     15375     15376     15377
     15376     15378     15377     15378     15379     15380     15379     15381
     15380     15381     15382     15383     15382     15384     15383     15384
     15385     15386     15385     15387     15386     15387     15388     15389
     15388     15390     15389     15390     15391     15392     15391     15393
     15392     15393     15394     15395     15394     15396     15395     15396
     15397     15398     15397     15399     15398     15399     15400     15401
     15400     15402     15401     15402     15403     15404     15403     15405
     15404     15405     15406     15407     15406     15408     15407     15408
     15409     15410     15409     15411     15410     15411     15412     15413
     15412     15414     15413     15414     15415     15416     15415     15417
     15416     15417     15418     15419     15418     15420     15419     15420
     15421     15422     15421     15423     15422     15423     15424     15425
     15424     15426     15425     15426     15427     15428     15427     15429
     15428     15429     15430     15431     15430     15432     15431     15432
     15433     15434     15433     15435     15434     15435     15436     15437
     15436     15438     15437     15438     15439     15440     15439     15441
     15440     15441     15442     15443     15442     15444     15443     15444
     15445     15446     15445     15447     15446     15447     15448     15449
     15448     15450     15449     15450     15451     15452     15451     15453
     15452     15453     15454     15455     15454     15456     15455     15456
     15457     15458     15457     15459     15458     15459     15460     15461
     15460     15462     15461     15462     15463     15464     15463     15465
     15464     15465     15466     15467     15466     15468     15467     15468
     15469     15470     15469     15471     15470     15471     15472     15473
     15472     15474     15473     15474     15475     15476     15475     15477
     15476     15477     15478     15479     15478     15480     15479     15480
     15481     15482     15481     15483     15482     15483     15484     15485
     15484     15486     15485     15486     15487     15488     15487     15489
     15488     15489     15490     15491     15490     15492     15491     15492
     15493     15494     15493     15495     15494     15495     15496     15497
     15496     15498     15497     15498     15499     15500     15499     15501
     15500     15501     15502     15503     15502     15504     15503     15504
     15505     15506     15505     15507     15506     15507     15508     15509
     15508     15510     15509     15510     15511     15512     15511     15513
     15512     15513     15514     15515     15514     15516     15515     15516
     15517     15518     15517     15519     15518     15519     15520     15521
     15520     15522     15521     15522     15523     15524     15523     15525
     15524     15525     15526     15527     15526     15528     15527     15528
     15529     15530     15529     15531     15530     15531     15532     15533
     15532     15534     15533     15534     15535     15536     15535     15537
     15536     15537     15538     15539     15538     15540     15539     15540
     15541     15542     15541     15543     15542     15543     15544     15545
     15544     15546     15545     15546     15547     15548     15547     15549
     15548     15549     15550     15551     15550     15552     15551     15552
     15553     15554     15553     15555     15554     15555     15556     15557
     15556     15558     15557     15558     15559     15560     15559     15561
     15560     15561     15562     15563     15562     15564     15563     15564
     15565     15566     15565     15567     15566     15567     15568     15569
     15568     15570     15569     15570     15571     15572     15571     15573
     15572     15573     15574     15575     15574     15576     15575     15576
     15577     15578     15577     15579     15578     15579     15580     15581
     15580     15582     15581     15582     15583     15584     15583     15585
     15584     15585     15586     15587     15586     15588     15587     15588
     15589     15590     15589     15591     15590     15591     15592     15593
     15592     15594     15593     15594     15595     15596     15595     15597
     15596     15597     15598     15599     15598     15600     15599     15600
     15601     15602     15601     15603     15602     15603     15604     15605
     15604     15606     15605     15606     15607     15608     15607     15609
     15608     15609     15610     15611     15610     15612     15611     15612
     15613     15614     15613     15615     15614     15615     15616     15617
     15616     15618     15617     15618     15619     15620     15619     15621
     15620     15621     15622     15623     15622     15624     15623     15624
     15625     15626     15625     15627     15626     15627     15628     15629
     15628     15630     15629     15630     15631     15632     15631     15633
     15632     15633     15634     15635     15634     15636     15635     15636
     15637     15638     15637     15639     15638     15639     15640     15641
     15640     15642     15641     15642     15643     15644     15643     15645
     15644     15645     15646     15647     15646     15648     15647     15648
     15649     15650     15649     15651     15650     15651     15652     15653
     15652     15654     15653     15654     15655     15656     15655     15657
     15656     15657     15658     15659     15658     15660     15659     15660
     15661     15662     15661     15663     15662     15663     15664     15665
     15664     15666     15665     15666     15667     15668     15667     15669
     15668     15669     15670     15671     15670     15672     15671     15672
     15673     15674     15673     15675     15674     15675     15676     15677
     15676     15678     15677     15678     15679     15680     15679     15681
     15680     15681     15682     15683     15682     15684     15683     15684
     15685     15686     15685     15687     15686     15687     15688     15689
     15688     15690     15689     15690     15691     15692     15691     15693
     15692     15693     15694     15695     15694     15696     15695     15696
     15697     15698     15697     15699     15698     15699     15700     15701
     15700     15702     15701     15702     15703     15704     15703     15705
     15704     15705     15706     15707     15706     15708     15707     15708
     15709     15710     15709     15711     15710     15711     15712     15713
     15712     15714     15713     15714     15715     15716     15715     15717
     15716     15717     15718     15719     15718     15720     15719     15720
     15721     15722     15721     15723     15722     15723     15724     15725
     15724     15726     15725     15726     15727     15728     15727     15729
     15728     15729     15730     15731     15730     15732     15731     15732
     15733     15734     15733     15735     15734     15735     15736     15737
     15736     15738     15737     15738     15739     15740     15739     15741
     15740     15741     15742     15743     15742     15744     15743     15744
     15745     15746     15745     15747     15746     15747     15748     15749
     15748     15750     15749     15750     15751     15752     15751     15753
     15752     15753     15754     15755     15754     15756     15755     15756
     15757     15758     15757     15759     15758     15759     15760     15761
     15760     15762     15761     15762     15763     15764     15763     15765
     15764     15765     15766     15767     15766     15768     15767     15768
     15769     15770     15769     15771     15770     15771     15772     15773
     15772     15774     15773     15774     15775     15776     15775     15777
     15776     15777     15778     15779     15778     15780     15779     15780
     15781     15782     15781     15783     15782     15783     15784     15785
     15784     15786     15785     15786     15787     15788     15787     15789
     15788     15789     15790     15791     15790     15792     15791     15792
     15793     15794     15793     15795     15794     15795     15796     15797
     15796     15798     15797     15798     15799     15800     15799     15801
     15800     15801     15802     15803     15802     15804     15803     15804
     15805     15806     15805     15807     15806     15807     15808     15809
     15808     15810     15809     15810     15811     15812     15811     15813
     15812     15813     15814     15815     15814     15816     15815     15816
     15817     15818     15817     15819     15818     15819     15820     15821
     15820     15822     15821     15822     15823     15824     15823     15825
     15824     15825     15826     15827     15826     15828     15827     15828
     15829     15830     15829     15831     15830     15831     15832     15833
     15832     15834     15833     15834     15835     15836     15835     15837
     15836     15837     15838     15839     15838     15840     15839     15840
     15841     15842     15841     15843     15842     15843     15844     15845
     15844     15846     15845     15846     15847     15848     15847     15849
     15848     15849     15850     15851     15850     15852     15851     15852
     15853     15854     15853     15855     15854     15855     15856     15857
     15856     15858     15857     15858     15859     15860     15859     15861
     15860     15861     15862     15863     15862     15864     15863     15864
     15865     15866     15865     15867     15866     15867     15868     15869
     15868     15870     15869     15870     15871     15872     15871     15873
     15872     15873     15874     15875     15874     15876     15875     15876
     15877     15878     15877     15879     15878     15879     15880     15881
     15880     15882     15881     15882     15883     15884     15883     15885
     15884     15885     15886     15887     15886     15888     15887     15888
     15889     15890     15889     15891     15890     15891     15892     15893
     15892     15894     15893     15894     15895     15896     15895     15897
     15896     15897     15898     15899     15898     15900     15899     15900
     15901     15902     15901     15903     15902     15903     15904     15905
     15904     15906     15905     15906     15907     15908     15907     15909
     15908     15909     15910     15911     15910     15912     15911     15912
     15913     15914     15913     15915     15914     15915     15916     15917
     15916     15918     15917     15918     15919     15920     15919     15921
     15920     15921     15922     15923     15922     15924     15923     15924
     15925     15926     15925     15927     15926     15927     15928     15929
     15928     15930     15929     15930     15931     15932     15931     15933
     15932     15933     15934     15935     15934     15936     15935     15936
     15937     15938     15937     15939     15938     15939     15940     15941
     15940     15942     15941     15942     15943     15944     15943     15945
     15944     15945     15946     15947     15946     15948     15947     15948
     15949     15950     15949     15951     15950     15951     15952     15953
     15952     15954     15953     15954     15955     15956     15955     15957
     15956     15957     15958     15959     15958     15960     15959     15960
     15961     15962     15961     15963     15962     15963     15964     15965
     15964     15966     15965     15966     15967     15968     15967     15969
     15968     15969     15970     15971     15970     15972     15971     15972
     15973     15974     15973     15975     15974     15975     15976     15977
     15976     15978     15977     15978     15979     15980     15979     15981
     15980     15981     15982     15983     15982     15984     15983     15984
     15985     15986     15985     15987     15986     15987     15988     15989
     15988     15990     15989     15990     15991     15992     15991     15993
     15992     15993     15994     15995     15994     15996     15995     15996
     15997     15998     15997     15999     15998     15999     16000     16001
     16000     16002     16001     16002     16003     16004     16003     16005
     16004     16005     16006     16007     16006     16008     16007     16008
     16009     16010     16009     16011     16010     16011     16012     16013
     16012     16014     16013     16014     16015     16016     16015     16017
     16016     16017     16018     16019     16018     16020     16019     16020
     16021     16022     16021     16023     16022     16023     16024     16025
     16024     16026     16025     16026     16027     16028     16027     16029
     16028     16029     16030     16031     16030     16032     16031     16032
     16033     16034     16033     16035     16034     16035     16036     16037
     16036     16038     16037     16038     16039     16040     16039     16041
     16040     16041     16042     16043     16042     16044     16043     16044
     16045     16046     16045     16047     16046     16047     16048     16049
     16048     16050     16049     16050     16051     16052     16051     16053
     16052     16053     16054     16055     16054     16056     16055     16056
     16057     16058     16057     16059     16058     16059     16060     16061
     16060     16062     16061     16062     16063     16064     16063     16065
     16064     16065     16066     16067     16066     16068     16067     16068
     16069     16070     16069     16071     16070     16071     16072     16073
     16072     16074     16073     16074     16075     16076     16075     16077
     16076     16077     16078     16079     16078     16080     16079     16080
     16081     16082     16081     16083     16082     16083     16084     16085
     16084     16086     16085     16086     16087     16088     16087     16089
     16088     16089     16090     16091     16090     16092     16091     16092
     16093     16094     16093     16095     16094     16095     16096     16097
     16096     16098     16097     16098     16099     16100     16099     16101
     16100     16101     16102     16103     16102     16104     16103     16104
     16105     16106     16105     16107     16106     16107     16108     16109
     16108     16110     16109     16110     16111     16112     16111     16113
     16112     16113     16114     16115     16114     16116     16115     16116
     16117     16118     16117     16119     16118     16119     16120     16121
     16120     16122     16121     16122     16123     16124     16123     16125
     16124     16125     16126     16127     16126     16128     16127     16128
     16129     16130     16129     16131     16130     16131     16132     16133
     16132     16134     16133     16134     16135     16136     16135     16137
     16136     16137     16138     16139     16138     16140     16139     16140
     16141     16142     16141     16143     16142     16143     16144     16145
     16144     16146     16145     16146     16147     16148     16147     16149
     16148     16149     16150     16151     16150     16152     16151     16152
     16153     16154     16153     16155     16154     16155     16156     16157
     16156     16158     16157     16158     16159     16160     16159     16161
     16160     16161     16162     16163     16162     16164     16163     16164
     16165     16166     16165     16167     16166     16167     16168     16169
     16168     16170     16169     16170     16171     16172     16171     16173
     16172     16173     16174     16175     16174     16176     16175     16176
     16177     16178     16177     16179     16178     16179     16180     16181
     16180     16182     16181     16182     16183     16184     16183     16185
     16184     16185     16186     16187     16186     16188     16187     16188
     16189     16190     16189     16191     16190     16191     16192     16193
     16192     16194     16193     16194     16195     16196     16195     16197
     16196     16197     16198     16199     16198     16200     16199     16200
     16201     16202     16201     16203     16202     16203     16204     16205
     16204     16206     16205     16206     16207     16208     16207     16209
     16208     16209     16210     16211     16210     16212     16211     16212
     16213     16214     16213     16215     16214     16215     16216     16217
     16216     16218     16217     16218     16219     16220     16219     16221
     16220     16221     16222     16223     16222     16224     16223     16224
     16225     16226     16225     16227     16226     16227     16228     16229
     16228     16230     16229     16230     16231     16232     16231     16233
     16232     16233     16234     16235     16234     16236     16235     16236
     16237     16238     16237     16239     16238     16239     16240     16241
     16240     16242     16241     16242     16243     16244     16243     16245
     16244     16245     16246     16247     16246     16248     16247     16248
     16249     16250     16249     16251     16250     16251     16252     16253
     16252     16254     16253     16254     16255     16256     16255     16257
     16256     16257     16258     16259     16258     16260     16259     16260
     16261     16262     16261     16263     16262     16263     16264     16265
     16264     16266     16265     16266     16267     16268     16267     16269
     16268     16269     16270     16271     16270     16272     16271     16272
     16273     16274     16273     16275     16274     16275     16276     16277
     16276     16278     16277     16278     16279     16280     16279     16281
     16280     16281     16282     16283     16282     16284     16283     16284
     16285     16286     16285     16287     16286     16287     16288     16289
     16288     16290     16289     16290     16291     16292     16291     16293
     16292     16293     16294     16295     16294     16296     16295     16296
     16297     16298     16297     16299     16298     16299     16300     16301
     16300     16302     16301     16302     16303     16304     16303     16305
     16304     16305     16306     16307     16306     16308     16307     16308
     16309     16310     16309     16311     16310     16311     16312     16313
     16312     16314     16313     16314     16315     16316     16315     16317
     16316     16317     16318     16319     16318     16320     16319     16320
     16321     16322     16321     16323     16322     16323     16324     16325
     16324     16326     16325     16326     16327     16328     16327     16329
     16328     16329     16330     16331     16330     16332     16331     16332
     16333     16334     16333     16335     16334     16335     16336     16337
     16336     16338     16337     16338     16339     16340     16339     16341
     16340     16341     16342     16343     16342     16344     16343     16344
     16345     16346     16345     16347     16346     16347     16348     16349
     16348     16350     16349     16350     16351     16352     16351     16353
     16352     16353     16354     16355     16354     16356     16355     16356
     16357     16358     16357     16359     16358     16359     16360     16361
     16360     16362     16361     16362     16363     16364     16363     16365
     16364     16365     16366     16367     16366     16368     16367     16368
     16369     16370     16369     16371     16370     16371     16372     16373
     16372     16374     16373     16374     16375     16376     16375     16377
     16376     16377     16378     16379     16378     16380     16379     16380
     16381     16382     16381     16383     16382     16383     16384     16385
     16384     16386     16385     16386     16387     16388     16387     16389
     16388     16389     16390     16391     16390     16392     16391     16392
     16393     16394     16393     16395     16394     16395     16396     16397
     16396     16398     16397     16398     16399     16400     16399     16401
     16400     16401     16402     16403     16402     16404     16403     16404
     16405     16406     16405     16407     16406     16407     16408     16409
     16408     16410     16409     16410     16411     16412     16411     16413
     16412     16413     16414     16415     16414     16416     16415     16416
     16417     16418     16417     16419     16418     16419     16420     16421
     16420     16422     16421     16422     16423     16424     16423     16425
     16424     16425     16426     16427     16426     16428     16427     16428
     16429     16430     16429     16431     16430     16431     16432     16433
     16432     16434     16433     16434     16435     16436     16435     16437
     16436     16437     16438     16439     16438     16440     16439     16440
     16441     16442     16441     16443     16442     16443     16444     16445
     16444     16446     16445     16446     16447     16448     16447     16449
     16448     16449     16450     16451     16450     16452     16451     16452
     16453     16454     16453     16455     16454     16455     16456     16457
     16456     16458     16457     16458     16459     16460     16459     16461
     16460     16461     16462     16463     16462     16464     16463     16464
     16465     16466     16465     16467     16466     16467     16468     16469
     16468     16470     16469     16470     16471     16472     16471     16473
     16472     16473     16474     16475     16474     16476     16475     16476
     16477     16478     16477     16479     16478     16479     16480     16481
     16480     16482     16481     16482     16483     16484     16483     16485
     16484     16485     16486     16487     16486     16488     16487     16488
     16489     16490     16489     16491     16490     16491     16492     16493
     16492     16494     16493     16494     16495     16496     16495     16497
     16496     16497     16498     16499     16498     16500     16499     16500
     16501     16502     16501     16503     16502     16503     16504     16505
     16504     16506     16505     16506     16507     16508     16507     16509
     16508     16509     16510     16511     16510     16512     16511     16512
     16513     16514     16513     16515     16514     16515     16516     16517
     16516     16518     16517     16518     16519     16520     16519     16521
     16520     16521     16522     16523     16522     16524     16523     16524
     16525     16526     16525     16527     16526     16527     16528     16529
     16528     16530     16529     16530     16531     16532     16531     16533
     16532     16533     16534     16535     16534     16536     16535     16536
     16537     16538     16537     16539     16538     16539     16540     16541
     16540     16542     16541     16542     16543     16544     16543     16545
     16544     16545     16546     16547     16546     16548     16547     16548
     16549     16550     16549     16551     16550     16551     16552     16553
     16552     16554     16553     16554     16555     16556     16555     16557
     16556     16557     16558     16559     16558     16560     16559     16560
     16561     16562     16561     16563     16562     16563     16564     16565
     16564     16566     16565     16566     16567     16568     16567     16569
     16568     16569     16570     16571     16570     16572     16571     16572
     16573     16574     16573     16575     16574     16575     16576     16577
     16576     16578     16577     16578     16579     16580     16579     16581
     16580     16581     16582     16583     16582     16584     16583     16584
     16585     16586     16585     16587     16586     16587     16588     16589
     16588     16590     16589     16590     16591     16592     16591     16593
     16592     16593     16594     16595     16594     16596     16595     16596
     16597     16598     16597     16599     16598     16599     16600     16601
     16600     16602     16601     16602     16603     16604     16603     16605
     16604     16605     16606     16607     16606     16608     16607     16608
     16609     16610     16609     16611     16610     16611     16612     16613
     16612     16614     16613     16614     16615     16616     16615     16617
     16616     16617     16618     16619     16618     16620     16619     16620
     16621     16622     16621     16623     16622     16623     16624     16625
     16624     16626     16625     16626     16627     16628     16627     16629
     16628     16629     16630     16631     16630     16632     16631     16632
     16633     16634     16633     16635     16634     16635     16636     16637
     16636     16638     16637     16638     16639     16640     16639     16641
     16640     16641     16642     16643     16642     16644     16643     16644
     16645     16646     16645     16647     16646     16647     16648     16649
     16648     16650     16649     16650     16651     16652     16651     16653
     16652     16653     16654     16655     16654     16656     16655     16656
     16657     16658     16657     16659     16658     16659     16660     16661
     16660     16662     16661     16662     16663     16664     16663     16665
     16664     16665     16666     16667     16666     16668     16667     16668
     16669     16670     16669     16671     16670     16671     16672     16673
     16672     16674     16673     16674     16675     16676     16675     16677
     16676     16677     16678     16679     16678     16680     16679     16680
     16681     16682     16681     16683     16682     16683     16684     16685
     16684     16686     16685     16686     16687     16688     16687     16689
     16688     16689     16690     16691     16690     16692     16691     16692
     16693     16694     16693     16695     16694     16695     16696     16697
     16696     16698     16697     16698     16699     16700     16699     16701
     16700     16701     16702     16703     16702     16704     16703     16704
     16705     16706     16705     16707     16706     16707     16708     16709
     16708     16710     16709     16710     16711     16712     16711     16713
     16712     16713     16714     16715     16714     16716     16715     16716
     16717     16718     16717     16719     16718     16719     16720     16721
     16720     16722     16721     16722     16723     16724     16723     16725
     16724     16725     16726     16727     16726     16728     16727     16728
     16729     16730     16729     16731     16730     16731     16732     16733
     16732     16734     16733     16734     16735     16736     16735     16737
     16736     16737     16738     16739     16738     16740     16739     16740
     16741     16742     16741     16743     16742     16743     16744     16745
     16744     16746     16745     16746     16747     16748     16747     16749
     16748     16749     16750     16751     16750     16752     16751     16752
     16753     16754     16753     16755     16754     16755     16756     16757
     16756     16758     16757     16758     16759     16760     16759     16761
     16760     16761     16762     16763     16762     16764     16763     16764
     16765     16766     16765     16767     16766     16767     16768     16769
     16768     16770     16769     16770     16771     16772     16771     16773
     16772     16773     16774     16775     16774     16776     16775     16776
     16777     16778     16777     16779     16778     16779     16780     16781
     16780     16782     16781     16782     16783     16784     16783     16785
     16784     16785     16786     16787     16786     16788     16787     16788
     16789     16790     16789     16791     16790     16791     16792     16793
     16792     16794     16793     16794     16795     16796     16795     16797
     16796     16797     16798     16799     16798     16800     16799     16800
     16801     16802     16801     16803     16802     16803     16804     16805
     16804     16806     16805     16806     16807     16808     16807     16809
     16808     16809     16810     16811     16810     16812     16811     16812
     16813     16814     16813     16815     16814     16815     16816     16817
     16816     16818     16817     16818     16819     16820     16819     16821
     16820     16821     16822     16823     16822     16824     16823     16824
     16825     16826     16825     16827     16826     16827     16828     16829
     16828     16830     16829     16830     16831     16832     16831     16833
     16832     16833     16834     16835     16834     16836     16835     16836
     16837     16838     16837     16839     16838     16839     16840     16841
     16840     16842     16841     16842     16843     16844     16843     16845
     16844     16845     16846     16847     16846     16848     16847     16848
     16849     16850     16849     16851     16850     16851     16852     16853
     16852     16854     16853     16854     16855     16856     16855     16857
     16856     16857     16858     16859     16858     16860     16859     16860
     16861     16862     16861     16863     16862     16863     16864     16865
     16864     16866     16865     16866     16867     16868     16867     16869
     16868     16869     16870     16871     16870     16872     16871     16872
     16873     16874     16873     16875     16874     16875     16876     16877
     16876     16878     16877     16878     16879     16880     16879     16881
     16880     16881     16882     16883     16882     16884     16883     16884
     16885     16886     16885     16887     16886     16887     16888     16889
     16888     16890     16889     16890     16891     16892     16891     16893
     16892     16893     16894     16895     16894     16896     16895     16896
     16897     16898     16897     16899     16898     16899     16900     16901
     16900     16902     16901     16902     16903     16904     16903     16905
     16904     16905     16906     16907     16906     16908     16907     16908
     16909     16910     16909     16911     16910     16911     16912     16913
     16912     16914     16913     16914     16915     16916     16915     16917
     16916     16917     16918     16919     16918     16920     16919     16920
     16921     16922     16921     16923     16922     16923     16924     16925
     16924     16926     16925     16926     16927     16928     16927     16929
     16928     16929     16930     16931     16930     16932     16931     16932
     16933     16934     16933     16935     16934     16935     16936     16937
     16936     16938     16937     16938     16939     16940     16939     16941
     16940     16941     16942     16943     16942     16944     16943     16944
     16945     16946     16945     16947     16946     16947     16948     16949
     16948     16950     16949     16950     16951     16952     16951     16953
     16952     16953     16954     16955     16954     16956     16955     16956
     16957     16958     16957     16959     16958     16959     16960     16961
     16960     16962     16961     16962     16963     16964     16963     16965
     16964     16965     16966     16967     16966     16968     16967     16968
     16969     16970     16969     16971     16970     16971     16972     16973
     16972     16974     16973     16974     16975     16976     16975     16977
     16976     16977     16978     16979     16978     16980     16979     16980
     16981     16982     16981     16983     16982     16983     16984     16985
     16984     16986     16985     16986     16987     16988     16987     16989
     16988     16989     16990     16991     16990     16992     16991     16992
     16993     16994     16993     16995     16994     16995     16996     16997
     16996     16998     16997     16998     16999     17000     16999     17001
     17000     17001     17002     17003     17002     17004     17003     17004
     17005     17006     17005     17007     17006     17007     17008     17009
     17008     17010     17009     17010     17011     17012     17011     17013
     17012     17013     17014     17015     17014     17016     17015     17016
     17017     17018     17017     17019     17018     17019     17020     17021
     17020     17022     17021     17022     17023     17024     17023     17025
     17024     17025     17026     17027     17026     17028     17027     17028
     17029     17030     17029     17031     17030     17031     17032     17033
     17032     17034     17033     17034     17035     17036     17035     17037
     17036     17037     17038     17039     17038     17040     17039     17040
     17041     17042     17041     17043     17042     17043     17044     17045
     17044     17046     17045     17046     17047     17048     17047     17049
     17048     17049     17050     17051     17050     17052     17051     17052
     17053     17054     17053     17055     17054     17055     17056     17057
     17056     17058     17057     17058     17059     17060     17059     17061
     17060     17061     17062     17063     17062     17064     17063     17064
     17065     17066     17065     17067     17066     17067     17068     17069
     17068     17070     17069     17070     17071     17072     17071     17073
     17072     17073     17074     17075     17074     17076     17075     17076
     17077     17078     17077     17079     17078     17079     17080     17081
     17080     17082     17081     17082     17083     17084     17083     17085
     17084     17085     17086     17087     17086     17088     17087     17088
     17089     17090     17089     17091     17090     17091     17092     17093
     17092     17094     17093     17094     17095     17096     17095     17097
     17096     17097     17098     17099     17098     17100     17099     17100
     17101     17102     17101     17103     17102     17103     17104     17105
     17104     17106     17105     17106     17107     17108     17107     17109
     17108     17109     17110     17111     17110     17112     17111     17112
     17113     17114     17113     17115     17114     17115     17116     17117
     17116     17118     17117     17118     17119     17120     17119     17121
     17120     17121     17122     17123     17122     17124     17123     17124
     17125     17126     17125     17127     17126     17127     17128     17129
     17128     17130     17129     17130     17131     17132     17131     17133
     17132     17133     17134     17135     17134     17136     17135     17136
     17137     17138     17137     17139     17138     17139     17140     17141
     17140     17142     17141     17142     17143     17144     17143     17145
     17144     17145     17146     17147     17146     17148     17147     17148
     17149     17150     17149     17151     17150     17151     17152     17153
     17152     17154     17153     17154     17155     17156     17155     17157
     17156     17157     17158     17159     17158     17160     17159     17160
     17161     17162     17161     17163     17162     17163     17164     17165
     17164     17166     17165     17166     17167     17168     17167     17169
     17168     17169     17170     17171     17170     17172     17171     17172
     17173     17174     17173     17175     17174     17175     17176     17177
     17176     17178     17177     17178     17179     17180     17179     17181
     17180     17181     17182     17183     17182     17184     17183     17184
     17185     17186     17185     17187     17186     17187     17188     17189
     17188     17190     17189     17190     17191     17192     17191     17193
     17192     17193     17194     17195     17194     17196     17195     17196
     17197     17198     17197     17199     17198     17199     17200     17201
     17200     17202     17201     17202     17203     17204     17203     17205
     17204     17205     17206     17207     17206     17208     17207     17208
     17209     17210     17209     17211     17210     17211     17212     17213
     17212     17214     17213     17214     17215     17216     17215     17217
     17216     17217     17218     17219     17218     17220     17219     17220
     17221     17222     17221     17223     17222     17223     17224     17225
     17224     17226     17225     17226     17227     17228     17227     17229
     17228     17229     17230     17231     17230     17232     17231     17232
     17233     17234     17233     17235     17234     17235     17236     17237
     17236     17238     17237     17238     17239     17240     17239     17241
     17240     17241     17242     17243     17242     17244     17243     17244
     17245     17246     17245     17247     17246     17247     17248     17249
     17248     17250     17249     17250     17251     17252     17251     17253
     17252     17253     17254     17255     17254     17256     17255     17256
     17257     17258     17257     17259     17258     17259     17260     17261
     17260     17262     17261     17262     17263     17264     17263     17265
     17264     17265     17266     17267     17266     17268     17267     17268
     17269     17270     17269     17271     17270     17271     17272     17273
     17272     17274     17273     17274     17275     17276     17275     17277
     17276     17277     17278     17279     17278     17280     17279     17280
     17281     17282     17281     17283     17282     17283     17284     17285
     17284     17286     17285     17286     17287     17288     17287     17289
     17288     17289     17290     17291     17290     17292     17291     17292
     17293     17294     17293     17295     17294     17295     17296     17297
     17296     17298     17297     17298     17299     17300     17299     17301
     17300     17301     17302     17303     17302     17304     17303     17304
     17305     17306     17305     17307     17306     17307     17308     17309
     17308     17310     17309     17310     17311     17312     17311     17313
     17312     17313     17314     17315     17314     17316     17315     17316
     17317     17318     17317     17319     17318     17319     17320     17321
     17320     17322     17321     17322     17323     17324     17323     17325
     17324     17325     17326     17327     17326     17328     17327     17328
     17329     17330     17329     17331     17330     17331     17332     17333
     17332     17334     17333     17334     17335     17336     17335     17337
     17336     17337     17338     17339     17338     17340     17339     17340
     17341     17342     17341     17343     17342     17343     17344     17345
     17344     17346     17345     17346     17347     17348     17347     17349
     17348     17349     17350     17351     17350     17352     17351     17352
     17353     17354     17353     17355     17354     17355     17356     17357
     17356     17358     17357     17358     17359     17360     17359     17361
     17360     17361     17362     17363     17362     17364     17363     17364
     17365     17366     17365     17367     17366     17367     17368     17369
     17368     17370     17369     17370     17371     17372     17371     17373
     17372     17373     17374     17375     17374     17376     17375     17376
     17377     17378     17377     17379     17378     17379     17380     17381
     17380     17382     17381     17382     17383     17384     17383     17385
     17384     17385     17386     17387     17386     17388     17387     17388
     17389     17390     17389     17391     17390     17391     17392     17393
     17392     17394     17393     17394     17395     17396     17395     17397
     17396     17397     17398     17399     17398     17400     17399     17400
     17401     17402     17401     17403     17402     17403     17404     17405
     17404     17406     17405     17406     17407     17408     17407     17409
     17408     17409     17410     17411     17410     17412     17411     17412
     17413     17414     17413     17415     17414     17415     17416     17417
     17416     17418     17417     17418     17419     17420     17419     17421
     17420     17421     17422     17423     17422     17424     17423     17424
     17425     17426     17425     17427     17426     17427     17428     17429
     17428     17430     17429     17430     17431     17432     17431     17433
     17432     17433     17434     17435     17434     17436     17435     17436
     17437     17438     17437     17439     17438     17439     17440     17441
     17440     17442     17441     17442     17443     17444     17443     17445
     17444     17445     17446     17447     17446     17448     17447     17448
     17449     17450     17449     17451     17450     17451     17452     17453
     17452     17454     17453     17454     17455     17456     17455     17457
     17456     17457     17458     17459     17458     17460     17459     17460
     17461     17462     17461     17463     17462     17463     17464     17465
     17464     17466     17465     17466     17467     17468     17467     17469
     17468     17469     17470     17471     17470     17472     17471     17472
     17473     17474     17473     17475     17474     17475     17476     17477
     17476     17478     17477     17478     17479     17480     17479     17481
     17480     17481     17482     17483     17482     17484     17483     17484
     17485     17486     17485     17487     17486     17487     17488     17489
     17488     17490     17489     17490     17491     17492     17491     17493
     17492     17493     17494     17495     17494     17496     17495     17496
     17497     17498     17497     17499     17498     17499     17500     17501
     17500     17502     17501     17502     17503     17504     17503     17505
     17504     17505     17506     17507     17506     17508     17507     17508
     17509     17510     17509     17511     17510     17511     17512     17513
     17512     17514     17513     17514     17515     17516     17515     17517
     17516     17517     17518     17519     17518     17520     17519     17520
     17521     17522     17521     17523     17522     17523     17524     17525
     17524     17526     17525     17526     17527     17528     17527     17529
     17528     17529     17530     17531     17530     17532     17531     17532
     17533     17534     17533     17535     17534     17535     17536     17537
     17536     17538     17537     17538     17539     17540     17539     17541
     17540     17541     17542     17543     17542     17544     17543     17544
     17545     17546     17545     17547     17546     17547     17548     17549
     17548     17550     17549     17550     17551     17552     17551     17553
     17552     17553     17554     17555     17554     17556     17555     17556
     17557     17558     17557     17559     17558     17559     17560     17561
     17560     17562     17561     17562     17563     17564     17563     17565
     17564     17565     17566     17567     17566     17568     17567     17568
     17569     17570     17569     17571     17570     17571     17572     17573
     17572     17574     17573     17574     17575     17576     17575     17577
     17576     17577     17578     17579     17578     17580     17579     17580
     17581     17582     17581     17583     17582     17583     17584     17585
     17584     17586     17585     17586     17587     17588     17587     17589
     17588     17589     17590     17591     17590     17592     17591     17592
     17593     17594     17593     17595     17594     17595     17596     17597
     17596     17598     17597     17598     17599     17600     17599     17601
     17600     17601     17602     17603     17602     17604     17603     17604
     17605     17606     17605     17607     17606     17607     17608     17609
     17608     17610     17609     17610     17611     17612     17611     17613
     17612     17613     17614     17615     17614     17616     17615     17616
     17617     17618     17617     17619     17618     17619     17620     17621
     17620     17622     17621     17622     17623     17624     17623     17625
     17624     17625     17626     17627     17626     17628     17627     17628
     17629     17630     17629     17631     17630     17631     17632     17633
     17632     17634     17633     17634     17635     17636     17635     17637
     17636     17637     17638     17639     17638     17640     17639     17640
     17641     17642     17641     17643     17642     17643     17644     17645
     17644     17646     17645     17646     17647     17648     17647     17649
     17648     17649     17650     17651     17650     17652     17651     17652
     17653     17654     17653     17655     17654     17655     17656     17657
     17656     17658     17657     17658     17659     17660     17659     17661
     17660     17661     17662     17663     17662     17664     17663     17664
     17665     17666     17665     17667     17666     17667     17668     17669
     17668     17670     17669     17670     17671     17672     17671     17673
     17672     17673     17674     17675     17674     17676     17675     17676
     17677     17678     17677     17679     17678     17679     17680     17681
     17680     17682     17681     17682     17683     17684     17683     17685
     17684     17685     17686     17687     17686     17688     17687     17688
     17689     17690     17689     17691     17690     17691     17692     17693
     17692     17694     17693     17694     17695     17696     17695     17697
     17696     17697     17698     17699     17698     17700     17699     17700
     17701     17702     17701     17703     17702     17703     17704     17705
     17704     17706     17705     17706     17707     17708     17707     17709
     17708     17709     17710     17711     17710     17712     17711     17712
     17713     17714     17713     17715     17714     17715     17716     17717
     17716     17718     17717     17718     17719     17720     17719     17721
     17720     17721     17722     17723     17722     17724     17723     17724
     17725     17726     17725     17727     17726     17727     17728     17729
     17728     17730     17729     17730     17731     17732     17731     17733
     17732     17733     17734     17735     17734     17736     17735     17736
     17737     17738     17737     17739     17738     17739     17740     17741
     17740     17742     17741     17742     17743     17744     17743     17745
     17744     17745     17746     17747     17746     17748     17747     17748
     17749     17750     17749     17751     17750     17751     17752     17753
     17752     17754     17753     17754     17755     17756     17755     17757
     17756     17757     17758     17759     17758     17760     17759     17760
     17761     17762     17761     17763     17762     17763     17764     17765
     17764     17766     17765     17766     17767     17768     17767     17769
     17768     17769     17770     17771     17770     17772     17771     17772
     17773     17774     17773     17775     17774     17775     17776     17777
     17776     17778     17777     17778     17779     17780     17779     17781
     17780     17781     17782     17783     17782     17784     17783     17784
     17785     17786     17785     17787     17786     17787     17788     17789
     17788     17790     17789     17790     17791     17792     17791     17793
     17792     17793     17794     17795     17794     17796     17795     17796
     17797     17798     17797     17799     17798     17799     17800     17801
     17800     17802     17801     17802     17803     17804     17803     17805
     17804     17805     17806     17807     17806     17808     17807     17808
     17809     17810     17809     17811     17810     17811     17812     17813
     17812     17814     17813     17814     17815     17816     17815     17817
     17816     17817     17818     17819     17818     17820     17819     17820
     17821     17822     17821     17823     17822     17823     17824     17825
     17824     17826     17825     17826     17827     17828     17827     17829
     17828     17829     17830     17831     17830     17832     17831     17832
     17833     17834     17833     17835     17834     17835     17836     17837
     17836     17838     17837     17838     17839     17840     17839     17841
     17840     17841     17842     17843     17842     17844     17843     17844
     17845     17846     17845     17847     17846     17847     17848     17849
     17848     17850     17849     17850     17851     17852     17851     17853
     17852     17853     17854     17855     17854     17856     17855     17856
     17857     17858     17857     17859     17858     17859     17860     17861
     17860     17862     17861     17862     17863     17864     17863     17865
     17864     17865     17866     17867     17866     17868     17867     17868
     17869     17870     17869     17871     17870     17871     17872     17873
     17872     17874     17873     17874     17875     17876     17875     17877
     17876     17877     17878     17879     17878     17880     17879     17880
     17881     17882     17881     17883     17882     17883     17884     17885
     17884     17886     17885     17886     17887     17888     17887     17889
     17888     17889     17890     17891     17890     17892     17891     17892
     17893     17894     17893     17895     17894     17895     17896     17897
     17896     17898     17897     17898     17899     17900     17899     17901
     17900     17901     17902     17903     17902     17904     17903     17904
     17905     17906     17905     17907     17906     17907     17908     17909
     17908     17910     17909     17910     17911     17912     17911     17913
     17912     17913     17914     17915     17914     17916     17915     17916
     17917     17918     17917     17919     17918     17919     17920     17921
     17920     17922     17921     17922     17923     17924     17923     17925
     17924     17925     17926     17927     17926     17928     17927     17928
     17929     17930     17929     17931     17930     17931     17932     17933
     17932     17934     17933     17934     17935     17936     17935     17937
     17936     17937     17938     17939     17938     17940     17939     17940
     17941     17942     17941     17943     17942     17943     17944     17945
     17944     17946     17945     17946     17947     17948     17947     17949
     17948     17949     17950     17951     17950     17952     17951     17952
     17953     17954     17953     17955     17954     17955     17956     17957
     17956     17958     17957     17958     17959     17960     17959     17961
     17960     17961     17962     17963     17962     17964     17963     17964
     17965     17966     17965     17967     17966     17967     17968     17969
     17968     17970     17969     17970     17971     17972     17971     17973
     17972     17973     17974     17975     17974     17976     17975     17976
     17977     17978     17977     17979     17978     17979     17980     17981
     17980     17982     17981     17982     17983     17984     17983     17985
     17984     17985     17986     17987     17986     17988     17987     17988
     17989     17990     17989     17991     17990     17991     17992     17993
     17992     17994     17993     17994     17995     17996     17995     17997
     17996     17997     17998     17999     17998     18000     17999     18000
     18001     18002     18001     18003     18002     18003     18004     18005
     18004     18006     18005     18006     18007     18008     18007     18009
     18008     18009     18010     18011     18010     18012     18011     18012
     18013     18014     18013     18015     18014     18015     18016     18017
     18016     18018     18017     18018     18019     18020     18019     18021
     18020     18021     18022     18023     18022     18024     18023     18024
     18025     18026     18025     18027     18026     18027     18028     18029
     18028     18030     18029     18030     18031     18032     18031     18033
     18032     18033     18034     18035     18034     18036     18035     18036
     18037     18038     18037     18039     18038     18039     18040     18041
     18040     18042     18041     18042     18043     18044     18043     18045
     18044     18045     18046     18047     18046     18048     18047     18048
     18049     18050     18049     18051     18050     18051     18052     18053
     18052     18054     18053     18054     18055     18056     18055     18057
     18056     18057     18058     18059     18058     18060     18059     18060
     18061     18062     18061     18063     18062     18063     18064     18065
     18064     18066     18065     18066     18067     18068     18067     18069
     18068     18069     18070     18071     18070     18072     18071     18072
     18073     18074     18073     18075     18074     18075     18076     18077
     18076     18078     18077     18078     18079     18080     18079     18081
     18080     18081     18082     18083     18082     18084     18083     18084
     18085     18086     18085     18087     18086     18087     18088     18089
     18088     18090     18089     18090     18091     18092     18091     18093
     18092     18093     18094     18095     18094     18096     18095     18096
     18097     18098     18097     18099     18098     18099     18100     18101
     18100     18102     18101     18102     18103     18104     18103     18105
     18104     18105     18106     18107     18106     18108     18107     18108
     18109     18110     18109     18111     18110     18111     18112     18113
     18112     18114     18113     18114     18115     18116     18115     18117
     18116     18117     18118     18119     18118     18120     18119     18120
     18121     18122     18121     18123     18122     18123     18124     18125
     18124     18126     18125     18126     18127     18128     18127     18129
     18128     18129     18130     18131     18130     18132     18131     18132
     18133     18134     18133     18135     18134     18135     18136     18137
     18136     18138     18137     18138     18139     18140     18139     18141
     18140     18141     18142     18143     18142     18144     18143     18144
     18145     18146     18145     18147     18146     18147     18148     18149
     18148     18150     18149     18150     18151     18152     18151     18153
     18152     18153     18154     18155     18154     18156     18155     18156
     18157     18158     18157     18159     18158     18159     18160     18161
     18160     18162     18161     18162     18163     18164     18163     18165
     18164     18165     18166     18167     18166     18168     18167     18168
     18169     18170     18169     18171     18170     18171     18172     18173
     18172     18174     18173     18174     18175     18176     18175     18177
     18176     18177     18178     18179     18178     18180     18179     18180
     18181     18182     18181     18183     18182     18183     18184     18185
     18184     18186     18185     18186     18187     18188     18187     18189
     18188     18189     18190     18191     18190     18192     18191     18192
     18193     18194     18193     18195     18194     18195     18196     18197
     18196     18198     18197     18198     18199     18200     18199     18201
     18200     18201     18202     18203     18202     18204     18203     18204
     18205     18206     18205     18207     18206     18207     18208     18209
     18208     18210     18209     18210     18211     18212     18211     18213
     18212     18213     18214     18215     18214     18216     18215     18216
     18217     18218     18217     18219     18218     18219     18220     18221
     18220     18222     18221     18222     18223     18224     18223     18225
     18224     18225     18226     18227     18226     18228     18227     18228
     18229     18230     18229     18231     18230     18231     18232     18233
     18232     18234     18233     18234     18235     18236     18235     18237
     18236     18237     18238     18239     18238     18240     18239     18240
     18241     18242     18241     18243     18242     18243     18244     18245
     18244     18246     18245     18246     18247     18248     18247     18249
     18248     18249     18250     18251     18250     18252     18251     18252
     18253     18254     18253     18255     18254     18255     18256     18257
     18256     18258     18257     18258     18259     18260     18259     18261
     18260     18261     18262     18263     18262     18264     18263     18264
     18265     18266     18265     18267     18266     18267     18268     18269
     18268     18270     18269     18270     18271     18272     18271     18273
     18272     18273     18274     18275     18274     18276     18275     18276
     18277     18278     18277     18279     18278     18279     18280     18281
     18280     18282     18281     18282     18283     18284     18283     18285
     18284     18285     18286     18287     18286     18288     18287     18288
     18289     18290     18289     18291     18290     18291     18292     18293
     18292     18294     18293     18294     18295     18296     18295     18297
     18296     18297     18298     18299     18298     18300     18299     18300
     18301     18302     18301     18303     18302     18303     18304     18305
     18304     18306     18305     18306     18307     18308     18307     18309
     18308     18309     18310     18311     18310     18312     18311     18312
     18313     18314     18313     18315     18314     18315     18316     18317
     18316     18318     18317     18318     18319     18320     18319     18321
     18320     18321     18322     18323     18322     18324     18323     18324
     18325     18326     18325     18327     18326     18327     18328     18329
     18328     18330     18329     18330     18331     18332     18331     18333
     18332     18333     18334     18335     18334     18336     18335     18336
     18337     18338     18337     18339     18338     18339     18340     18341
     18340     18342     18341     18342     18343     18344     18343     18345
     18344     18345     18346     18347     18346     18348     18347     18348
     18349     18350     18349     18351     18350     18351     18352     18353
     18352     18354     18353     18354     18355     18356     18355     18357
     18356     18357     18358     18359     18358     18360     18359     18360
     18361     18362     18361     18363     18362     18363     18364     18365
     18364     18366     18365     18366     18367     18368     18367     18369
     18368     18369     18370     18371     18370     18372     18371     18372
     18373     18374     18373     18375     18374     18375     18376     18377
     18376     18378     18377     18378     18379     18380     18379     18381
     18380     18381     18382     18383     18382     18384     18383     18384
     18385     18386     18385     18387     18386     18387     18388     18389
     18388     18390     18389     18390     18391     18392     18391     18393
     18392     18393     18394     18395     18394     18396     18395     18396
     18397     18398     18397     18399     18398     18399     18400     18401
     18400     18402     18401     18402     18403     18404     18403     18405
     18404     18405     18406     18407     18406     18408     18407     18408
     18409     18410     18409     18411     18410     18411     18412     18413
     18412     18414     18413     18414     18415     18416     18415     18417
     18416     18417     18418     18419     18418     18420     18419     18420
     18421     18422     18421     18423     18422     18423     18424     18425
     18424     18426     18425     18426     18427     18428     18427     18429
     18428     18429     18430     18431     18430     18432     18431     18432
     18433     18434     18433     18435     18434     18435     18436     18437
     18436     18438     18437     18438     18439     18440     18439     18441
     18440     18441     18442     18443     18442     18444     18443     18444
     18445     18446     18445     18447     18446     18447     18448     18449
     18448     18450     18449     18450     18451     18452     18451     18453
     18452     18453     18454     18455     18454     18456     18455     18456
     18457     18458     18457     18459     18458     18459     18460     18461
     18460     18462     18461     18462     18463     18464     18463     18465
     18464     18465     18466     18467     18466     18468     18467     18468
     18469     18470     18469     18471     18470     18471     18472     18473
     18472     18474     18473     18474     18475     18476     18475     18477
     18476     18477     18478     18479     18478     18480     18479     18480
     18481     18482     18481     18483     18482     18483     18484     18485
     18484     18486     18485     18486     18487     18488     18487     18489
     18488     18489     18490     18491     18490     18492     18491     18492
     18493     18494     18493     18495     18494     18495     18496     18497
     18496     18498     18497     18498     18499     18500     18499     18501
     18500     18501     18502     18503     18502     18504     18503     18504
     18505     18506     18505     18507     18506     18507     18508     18509
     18508     18510     18509     18510     18511     18512     18511     18513
     18512     18513     18514     18515     18514     18516     18515     18516
     18517     18518     18517     18519     18518     18519     18520     18521
     18520     18522     18521     18522     18523     18524     18523     18525
     18524     18525     18526     18527     18526     18528     18527     18528
     18529     18530     18529     18531     18530     18531     18532     18533
     18532     18534     18533     18534     18535     18536     18535     18537
     18536     18537     18538     18539     18538     18540     18539     18540
     18541     18542     18541     18543     18542     18543     18544     18545
     18544     18546     18545     18546     18547     18548     18547     18549
     18548     18549     18550     18551     18550     18552     18551     18552
     18553     18554     18553     18555     18554     18555     18556     18557
     18556     18558     18557     18558     18559     18560     18559     18561
     18560     18561     18562     18563     18562     18564     18563     18564
     18565     18566     18565     18567     18566     18567     18568     18569
     18568     18570     18569     18570     18571     18572     18571     18573
     18572     18573     18574     18575     18574     18576     18575     18576
     18577     18578     18577     18579     18578     18579     18580     18581
     18580     18582     18581     18582     18583     18584     18583     18585
     18584     18585     18586     18587     18586     18588     18587     18588
     18589     18590     18589     18591     18590     18591     18592     18593
     18592     18594     18593     18594     18595     18596     18595     18597
     18596     18597     18598     18599     18598     18600     18599     18600
     18601     18602     18601     18603     18602     18603     18604     18605
     18604     18606     18605     18606     18607     18608     18607     18609
     18608     18609     18610     18611     18610     18612     18611     18612
     18613     18614     18613     18615     18614     18615     18616     18617
     18616     18618     18617     18618     18619     18620     18619     18621
     18620     18621     18622     18623     18622     18624     18623     18624
     18625     18626     18625     18627     18626     18627     18628     18629
     18628     18630     18629     18630     18631     18632     18631     18633
     18632     18633     18634     18635     18634     18636     18635     18636
     18637     18638     18637     18639     18638     18639     18640     18641
     18640     18642     18641     18642     18643     18644     18643     18645
     18644     18645     18646     18647     18646     18648     18647     18648
     18649     18650     18649     18651     18650     18651     18652     18653
     18652     18654     18653     18654     18655     18656     18655     18657
     18656     18657     18658     18659     18658     18660     18659     18660
     18661     18662     18661     18663     18662     18663     18664     18665
     18664     18666     18665     18666     18667     18668     18667     18669
     18668     18669     18670     18671     18670     18672     18671     18672
     18673     18674     18673     18675     18674     18675     18676     18677
     18676     18678     18677     18678     18679     18680     18679     18681
     18680     18681     18682     18683     18682     18684     18683     18684
     18685     18686     18685     18687     18686     18687     18688     18689
     18688     18690     18689     18690     18691     18692     18691     18693
     18692     18693     18694     18695     18694     18696     18695     18696
     18697     18698     18697     18699     18698     18699     18700     18701
     18700     18702     18701     18702     18703     18704     18703     18705
     18704     18705     18706     18707     18706     18708     18707     18708
     18709     18710     18709     18711     18710     18711     18712     18713
     18712     18714     18713     18714     18715     18716     18715     18717
     18716     18717     18718     18719     18718     18720     18719     18720
     18721     18722     18721     18723     18722     18723     18724     18725
     18724     18726     18725     18726     18727     18728     18727     18729
     18728     18729     18730     18731     18730     18732     18731     18732
     18733     18734     18733     18735     18734     18735     18736     18737
     18736     18738     18737     18738     18739     18740     18739     18741
     18740     18741     18742     18743     18742     18744     18743     18744
     18745     18746     18745     18747     18746     18747     18748     18749
     18748     18750     18749     18750     18751     18752     18751     18753
     18752     18753     18754     18755     18754     18756     18755     18756
     18757     18758     18757     18759     18758     18759     18760     18761
     18760     18762     18761     18762     18763     18764     18763     18765
     18764     18765     18766     18767     18766     18768     18767     18768
     18769     18770     18769     18771     18770     18771     18772     18773
     18772     18774     18773     18774     18775     18776     18775     18777
     18776     18777     18778     18779     18778     18780     18779     18780
     18781     18782     18781     18783     18782     18783     18784     18785
     18784     18786     18785     18786     18787     18788     18787     18789
     18788     18789     18790     18791     18790     18792     18791     18792
     18793     18794     18793     18795     18794     18795     18796     18797
     18796     18798     18797     18798     18799     18800     18799     18801
     18800     18801     18802     18803     18802     18804     18803     18804
     18805     18806     18805     18807     18806     18807     18808     18809
     18808     18810     18809     18810     18811     18812     18811     18813
     18812     18813     18814     18815     18814     18816     18815     18816
     18817     18818     18817     18819     18818     18819     18820     18821
     18820     18822     18821     18822     18823     18824     18823     18825
     18824     18825     18826     18827     18826     18828     18827     18828
     18829     18830     18829     18831     18830     18831     18832     18833
     18832     18834     18833     18834     18835     18836     18835     18837
     18836     18837     18838     18839     18838     18840     18839     18840
     18841     18842     18841     18843     18842     18843     18844     18845
     18844     18846     18845     18846     18847     18848     18847     18849
     18848     18849     18850     18851     18850     18852     18851     18852
     18853     18854     18853     18855     18854     18855     18856     18857
     18856     18858     18857     18858     18859     18860     18859     18861
     18860     18861     18862     18863     18862     18864     18863     18864
     18865     18866     18865     18867     18866     18867     18868     18869
     18868     18870     18869     18870     18871     18872     18871     18873
     18872     18873     18874     18875     18874     18876     18875     18876
     18877     18878     18877     18879     18878     18879     18880     18881
     18880     18882     18881     18882     18883     18884     18883     18885
     18884     18885     18886     18887     18886     18888     18887     18888
     18889     18890     18889     18891     18890     18891     18892     18893
     18892     18894     18893     18894     18895     18896     18895     18897
     18896     18897     18898     18899     18898     18900     18899     18900
     18901     18902     18901     18903     18902     18903     18904     18905
     18904     18906     18905     18906     18907     18908     18907     18909
     18908     18909     18910     18911     18910     18912     18911     18912
     18913     18914     18913     18915     18914     18915     18916     18917
     18916     18918     18917     18918     18919     18920     18919     18921
     18920     18921     18922     18923     18922     18924     18923     18924
     18925     18926     18925     18927     18926     18927     18928     18929
     18928     18930     18929     18930     18931     18932     18931     18933
     18932     18933     18934     18935     18934     18936     18935     18936
     18937     18938     18937     18939     18938     18939     18940     18941
     18940     18942     18941     18942     18943     18944     18943     18945
     18944     18945     18946     18947     18946     18948     18947     18948
     18949     18950     18949     18951     18950     18951     18952     18953
     18952     18954     18953     18954     18955     18956     18955     18957
     18956     18957     18958     18959     18958     18960     18959     18960
     18961     18962     18961     18963     18962     18963     18964     18965
     18964     18966     18965     18966     18967     18968     18967     18969
     18968     18969     18970     18971     18970     18972     18971     18972
     18973     18974     18973     18975     18974     18975     18976     18977
     18976     18978     18977     18978     18979     18980     18979     18981
     18980     18981     18982     18983     18982     18984     18983     18984
     18985     18986     18985     18987     18986     18987     18988     18989
     18988     18990     18989     18990     18991     18992     18991     18993
     18992     18993     18994     18995     18994     18996     18995     18996
     18997     18998     18997     18999     18998     18999     19000     19001
     19000     19002     19001     19002     19003     19004     19003     19005
     19004     19005     19006     19007     19006     19008     19007     19008
     19009     19010     19009     19011     19010     19011     19012     19013
     19012     19014     19013     19014     19015     19016     19015     19017
     19016     19017     19018     19019     19018     19020     19019     19020
     19021     19022     19021     19023     19022     19023     19024     19025
     19024     19026     19025     19026     19027     19028     19027     19029
     19028     19029     19030     19031     19030     19032     19031     19032
     19033     19034     19033     19035     19034     19035     19036     19037
     19036     19038     19037     19038     19039     19040     19039     19041
     19040     19041     19042     19043     19042     19044     19043     19044
     19045     19046     19045     19047     19046     19047     19048     19049
     19048     19050     19049     19050     19051     19052     19051     19053
     19052     19053     19054     19055     19054     19056     19055     19056
     19057     19058     19057     19059     19058     19059     19060     19061
     19060     19062     19061     19062     19063     19064     19063     19065
     19064     19065     19066     19067     19066     19068     19067     19068
     19069     19070     19069     19071     19070     19071     19072     19073
     19072     19074     19073     19074     19075     19076     19075     19077
     19076     19077     19078     19079     19078     19080     19079     19080
     19081     19082     19081     19083     19082     19083     19084     19085
     19084     19086     19085     19086     19087     19088     19087     19089
     19088     19089     19090     19091     19090     19092     19091     19092
     19093     19094     19093     19095     19094     19095     19096     19097
     19096     19098     19097     19098     19099     19100     19099     19101
     19100     19101     19102     19103     19102     19104     19103     19104
     19105     19106     19105     19107     19106     19107     19108     19109
     19108     19110     19109     19110     19111     19112     19111     19113
     19112     19113     19114     19115     19114     19116     19115     19116
     19117     19118     19117     19119     19118     19119     19120     19121
     19120     19122     19121     19122     19123     19124     19123     19125
     19124     19125     19126     19127     19126     19128     19127     19128
     19129     19130     19129     19131     19130     19131     19132     19133
     19132     19134     19133     19134     19135     19136     19135     19137
     19136     19137     19138     19139     19138     19140     19139     19140
     19141     19142     19141     19143     19142     19143     19144     19145
     19144     19146     19145     19146     19147     19148     19147     19149
     19148     19149     19150     19151     19150     19152     19151     19152
     19153     19154     19153     19155     19154     19155     19156     19157
     19156     19158     19157     19158     19159     19160     19159     19161
     19160     19161     19162     19163     19162     19164     19163     19164
     19165     19166     19165     19167     19166     19167     19168     19169
     19168     19170     19169     19170     19171     19172     19171     19173
     19172     19173     19174     19175     19174     19176     19175     19176
     19177     19178     19177     19179     19178     19179     19180     19181
     19180     19182     19181     19182     19183     19184     19183     19185
     19184     19185     19186     19187     19186     19188     19187     19188
     19189     19190     19189     19191     19190     19191     19192     19193
     19192     19194     19193     19194     19195     19196     19195     19197
     19196     19197     19198     19199     19198     19200     19199     19200
     19201     19202     19201     19203     19202     19203     19204     19205
     19204     19206     19205     19206     19207     19208     19207     19209
     19208     19209     19210     19211     19210     19212     19211     19212
     19213     19214     19213     19215     19214     19215     19216     19217
     19216     19218     19217     19218     19219     19220     19219     19221
     19220     19221     19222     19223     19222     19224     19223     19224
     19225     19226     19225     19227     19226     19227     19228     19229
     19228     19230     19229     19230     19231     19232     19231     19233
     19232     19233     19234     19235     19234     19236     19235     19236
     19237     19238     19237     19239     19238     19239     19240     19241
     19240     19242     19241     19242     19243     19244     19243     19245
     19244     19245     19246     19247     19246     19248     19247     19248
     19249     19250     19249     19251     19250     19251     19252     19253
     19252     19254     19253     19254     19255     19256     19255     19257
     19256     19257     19258     19259     19258     19260     19259     19260
     19261     19262     19261     19263     19262     19263     19264     19265
     19264     19266     19265     19266     19267     19268     19267     19269
     19268     19269     19270     19271     19270     19272     19271     19272
     19273     19274     19273     19275     19274     19275     19276     19277
     19276     19278     19277     19278     19279     19280     19279     19281
     19280     19281     19282     19283     19282     19284     19283     19284
     19285     19286     19285     19287     19286     19287     19288     19289
     19288     19290     19289     19290     19291     19292     19291     19293
     19292     19293     19294     19295     19294     19296     19295     19296
     19297     19298     19297     19299     19298     19299     19300     19301
     19300     19302     19301     19302     19303     19304     19303     19305
     19304     19305     19306     19307     19306     19308     19307     19308
     19309     19310     19309     19311     19310     19311     19312     19313
     19312     19314     19313     19314     19315     19316     19315     19317
     19316     19317     19318     19319     19318     19320     19319     19320
     19321     19322     19321     19323     19322     19323     19324     19325
     19324     19326     19325     19326     19327     19328     19327     19329
     19328     19329     19330     19331     19330     19332     19331     19332
     19333     19334     19333     19335     19334     19335     19336     19337
     19336     19338     19337     19338     19339     19340     19339     19341
     19340     19341     19342     19343     19342     19344     19343     19344
     19345     19346     19345     19347     19346     19347     19348     19349
     19348     19350     19349     19350     19351     19352     19351     19353
     19352     19353     19354     19355     19354     19356     19355     19356
     19357     19358     19357     19359     19358     19359     19360     19361
     19360     19362     19361     19362     19363     19364     19363     19365
     19364     19365     19366     19367     19366     19368     19367     19368
     19369     19370     19369     19371     19370     19371     19372     19373
     19372     19374     19373     19374     19375     19376     19375     19377
     19376     19377     19378     19379     19378     19380     19379     19380
     19381     19382     19381     19383     19382     19383     19384     19385
     19384     19386     19385     19386     19387     19388     19387     19389
     19388     19389     19390     19391     19390     19392     19391     19392
     19393     19394     19393     19395     19394     19395     19396     19397
     19396     19398     19397     19398     19399     19400     19399     19401
     19400     19401     19402     19403     19402     19404     19403     19404
     19405     19406     19405     19407     19406     19407     19408     19409
     19408     19410     19409     19410     19411     19412     19411     19413
     19412     19413     19414     19415     19414     19416     19415     19416
     19417     19418     19417     19419     19418     19419     19420     19421
     19420     19422     19421     19422     19423     19424     19423     19425
     19424     19425     19426     19427     19426     19428     19427     19428
     19429     19430     19429     19431     19430     19431     19432     19433
     19432     19434     19433     19434     19435     19436     19435     19437
     19436     19437     19438     19439     19438     19440     19439     19440
     19441     19442     19441     19443     19442     19443     19444     19445
     19444     19446     19445     19446     19447     19448     19447     19449
     19448     19449     19450     19451     19450     19452     19451     19452
     19453     19454     19453     19455     19454     19455     19456     19457
     19456     19458     19457     19458     19459     19460     19459     19461
     19460     19461     19462     19463     19462     19464     19463     19464
     19465     19466     19465     19467     19466     19467     19468     19469
     19468     19470     19469     19470     19471     19472     19471     19473
     19472     19473     19474     19475     19474     19476     19475     19476
     19477     19478     19477     19479     19478     19479     19480     19481
     19480     19482     19481     19482     19483     19484     19483     19485
     19484     19485     19486     19487     19486     19488     19487     19488
     19489     19490     19489     19491     19490     19491     19492     19493
     19492     19494     19493     19494     19495     19496     19495     19497
     19496     19497     19498     19499     19498     19500     19499     19500
     19501     19502     19501     19503     19502     19503     19504     19505
     19504     19506     19505     19506     19507     19508     19507     19509
     19508     19509     19510     19511     19510     19512     19511     19512
     19513     19514     19513     19515     19514     19515     19516     19517
     19516     19518     19517     19518     19519     19520     19519     19521
     19520     19521     19522     19523     19522     19524     19523     19524
     19525     19526     19525     19527     19526     19527     19528     19529
     19528     19530     19529     19530     19531     19532     19531     19533
     19532     19533     19534     19535     19534     19536     19535     19536
     19537     19538     19537     19539     19538     19539     19540     19541
     19540     19542     19541     19542     19543     19544     19543     19545
     19544     19545     19546     19547     19546     19548     19547     19548
     19549     19550     19549     19551     19550     19551     19552     19553
     19552     19554     19553     19554     19555     19556     19555     19557
     19556     19557     19558     19559     19558     19560     19559     19560
     19561     19562     19561     19563     19562     19563     19564     19565
     19564     19566     19565     19566     19567     19568     19567     19569
     19568     19569     19570     19571     19570     19572     19571     19572
     19573     19574     19573     19575     19574     19575     19576     19577
     19576     19578     19577     19578     19579     19580     19579     19581
     19580     19581     19582     19583     19582     19584     19583     19584
     19585     19586     19585     19587     19586     19587     19588     19589
     19588     19590     19589     19590     19591     19592     19591     19593
     19592     19593     19594     19595     19594     19596     19595     19596
     19597     19598     19597     19599     19598     19599     19600     19601
     19600     19602     19601     19602     19603     19604     19603     19605
     19604     19605     19606     19607     19606     19608     19607     19608
     19609     19610     19609     19611     19610     19611     19612     19613
     19612     19614     19613     19614     19615     19616     19615     19617
     19616     19617     19618     19619     19618     19620     19619     19620
     19621     19622     19621     19623     19622     19623     19624     19625
     19624     19626     19625     19626     19627     19628     19627     19629
     19628     19629     19630     19631     19630     19632     19631     19632
     19633     19634     19633     19635     19634     19635     19636     19637
     19636     19638     19637     19638     19639     19640     19639     19641
     19640     19641     19642     19643     19642     19644     19643     19644
     19645     19646     19645     19647     19646     19647     19648     19649
     19648     19650     19649     19650     19651     19652     19651     19653
     19652     19653     19654     19655     19654     19656     19655     19656
     19657     19658     19657     19659     19658     19659     19660     19661
     19660     19662     19661     19662     19663     19664     19663     19665
     19664     19665     19666     19667     19666     19668     19667     19668
     19669     19670     19669     19671     19670     19671     19672     19673
     19672     19674     19673     19674     19675     19676     19675     19677
     19676     19677     19678     19679     19678     19680     19679     19680
     19681     19682     19681     19683     19682     19683     19684     19685
     19684     19686     19685     19686     19687     19688     19687     19689
     19688     19689     19690     19691     19690     19692     19691     19692
     19693     19694     19693     19695     19694     19695     19696     19697
     19696     19698     19697     19698     19699     19700     19699     19701
     19700     19701     19702     19703     19702     19704     19703     19704
     19705     19706     19705     19707     19706     19707     19708     19709
     19708     19710     19709     19710     19711     19712     19711     19713
     19712     19713     19714     19715     19714     19716     19715     19716
     19717     19718     19717     19719     19718     19719     19720     19721
     19720     19722     19721     19722     19723     19724     19723     19725
     19724     19725     19726     19727     19726     19728     19727     19728
     19729     19730     19729     19731     19730     19731     19732     19733
     19732     19734     19733     19734     19735     19736     19735     19737
     19736     19737     19738     19739     19738     19740     19739     19740
     19741     19742     19741     19743     19742     19743     19744     19745
     19744     19746     19745     19746     19747     19748     19747     19749
     19748     19749     19750     19751     19750     19752     19751     19752
     19753     19754     19753     19755     19754     19755     19756     19757
     19756     19758     19757     19758     19759     19760     19759     19761
     19760     19761     19762     19763     19762     19764     19763     19764
     19765     19766     19765     19767     19766     19767     19768     19769
     19768     19770     19769     19770     19771     19772     19771     19773
     19772     19773     19774     19775     19774     19776     19775     19776
     19777     19778     19777     19779     19778     19779     19780     19781
     19780     19782     19781     19782     19783     19784     19783     19785
     19784     19785     19786     19787     19786     19788     19787     19788
     19789     19790     19789     19791     19790     19791     19792     19793
     19792     19794     19793     19794     19795     19796     19795     19797
     19796     19797     19798     19799     19798     19800     19799     19800
     19801     19802     19801     19803     19802     19803     19804     19805
     19804     19806     19805     19806     19807     19808     19807     19809
     19808     19809     19810     19811     19810     19812     19811     19812
     19813     19814     19813     19815     19814     19815     19816     19817
     19816     19818     19817     19818     19819     19820     19819     19821
     19820     19821     19822     19823     19822     19824     19823     19824
     19825     19826     19825     19827     19826     19827     19828     19829
     19828     19830     19829     19830     19831     19832     19831     19833
     19832     19833     19834     19835     19834     19836     19835     19836
     19837     19838     19837     19839     19838     19839     19840     19841
     19840     19842     19841     19842     19843     19844     19843     19845
     19844     19845     19846     19847     19846     19848     19847     19848
     19849     19850     19849     19851     19850     19851     19852     19853
     19852     19854     19853     19854     19855     19856     19855     19857
     19856     19857     19858     19859     19858     19860     19859     19860
     19861     19862     19861     19863     19862     19863     19864     19865
     19864     19866     19865     19866     19867     19868     19867     19869
     19868     19869     19870     19871     19870     19872     19871     19872
     19873     19874     19873     19875     19874     19875     19876     19877
     19876     19878     19877     19878     19879     19880     19879     19881
     19880     19881     19882     19883     19882     19884     19883     19884
     19885     19886     19885     19887     19886     19887     19888     19889
     19888     19890     19889     19890     19891     19892     19891     19893
     19892     19893     19894     19895     19894     19896     19895     19896
     19897     19898     19897     19899     19898     19899     19900     19901
     19900     19902     19901     19902     19903     19904     19903     19905
     19904     19905     19906     19907     19906     19908     19907     19908
     19909     19910     19909     19911     19910     19911     19912     19913
     19912     19914     19913     19914     19915     19916     19915     19917
     19916     19917     19918     19919     19918     19920     19919     19920
     19921     19922     19921     19923     19922     19923     19924     19925
     19924     19926     19925     19926     19927     19928     19927     19929
     19928     19929     19930     19931     19930     19932     19931     19932
     19933     19934     19933     19935     19934     19935     19936     19937
     19936     19938     19937     19938     19939     19940     19939     19941
     19940     19941     19942     19943     19942     19944     19943     19944
     19945     19946     19945     19947     19946     19947     19948     19949
     19948     19950     19949     19950     19951     19952     19951     19953
     19952     19953     19954     19955     19954     19956     19955     19956
     19957     19958     19957     19959     19958     19959     19960     19961
     19960     19962     19961     19962     19963     19964     19963     19965
     19964     19965     19966     19967     19966     19968     19967     19968
     19969     19970     19969     19971     19970     19971     19972     19973
     19972     19974     19973     19974     19975     19976     19975     19977
     19976     19977     19978     19979     19978     19980     19979     19980
     19981     19982     19981     19983     19982     19983     19984     19985
     19984     19986     19985     19986     19987     19988     19987     19989
     19988     19989     19990     19991     19990     19992     19991     19992
     19993     19994     19993     19995     19994     19995     19996     19997
     19996     19998     19997     19998     19999     20000     19999     20001
     20000     20001     20002     20003     20002     20004     20003     20004
     20005     20006     20005     20007     20006     20007     20008     20009
     20008     20010     20009     20010     20011     20012     20011     20013
     20012     20013     20014     20015     20014     20016     20015     20016
     20017     20018     20017     20019     20018     20019     20020     20021
     20020     20022     20021     20022     20023     20024     20023     20025
     20024     20025     20026     20027     20026     20028     20027     20028
     20029     20030     20029     20031     20030     20031     20032     20033
     20032     20034     20033     20034     20035     20036     20035     20037
     20036     20037     20038     20039     20038     20040     20039     20040
     20041     20042     20041     20043     20042     20043     20044     20045
     20044     20046     20045     20046     20047     20048     20047     20049
     20048     20049     20050     20051     20050     20052     20051     20052
     20053     20054     20053     20055     20054     20055     20056     20057
     20056     20058     20057     20058     20059     20060     20059     20061
     20060     20061     20062     20063     20062     20064     20063     20064
     20065     20066     20065     20067     20066     20067     20068     20069
     20068     20070     20069     20070     20071     20072     20071     20073
     20072     20073     20074     20075     20074     20076     20075     20076
     20077     20078     20077     20079     20078     20079     20080     20081
     20080     20082     20081     20082     20083     20084     20083     20085
     20084     20085     20086     20087     20086     20088     20087     20088
     20089     20090     20089     20091     20090     20091     20092     20093
     20092     20094     20093     20094     20095     20096     20095     20097
     20096     20097     20098     20099     20098     20100     20099     20100
     20101     20102     20101     20103     20102     20103     20104     20105
     20104     20106     20105     20106     20107     20108     20107     20109
     20108     20109     20110     20111     20110     20112     20111     20112
     20113     20114     20113     20115     20114     20115     20116     20117
     20116     20118     20117     20118     20119     20120     20119     20121
     20120     20121     20122     20123     20122     20124     20123     20124
     20125     20126     20125     20127     20126     20127     20128     20129
     20128     20130     20129     20130     20131     20132     20131     20133
     20132     20133     20134     20135     20134     20136     20135     20136
     20137     20138     20137     20139     20138     20139     20140     20141
     20140     20142     20141     20142     20143     20144     20143     20145
     20144     20145     20146     20147     20146     20148     20147     20148
     20149     20150     20149     20151     20150     20151     20152     20153
     20152     20154     20153     20154     20155     20156     20155     20157
     20156     20157     20158     20159     20158     20160     20159     20160
     20161     20162     20161     20163     20162     20163     20164     20165
     20164     20166     20165     20166     20167     20168     20167     20169
     20168     20169     20170     20171     20170     20172     20171     20172
     20173     20174     20173     20175     20174     20175     20176     20177
     20176     20178     20177     20178     20179     20180     20179     20181
     20180     20181     20182     20183     20182     20184     20183     20184
     20185     20186     20185     20187     20186     20187     20188     20189
     20188     20190     20189     20190     20191     20192     20191     20193
     20192     20193     20194     20195     20194     20196     20195     20196
     20197     20198     20197     20199     20198     20199     20200     20201
     20200     20202     20201     20202     20203     20204     20203     20205
     20204     20205     20206     20207     20206     20208     20207     20208
     20209     20210     20209     20211     20210     20211     20212     20213
     20212     20214     20213     20214     20215     20216     20215     20217
     20216     20217     20218     20219     20218     20220     20219     20220
     20221     20222     20221     20223     20222     20223     20224     20225
     20224     20226     20225     20226     20227     20228     20227     20229
     20228     20229     20230     20231     20230     20232     20231     20232
     20233     20234     20233     20235     20234     20235     20236     20237
     20236     20238     20237     20238     20239     20240     20239     20241
     20240     20241     20242     20243     20242     20244     20243     20244
     20245     20246     20245     20247     20246     20247     20248     20249
     20248     20250     20249     20250     20251     20252     20251     20253
     20252     20253     20254     20255     20254     20256     20255     20256
     20257     20258     20257     20259     20258     20259     20260     20261
     20260     20262     20261     20262     20263     20264     20263     20265
     20264     20265     20266     20267     20266     20268     20267     20268
     20269     20270     20269     20271     20270     20271     20272     20273
     20272     20274     20273     20274     20275     20276     20275     20277
     20276     20277     20278     20279     20278     20280     20279     20280
     20281     20282     20281     20283     20282     20283     20284     20285
     20284     20286     20285     20286     20287     20288     20287     20289
     20288     20289     20290     20291     20290     20292     20291     20292
     20293     20294     20293     20295     20294     20295     20296     20297
     20296     20298     20297     20298     20299     20300     20299     20301
     20300     20301     20302     20303     20302     20304     20303     20304
     20305     20306     20305     20307     20306     20307     20308     20309
     20308     20310     20309     20310     20311     20312     20311     20313
     20312     20313     20314     20315     20314     20316     20315     20316
     20317     20318     20317     20319     20318     20319     20320     20321
     20320     20322     20321     20322     20323     20324     20323     20325
     20324     20325     20326     20327     20326     20328     20327     20328
     20329     20330     20329     20331     20330     20331     20332     20333
     20332     20334     20333     20334     20335     20336     20335     20337
     20336     20337     20338     20339     20338     20340     20339     20340
     20341     20342     20341     20343     20342     20343     20344     20345
     20344     20346     20345     20346     20347     20348     20347     20349
     20348     20349     20350     20351     20350     20352     20351     20352
     20353     20354     20353     20355     20354     20355     20356     20357
     20356     20358     20357     20358     20359     20360     20359     20361
     20360     20361     20362     20363     20362     20364     20363     20364
     20365     20366     20365     20367     20366     20367     20368     20369
     20368     20370     20369     20370     20371     20372     20371     20373
     20372     20373     20374     20375     20374     20376     20375     20376
     20377     20378     20377     20379     20378     20379     20380     20381
     20380     20382     20381     20382     20383     20384     20383     20385
     20384     20385     20386     20387     20386     20388     20387     20388
     20389     20390     20389     20391     20390     20391     20392     20393
     20392     20394     20393     20394     20395     20396     20395     20397
     20396     20397     20398     20399     20398     20400     20399     20400
     20401     20402     20401     20403     20402     20403     20404     20405
     20404     20406     20405     20406     20407     20408     20407     20409
     20408     20409     20410     20411     20410     20412     20411     20412
     20413     20414     20413     20415     20414     20415     20416     20417
     20416     20418     20417     20418     20419     20420     20419     20421
     20420     20421     20422     20423     20422     20424     20423     20424
     20425     20426     20425     20427     20426     20427     20428     20429
     20428     20430     20429     20430     20431     20432     20431     20433
     20432     20433     20434     20435     20434     20436     20435     20436
     20437     20438     20437     20439     20438     20439     20440     20441
     20440     20442     20441     20442     20443     20444     20443     20445
     20444     20445     20446     20447     20446     20448     20447     20448
     20449     20450     20449     20451     20450     20451     20452     20453
     20452     20454     20453     20454     20455     20456     20455     20457
     20456     20457     20458     20459     20458     20460     20459     20460
     20461     20462     20461     20463     20462     20463     20464     20465
     20464     20466     20465     20466     20467     20468     20467     20469
     20468     20469     20470     20471     20470     20472     20471     20472
     20473     20474     20473     20475     20474     20475     20476     20477
     20476     20478     20477     20478     20479     20480     20479     20481
     20480     20481     20482     20483     20482     20484     20483     20484
     20485     20486     20485     20487     20486     20487     20488     20489
     20488     20490     20489     20490     20491     20492     20491     20493
     20492     20493     20494     20495     20494     20496     20495     20496
     20497     20498     20497     20499     20498     20499     20500     20501
     20500     20502     20501     20502     20503     20504     20503     20505
     20504     20505     20506     20507     20506     20508     20507     20508
     20509     20510     20509     20511     20510     20511     20512     20513
     20512     20514     20513     20514     20515     20516     20515     20517
     20516     20517     20518     20519     20518     20520     20519     20520
     20521     20522     20521     20523     20522     20523     20524     20525
     20524     20526     20525     20526     20527     20528     20527     20529
     20528     20529     20530     20531     20530     20532     20531     20532
     20533     20534     20533     20535     20534     20535     20536     20537
     20536     20538     20537     20538     20539     20540     20539     20541
     20540     20541     20542     20543     20542     20544     20543     20544
     20545     20546     20545     20547     20546     20547     20548     20549
     20548     20550     20549     20550     20551     20552     20551     20553
     20552     20553     20554     20555     20554     20556     20555     20556
     20557     20558     20557     20559     20558     20559     20560     20561
     20560     20562     20561     20562     20563     20564     20563     20565
     20564     20565     20566     20567     20566     20568     20567     20568
     20569     20570     20569     20571     20570     20571     20572     20573
     20572     20574     20573     20574     20575     20576     20575     20577
     20576     20577     20578     20579     20578     20580     20579     20580
     20581     20582     20581     20583     20582     20583     20584     20585
     20584     20586     20585     20586     20587     20588     20587     20589
     20588     20589     20590     20591     20590     20592     20591     20592
     20593     20594     20593     20595     20594     20595     20596     20597
     20596     20598     20597     20598     20599     20600     20599     20601
     20600     20601     20602     20603     20602     20604     20603     20604
     20605     20606     20605     20607     20606     20607     20608     20609
     20608     20610     20609     20610     20611     20612     20611     20613
     20612     20613     20614     20615     20614     20616     20615     20616
     20617     20618     20617     20619     20618     20619     20620     20621
     20620     20622     20621     20622     20623     20624     20623     20625
     20624     20625     20626     20627     20626     20628     20627     20628
     20629     20630     20629     20631     20630     20631     20632     20633
     20632     20634     20633     20634     20635     20636     20635     20637
     20636     20637     20638     20639     20638     20640     20639     20640
     20641     20642     20641     20643     20642     20643     20644     20645
     20644     20646     20645     20646     20647     20648     20647     20649
     20648     20649     20650     20651     20650     20652     20651     20652
     20653     20654     20653     20655     20654     20655     20656     20657
     20656     20658     20657     20658     20659     20660     20659     20661
     20660     20661     20662     20663     20662     20664     20663     20664
     20665     20666     20665     20667     20666     20667     20668     20669
     20668     20670     20669     20670     20671     20672     20671     20673
     20672     20673     20674     20675     20674     20676     20675     20676
     20677     20678     20677     20679     20678     20679     20680     20681
     20680     20682     20681     20682     20683     20684     20683     20685
     20684     20685     20686     20687     20686     20688     20687     20688
     20689     20690     20689     20691     20690     20691     20692     20693
     20692     20694     20693     20694     20695     20696     20695     20697
     20696     20697     20698     20699     20698     20700     20699     20700
     20701     20702     20701     20703     20702     20703     20704     20705
     20704     20706     20705     20706     20707     20708     20707     20709
     20708     20709     20710     20711     20710     20712     20711     20712
     20713     20714     20713     20715     20714     20715     20716     20717
     20716     20718     20717     20718     20719     20720     20719     20721
     20720     20721     20722     20723     20722     20724     20723     20724
     20725     20726     20725     20727     20726     20727     20728     20729
     20728     20730     20729     20730     20731     20732     20731     20733
     20732     20733     20734     20735     20734     20736     20735     20736
     20737     20738     20737     20739     20738     20739     20740     20741
     20740     20742     20741     20742     20743     20744     20743     20745
     20744     20745     20746     20747     20746     20748     20747     20748
     20749     20750     20749     20751     20750     20751     20752     20753
     20752     20754     20753     20754     20755     20756     20755     20757
     20756     20757     20758     20759     20758     20760     20759     20760
     20761     20762     20761     20763     20762     20763     20764     20765
     20764     20766     20765     20766     20767     20768     20767     20769
     20768     20769     20770     20771     20770     20772     20771     20772
     20773     20774     20773     20775     20774     20775     20776     20777
     20776     20778     20777     20778     20779     20780     20779     20781
     20780     20781     20782     20783     20782     20784     20783     20784
     20785     20786     20785     20787     20786     20787     20788     20789
     20788     20790     20789     20790     20791     20792     20791     20793
     20792     20793     20794     20795     20794     20796     20795     20796
     20797     20798     20797     20799     20798     20799     20800     20801
     20800     20802     20801     20802     20803     20804     20803     20805
     20804     20805     20806     20807     20806     20808     20807     20808
     20809     20810     20809     20811     20810     20811     20812     20813
     20812     20814     20813     20814     20815     20816     20815     20817
     20816     20817     20818     20819     20818     20820     20819     20820
     20821     20822     20821     20823     20822     20823     20824     20825
     20824     20826     20825     20826     20827     20828     20827     20829
     20828     20829     20830     20831     20830     20832     20831     20832
     20833     20834     20833     20835     20834     20835     20836     20837
     20836     20838     20837     20838     20839     20840     20839     20841
     20840     20841     20842     20843     20842     20844     20843     20844
     20845     20846     20845     20847     20846     20847     20848     20849
     20848     20850     20849     20850     20851     20852     20851     20853
     20852     20853     20854     20855     20854     20856     20855     20856
     20857     20858     20857     20859     20858     20859     20860     20861
     20860     20862     20861     20862     20863     20864     20863     20865
     20864     20865     20866     20867     20866     20868     20867     20868
     20869     20870     20869     20871     20870     20871     20872     20873
     20872     20874     20873     20874     20875     20876     20875     20877
     20876     20877     20878     20879     20878     20880     20879     20880
     20881     20882     20881     20883     20882     20883     20884     20885
     20884     20886     20885     20886     20887     20888     20887     20889
     20888     20889     20890     20891     20890     20892     20891     20892
     20893     20894     20893     20895     20894     20895     20896     20897
     20896     20898     20897     20898     20899     20900     20899     20901
     20900     20901     20902     20903     20902     20904     20903     20904
     20905     20906     20905     20907     20906     20907     20908     20909
     20908     20910     20909     20910     20911     20912     20911     20913
     20912     20913     20914     20915     20914     20916     20915     20916
     20917     20918     20917     20919     20918     20919     20920     20921
     20920     20922     20921     20922     20923     20924     20923     20925
     20924     20925     20926     20927     20926     20928     20927     20928
     20929     20930     20929     20931     20930     20931     20932     20933
     20932     20934     20933     20934     20935     20936     20935     20937
     20936     20937     20938     20939     20938     20940     20939     20940
     20941     20942     20941     20943     20942     20943     20944     20945
     20944     20946     20945     20946     20947     20948     20947     20949
     20948     20949     20950     20951     20950     20952     20951     20952
     20953     20954     20953     20955     20954     20955     20956     20957
     20956     20958     20957     20958     20959     20960     20959     20961
     20960     20961     20962     20963     20962     20964     20963     20964
     20965     20966     20965     20967     20966     20967     20968     20969
     20968     20970     20969     20970     20971     20972     20971     20973
     20972     20973     20974     20975     20974     20976     20975     20976
     20977     20978     20977     20979     20978     20979     20980     20981
     20980     20982     20981     20982     20983     20984     20983     20985
     20984     20985     20986     20987     20986     20988     20987     20988
     20989     20990     20989     20991     20990     20991     20992     20993
     20992     20994     20993     20994     20995     20996     20995     20997
     20996     20997     20998     20999     20998     21000     20999     21000
     21001     21002     21001     21003     21002     21003     21004     21005
     21004     21006     21005     21006     21007     21008     21007     21009
     21008     21009     21010     21011     21010     21012     21011     21012
     21013     21014     21013     21015     21014     21015     21016     21017
     21016     21018     21017     21018     21019     21020     21019     21021
     21020     21021     21022     21023     21022     21024     21023     21024
     21025     21026     21025     21027     21026     21027     21028     21029
     21028     21030     21029     21030     21031     21032     21031     21033
     21032     21033     21034     21035     21034     21036     21035     21036
     21037     21038     21037     21039     21038     21039     21040     21041
     21040     21042     21041     21042     21043     21044     21043     21045
     21044     21045     21046     21047     21046     21048     21047     21048
     21049     21050     21049     21051     21050     21051     21052     21053
     21052     21054     21053     21054     21055     21056     21055     21057
     21056     21057     21058     21059     21058     21060     21059     21060
     21061     21062     21061     21063     21062     21063     21064     21065
     21064     21066     21065     21066     21067     21068     21067     21069
     21068     21069     21070     21071     21070     21072     21071     21072
     21073     21074     21073     21075     21074     21075     21076     21077
     21076     21078     21077     21078     21079     21080     21079     21081
     21080     21081     21082     21083     21082     21084     21083     21084
     21085     21086     21085     21087     21086     21087     21088     21089
     21088     21090     21089     21090     21091     21092     21091     21093
     21092     21093     21094     21095     21094     21096     21095     21096
     21097     21098     21097     21099     21098     21099     21100     21101
     21100     21102     21101     21102     21103     21104     21103     21105
     21104     21105     21106     21107     21106     21108     21107     21108
     21109     21110     21109     21111     21110     21111     21112     21113
     21112     21114     21113     21114     21115     21116     21115     21117
     21116     21117     21118     21119     21118     21120     21119     21120
     21121     21122     21121     21123     21122     21123     21124     21125
     21124     21126     21125     21126     21127     21128     21127     21129
     21128     21129     21130     21131     21130     21132     21131     21132
     21133     21134     21133     21135     21134     21135     21136     21137
     21136     21138     21137     21138     21139     21140     21139     21141
     21140     21141     21142     21143     21142     21144     21143     21144
     21145     21146     21145     21147     21146     21147     21148     21149
     21148     21150     21149     21150     21151     21152     21151     21153
     21152     21153     21154     21155     21154     21156     21155     21156
     21157     21158     21157     21159     21158     21159     21160     21161
     21160     21162     21161     21162     21163     21164     21163     21165
     21164     21165     21166     21167     21166     21168     21167     21168
     21169     21170     21169     21171     21170     21171     21172     21173
     21172     21174     21173     21174     21175     21176     21175     21177
     21176     21177     21178     21179     21178     21180     21179     21180
     21181     21182     21181     21183     21182     21183     21184     21185
     21184     21186     21185     21186     21187     21188     21187     21189
     21188     21189     21190     21191     21190     21192     21191     21192
     21193     21194     21193     21195     21194     21195     21196     21197
     21196     21198     21197     21198     21199     21200     21199     21201
     21200     21201     21202     21203     21202     21204     21203     21204
     21205     21206     21205     21207     21206     21207     21208     21209
     21208     21210     21209     21210     21211     21212     21211     21213
     21212     21213     21214     21215     21214     21216     21215     21216
     21217     21218     21217     21219     21218     21219     21220     21221
     21220     21222     21221     21222     21223     21224     21223     21225
     21224     21225     21226     21227     21226     21228     21227     21228
     21229     21230     21229     21231     21230     21231     21232     21233
     21232     21234     21233     21234     21235     21236     21235     21237
     21236     21237     21238     21239     21238     21240     21239     21240
     21241     21242     21241     21243     21242     21243     21244     21245
     21244     21246     21245     21246     21247     21248     21247     21249
     21248     21249     21250     21251     21250     21252     21251     21252
     21253     21254     21253     21255     21254     21255     21256     21257
     21256     21258     21257     21258     21259     21260     21259     21261
     21260     21261     21262     21263     21262     21264     21263     21264
     21265     21266     21265     21267     21266     21267     21268     21269
     21268     21270     21269     21270     21271     21272     21271     21273
     21272     21273     21274     21275     21274     21276     21275     21276
     21277     21278     21277     21279     21278     21279     21280     21281
     21280     21282     21281     21282     21283     21284     21283     21285
     21284     21285     21286     21287     21286     21288     21287     21288
     21289     21290     21289     21291     21290     21291     21292     21293
     21292     21294     21293     21294     21295     21296     21295     21297
     21296     21297     21298     21299     21298     21300     21299     21300
     21301     21302     21301     21303     21302     21303     21304     21305
     21304     21306     21305     21306     21307     21308     21307     21309
     21308     21309     21310     21311     21310     21312     21311     21312
     21313     21314     21313     21315     21314     21315     21316     21317
     21316     21318     21317     21318     21319     21320     21319     21321
     21320     21321     21322     21323     21322     21324     21323     21324
     21325     21326     21325     21327     21326     21327     21328     21329
     21328     21330     21329     21330     21331     21332     21331     21333
     21332     21333     21334     21335     21334     21336     21335     21336
     21337     21338     21337     21339     21338     21339     21340     21341
     21340     21342     21341     21342     21343     21344     21343     21345
     21344     21345     21346     21347     21346     21348     21347     21348
     21349     21350     21349     21351     21350     21351     21352     21353
     21352     21354     21353     21354     21355     21356     21355     21357
     21356     21357     21358     21359     21358     21360     21359     21360
     21361     21362     21361     21363     21362     21363     21364     21365
     21364     21366     21365     21366     21367     21368     21367     21369
     21368     21369     21370     21371     21370     21372     21371     21372
     21373     21374     21373     21375     21374     21375     21376     21377
     21376     21378     21377     21378     21379     21380     21379     21381
     21380     21381     21382     21383     21382     21384     21383     21384
     21385     21386     21385     21387     21386     21387     21388     21389
     21388     21390     21389     21390     21391     21392     21391     21393
     21392     21393     21394     21395     21394     21396     21395     21396
     21397     21398     21397     21399     21398     21399     21400     21401
     21400     21402     21401     21402     21403     21404     21403     21405
     21404     21405     21406     21407     21406     21408     21407     21408
     21409     21410     21409     21411     21410     21411     21412     21413
     21412     21414     21413     21414     21415     21416     21415     21417
     21416     21417     21418     21419     21418     21420     21419     21420
     21421     21422     21421     21423     21422     21423     21424     21425
     21424     21426     21425     21426     21427     21428     21427     21429
     21428     21429     21430     21431     21430     21432     21431     21432
     21433     21434     21433     21435     21434     21435     21436     21437
     21436     21438     21437     21438     21439     21440     21439     21441
     21440     21441     21442     21443     21442     21444     21443     21444
     21445     21446     21445     21447     21446     21447     21448     21449
     21448     21450     21449     21450     21451     21452     21451     21453
     21452     21453     21454     21455     21454     21456     21455     21456
     21457     21458     21457     21459     21458     21459     21460     21461
     21460     21462     21461     21462     21463     21464     21463     21465
     21464     21465     21466     21467     21466     21468     21467     21468
     21469     21470     21469     21471     21470     21471     21472     21473
     21472     21474     21473     21474     21475     21476     21475     21477
     21476     21477     21478     21479     21478     21480     21479     21480
     21481     21482     21481     21483     21482     21483     21484     21485
     21484     21486     21485     21486     21487     21488     21487     21489
     21488     21489     21490     21491     21490     21492     21491     21492
     21493     21494     21493     21495     21494     21495     21496     21497
     21496     21498     21497     21498     21499     21500     21499     21501
     21500     21501     21502     21503     21502     21504     21503     21504
     21505     21506     21505     21507     21506     21507     21508     21509
     21508     21510     21509     21510     21511     21512     21511     21513
     21512     21513     21514     21515     21514     21516     21515     21516
     21517     21518     21517     21519     21518     21519     21520     21521
     21520     21522     21521     21522     21523     21524     21523     21525
     21524     21525     21526     21527     21526     21528     21527     21528
     21529     21530     21529     21531     21530     21531     21532     21533
     21532     21534     21533     21534     21535     21536     21535     21537
     21536     21537     21538     21539     21538     21540     21539     21540
     21541     21542     21541     21543     21542     21543     21544     21545
     21544     21546     21545     21546     21547     21548     21547     21549
     21548     21549     21550     21551     21550     21552     21551     21552
     21553     21554     21553     21555     21554     21555     21556     21557
     21556     21558     21557     21558     21559     21560     21559     21561
     21560     21561     21562     21563     21562     21564     21563     21564
     21565     21566     21565     21567     21566     21567     21568     21569
     21568     21570     21569     21570     21571     21572     21571     21573
     21572     21573     21574     21575     21574     21576     21575     21576
     21577     21578     21577     21579     21578     21579     21580     21581
     21580     21582     21581     21582     21583     21584     21583     21585
     21584     21585     21586     21587     21586     21588     21587     21588
     21589     21590     21589     21591     21590     21591     21592     21593
     21592     21594     21593     21594     21595     21596     21595     21597
     21596     21597     21598     21599     21598     21600     21599     21600
     21601     21602     21601     21603     21602     21603     21604     21605
     21604     21606     21605     21606     21607     21608     21607     21609
     21608     21609     21610     21611     21610     21612     21611     21612
     21613     21614     21613     21615     21614     21615     21616     21617
     21616     21618     21617     21618     21619     21620     21619     21621
     21620     21621     21622     21623     21622     21624     21623     21624
     21625     21626     21625     21627     21626     21627     21628     21629
     21628     21630     21629     21630     21631     21632     21631     21633
     21632     21633     21634     21635     21634     21636     21635     21636
     21637     21638     21637     21639     21638     21639     21640     21641
     21640     21642     21641     21642     21643     21644     21643     21645
     21644     21645     21646     21647     21646     21648     21647     21648
     21649     21650     21649     21651     21650     21651     21652     21653
     21652     21654     21653     21654     21655     21656     21655     21657
     21656     21657     21658     21659     21658     21660     21659     21660
     21661     21662     21661     21663     21662     21663     21664     21665
     21664     21666     21665     21666     21667     21668     21667     21669
     21668     21669     21670     21671     21670     21672     21671     21672
     21673     21674     21673     21675     21674     21675     21676     21677
     21676     21678     21677     21678     21679     21680     21679     21681
     21680     21681     21682     21683     21682     21684     21683     21684
     21685     21686     21685     21687     21686     21687     21688     21689
     21688     21690     21689     21690     21691     21692     21691     21693
     21692     21693     21694     21695     21694     21696     21695     21696
     21697     21698     21697     21699     21698     21699     21700     21701
     21700     21702     21701     21702     21703     21704     21703     21705
     21704     21705     21706     21707     21706     21708     21707     21708
     21709     21710     21709     21711     21710     21711     21712     21713
     21712     21714     21713     21714     21715     21716     21715     21717
     21716     21717     21718     21719     21718     21720     21719     21720
     21721     21722     21721     21723     21722     21723     21724     21725
     21724     21726     21725     21726     21727     21728     21727     21729
     21728     21729     21730     21731     21730     21732     21731     21732
     21733     21734     21733     21735     21734     21735     21736     21737
     21736     21738     21737     21738     21739     21740     21739     21741
     21740     21741     21742     21743     21742     21744     21743     21744
     21745     21746     21745     21747     21746     21747     21748     21749
     21748     21750     21749     21750     21751     21752     21751     21753
     21752     21753     21754     21755     21754     21756     21755     21756
     21757     21758     21757     21759     21758     21759     21760     21761
     21760     21762     21761     21762     21763     21764     21763     21765
     21764     21765     21766     21767     21766     21768     21767     21768
     21769     21770     21769     21771     21770     21771     21772     21773
     21772     21774     21773     21774     21775     21776     21775     21777
     21776     21777     21778     21779     21778     21780     21779     21780
     21781     21782     21781     21783     21782     21783     21784     21785
     21784     21786     21785     21786     21787     21788     21787     21789
     21788     21789     21790     21791     21790     21792     21791     21792
     21793     21794     21793     21795     21794     21795     21796     21797
     21796     21798     21797     21798     21799     21800     21799     21801
     21800     21801     21802     21803     21802     21804     21803     21804
     21805     21806     21805     21807     21806     21807     21808     21809
     21808     21810     21809     21810     21811     21812     21811     21813
     21812     21813     21814     21815     21814     21816     21815     21816
     21817     21818     21817     21819     21818     21819     21820     21821
     21820     21822     21821     21822     21823     21824     21823     21825
     21824     21825     21826     21827     21826     21828     21827     21828
     21829     21830     21829     21831     21830     21831     21832     21833
     21832     21834     21833     21834     21835     21836     21835     21837
     21836     21837     21838     21839     21838     21840     21839     21840
     21841     21842     21841     21843     21842     21843     21844     21845
     21844     21846     21845     21846     21847     21848     21847     21849
     21848     21849     21850     21851     21850     21852     21851     21852
     21853     21854     21853     21855     21854     21855     21856     21857
     21856     21858     21857     21858     21859     21860     21859     21861
     21860     21861     21862     21863     21862     21864     21863     21864
     21865     21866     21865     21867     21866     21867     21868     21869
     21868     21870     21869     21870     21871     21872     21871     21873
     21872     21873     21874     21875     21874     21876     21875     21876
     21877     21878     21877     21879     21878     21879     21880     21881
     21880     21882     21881     21882     21883     21884     21883     21885
     21884     21885     21886     21887     21886     21888     21887     21888
     21889     21890     21889     21891     21890     21891     21892     21893
     21892     21894     21893     21894     21895     21896     21895     21897
     21896     21897     21898     21899     21898     21900     21899     21900
     21901     21902     21901     21903     21902     21903     21904     21905
     21904     21906     21905     21906     21907     21908     21907     21909
     21908     21909     21910     21911     21910     21912     21911     21912
     21913     21914     21913     21915     21914     21915     21916     21917
     21916     21918     21917     21918     21919     21920     21919     21921
     21920     21921     21922     21923     21922     21924     21923     21924
     21925     21926     21925     21927     21926     21927     21928     21929
     21928     21930     21929     21930     21931     21932     21931     21933
     21932     21933     21934     21935     21934     21936     21935     21936
     21937     21938     21937     21939     21938     21939     21940     21941
     21940     21942     21941     21942     21943     21944     21943     21945
     21944     21945     21946     21947     21946     21948     21947     21948
     21949     21950     21949     21951     21950     21951     21952     21953
     21952     21954     21953     21954     21955     21956     21955     21957
     21956     21957     21958     21959     21958     21960     21959     21960
     21961     21962     21961     21963     21962     21963     21964     21965
     21964     21966     21965     21966     21967     21968     21967     21969
     21968     21969     21970     21971     21970     21972     21971     21972
     21973     21974     21973     21975     21974     21975     21976     21977
     21976     21978     21977     21978     21979     21980     21979     21981
     21980     21981     21982     21983     21982     21984     21983     21984
     21985     21986     21985     21987     21986     21987     21988     21989
     21988     21990     21989     21990     21991     21992     21991     21993
     21992     21993     21994     21995     21994     21996     21995     21996
     21997     21998     21997     21999     21998     21999     22000     22001
     22000     22002     22001     22002     22003     22004     22003     22005
     22004     22005     22006     22007     22006     22008     22007     22008
     22009     22010     22009     22011     22010     22011     22012     22013
     22012     22014     22013     22014     22015     22016     22015     22017
     22016     22017     22018     22019     22018     22020     22019     22020
     22021     22022     22021     22023     22022     22023     22024     22025
     22024     22026     22025     22026     22027     22028     22027     22029
     22028     22029     22030     22031     22030     22032     22031     22032
     22033     22034     22033     22035     22034     22035     22036     22037
     22036     22038     22037     22038     22039     22040     22039     22041
     22040     22041     22042     22043     22042     22044     22043     22044
     22045     22046     22045     22047     22046     22047     22048     22049
     22048     22050     22049     22050     22051     22052     22051     22053
     22052     22053     22054     22055     22054     22056     22055     22056
     22057     22058     22057     22059     22058     22059     22060     22061
     22060     22062     22061     22062     22063     22064     22063     22065
     22064     22065     22066     22067     22066     22068     22067     22068
     22069     22070     22069     22071     22070     22071     22072     22073
     22072     22074     22073     22074     22075     22076     22075     22077
     22076     22077     22078     22079     22078     22080     22079     22080
     22081     22082     22081     22083     22082     22083     22084     22085
     22084     22086     22085     22086     22087     22088     22087     22089
     22088     22089     22090     22091     22090     22092     22091     22092
     22093     22094     22093     22095     22094     22095     22096     22097
     22096     22098     22097     22098     22099     22100     22099     22101
     22100     22101     22102     22103     22102     22104     22103     22104
     22105     22106     22105     22107     22106     22107     22108     22109
     22108     22110     22109     22110     22111     22112     22111     22113
     22112     22113     22114     22115     22114     22116     22115     22116
     22117     22118     22117     22119     22118     22119     22120     22121
     22120     22122     22121     22122     22123     22124     22123     22125
     22124     22125     22126     22127     22126     22128     22127     22128
     22129     22130     22129     22131     22130     22131     22132     22133
     22132     22134     22133     22134     22135     22136     22135     22137
     22136     22137     22138     22139     22138     22140     22139     22140
     22141     22142     22141     22143     22142     22143     22144     22145
     22144     22146     22145     22146     22147     22148     22147     22149
     22148     22149     22150     22151     22150     22152     22151     22152
     22153     22154     22153     22155     22154     22155     22156     22157
     22156     22158     22157     22158     22159     22160     22159     22161
     22160     22161     22162     22163     22162     22164     22163     22164
     22165     22166     22165     22167     22166     22167     22168     22169
     22168     22170     22169     22170     22171     22172     22171     22173
     22172     22173     22174     22175     22174     22176     22175     22176
     22177     22178     22177     22179     22178     22179     22180     22181
     22180     22182     22181     22182     22183     22184     22183     22185
     22184     22185     22186     22187     22186     22188     22187     22188
     22189     22190     22189     22191     22190     22191     22192     22193
     22192     22194     22193     22194     22195     22196     22195     22197
     22196     22197     22198     22199     22198     22200     22199     22200
     22201     22202     22201     22203     22202     22203     22204     22205
     22204     22206     22205     22206     22207     22208     22207     22209
     22208     22209     22210     22211     22210     22212     22211     22212
     22213     22214     22213     22215     22214     22215     22216     22217
     22216     22218     22217     22218     22219     22220     22219     22221
     22220     22221     22222     22223     22222     22224     22223     22224
     22225     22226     22225     22227     22226     22227     22228     22229
     22228     22230     22229     22230     22231     22232     22231     22233
     22232     22233     22234     22235     22234     22236     22235     22236
     22237     22238     22237     22239     22238     22239     22240     22241
     22240     22242     22241     22242     22243     22244     22243     22245
     22244     22245     22246     22247     22246     22248     22247     22248
     22249     22250     22249     22251     22250     22251     22252     22253
     22252     22254     22253     22254     22255     22256     22255     22257
     22256     22257     22258     22259     22258     22260     22259     22260
     22261     22262     22261     22263     22262     22263     22264     22265
     22264     22266     22265     22266     22267     22268     22267     22269
     22268     22269     22270     22271     22270     22272     22271     22272
     22273     22274     22273     22275     22274     22275     22276     22277
     22276     22278     22277     22278     22279     22280     22279     22281
     22280     22281     22282     22283     22282     22284     22283     22284
     22285     22286     22285     22287     22286     22287     22288     22289
     22288     22290     22289     22290     22291     22292     22291     22293
     22292     22293     22294     22295     22294     22296     22295     22296
     22297     22298     22297     22299     22298     22299     22300     22301
     22300     22302     22301     22302     22303     22304     22303     22305
     22304     22305     22306     22307     22306     22308     22307     22308
     22309     22310     22309     22311     22310     22311     22312     22313
     22312     22314     22313     22314     22315     22316     22315     22317
     22316     22317     22318     22319     22318     22320     22319     22320
     22321     22322     22321     22323     22322     22323     22324     22325
     22324     22326     22325     22326     22327     22328     22327     22329
     22328     22329     22330     22331     22330     22332     22331     22332
     22333     22334     22333     22335     22334     22335     22336     22337
     22336     22338     22337     22338     22339     22340     22339     22341
     22340     22341     22342     22343     22342     22344     22343     22344
     22345     22346     22345     22347     22346     22347     22348     22349
     22348     22350     22349     22350     22351     22352     22351     22353
     22352     22353     22354     22355     22354     22356     22355     22356
     22357     22358     22357     22359     22358     22359     22360     22361
     22360     22362     22361     22362     22363     22364     22363     22365
     22364     22365     22366     22367     22366     22368     22367     22368
     22369     22370     22369     22371     22370     22371     22372     22373
     22372     22374     22373     22374     22375     22376     22375     22377
     22376     22377     22378     22379     22378     22380     22379     22380
     22381     22382     22381     22383     22382     22383     22384     22385
     22384     22386     22385     22386     22387     22388     22387     22389
     22388     22389     22390     22391     22390     22392     22391     22392
     22393     22394     22393     22395     22394     22395     22396     22397
     22396     22398     22397     22398     22399     22400     22399     22401
     22400     22401     22402     22403     22402     22404     22403     22404
     22405     22406     22405     22407     22406     22407     22408     22409
     22408     22410     22409     22410     22411     22412     22411     22413
     22412     22413     22414     22415     22414     22416     22415     22416
     22417     22418     22417     22419     22418     22419     22420     22421
     22420     22422     22421     22422     22423     22424     22423     22425
     22424     22425     22426     22427     22426     22428     22427     22428
     22429     22430     22429     22431     22430     22431     22432     22433
     22432     22434     22433     22434     22435     22436     22435     22437
     22436     22437     22438     22439     22438     22440     22439     22440
     22441     22442     22441     22443     22442     22443     22444     22445
     22444     22446     22445     22446     22447     22448     22447     22449
     22448     22449     22450     22451     22450     22452     22451     22452
     22453     22454     22453     22455     22454     22455     22456     22457
     22456     22458     22457     22458     22459     22460     22459     22461
     22460     22461     22462     22463     22462     22464     22463     22464
     22465     22466     22465     22467     22466     22467     22468     22469
     22468     22470     22469     22470     22471     22472     22471     22473
     22472     22473     22474     22475     22474     22476     22475     22476
     22477     22478     22477     22479     22478     22479     22480     22481
     22480     22482     22481     22482     22483     22484     22483     22485
     22484     22485     22486     22487     22486     22488     22487     22488
     22489     22490     22489     22491     22490     22491     22492     22493
     22492     22494     22493     22494     22495     22496     22495     22497
     22496     22497     22498     22499     22498     22500     22499     22500
     22501     22502     22501     22503     22502     22503     22504     22505
     22504     22506     22505     22506     22507     22508     22507     22509
     22508     22509     22510     22511     22510     22512     22511     22512
     22513     22514     22513     22515     22514     22515     22516     22517
     22516     22518     22517     22518     22519     22520     22519     22521
     22520     22521     22522     22523     22522     22524     22523     22524
     22525     22526     22525     22527     22526     22527     22528     22529
     22528     22530     22529     22530     22531     22532     22531     22533
     22532     22533     22534     22535     22534     22536     22535     22536
     22537     22538     22537     22539     22538     22539     22540     22541
     22540     22542     22541     22542     22543     22544     22543     22545
     22544     22545     22546     22547     22546     22548     22547     22548
     22549     22550     22549     22551     22550     22551     22552     22553
     22552     22554     22553     22554     22555     22556     22555     22557
     22556     22557     22558     22559     22558     22560     22559     22560
     22561     22562     22561     22563     22562     22563     22564     22565
     22564     22566     22565     22566     22567     22568     22567     22569
     22568     22569     22570     22571     22570     22572     22571     22572
     22573     22574     22573     22575     22574     22575     22576     22577
     22576     22578     22577     22578     22579     22580     22579     22581
     22580     22581     22582     22583     22582     22584     22583     22584
     22585     22586     22585     22587     22586     22587     22588     22589
     22588     22590     22589     22590     22591     22592     22591     22593
     22592     22593     22594     22595     22594     22596     22595     22596
     22597     22598     22597     22599     22598     22599     22600     22601
     22600     22602     22601     22602     22603     22604     22603     22605
     22604     22605     22606     22607     22606     22608     22607     22608
     22609     22610     22609     22611     22610     22611     22612     22613
     22612     22614     22613     22614     22615     22616     22615     22617
     22616     22617     22618     22619     22618     22620     22619     22620
     22621     22622     22621     22623     22622     22623     22624     22625
     22624     22626     22625     22626     22627     22628     22627     22629
     22628     22629     22630     22631     22630     22632     22631     22632
     22633     22634     22633     22635     22634     22635     22636     22637
     22636     22638     22637     22638     22639     22640     22639     22641
     22640     22641     22642     22643     22642     22644     22643     22644
     22645     22646     22645     22647     22646     22647     22648     22649
     22648     22650     22649     22650     22651     22652     22651     22653
     22652     22653     22654     22655     22654     22656     22655     22656
     22657     22658     22657     22659     22658     22659     22660     22661
     22660     22662     22661     22662     22663     22664     22663     22665
     22664     22665     22666     22667     22666     22668     22667     22668
     22669     22670     22669     22671     22670     22671     22672     22673
     22672     22674     22673     22674     22675     22676     22675     22677
     22676     22677     22678     22679     22678     22680     22679     22680
     22681     22682     22681     22683     22682     22683     22684     22685
     22684     22686     22685     22686     22687     22688     22687     22689
     22688     22689     22690     22691     22690     22692     22691     22692
     22693     22694     22693     22695     22694     22695     22696     22697
     22696     22698     22697     22698     22699     22700     22699     22701
     22700     22701     22702     22703     22702     22704     22703     22704
     22705     22706     22705     22707     22706     22707     22708     22709
     22708     22710     22709     22710     22711     22712     22711     22713
     22712     22713     22714     22715     22714     22716     22715     22716
     22717     22718     22717     22719     22718     22719     22720     22721
     22720     22722     22721     22722     22723     22724     22723     22725
     22724     22725     22726     22727     22726     22728     22727     22728
     22729     22730     22729     22731     22730     22731     22732     22733
     22732     22734     22733     22734     22735     22736     22735     22737
     22736     22737     22738     22739     22738     22740     22739     22740
     22741     22742     22741     22743     22742     22743     22744     22745
     22744     22746     22745     22746     22747     22748     22747     22749
     22748     22749     22750     22751     22750     22752     22751     22752
     22753     22754     22753     22755     22754     22755     22756     22757
     22756     22758     22757     22758     22759     22760     22759     22761
     22760     22761     22762     22763     22762     22764     22763     22764
     22765     22766     22765     22767     22766     22767     22768     22769
     22768     22770     22769     22770     22771     22772     22771     22773
     22772     22773     22774     22775     22774     22776     22775     22776
     22777     22778     22777     22779     22778     22779     22780     22781
     22780     22782     22781     22782     22783     22784     22783     22785
     22784     22785     22786     22787     22786     22788     22787     22788
     22789     22790     22789     22791     22790     22791     22792     22793
     22792     22794     22793     22794     22795     22796     22795     22797
     22796     22797     22798     22799     22798     22800     22799     22800
     22801     22802     22801     22803     22802     22803     22804     22805
     22804     22806     22805     22806     22807     22808     22807     22809
     22808     22809     22810     22811     22810     22812     22811     22812
     22813     22814     22813     22815     22814     22815     22816     22817
     22816     22818     22817     22818     22819     22820     22819     22821
     22820     22821     22822     22823     22822     22824     22823     22824
     22825     22826     22825     22827     22826     22827     22828     22829
     22828     22830     22829     22830     22831     22832     22831     22833
     22832     22833     22834     22835     22834     22836     22835     22836
     22837     22838     22837     22839     22838     22839     22840     22841
     22840     22842     22841     22842     22843     22844     22843     22845
     22844     22845     22846     22847     22846     22848     22847     22848
     22849     22850     22849     22851     22850     22851     22852     22853
     22852     22854     22853     22854     22855     22856     22855     22857
     22856     22857     22858     22859     22858     22860     22859     22860
     22861     22862     22861     22863     22862     22863     22864     22865
     22864     22866     22865     22866     22867     22868     22867     22869
     22868     22869     22870     22871     22870     22872     22871     22872
     22873     22874     22873     22875     22874     22875     22876     22877
     22876     22878     22877     22878     22879     22880     22879     22881
     22880     22881     22882     22883     22882     22884     22883     22884
     22885     22886     22885     22887     22886     22887     22888     22889
     22888     22890     22889     22890     22891     22892     22891     22893
     22892     22893     22894     22895     22894     22896     22895     22896
     22897     22898     22897     22899     22898     22899     22900     22901
     22900     22902     22901     22902     22903     22904     22903     22905
     22904     22905     22906     22907     22906     22908     22907     22908
     22909     22910     22909     22911     22910     22911     22912     22913
     22912     22914     22913     22914     22915     22916     22915     22917
     22916     22917     22918     22919     22918     22920     22919     22920
     22921     22922     22921     22923     22922     22923     22924     22925
     22924     22926     22925     22926     22927     22928     22927     22929
     22928     22929     22930     22931     22930     22932     22931     22932
     22933     22934     22933     22935     22934     22935     22936     22937
     22936     22938     22937     22938     22939     22940     22939     22941
     22940     22941     22942     22943     22942     22944     22943     22944
     22945     22946     22945     22947     22946     22947     22948     22949
     22948     22950     22949     22950     22951     22952     22951     22953
     22952     22953     22954     22955     22954     22956     22955     22956
     22957     22958     22957     22959     22958     22959     22960     22961
     22960     22962     22961     22962     22963     22964     22963     22965
     22964     22965     22966     22967     22966     22968     22967     22968
     22969     22970     22969     22971     22970     22971     22972     22973
     22972     22974     22973     22974     22975     22976     22975     22977
     22976     22977     22978     22979     22978     22980     22979     22980
     22981     22982     22981     22983     22982     22983     22984     22985
     22984     22986     22985     22986     22987     22988     22987     22989
     22988     22989     22990     22991     22990     22992     22991     22992
     22993     22994     22993     22995     22994     22995     22996     22997
     22996     22998     22997     22998     22999     23000     22999     23001
     23000     23001     23002     23003     23002     23004     23003     23004
     23005     23006     23005     23007     23006     23007     23008     23009
     23008     23010     23009     23010     23011     23012     23011     23013
     23012     23013     23014     23015     23014     23016     23015     23016
     23017     23018     23017     23019     23018     23019     23020     23021
     23020     23022     23021     23022     23023     23024     23023     23025
     23024     23025     23026     23027     23026     23028     23027     23028
     23029     23030     23029     23031     23030     23031     23032     23033
     23032     23034     23033     23034     23035     23036     23035     23037
     23036     23037     23038     23039     23038     23040     23039     23040
     23041     23042     23041     23043     23042     23043     23044     23045
     23044     23046     23045     23046     23047     23048     23047     23049
     23048     23049     23050     23051     23050     23052     23051     23052
     23053     23054     23053     23055     23054     23055     23056     23057
     23056     23058     23057     23058     23059     23060     23059     23061
     23060     23061     23062     23063     23062     23064     23063     23064
     23065     23066     23065     23067     23066     23067     23068     23069
     23068     23070     23069     23070     23071     23072     23071     23073
     23072     23073     23074     23075     23074     23076     23075     23076
     23077     23078     23077     23079     23078     23079     23080     23081
     23080     23082     23081     23082     23083     23084     23083     23085
     23084     23085     23086     23087     23086     23088     23087     23088
     23089     23090     23089     23091     23090     23091     23092     23093
     23092     23094     23093     23094     23095     23096     23095     23097
     23096     23097     23098     23099     23098     23100     23099     23100
     23101     23102     23101     23103     23102     23103     23104     23105
     23104     23106     23105     23106     23107     23108     23107     23109
     23108     23109     23110     23111     23110     23112     23111     23112
     23113     23114     23113     23115     23114     23115     23116     23117
     23116     23118     23117     23118     23119     23120     23119     23121
     23120     23121     23122     23123     23122     23124     23123     23124
     23125     23126     23125     23127     23126     23127     23128     23129
     23128     23130     23129     23130     23131     23132     23131     23133
     23132     23133     23134     23135     23134     23136     23135     23136
     23137     23138     23137     23139     23138     23139     23140     23141
     23140     23142     23141     23142     23143     23144     23143     23145
     23144     23145     23146     23147     23146     23148     23147     23148
     23149     23150     23149     23151     23150     23151     23152     23153
     23152     23154     23153     23154     23155     23156     23155     23157
     23156     23157     23158     23159     23158     23160     23159     23160
     23161     23162     23161     23163     23162     23163     23164     23165
     23164     23166     23165     23166     23167     23168     23167     23169
     23168     23169     23170     23171     23170     23172     23171     23172
     23173     23174     23173     23175     23174     23175     23176     23177
     23176     23178     23177     23178     23179     23180     23179     23181
     23180     23181     23182     23183     23182     23184     23183     23184
     23185     23186     23185     23187     23186     23187     23188     23189
     23188     23190     23189     23190     23191     23192     23191     23193
     23192     23193     23194     23195     23194     23196     23195     23196
     23197     23198     23197     23199     23198     23199     23200     23201
     23200     23202     23201     23202     23203     23204     23203     23205
     23204     23205     23206     23207     23206     23208     23207     23208
     23209     23210     23209     23211     23210     23211     23212     23213
     23212     23214     23213     23214     23215     23216     23215     23217
     23216     23217     23218     23219     23218     23220     23219     23220
     23221     23222     23221     23223     23222     23223     23224     23225
     23224     23226     23225     23226     23227     23228     23227     23229
     23228     23229     23230     23231     23230     23232     23231     23232
     23233     23234     23233     23235     23234     23235     23236     23237
     23236     23238     23237     23238     23239     23240     23239     23241
     23240     23241     23242     23243     23242     23244     23243     23244
     23245     23246     23245     23247     23246     23247     23248     23249
     23248     23250     23249     23250     23251     23252     23251     23253
     23252     23253     23254     23255     23254     23256     23255     23256
     23257     23258     23257     23259     23258     23259     23260     23261
     23260     23262     23261     23262     23263     23264     23263     23265
     23264     23265     23266     23267     23266     23268     23267     23268
     23269     23270     23269     23271     23270     23271     23272     23273
     23272     23274     23273     23274     23275     23276     23275     23277
     23276     23277     23278     23279     23278     23280     23279     23280
     23281     23282     23281     23283     23282     23283     23284     23285
     23284     23286     23285     23286     23287     23288     23287     23289
     23288     23289     23290     23291     23290     23292     23291     23292
     23293     23294     23293     23295     23294     23295     23296     23297
     23296     23298     23297     23298     23299     23300     23299     23301
     23300     23301     23302     23303     23302     23304     23303     23304
     23305     23306     23305     23307     23306     23307     23308     23309
     23308     23310     23309     23310     23311     23312     23311     23313
     23312     23313     23314     23315     23314     23316     23315     23316
     23317     23318     23317     23319     23318     23319     23320     23321
     23320     23322     23321     23322     23323     23324     23323     23325
     23324     23325     23326     23327     23326     23328     23327     23328
     23329     23330     23329     23331     23330     23331     23332     23333
     23332     23334     23333     23334     23335     23336     23335     23337
     23336     23337     23338     23339     23338     23340     23339     23340
     23341     23342     23341     23343     23342     23343     23344     23345
     23344     23346     23345     23346     23347     23348     23347     23349
     23348     23349     23350     23351     23350     23352     23351     23352
     23353     23354     23353     23355     23354     23355     23356     23357
     23356     23358     23357     23358     23359     23360     23359     23361
     23360     23361     23362     23363     23362     23364     23363     23364
     23365     23366     23365     23367     23366     23367     23368     23369
     23368     23370     23369     23370     23371     23372     23371     23373
     23372     23373     23374     23375     23374     23376     23375     23376
     23377     23378     23377     23379     23378     23379     23380     23381
     23380     23382     23381     23382     23383     23384     23383     23385
     23384     23385     23386     23387     23386     23388     23387     23388
     23389     23390     23389     23391     23390     23391     23392     23393
     23392     23394     23393     23394     23395     23396     23395     23397
     23396     23397     23398     23399     23398     23400     23399     23400
     23401     23402     23401     23403     23402     23403     23404     23405
     23404     23406     23405     23406     23407     23408     23407     23409
     23408     23409     23410     23411     23410     23412     23411     23412
     23413     23414     23413     23415     23414     23415     23416     23417
     23416     23418     23417     23418     23419     23420     23419     23421
     23420     23421     23422     23423     23422     23424     23423     23424
     23425     23426     23425     23427     23426     23427     23428     23429
     23428     23430     23429     23430     23431     23432     23431     23433
     23432     23433     23434     23435     23434     23436     23435     23436
     23437     23438     23437     23439     23438     23439     23440     23441
     23440     23442     23441     23442     23443     23444     23443     23445
     23444     23445     23446     23447     23446     23448     23447     23448
     23449     23450     23449     23451     23450     23451     23452     23453
     23452     23454     23453     23454     23455     23456     23455     23457
     23456     23457     23458     23459     23458     23460     23459     23460
     23461     23462     23461     23463     23462     23463     23464     23465
     23464     23466     23465     23466     23467     23468     23467     23469
     23468     23469     23470     23471     23470     23472     23471     23472
     23473     23474     23473     23475     23474     23475     23476     23477
     23476     23478     23477     23478     23479     23480     23479     23481
     23480     23481     23482     23483     23482     23484     23483     23484
     23485     23486     23485     23487     23486     23487     23488     23489
     23488     23490     23489     23490     23491     23492     23491     23493
     23492     23493     23494     23495     23494     23496     23495     23496
     23497     23498     23497     23499     23498     23499     23500     23501
     23500     23502     23501     23502     23503     23504     23503     23505
     23504     23505     23506     23507     23506     23508     23507     23508
     23509     23510     23509     23511     23510     23511     23512     23513
     23512     23514     23513     23514     23515     23516     23515     23517
     23516     23517     23518     23519     23518     23520     23519     23520
     23521     23522     23521     23523     23522     23523     23524     23525
     23524     23526     23525     23526     23527     23528     23527     23529
     23528     23529     23530     23531     23530     23532     23531     23532
     23533     23534     23533     23535     23534     23535     23536     23537
     23536     23538     23537     23538     23539     23540     23539     23541
     23540     23541     23542     23543     23542     23544     23543     23544
     23545     23546     23545     23547     23546     23547     23548     23549
     23548     23550     23549     23550     23551     23552     23551     23553
     23552     23553     23554     23555     23554     23556     23555     23556
     23557     23558     23557     23559     23558     23559     23560     23561
     23560     23562     23561     23562     23563     23564     23563     23565
     23564     23565     23566     23567     23566     23568     23567     23568
     23569     23570     23569     23571     23570     23571     23572     23573
     23572     23574     23573     23574     23575     23576     23575     23577
     23576     23577     23578     23579     23578     23580     23579     23580
     23581     23582     23581     23583     23582     23583     23584     23585
     23584     23586     23585     23586     23587     23588     23587     23589
     23588     23589     23590     23591     23590     23592     23591     23592
     23593     23594     23593     23595     23594     23595     23596     23597
     23596     23598     23597     23598     23599     23600     23599     23601
     23600     23601     23602     23603     23602     23604     23603     23604
     23605     23606     23605     23607     23606     23607     23608     23609
     23608     23610     23609     23610     23611     23612     23611     23613
     23612     23613     23614     23615     23614     23616     23615     23616
     23617     23618     23617     23619     23618     23619     23620     23621
     23620     23622     23621     23622     23623     23624     23623     23625
     23624     23625     23626     23627     23626     23628     23627     23628
     23629     23630     23629     23631     23630     23631     23632     23633
     23632     23634     23633     23634     23635     23636     23635     23637
     23636     23637     23638     23639     23638     23640     23639     23640
     23641     23642     23641     23643     23642     23643     23644     23645
     23644     23646     23645     23646     23647     23648     23647     23649
     23648     23649     23650     23651     23650     23652     23651     23652
     23653     23654     23653     23655     23654     23655     23656     23657
     23656     23658     23657     23658     23659     23660     23659     23661
     23660     23661     23662     23663     23662     23664     23663     23664
     23665     23666     23665     23667     23666     23667     23668     23669
     23668     23670     23669     23670     23671     23672     23671     23673
     23672     23673     23674     23675     23674     23676     23675     23676
     23677     23678     23677     23679     23678     23679     23680     23681
     23680     23682     23681     23682     23683     23684     23683     23685
     23684     23685     23686     23687     23686     23688     23687     23688
     23689     23690     23689     23691     23690     23691     23692     23693
     23692     23694     23693     23694     23695     23696     23695     23697
     23696     23697     23698     23699     23698     23700     23699     23700
     23701     23702     23701     23703     23702     23703     23704     23705
     23704     23706     23705     23706     23707     23708     23707     23709
     23708     23709     23710     23711     23710     23712     23711     23712
     23713     23714     23713     23715     23714     23715     23716     23717
     23716     23718     23717     23718     23719     23720     23719     23721
     23720     23721     23722     23723     23722     23724     23723     23724
     23725     23726     23725     23727     23726     23727     23728     23729
     23728     23730     23729     23730     23731     23732     23731     23733
     23732     23733     23734     23735     23734     23736     23735     23736
     23737     23738     23737     23739     23738     23739     23740     23741
     23740     23742     23741     23742     23743     23744     23743     23745
     23744     23745     23746     23747     23746     23748     23747     23748
     23749     23750     23749     23751     23750     23751     23752     23753
     23752     23754     23753     23754     23755     23756     23755     23757
     23756     23757     23758     23759     23758     23760     23759     23760
     23761     23762     23761     23763     23762     23763     23764     23765
     23764     23766     23765     23766     23767     23768     23767     23769
     23768     23769     23770     23771     23770     23772     23771     23772
     23773     23774     23773     23775     23774     23775     23776     23777
     23776     23778     23777     23778     23779     23780     23779     23781
     23780     23781     23782     23783     23782     23784     23783     23784
     23785     23786     23785     23787     23786     23787     23788     23789
     23788     23790     23789     23790     23791     23792     23791     23793
     23792     23793     23794     23795     23794     23796     23795     23796
     23797     23798     23797     23799     23798     23799     23800     23801
     23800     23802     23801     23802     23803     23804     23803     23805
     23804     23805     23806     23807     23806     23808     23807     23808
     23809     23810     23809     23811     23810     23811     23812     23813
     23812     23814     23813     23814     23815     23816     23815     23817
     23816     23817     23818     23819     23818     23820     23819     23820
     23821     23822     23821     23823     23822     23823     23824     23825
     23824     23826     23825     23826     23827     23828     23827     23829
     23828     23829     23830     23831     23830     23832     23831     23832
     23833     23834     23833     23835     23834     23835     23836     23837
     23836     23838     23837     23838     23839     23840     23839     23841
     23840     23841     23842     23843     23842     23844     23843     23844
     23845     23846     23845     23847     23846     23847     23848     23849
     23848     23850     23849     23850     23851     23852     23851     23853
     23852     23853     23854     23855     23854     23856     23855     23856
     23857     23858     23857     23859     23858     23859     23860     23861
     23860     23862     23861     23862     23863     23864     23863     23865
     23864     23865     23866     23867     23866     23868     23867     23868
     23869     23870     23869     23871     23870     23871     23872     23873
     23872     23874     23873     23874     23875     23876     23875     23877
     23876     23877     23878     23879     23878     23880     23879     23880
     23881     23882     23881     23883     23882     23883     23884     23885
     23884     23886     23885     23886     23887     23888     23887     23889
     23888     23889     23890     23891     23890     23892     23891     23892
     23893     23894     23893     23895     23894     23895     23896     23897
     23896     23898     23897     23898     23899     23900     23899     23901
     23900     23901     23902     23903     23902     23904     23903     23904
     23905     23906     23905     23907     23906     23907     23908     23909
     23908     23910     23909     23910     23911     23912     23911     23913
     23912     23913     23914     23915     23914     23916     23915     23916
     23917     23918     23917     23919     23918     23919     23920     23921
     23920     23922     23921     23922     23923     23924     23923     23925
     23924     23925     23926     23927     23926     23928     23927     23928
     23929     23930     23929     23931     23930     23931     23932     23933
     23932     23934     23933     23934     23935     23936     23935     23937
     23936     23937     23938     23939     23938     23940     23939     23940
     23941     23942     23941     23943     23942     23943     23944     23945
     23944     23946     23945     23946     23947     23948     23947     23949
     23948     23949     23950     23951     23950     23952     23951     23952
     23953     23954     23953     23955     23954     23955     23956     23957
     23956     23958     23957     23958     23959     23960     23959     23961
     23960     23961     23962     23963     23962     23964     23963     23964
     23965     23966     23965     23967     23966     23967     23968     23969
     23968     23970     23969     23970     23971     23972     23971     23973
     23972     23973     23974     23975     23974     23976     23975     23976
     23977     23978     23977     23979     23978     23979     23980     23981
     23980     23982     23981     23982     23983     23984     23983     23985
     23984     23985     23986     23987     23986     23988     23987     23988
     23989     23990     23989     23991     23990     23991     23992     23993
     23992     23994     23993     23994     23995     23996     23995     23997
     23996     23997     23998     23999     23998     24000     23999     24000
     24001     24002     24001     24003     24002     24003     24004     24005
     24004     24006     24005     24006     24007     24008     24007     24009
     24008     24009     24010     24011     24010     24012     24011     24012
     24013     24014     24013     24015     24014     24015     24016     24017
     24016     24018     24017     24018     24019     24020     24019     24021
     24020     24021     24022     24023     24022     24024     24023     24024
     24025     24026     24025     24027     24026     24027     24028     24029
     24028     24030     24029     24030     24031     24032     24031     24033
     24032     24033     24034     24035     24034     24036     24035     24036
     24037     24038     24037     24039     24038     24039     24040     24041
     24040     24042     24041     24042     24043     24044     24043     24045
     24044     24045     24046     24047     24046     24048     24047     24048
     24049     24050     24049     24051     24050     24051     24052     24053
     24052     24054     24053     24054     24055     24056     24055     24057
     24056     24057     24058     24059     24058     24060     24059     24060
     24061     24062     24061     24063     24062     24063     24064     24065
     24064     24066     24065     24066     24067     24068     24067     24069
     24068     24069     24070     24071     24070     24072     24071     24072
     24073     24074     24073     24075     24074     24075     24076     24077
     24076     24078     24077     24078     24079     24080     24079     24081
     24080     24081     24082     24083     24082     24084     24083     24084
     24085     24086     24085     24087     24086     24087     24088     24089
     24088     24090     24089     24090     24091     24092     24091     24093
     24092     24093     24094     24095     24094     24096     24095     24096
     24097     24098     24097     24099     24098     24099     24100     24101
     24100     24102     24101     24102     24103     24104     24103     24105
     24104     24105     24106     24107     24106     24108     24107     24108
     24109     24110     24109     24111     24110     24111     24112     24113
     24112     24114     24113     24114     24115     24116     24115     24117
     24116     24117     24118     24119     24118     24120     24119     24120
     24121     24122     24121     24123     24122     24123     24124     24125
     24124     24126     24125     24126     24127     24128     24127     24129
     24128     24129     24130     24131     24130     24132     24131     24132
     24133     24134     24133     24135     24134     24135     24136     24137
     24136     24138     24137     24138     24139     24140     24139     24141
     24140     24141     24142     24143     24142     24144     24143     24144
     24145     24146     24145     24147     24146     24147     24148     24149
     24148     24150     24149     24150     24151     24152     24151     24153
     24152     24153     24154     24155     24154     24156     24155     24156
     24157     24158     24157     24159     24158     24159     24160     24161
     24160     24162     24161     24162     24163     24164     24163     24165
     24164     24165     24166     24167     24166     24168     24167     24168
     24169     24170     24169     24171     24170     24171     24172     24173
     24172     24174     24173     24174     24175     24176     24175     24177
     24176     24177     24178     24179     24178     24180     24179     24180
     24181     24182     24181     24183     24182     24183     24184     24185
     24184     24186     24185     24186     24187     24188     24187     24189
     24188     24189     24190     24191     24190     24192     24191     24192
     24193     24194     24193     24195     24194     24195     24196     24197
     24196     24198     24197     24198     24199     24200     24199     24201
     24200     24201     24202     24203     24202     24204     24203     24204
     24205     24206     24205     24207     24206     24207     24208     24209
     24208     24210     24209     24210     24211     24212     24211     24213
     24212     24213     24214     24215     24214     24216     24215     24216
     24217     24218     24217     24219     24218     24219     24220     24221
     24220     24222     24221     24222     24223     24224     24223     24225
     24224     24225     24226     24227     24226     24228     24227     24228
     24229     24230     24229     24231     24230     24231     24232     24233
     24232     24234     24233     24234     24235     24236     24235     24237
     24236     24237     24238     24239     24238     24240     24239     24240
     24241     24242     24241     24243     24242     24243     24244     24245
     24244     24246     24245     24246     24247     24248     24247     24249
     24248     24249     24250     24251     24250     24252     24251     24252
     24253     24254     24253     24255     24254     24255     24256     24257
     24256     24258     24257     24258     24259     24260     24259     24261
     24260     24261     24262     24263     24262     24264     24263     24264
     24265     24266     24265     24267     24266     24267     24268     24269
     24268     24270     24269     24270     24271     24272     24271     24273
     24272     24273     24274     24275     24274     24276     24275     24276
     24277     24278     24277     24279     24278     24279     24280     24281
     24280     24282     24281     24282     24283     24284     24283     24285
     24284     24285     24286     24287     24286     24288     24287     24288
     24289     24290     24289     24291     24290     24291     24292     24293
     24292     24294     24293     24294     24295     24296     24295     24297
     24296     24297     24298     24299     24298     24300     24299     24300
     24301     24302     24301     24303     24302     24303     24304     24305
     24304     24306     24305     24306     24307     24308     24307     24309
     24308     24309     24310     24311     24310     24312     24311     24312
     24313     24314     24313     24315     24314     24315     24316     24317
     24316     24318     24317     24318     24319     24320     24319     24321
     24320     24321     24322     24323     24322     24324     24323     24324
     24325     24326     24325     24327     24326     24327     24328     24329
     24328     24330     24329     24330     24331     24332     24331     24333
     24332     24333     24334     24335     24334     24336     24335     24336
     24337     24338     24337     24339     24338     24339     24340     24341
     24340     24342     24341     24342     24343     24344     24343     24345
     24344     24345     24346     24347     24346     24348     24347     24348
     24349     24350     24349     24351     24350     24351     24352     24353
     24352     24354     24353     24354     24355     24356     24355     24357
     24356     24357     24358     24359     24358     24360     24359     24360
     24361     24362     24361     24363     24362     24363     24364     24365
     24364     24366     24365     24366     24367     24368     24367     24369
     24368     24369     24370     24371     24370     24372     24371     24372
     24373     24374     24373     24375     24374     24375     24376     24377
     24376     24378     24377     24378     24379     24380     24379     24381
     24380     24381     24382     24383     24382     24384     24383     24384
     24385     24386     24385     24387     24386     24387     24388     24389
     24388     24390     24389     24390     24391     24392     24391     24393
     24392     24393     24394     24395     24394     24396     24395     24396
     24397     24398     24397     24399     24398     24399     24400     24401
     24400     24402     24401     24402     24403     24404     24403     24405
     24404     24405     24406     24407     24406     24408     24407     24408
     24409     24410     24409     24411     24410     24411     24412     24413
     24412     24414     24413     24414     24415     24416     24415     24417
     24416     24417     24418     24419     24418     24420     24419     24420
     24421     24422     24421     24423     24422     24423     24424     24425
     24424     24426     24425     24426     24427     24428     24427     24429
     24428     24429     24430     24431     24430     24432     24431     24432
     24433     24434     24433     24435     24434     24435     24436     24437
     24436     24438     24437     24438     24439     24440     24439     24441
     24440     24441     24442     24443     24442     24444     24443     24444
     24445     24446     24445     24447     24446     24447     24448     24449
     24448     24450     24449     24450     24451     24452     24451     24453
     24452     24453     24454     24455     24454     24456     24455     24456
     24457     24458     24457     24459     24458     24459     24460     24461
     24460     24462     24461     24462     24463     24464     24463     24465
     24464     24465     24466     24467     24466     24468     24467     24468
     24469     24470     24469     24471     24470     24471     24472     24473
     24472     24474     24473     24474     24475     24476     24475     24477
     24476     24477     24478     24479     24478     24480     24479     24480
     24481     24482     24481     24483     24482     24483     24484     24485
     24484     24486     24485     24486     24487     24488     24487     24489
     24488     24489     24490     24491     24490     24492     24491     24492
     24493     24494     24493     24495     24494     24495     24496     24497
     24496     24498     24497     24498     24499     24500     24499     24501
     24500     24501     24502     24503     24502     24504     24503     24504
     24505     24506     24505     24507     24506     24507     24508     24509
     24508     24510     24509     24510     24511     24512     24511     24513
     24512     24513     24514     24515     24514     24516     24515     24516
     24517     24518     24517     24519     24518     24519     24520     24521
     24520     24522     24521     24522     24523     24524     24523     24525
     24524     24525     24526     24527     24526     24528     24527     24528
     24529     24530     24529     24531     24530     24531     24532     24533
     24532     24534     24533     24534     24535     24536     24535     24537
     24536     24537     24538     24539     24538     24540     24539     24540
     24541     24542     24541     24543     24542     24543     24544     24545
     24544     24546     24545     24546     24547     24548     24547     24549
     24548     24549     24550     24551     24550     24552     24551     24552
     24553     24554     24553     24555     24554     24555     24556     24557
     24556     24558     24557     24558     24559     24560     24559     24561
     24560     24561     24562     24563     24562     24564     24563     24564
     24565     24566     24565     24567     24566     24567     24568     24569
     24568     24570     24569     24570     24571     24572     24571     24573
     24572     24573     24574     24575     24574     24576     24575     24576
     24577     24578     24577     24579     24578     24579     24580     24581
     24580     24582     24581     24582     24583     24584     24583     24585
     24584     24585     24586     24587     24586     24588     24587     24588
     24589     24590     24589     24591     24590     24591     24592     24593
     24592     24594     24593     24594     24595     24596     24595     24597
     24596     24597     24598     24599     24598     24600     24599     24600
     24601     24602     24601     24603     24602     24603     24604     24605
     24604     24606     24605     24606     24607     24608     24607     24609
     24608     24609     24610     24611     24610     24612     24611     24612
     24613     24614     24613     24615     24614     24615     24616     24617
     24616     24618     24617     24618     24619     24620     24619     24621
     24620     24621     24622     24623     24622     24624     24623     24624
     24625     24626     24625     24627     24626     24627     24628     24629
     24628     24630     24629     24630     24631     24632     24631     24633
     24632     24633     24634     24635     24634     24636     24635     24636
     24637     24638     24637     24639     24638     24639     24640     24641
     24640     24642     24641     24642     24643     24644     24643     24645
     24644     24645     24646     24647     24646     24648     24647     24648
     24649     24650     24649     24651     24650     24651     24652     24653
     24652     24654     24653     24654     24655     24656     24655     24657
     24656     24657     24658     24659     24658     24660     24659     24660
     24661     24662     24661     24663     24662     24663     24664     24665
     24664     24666     24665     24666     24667     24668     24667     24669
     24668     24669     24670     24671     24670     24672     24671     24672
     24673     24674     24673     24675     24674     24675     24676     24677
     24676     24678     24677     24678     24679     24680     24679     24681
     24680     24681     24682     24683     24682     24684     24683     24684
     24685     24686     24685     24687     24686     24687     24688     24689
     24688     24690     24689     24690     24691     24692     24691     24693
     24692     24693     24694     24695     24694     24696     24695     24696
     24697     24698     24697     24699     24698     24699     24700     24701
     24700     24702     24701     24702     24703     24704     24703     24705
     24704     24705     24706     24707     24706     24708     24707     24708
     24709     24710     24709     24711     24710     24711     24712     24713
     24712     24714     24713     24714     24715     24716     24715     24717
     24716     24717     24718     24719     24718     24720     24719     24720
     24721     24722     24721     24723     24722     24723     24724     24725
     24724     24726     24725     24726     24727     24728     24727     24729
     24728     24729     24730     24731     24730     24732     24731     24732
     24733     24734     24733     24735     24734     24735     24736     24737
     24736     24738     24737     24738     24739     24740     24739     24741
     24740     24741     24742     24743     24742     24744     24743     24744
     24745     24746     24745     24747     24746     24747     24748     24749
     24748     24750     24749     24750     24751     24752     24751     24753
     24752     24753     24754     24755     24754     24756     24755     24756
     24757     24758     24757     24759     24758     24759     24760     24761
     24760     24762     24761     24762     24763     24764     24763     24765
     24764     24765     24766     24767     24766     24768     24767     24768
     24769     24770     24769     24771     24770     24771     24772     24773
     24772     24774     24773     24774     24775     24776     24775     24777
     24776     24777     24778     24779     24778     24780     24779     24780
     24781     24782     24781     24783     24782     24783     24784     24785
     24784     24786     24785     24786     24787     24788     24787     24789
     24788     24789     24790     24791     24790     24792     24791     24792
     24793     24794     24793     24795     24794     24795     24796     24797
     24796     24798     24797     24798     24799     24800     24799     24801
     24800     24801     24802     24803     24802     24804     24803     24804
     24805     24806     24805     24807     24806     24807     24808     24809
     24808     24810     24809     24810     24811     24812     24811     24813
     24812     24813     24814     24815     24814     24816     24815     24816
     24817     24818     24817     24819     24818     24819     24820     24821
     24820     24822     24821     24822     24823     24824     24823     24825
     24824     24825     24826     24827     24826     24828     24827     24828
     24829     24830     24829     24831     24830     24831     24832     24833
     24832     24834     24833     24834     24835     24836     24835     24837
     24836     24837     24838     24839     24838     24840     24839     24840
     24841     24842     24841     24843     24842     24843     24844     24845
     24844     24846     24845     24846     24847     24848     24847     24849
     24848     24849     24850     24851     24850     24852     24851     24852
     24853     24854     24853     24855     24854     24855     24856     24857
     24856     24858     24857     24858     24859     24860     24859     24861
     24860     24861     24862     24863     24862     24864     24863     24864
     24865     24866     24865     24867     24866     24867     24868     24869
     24868     24870     24869     24870     24871     24872     24871     24873
     24872     24873     24874     24875     24874     24876     24875     24876
     24877     24878     24877     24879     24878     24879     24880     24881
     24880     24882     24881     24882     24883     24884     24883     24885
     24884     24885     24886     24887     24886     24888     24887     24888
     24889     24890     24889     24891     24890     24891     24892     24893
     24892     24894     24893     24894     24895     24896     24895     24897
     24896     24897     24898     24899     24898     24900     24899     24900
     24901     24902     24901     24903     24902     24903     24904     24905
     24904     24906     24905     24906     24907     24908     24907     24909
     24908     24909     24910     24911     24910     24912     24911     24912
     24913     24914     24913     24915     24914     24915     24916     24917
     24916     24918     24917     24918     24919     24920     24919     24921
     24920     24921     24922     24923     24922     24924     24923     24924
     24925     24926     24925     24927     24926     24927     24928     24929
     24928     24930     24929     24930     24931     24932     24931     24933
     24932     24933     24934     24935     24934     24936     24935     24936
     24937     24938     24937     24939     24938     24939     24940     24941
     24940     24942     24941     24942     24943     24944     24943     24945
     24944     24945     24946     24947     24946     24948     24947     24948
     24949     24950     24949     24951     24950     24951     24952     24953
     24952     24954     24953     24954     24955     24956     24955     24957
     24956     24957     24958     24959     24958     24960     24959     24960
     24961     24962     24961     24963     24962     24963     24964     24965
     24964     24966     24965     24966     24967     24968     24967     24969
     24968     24969     24970     24971     24970     24972     24971     24972
     24973     24974     24973     24975     24974     24975     24976     24977
     24976     24978     24977     24978     24979     24980     24979     24981
     24980     24981     24982     24983     24982     24984     24983     24984
     24985     24986     24985     24987     24986     24987     24988     24989
     24988     24990     24989     24990     24991     24992     24991     24993
     24992     24993     24994     24995     24994     24996     24995     24996
     24997     24998     24997     24999     24998     24999     25000     25001
     25000     25002     25001     25002     25003     25004     25003     25005
     25004     25005     25006     25007     25006     25008     25007     25008
     25009     25010     25009     25011     25010     25011     25012     25013
     25012     25014     25013     25014     25015     25016     25015     25017
     25016     25017     25018     25019     25018     25020     25019     25020
     25021     25022     25021     25023     25022     25023     25024     25025
     25024     25026     25025     25026     25027     25028     25027     25029
     25028     25029     25030     25031     25030     25032     25031     25032
     25033     25034     25033     25035     25034     25035     25036     25037
     25036     25038     25037     25038     25039     25040     25039     25041
     25040     25041     25042     25043     25042     25044     25043     25044
     25045     25046     25045     25047     25046     25047     25048     25049
     25048     25050     25049     25050     25051     25052     25051     25053
     25052     25053     25054     25055     25054     25056     25055     25056
     25057     25058     25057     25059     25058     25059     25060     25061
     25060     25062     25061     25062     25063     25064     25063     25065
     25064     25065     25066     25067     25066     25068     25067     25068
     25069     25070     25069     25071     25070     25071     25072     25073
     25072     25074     25073     25074     25075     25076     25075     25077
     25076     25077     25078     25079     25078     25080     25079     25080
     25081     25082     25081     25083     25082     25083     25084     25085
     25084     25086     25085     25086     25087     25088     25087     25089
     25088     25089     25090     25091     25090     25092     25091     25092
     25093     25094     25093     25095     25094     25095     25096     25097
     25096     25098     25097     25098     25099     25100     25099     25101
     25100     25101     25102     25103     25102     25104     25103     25104
     25105     25106     25105     25107     25106     25107     25108     25109
     25108     25110     25109     25110     25111     25112     25111     25113
     25112     25113     25114     25115     25114     25116     25115     25116
     25117     25118     25117     25119     25118     25119     25120     25121
     25120     25122     25121     25122     25123     25124     25123     25125
     25124     25125     25126     25127     25126     25128     25127     25128
     25129     25130     25129     25131     25130     25131     25132     25133
     25132     25134     25133     25134     25135     25136     25135     25137
     25136     25137     25138     25139     25138     25140     25139     25140
     25141     25142     25141     25143     25142     25143     25144     25145
     25144     25146     25145     25146     25147     25148     25147     25149
     25148     25149     25150     25151     25150     25152     25151     25152
     25153     25154     25153     25155     25154     25155     25156     25157
     25156     25158     25157     25158     25159     25160     25159     25161
     25160     25161     25162     25163     25162     25164     25163     25164
     25165     25166     25165     25167     25166     25167     25168     25169
     25168     25170     25169     25170     25171     25172     25171     25173
     25172     25173     25174     25175     25174     25176     25175     25176
     25177     25178     25177     25179     25178     25179     25180     25181
     25180     25182     25181     25182     25183     25184     25183     25185
     25184     25185     25186     25187     25186     25188     25187     25188
     25189     25190     25189     25191     25190     25191     25192     25193
     25192     25194     25193     25194     25195     25196     25195     25197
     25196     25197     25198     25199     25198     25200     25199     25200
     25201     25202     25201     25203     25202     25203     25204     25205
     25204     25206     25205     25206     25207     25208     25207     25209
     25208     25209     25210     25211     25210     25212     25211     25212
     25213     25214     25213     25215     25214     25215     25216     25217
     25216     25218     25217     25218     25219     25220     25219     25221
     25220     25221     25222     25223     25222     25224     25223     25224
     25225     25226     25225     25227     25226     25227     25228     25229
     25228     25230     25229     25230     25231     25232     25231     25233
     25232     25233     25234     25235     25234     25236     25235     25236
     25237     25238     25237     25239     25238     25239     25240     25241
     25240     25242     25241     25242     25243     25244     25243     25245
     25244     25245     25246     25247     25246     25248     25247     25248
     25249     25250     25249     25251     25250     25251     25252     25253
     25252     25254     25253     25254     25255     25256     25255     25257
     25256     25257     25258     25259     25258     25260     25259     25260
     25261     25262     25261     25263     25262     25263     25264     25265
     25264     25266     25265     25266     25267     25268     25267     25269
     25268     25269     25270     25271     25270     25272     25271     25272
     25273     25274     25273     25275     25274     25275     25276     25277
     25276     25278     25277     25278     25279     25280     25279     25281
     25280     25281     25282     25283     25282     25284     25283     25284
     25285     25286     25285     25287     25286     25287     25288     25289
     25288     25290     25289     25290     25291     25292     25291     25293
     25292     25293     25294     25295     25294     25296     25295     25296
     25297     25298     25297     25299     25298     25299     25300     25301
     25300     25302     25301     25302     25303     25304     25303     25305
     25304     25305     25306     25307     25306     25308     25307     25308
     25309     25310     25309     25311     25310     25311     25312     25313
     25312     25314     25313     25314     25315     25316     25315     25317
     25316     25317     25318     25319     25318     25320     25319     25320
     25321     25322     25321     25323     25322     25323     25324     25325
     25324     25326     25325     25326     25327     25328     25327     25329
     25328     25329     25330     25331     25330     25332     25331     25332
     25333     25334     25333     25335     25334     25335     25336     25337
     25336     25338     25337     25338     25339     25340     25339     25341
     25340     25341     25342     25343     25342     25344     25343     25344
     25345     25346     25345     25347     25346     25347     25348     25349
     25348     25350     25349     25350     25351     25352     25351     25353
     25352     25353     25354     25355     25354     25356     25355     25356
     25357     25358     25357     25359     25358     25359     25360     25361
     25360     25362     25361     25362     25363     25364     25363     25365
     25364     25365     25366     25367     25366     25368     25367     25368
     25369     25370     25369     25371     25370     25371     25372     25373
     25372     25374     25373     25374     25375     25376     25375     25377
     25376     25377     25378     25379     25378     25380     25379     25380
     25381     25382     25381     25383     25382     25383     25384     25385
     25384     25386     25385     25386     25387     25388     25387     25389
     25388     25389     25390     25391     25390     25392     25391     25392
     25393     25394     25393     25395     25394     25395     25396     25397
     25396     25398     25397     25398     25399     25400     25399     25401
     25400     25401     25402     25403     25402     25404     25403     25404
     25405     25406     25405     25407     25406     25407     25408     25409
     25408     25410     25409     25410     25411     25412     25411     25413
     25412     25413     25414     25415     25414     25416     25415     25416
     25417     25418     25417     25419     25418     25419     25420     25421
     25420     25422     25421     25422     25423     25424     25423     25425
     25424     25425     25426     25427     25426     25428     25427     25428
     25429     25430     25429     25431     25430     25431     25432     25433
     25432     25434     25433     25434     25435     25436     25435     25437
     25436     25437     25438     25439     25438     25440     25439     25440
     25441     25442     25441     25443     25442     25443     25444     25445
     25444     25446     25445     25446     25447     25448     25447     25449
     25448     25449     25450     25451     25450     25452     25451     25452
     25453     25454     25453     25455     25454     25455     25456     25457
     25456     25458     25457     25458     25459     25460     25459     25461
     25460     25461     25462     25463     25462     25464     25463     25464
     25465     25466     25465     25467     25466     25467     25468     25469
     25468     25470     25469     25470     25471     25472     25471     25473
     25472     25473     25474     25475     25474     25476     25475     25476
     25477     25478     25477     25479     25478     25479     25480     25481
     25480     25482     25481     25482     25483     25484     25483     25485
     25484     25485     25486     25487     25486     25488     25487     25488
     25489     25490     25489     25491     25490     25491     25492     25493
     25492     25494     25493     25494     25495     25496     25495     25497
     25496     25497     25498     25499     25498     25500     25499     25500
     25501     25502     25501     25503     25502     25503     25504     25505
     25504     25506     25505     25506     25507     25508     25507     25509
     25508     25509     25510     25511     25510     25512     25511     25512
     25513     25514     25513     25515     25514     25515     25516     25517
     25516     25518     25517     25518     25519     25520     25519     25521
     25520     25521     25522     25523     25522     25524     25523     25524
     25525     25526     25525     25527     25526     25527     25528     25529
     25528     25530     25529     25530     25531     25532     25531     25533
     25532     25533     25534     25535     25534     25536     25535     25536
     25537     25538     25537     25539     25538     25539     25540     25541
     25540     25542     25541     25542     25543     25544     25543     25545
     25544     25545     25546     25547     25546     25548     25547     25548
     25549     25550     25549     25551     25550     25551     25552     25553
     25552     25554     25553     25554     25555     25556     25555     25557
     25556     25557     25558     25559     25558     25560     25559     25560
     25561     25562     25561     25563     25562     25563     25564     25565
     25564     25566     25565     25566     25567     25568     25567     25569
     25568     25569     25570     25571     25570     25572     25571     25572
     25573     25574     25573     25575     25574     25575     25576     25577
     25576     25578     25577     25578     25579     25580     25579     25581
     25580     25581     25582     25583     25582     25584     25583     25584
     25585     25586     25585     25587     25586     25587     25588     25589
     25588     25590     25589     25590     25591     25592     25591     25593
     25592     25593     25594     25595     25594     25596     25595     25596
     25597     25598     25597     25599     25598     25599     25600     25601
     25600     25602     25601     25602     25603     25604     25603     25605
     25604     25605     25606     25607     25606     25608     25607     25608
     25609     25610     25609     25611     25610     25611     25612     25613
     25612     25614     25613     25614     25615     25616     25615     25617
     25616     25617     25618     25619     25618     25620     25619     25620
     25621     25622     25621     25623     25622     25623     25624     25625
     25624     25626     25625     25626     25627     25628     25627     25629
     25628     25629     25630     25631     25630     25632     25631     25632
     25633     25634     25633     25635     25634     25635     25636     25637
     25636     25638     25637     25638     25639     25640     25639     25641
     25640     25641     25642     25643     25642     25644     25643     25644
     25645     25646     25645     25647     25646     25647     25648     25649
     25648     25650     25649     25650     25651     25652     25651     25653
     25652     25653     25654     25655     25654     25656     25655     25656
     25657     25658     25657     25659     25658     25659     25660     25661
     25660     25662     25661     25662     25663     25664     25663     25665
     25664     25665     25666     25667     25666     25668     25667     25668
     25669     25670     25669     25671     25670     25671     25672     25673
     25672     25674     25673     25674     25675     25676     25675     25677
     25676     25677     25678     25679     25678     25680     25679     25680
     25681     25682     25681     25683     25682     25683     25684     25685
     25684     25686     25685     25686     25687     25688     25687     25689
     25688     25689     25690     25691     25690     25692     25691     25692
     25693     25694     25693     25695     25694     25695     25696     25697
     25696     25698     25697     25698     25699     25700     25699     25701
     25700     25701     25702     25703     25702     25704     25703     25704
     25705     25706     25705     25707     25706     25707     25708     25709
     25708     25710     25709     25710     25711     25712     25711     25713
     25712     25713     25714     25715     25714     25716     25715     25716
     25717     25718     25717     25719     25718     25719     25720     25721
     25720     25722     25721     25722     25723     25724     25723     25725
     25724     25725     25726     25727     25726     25728     25727     25728
     25729     25730     25729     25731     25730     25731     25732     25733
     25732     25734     25733     25734     25735     25736     25735     25737
     25736     25737     25738     25739     25738     25740     25739     25740
     25741     25742     25741     25743     25742     25743     25744     25745
     25744     25746     25745     25746     25747     25748     25747     25749
     25748     25749     25750     25751     25750     25752     25751     25752
     25753     25754     25753     25755     25754     25755     25756     25757
     25756     25758     25757     25758     25759     25760     25759     25761
     25760     25761     25762     25763     25762     25764     25763     25764
     25765     25766     25765     25767     25766     25767     25768     25769
     25768     25770     25769     25770     25771     25772     25771     25773
     25772     25773     25774     25775     25774     25776     25775     25776
     25777     25778     25777     25779     25778     25779     25780     25781
     25780     25782     25781     25782     25783     25784     25783     25785
     25784     25785     25786     25787     25786     25788     25787     25788
     25789     25790     25789     25791     25790     25791     25792     25793
     25792     25794     25793     25794     25795     25796     25795     25797
     25796     25797     25798     25799     25798     25800     25799     25800
     25801     25802     25801     25803     25802     25803     25804     25805
     25804     25806     25805     25806     25807     25808     25807     25809
     25808     25809     25810     25811     25810     25812     25811     25812
     25813     25814     25813     25815     25814     25815     25816     25817
     25816     25818     25817     25818     25819     25820     25819     25821
     25820     25821     25822     25823     25822     25824     25823     25824
     25825     25826     25825     25827     25826     25827     25828     25829
     25828     25830     25829     25830     25831     25832     25831     25833
     25832     25833     25834     25835     25834     25836     25835     25836
     25837     25838     25837     25839     25838     25839     25840     25841
     25840     25842     25841     25842     25843     25844     25843     25845
     25844     25845     25846     25847     25846     25848     25847     25848
     25849     25850     25849     25851     25850     25851     25852     25853
     25852     25854     25853     25854     25855     25856     25855     25857
     25856     25857     25858     25859     25858     25860     25859     25860
     25861     25862     25861     25863     25862     25863     25864     25865
     25864     25866     25865     25866     25867     25868     25867     25869
     25868     25869     25870     25871     25870     25872     25871     25872
     25873     25874     25873     25875     25874     25875     25876     25877
     25876     25878     25877     25878     25879     25880     25879     25881
     25880     25881     25882     25883     25882     25884     25883     25884
     25885     25886     25885     25887     25886     25887     25888     25889
     25888     25890     25889     25890     25891     25892     25891     25893
     25892     25893     25894     25895     25894     25896     25895     25896
     25897     25898     25897     25899     25898     25899     25900     25901
     25900     25902     25901     25902     25903     25904     25903     25905
     25904     25905     25906     25907     25906     25908     25907     25908
     25909     25910     25909     25911     25910     25911     25912     25913
     25912     25914     25913     25914     25915     25916     25915     25917
     25916     25917     25918     25919     25918     25920     25919     25920
     25921     25922     25921     25923     25922     25923     25924     25925
     25924     25926     25925     25926     25927     25928     25927     25929
     25928     25929     25930     25931     25930     25932     25931     25932
     25933     25934     25933     25935     25934     25935     25936     25937
     25936     25938     25937     25938     25939     25940     25939     25941
     25940     25941     25942     25943     25942     25944     25943     25944
     25945     25946     25945     25947     25946     25947     25948     25949
     25948     25950     25949     25950     25951     25952     25951     25953
     25952     25953     25954     25955     25954     25956     25955     25956
     25957     25958     25957     25959     25958     25959     25960     25961
     25960     25962     25961     25962     25963     25964     25963     25965
     25964     25965     25966     25967     25966     25968     25967     25968
     25969     25970     25969     25971     25970     25971     25972     25973
     25972     25974     25973     25974     25975     25976     25975     25977
     25976     25977     25978     25979     25978     25980     25979     25980
     25981     25982     25981     25983     25982     25983     25984     25985
     25984     25986     25985     25986     25987     25988     25987     25989
     25988     25989     25990     25991     25990     25992     25991     25992
     25993     25994     25993     25995     25994     25995     25996     25997
     25996     25998     25997     25998     25999     26000     25999     26001
     26000     26001     26002     26003     26002     26004     26003     26004
     26005     26006     26005     26007     26006     26007     26008     26009
     26008     26010     26009     26010     26011     26012     26011     26013
     26012     26013     26014     26015     26014     26016     26015     26016
     26017     26018     26017     26019     26018     26019     26020     26021
     26020     26022     26021     26022     26023     26024     26023     26025
     26024     26025     26026     26027     26026     26028     26027     26028
     26029     26030     26029     26031     26030     26031     26032     26033
     26032     26034     26033     26034     26035     26036     26035     26037
     26036     26037     26038     26039     26038     26040     26039     26040
     26041     26042     26041     26043     26042     26043     26044     26045
     26044     26046     26045     26046     26047     26048     26047     26049
     26048     26049     26050     26051     26050     26052     26051     26052
     26053     26054     26053     26055     26054     26055     26056     26057
     26056     26058     26057     26058     26059     26060     26059     26061
     26060     26061     26062     26063     26062     26064     26063     26064
     26065     26066     26065     26067     26066     26067     26068     26069
     26068     26070     26069     26070     26071     26072     26071     26073
     26072     26073     26074     26075     26074     26076     26075     26076
     26077     26078     26077     26079     26078     26079     26080     26081
     26080     26082     26081     26082     26083     26084     26083     26085
     26084     26085     26086     26087     26086     26088     26087     26088
     26089     26090     26089     26091     26090     26091     26092     26093
     26092     26094     26093     26094     26095     26096     26095     26097
     26096     26097     26098     26099     26098     26100     26099     26100
     26101     26102     26101     26103     26102     26103     26104     26105
     26104     26106     26105     26106     26107     26108     26107     26109
     26108     26109     26110     26111     26110     26112     26111     26112
     26113     26114     26113     26115     26114     26115     26116     26117
     26116     26118     26117     26118     26119     26120     26119     26121
     26120     26121     26122     26123     26122     26124     26123     26124
     26125     26126     26125     26127     26126     26127     26128     26129
     26128     26130     26129     26130     26131     26132     26131     26133
     26132     26133     26134     26135     26134     26136     26135     26136
     26137     26138     26137     26139     26138     26139     26140     26141
     26140     26142     26141     26142     26143     26144     26143     26145
     26144     26145     26146     26147     26146     26148     26147     26148
     26149     26150     26149     26151     26150     26151     26152     26153
     26152     26154     26153     26154     26155     26156     26155     26157
     26156     26157     26158     26159     26158     26160     26159     26160
     26161     26162     26161     26163     26162     26163     26164     26165
     26164     26166     26165     26166     26167     26168     26167     26169
     26168     26169     26170     26171     26170     26172     26171     26172
     26173     26174     26173     26175     26174     26175     26176     26177
     26176     26178     26177     26178     26179     26180     26179     26181
     26180     26181     26182     26183     26182     26184     26183     26184
     26185     26186     26185     26187     26186     26187     26188     26189
     26188     26190     26189     26190     26191     26192     26191     26193
     26192     26193     26194     26195     26194     26196     26195     26196
     26197     26198     26197     26199     26198     26199     26200     26201
     26200     26202     26201     26202     26203     26204     26203     26205
     26204     26205     26206     26207     26206     26208     26207     26208
     26209     26210     26209     26211     26210     26211     26212     26213
     26212     26214     26213     26214     26215     26216     26215     26217
     26216     26217     26218     26219     26218     26220     26219     26220
     26221     26222     26221     26223     26222     26223     26224     26225
     26224     26226     26225     26226     26227     26228     26227     26229
     26228     26229     26230     26231     26230     26232     26231     26232
     26233     26234     26233     26235     26234     26235     26236     26237
     26236     26238     26237     26238     26239     26240     26239     26241
     26240     26241     26242     26243     26242     26244     26243     26244
     26245     26246     26245     26247     26246     26247     26248     26249
     26248     26250     26249     26250     26251     26252     26251     26253
     26252     26253     26254     26255     26254     26256     26255     26256
     26257     26258     26257     26259     26258     26259     26260     26261
     26260     26262     26261     26262     26263     26264     26263     26265
     26264     26265     26266     26267     26266     26268     26267     26268
     26269     26270     26269     26271     26270     26271     26272     26273
     26272     26274     26273     26274     26275     26276     26275     26277
     26276     26277     26278     26279     26278     26280     26279     26280
     26281     26282     26281     26283     26282     26283     26284     26285
     26284     26286     26285     26286     26287     26288     26287     26289
     26288     26289     26290     26291     26290     26292     26291     26292
     26293     26294     26293     26295     26294     26295     26296     26297
     26296     26298     26297     26298     26299     26300     26299     26301
     26300     26301     26302     26303     26302     26304     26303     26304
     26305     26306     26305     26307     26306     26307     26308     26309
     26308     26310     26309     26310     26311     26312     26311     26313
     26312     26313     26314     26315     26314     26316     26315     26316
     26317     26318     26317     26319     26318     26319     26320     26321
     26320     26322     26321     26322     26323     26324     26323     26325
     26324     26325     26326     26327     26326     26328     26327     26328
     26329     26330     26329     26331     26330     26331     26332     26333
     26332     26334     26333     26334     26335     26336     26335     26337
     26336     26337     26338     26339     26338     26340     26339     26340
     26341     26342     26341     26343     26342     26343     26344     26345
     26344     26346     26345     26346     26347     26348     26347     26349
     26348     26349     26350     26351     26350     26352     26351     26352
     26353     26354     26353     26355     26354     26355     26356     26357
     26356     26358     26357     26358     26359     26360     26359     26361
     26360     26361     26362     26363     26362     26364     26363     26364
     26365     26366     26365     26367     26366     26367     26368     26369
     26368     26370     26369     26370     26371     26372     26371     26373
     26372     26373     26374     26375     26374     26376     26375     26376
     26377     26378     26377     26379     26378     26379     26380     26381
     26380     26382     26381     26382     26383     26384     26383     26385
     26384     26385     26386     26387     26386     26388     26387     26388
     26389     26390     26389     26391     26390     26391     26392     26393
     26392     26394     26393     26394     26395     26396     26395     26397
     26396     26397     26398     26399     26398     26400     26399     26400
     26401     26402     26401     26403     26402     26403     26404     26405
     26404     26406     26405     26406     26407     26408     26407     26409
     26408     26409     26410     26411     26410     26412     26411     26412
     26413     26414     26413     26415     26414     26415     26416     26417
     26416     26418     26417     26418     26419     26420     26419     26421
     26420     26421     26422     26423     26422     26424     26423     26424
     26425     26426     26425     26427     26426     26427     26428     26429
     26428     26430     26429     26430     26431     26432     26431     26433
     26432     26433     26434     26435     26434     26436     26435     26436
     26437     26438     26437     26439     26438     26439     26440     26441
     26440     26442     26441     26442     26443     26444     26443     26445
     26444     26445     26446     26447     26446     26448     26447     26448
     26449     26450     26449     26451     26450     26451     26452     26453
     26452     26454     26453     26454     26455     26456     26455     26457
     26456     26457     26458     26459     26458     26460     26459     26460
     26461     26462     26461     26463     26462     26463     26464     26465
     26464     26466     26465     26466     26467     26468     26467     26469
     26468     26469     26470     26471     26470     26472     26471     26472
     26473     26474     26473     26475     26474     26475     26476     26477
     26476     26478     26477     26478     26479     26480     26479     26481
     26480     26481     26482     26483     26482     26484     26483     26484
     26485     26486     26485     26487     26486     26487     26488     26489
     26488     26490     26489     26490     26491     26492     26491     26493
     26492     26493     26494     26495     26494     26496     26495     26496
     26497     26498     26497     26499     26498     26499     26500     26501
     26500     26502     26501     26502     26503     26504     26503     26505
     26504     26505     26506     26507     26506     26508     26507     26508
     26509     26510     26509     26511     26510     26511     26512     26513
     26512     26514     26513     26514     26515     26516     26515     26517
     26516     26517     26518     26519     26518     26520     26519     26520
     26521     26522     26521     26523     26522     26523     26524     26525
     26524     26526     26525     26526     26527     26528     26527     26529
     26528     26529     26530     26531     26530     26532     26531     26532
     26533     26534     26533     26535     26534     26535     26536     26537
     26536     26538     26537     26538     26539     26540     26539     26541
     26540     26541     26542     26543     26542     26544     26543     26544
     26545     26546     26545     26547     26546     26547     26548     26549
     26548     26550     26549     26550     26551     26552     26551     26553
     26552     26553     26554     26555     26554     26556     26555     26556
     26557     26558     26557     26559     26558     26559     26560     26561
     26560     26562     26561     26562     26563     26564     26563     26565
     26564     26565     26566     26567     26566     26568     26567     26568
     26569     26570     26569     26571     26570     26571     26572     26573
     26572     26574     26573     26574     26575     26576     26575     26577
     26576     26577     26578     26579     26578     26580     26579     26580
     26581     26582     26581     26583     26582     26583     26584     26585
     26584     26586     26585     26586     26587     26588     26587     26589
     26588     26589     26590     26591     26590     26592     26591     26592
     26593     26594     26593     26595     26594     26595     26596     26597
     26596     26598     26597     26598     26599     26600     26599     26601
     26600     26601     26602     26603     26602     26604     26603     26604
     26605     26606     26605     26607     26606     26607     26608     26609
     26608     26610     26609     26610     26611     26612     26611     26613
     26612     26613     26614     26615     26614     26616     26615     26616
     26617     26618     26617     26619     26618     26619     26620     26621
     26620     26622     26621     26622     26623     26624     26623     26625
     26624     26625     26626     26627     26626     26628     26627     26628
     26629     26630     26629     26631     26630     26631     26632     26633
     26632     26634     26633     26634     26635     26636     26635     26637
     26636     26637     26638     26639     26638     26640     26639     26640
     26641     26642     26641     26643     26642     26643     26644     26645
     26644     26646     26645     26646     26647     26648     26647     26649
     26648     26649     26650     26651     26650     26652     26651     26652
     26653     26654     26653     26655     26654     26655     26656     26657
     26656     26658     26657     26658     26659     26660     26659     26661
     26660     26661     26662     26663     26662     26664     26663     26664
     26665     26666     26665     26667     26666     26667     26668     26669
     26668     26670     26669     26670     26671     26672     26671     26673
     26672     26673     26674     26675     26674     26676     26675     26676
     26677     26678     26677     26679     26678     26679     26680     26681
     26680     26682     26681     26682     26683     26684     26683     26685
     26684     26685     26686     26687     26686     26688     26687     26688
     26689     26690     26689     26691     26690     26691     26692     26693
     26692     26694     26693     26694     26695     26696     26695     26697
     26696     26697     26698     26699     26698     26700     26699     26700
     26701     26702     26701     26703     26702     26703     26704     26705
     26704     26706     26705     26706     26707     26708     26707     26709
     26708     26709     26710     26711     26710     26712     26711     26712
     26713     26714     26713     26715     26714     26715     26716     26717
     26716     26718     26717     26718     26719     26720     26719     26721
     26720     26721     26722     26723     26722     26724     26723     26724
     26725     26726     26725     26727     26726     26727     26728     26729
     26728     26730     26729     26730     26731     26732     26731     26733
     26732     26733     26734     26735     26734     26736     26735     26736
     26737     26738     26737     26739     26738     26739     26740     26741
     26740     26742     26741     26742     26743     26744     26743     26745
     26744     26745     26746     26747     26746     26748     26747     26748
     26749     26750     26749     26751     26750     26751     26752     26753
     26752     26754     26753     26754     26755     26756     26755     26757
     26756     26757     26758     26759     26758     26760     26759     26760
     26761     26762     26761     26763     26762     26763     26764     26765
     26764     26766     26765     26766     26767     26768     26767     26769
     26768     26769     26770     26771     26770     26772     26771     26772
     26773     26774     26773     26775     26774     26775     26776     26777
     26776     26778     26777     26778     26779     26780     26779     26781
     26780     26781     26782     26783     26782     26784     26783     26784
     26785     26786     26785     26787     26786     26787     26788     26789
     26788     26790     26789     26790     26791     26792     26791     26793
     26792     26793     26794     26795     26794     26796     26795     26796
     26797     26798     26797     26799     26798     26799     26800     26801
     26800     26802     26801     26802     26803     26804     26803     26805
     26804     26805     26806     26807     26806     26808     26807     26808
     26809     26810     26809     26811     26810     26811     26812     26813
     26812     26814     26813     26814     26815     26816     26815     26817
     26816     26817     26818     26819     26818     26820     26819     26820
     26821     26822     26821     26823     26822     26823     26824     26825
     26824     26826     26825     26826     26827     26828     26827     26829
     26828     26829     26830     26831     26830     26832     26831     26832
     26833     26834     26833     26835     26834     26835     26836     26837
     26836     26838     26837     26838     26839     26840     26839     26841
     26840     26841     26842     26843     26842     26844     26843     26844
     26845     26846     26845     26847     26846     26847     26848     26849
     26848     26850     26849     26850     26851     26852     26851     26853
     26852     26853     26854     26855     26854     26856     26855     26856
     26857     26858     26857     26859     26858     26859     26860     26861
     26860     26862     26861     26862     26863     26864     26863     26865
     26864     26865     26866     26867     26866     26868     26867     26868
     26869     26870     26869     26871     26870     26871     26872     26873
     26872     26874     26873     26874     26875     26876     26875     26877
     26876     26877     26878     26879     26878     26880     26879     26880
     26881     26882     26881     26883     26882     26883     26884     26885
     26884     26886     26885     26886     26887     26888     26887     26889
     26888     26889     26890     26891     26890     26892     26891     26892
     26893     26894     26893     26895     26894     26895     26896     26897
     26896     26898     26897     26898     26899     26900     26899     26901
     26900     26901     26902     26903     26902     26904     26903     26904
     26905     26906     26905     26907     26906     26907     26908     26909
     26908     26910     26909     26910     26911     26912     26911     26913
     26912     26913     26914     26915     26914     26916     26915     26916
     26917     26918     26917     26919     26918     26919     26920     26921
     26920     26922     26921     26922     26923     26924     26923     26925
     26924     26925     26926     26927     26926     26928     26927     26928
     26929     26930     26929     26931     26930     26931     26932     26933
     26932     26934     26933     26934     26935     26936     26935     26937
     26936     26937     26938     26939     26938     26940     26939     26940
     26941     26942     26941     26943     26942     26943     26944     26945
     26944     26946     26945     26946     26947     26948     26947     26949
     26948     26949     26950     26951     26950     26952     26951     26952
     26953     26954     26953     26955     26954     26955     26956     26957
     26956     26958     26957     26958     26959     26960     26959     26961
     26960     26961     26962     26963     26962     26964     26963     26964
     26965     26966     26965     26967     26966     26967     26968     26969
     26968     26970     26969     26970     26971     26972     26971     26973
     26972     26973     26974     26975     26974     26976     26975     26976
     26977     26978     26977     26979     26978     26979     26980     26981
     26980     26982     26981     26982     26983     26984     26983     26985
     26984     26985     26986     26987     26986     26988     26987     26988
     26989     26990     26989     26991     26990     26991     26992     26993
     26992     26994     26993     26994     26995     26996     26995     26997
     26996     26997     26998     26999     26998     27000     26999     27000
     27001     27002     27001     27003     27002     27003     27004     27005
     27004     27006     27005     27006     27007     27008     27007     27009
     27008     27009     27010     27011     27010     27012     27011     27012
     27013     27014     27013     27015     27014     27015     27016     27017
     27016     27018     27017     27018     27019     27020     27019     27021
     27020     27021     27022     27023     27022     27024     27023     27024
     27025     27026     27025     27027     27026     27027     27028     27029
     27028     27030     27029     27030     27031     27032     27031     27033
     27032     27033     27034     27035     27034     27036     27035     27036
     27037     27038     27037     27039     27038     27039     27040     27041
     27040     27042     27041     27042     27043     27044     27043     27045
     27044     27045     27046     27047     27046     27048     27047     27048
     27049     27050     27049     27051     27050     27051     27052     27053
     27052     27054     27053     27054     27055     27056     27055     27057
     27056     27057     27058     27059     27058     27060     27059     27060
     27061     27062     27061     27063     27062     27063     27064     27065
     27064     27066     27065     27066     27067     27068     27067     27069
     27068     27069     27070     27071     27070     27072     27071     27072
     27073     27074     27073     27075     27074     27075     27076     27077
     27076     27078     27077     27078     27079     27080     27079     27081
     27080     27081     27082     27083     27082     27084     27083     27084
     27085     27086     27085     27087     27086     27087     27088     27089
     27088     27090     27089     27090     27091     27092     27091     27093
     27092     27093     27094     27095     27094     27096     27095     27096
     27097     27098     27097     27099     27098     27099     27100     27101
     27100     27102     27101     27102     27103     27104     27103     27105
     27104     27105     27106     27107     27106     27108     27107     27108
     27109     27110     27109     27111     27110     27111     27112     27113
     27112     27114     27113     27114     27115     27116     27115     27117
     27116     27117     27118     27119     27118     27120     27119     27120
     27121     27122     27121     27123     27122     27123     27124     27125
     27124     27126     27125     27126     27127     27128     27127     27129
     27128     27129     27130     27131     27130     27132     27131     27132
     27133     27134     27133     27135     27134     27135     27136     27137
     27136     27138     27137     27138     27139     27140     27139     27141
     27140     27141     27142     27143     27142     27144     27143     27144
     27145     27146     27145     27147     27146     27147     27148     27149
     27148     27150     27149     27150     27151     27152     27151     27153
     27152     27153     27154     27155     27154     27156     27155     27156
     27157     27158     27157     27159     27158     27159     27160     27161
     27160     27162     27161     27162     27163     27164     27163     27165
     27164     27165     27166     27167     27166     27168     27167     27168
     27169     27170     27169     27171     27170     27171     27172     27173
     27172     27174     27173     27174     27175     27176     27175     27177
     27176     27177     27178     27179     27178     27180     27179     27180
     27181     27182     27181     27183     27182     27183     27184     27185
     27184     27186     27185     27186     27187     27188     27187     27189
     27188     27189     27190     27191     27190     27192     27191     27192
     27193     27194     27193     27195     27194     27195     27196     27197
     27196     27198     27197     27198     27199     27200     27199     27201
     27200     27201     27202     27203     27202     27204     27203     27204
     27205     27206     27205     27207     27206     27207     27208     27209
     27208     27210     27209     27210     27211     27212     27211     27213
     27212     27213     27214     27215     27214     27216     27215     27216
     27217     27218     27217     27219     27218     27219     27220     27221
     27220     27222     27221     27222     27223     27224     27223     27225
     27224     27225     27226     27227     27226     27228     27227     27228
     27229     27230     27229     27231     27230     27231     27232     27233
     27232     27234     27233     27234     27235     27236     27235     27237
     27236     27237     27238     27239     27238     27240     27239     27240
     27241     27242     27241     27243     27242     27243     27244     27245
     27244     27246     27245     27246     27247     27248     27247     27249
     27248     27249     27250     27251     27250     27252     27251     27252
     27253     27254     27253     27255     27254     27255     27256     27257
     27256     27258     27257     27258     27259     27260     27259     27261
     27260     27261     27262     27263     27262     27264     27263     27264
     27265     27266     27265     27267     27266     27267     27268     27269
     27268     27270     27269     27270     27271     27272     27271     27273
     27272     27273     27274     27275     27274     27276     27275     27276
     27277     27278     27277     27279     27278     27279     27280     27281
     27280     27282     27281     27282     27283     27284     27283     27285
     27284     27285     27286     27287     27286     27288     27287     27288
     27289     27290     27289     27291     27290     27291     27292     27293
     27292     27294     27293     27294     27295     27296     27295     27297
     27296     27297     27298     27299     27298     27300     27299     27300
     27301     27302     27301     27303     27302     27303     27304     27305
     27304     27306     27305     27306     27307     27308     27307     27309
     27308     27309     27310     27311     27310     27312     27311     27312
     27313     27314     27313     27315     27314     27315     27316     27317
     27316     27318     27317     27318     27319     27320     27319     27321
     27320     27321     27322     27323     27322     27324     27323     27324
     27325     27326     27325     27327     27326     27327     27328     27329
     27328     27330     27329     27330     27331     27332     27331     27333
     27332     27333     27334     27335     27334     27336     27335     27336
     27337     27338     27337     27339     27338     27339     27340     27341
     27340     27342     27341     27342     27343     27344     27343     27345
     27344     27345     27346     27347     27346     27348     27347     27348
     27349     27350     27349     27351     27350     27351     27352     27353
     27352     27354     27353     27354     27355     27356     27355     27357
     27356     27357     27358     27359     27358     27360     27359     27360
     27361     27362     27361     27363     27362     27363     27364     27365
     27364     27366     27365     27366     27367     27368     27367     27369
     27368     27369     27370     27371     27370     27372     27371     27372
     27373     27374     27373     27375     27374     27375     27376     27377
     27376     27378     27377     27378     27379     27380     27379     27381
     27380     27381     27382     27383     27382     27384     27383     27384
     27385     27386     27385     27387     27386     27387     27388     27389
     27388     27390     27389     27390     27391     27392     27391     27393
     27392     27393     27394     27395     27394     27396     27395     27396
     27397     27398     27397     27399     27398     27399     27400     27401
     27400     27402     27401     27402     27403     27404     27403     27405
     27404     27405     27406     27407     27406     27408     27407     27408
     27409     27410     27409     27411     27410     27411     27412     27413
     27412     27414     27413     27414     27415     27416     27415     27417
     27416     27417     27418     27419     27418     27420     27419     27420
     27421     27422     27421     27423     27422     27423     27424     27425
     27424     27426     27425     27426     27427     27428     27427     27429
     27428     27429     27430     27431     27430     27432     27431     27432
     27433     27434     27433     27435     27434     27435     27436     27437
     27436     27438     27437     27438     27439     27440     27439     27441
     27440     27441     27442     27443     27442     27444     27443     27444
     27445     27446     27445     27447     27446     27447     27448     27449
     27448     27450     27449     27450     27451     27452     27451     27453
     27452     27453     27454     27455     27454     27456     27455     27456
     27457     27458     27457     27459     27458     27459     27460     27461
     27460     27462     27461     27462     27463     27464     27463     27465
     27464     27465     27466     27467     27466     27468     27467     27468
     27469     27470     27469     27471     27470     27471     27472     27473
     27472     27474     27473     27474     27475     27476     27475     27477
     27476     27477     27478     27479     27478     27480     27479     27480
     27481     27482     27481     27483     27482     27483     27484     27485
     27484     27486     27485     27486     27487     27488     27487     27489
     27488     27489     27490     27491     27490     27492     27491     27492
     27493     27494     27493     27495     27494     27495     27496     27497
     27496     27498     27497     27498     27499     27500     27499     27501
     27500     27501     27502     27503     27502     27504     27503     27504
     27505     27506     27505     27507     27506     27507     27508     27509
     27508     27510     27509     27510     27511     27512     27511     27513
     27512     27513     27514     27515     27514     27516     27515     27516
     27517     27518     27517     27519     27518     27519     27520     27521
     27520     27522     27521     27522     27523     27524     27523     27525
     27524     27525     27526     27527     27526     27528     27527     27528
     27529     27530     27529     27531     27530     27531     27532     27533
     27532     27534     27533     27534     27535     27536     27535     27537
     27536     27537     27538     27539     27538     27540     27539     27540
     27541     27542     27541     27543     27542     27543     27544     27545
     27544     27546     27545     27546     27547     27548     27547     27549
     27548     27549     27550     27551     27550     27552     27551     27552
     27553     27554     27553     27555     27554     27555     27556     27557
     27556     27558     27557     27558     27559     27560     27559     27561
     27560     27561     27562     27563     27562     27564     27563     27564
     27565     27566     27565     27567     27566     27567     27568     27569
     27568     27570     27569     27570     27571     27572     27571     27573
     27572     27573     27574     27575     27574     27576     27575     27576
     27577     27578     27577     27579     27578     27579     27580     27581
     27580     27582     27581     27582     27583     27584     27583     27585
     27584     27585     27586     27587     27586     27588     27587     27588
     27589     27590     27589     27591     27590     27591     27592     27593
     27592     27594     27593     27594     27595     27596     27595     27597
     27596     27597     27598     27599     27598     27600     27599     27600
     27601     27602     27601     27603     27602     27603     27604     27605
     27604     27606     27605     27606     27607     27608     27607     27609
     27608     27609     27610     27611     27610     27612     27611     27612
     27613     27614     27613     27615     27614     27615     27616     27617
     27616     27618     27617     27618     27619     27620     27619     27621
     27620     27621     27622     27623     27622     27624     27623     27624
     27625     27626     27625     27627     27626     27627     27628     27629
     27628     27630     27629     27630     27631     27632     27631     27633
     27632     27633     27634     27635     27634     27636     27635     27636
     27637     27638     27637     27639     27638     27639     27640     27641
     27640     27642     27641     27642     27643     27644     27643     27645
     27644     27645     27646     27647     27646     27648     27647     27648
     27649     27650     27649     27651     27650     27651     27652     27653
     27652     27654     27653     27654     27655     27656     27655     27657
     27656     27657     27658     27659     27658     27660     27659     27660
     27661     27662     27661     27663     27662     27663     27664     27665
     27664     27666     27665     27666     27667     27668     27667     27669
     27668     27669     27670     27671     27670     27672     27671     27672
     27673     27674     27673     27675     27674     27675     27676     27677
     27676     27678     27677     27678     27679     27680     27679     27681
     27680     27681     27682     27683     27682     27684     27683     27684
     27685     27686     27685     27687     27686     27687     27688     27689
     27688     27690     27689     27690     27691     27692     27691     27693
     27692     27693     27694     27695     27694     27696     27695     27696
     27697     27698     27697     27699     27698     27699     27700     27701
     27700     27702     27701     27702     27703     27704     27703     27705
     27704     27705     27706     27707     27706     27708     27707     27708
     27709     27710     27709     27711     27710     27711     27712     27713
     27712     27714     27713     27714     27715     27716     27715     27717
     27716     27717     27718     27719     27718     27720     27719     27720
     27721     27722     27721     27723     27722     27723     27724     27725
     27724     27726     27725     27726     27727     27728     27727     27729
     27728     27729     27730     27731     27730     27732     27731     27732
     27733     27734     27733     27735     27734     27735     27736     27737
     27736     27738     27737     27738     27739     27740     27739     27741
     27740     27741     27742     27743     27742     27744     27743     27744
     27745     27746     27745     27747     27746     27747     27748     27749
     27748     27750     27749     27750     27751     27752     27751     27753
     27752     27753     27754     27755     27754     27756     27755     27756
     27757     27758     27757     27759     27758     27759     27760     27761
     27760     27762     27761     27762     27763     27764     27763     27765
     27764     27765     27766     27767     27766     27768     27767     27768
     27769     27770     27769     27771     27770     27771     27772     27773
     27772     27774     27773     27774     27775     27776     27775     27777
     27776     27777     27778     27779     27778     27780     27779     27780
     27781     27782     27781     27783     27782     27783     27784     27785
     27784     27786     27785     27786     27787     27788     27787     27789
     27788     27789     27790     27791     27790     27792     27791     27792
     27793     27794     27793     27795     27794     27795     27796     27797
     27796     27798     27797     27798     27799     27800     27799     27801
     27800     27801     27802     27803     27802     27804     27803     27804
     27805     27806     27805     27807     27806     27807     27808     27809
     27808     27810     27809     27810     27811     27812     27811     27813
     27812     27813     27814     27815     27814     27816     27815     27816
     27817     27818     27817     27819     27818     27819     27820     27821
     27820     27822     27821     27822     27823     27824     27823     27825
     27824     27825     27826     27827     27826     27828     27827     27828
     27829     27830     27829     27831     27830     27831     27832     27833
     27832     27834     27833     27834     27835     27836     27835     27837
     27836     27837     27838     27839     27838     27840     27839     27840
     27841     27842     27841     27843     27842     27843     27844     27845
     27844     27846     27845     27846     27847     27848     27847     27849
     27848     27849     27850     27851     27850     27852     27851     27852
     27853     27854     27853     27855     27854     27855     27856     27857
     27856     27858     27857     27858     27859     27860     27859     27861
     27860     27861     27862     27863     27862     27864     27863     27864
     27865     27866     27865     27867     27866     27867     27868     27869
     27868     27870     27869     27870     27871     27872     27871     27873
     27872     27873     27874     27875     27874     27876     27875     27876
     27877     27878     27877     27879     27878     27879     27880     27881
     27880     27882     27881     27882     27883     27884     27883     27885
     27884     27885     27886     27887     27886     27888     27887     27888
     27889     27890     27889     27891     27890     27891     27892     27893
     27892     27894     27893     27894     27895     27896     27895     27897
     27896     27897     27898     27899     27898     27900     27899     27900
     27901     27902     27901     27903     27902     27903     27904     27905
     27904     27906     27905     27906     27907     27908     27907     27909
     27908     27909     27910     27911     27910     27912     27911     27912
     27913     27914     27913     27915     27914     27915     27916     27917
     27916     27918     27917     27918     27919     27920     27919     27921
     27920     27921     27922     27923     27922     27924     27923     27924
     27925     27926     27925     27927     27926     27927     27928     27929
     27928     27930     27929     27930     27931     27932     27931     27933
     27932     27933     27934     27935     27934     27936     27935     27936
     27937     27938     27937     27939     27938     27939     27940     27941
     27940     27942     27941     27942     27943     27944     27943     27945
     27944     27945     27946     27947     27946     27948     27947     27948
     27949     27950     27949     27951     27950     27951     27952     27953
     27952     27954     27953     27954     27955     27956     27955     27957
     27956     27957     27958     27959     27958     27960     27959     27960
     27961     27962     27961     27963     27962     27963     27964     27965
     27964     27966     27965     27966     27967     27968     27967     27969
     27968     27969     27970     27971     27970     27972     27971     27972
     27973     27974     27973     27975     27974     27975     27976     27977
     27976     27978     27977     27978     27979     27980     27979     27981
     27980     27981     27982     27983     27982     27984     27983     27984
     27985     27986     27985     27987     27986     27987     27988     27989
     27988     27990     27989     27990     27991     27992     27991     27993
     27992     27993     27994     27995     27994     27996     27995     27996
     27997     27998     27997     27999     27998     27999     28000     28001
     28000     28002     28001     28002     28003     28004     28003     28005
     28004     28005     28006     28007     28006     28008     28007     28008
     28009     28010     28009     28011     28010     28011     28012     28013
     28012     28014     28013     28014     28015     28016     28015     28017
     28016     28017     28018     28019     28018     28020     28019     28020
     28021     28022     28021     28023     28022     28023     28024     28025
     28024     28026     28025     28026     28027     28028     28027     28029
     28028     28029     28030     28031     28030     28032     28031     28032
     28033     28034     28033     28035     28034     28035     28036     28037
     28036     28038     28037     28038     28039     28040     28039     28041
     28040     28041     28042     28043     28042     28044     28043     28044
     28045     28046     28045     28047     28046     28047     28048     28049
     28048     28050     28049     28050     28051     28052     28051     28053
     28052     28053     28054     28055     28054     28056     28055     28056
     28057     28058     28057     28059     28058     28059     28060     28061
     28060     28062     28061     28062     28063     28064     28063     28065
     28064     28065     28066     28067     28066     28068     28067     28068
     28069     28070     28069     28071     28070     28071     28072     28073
     28072     28074     28073     28074     28075     28076     28075     28077
     28076     28077     28078     28079     28078     28080     28079     28080
     28081     28082     28081     28083     28082     28083     28084     28085
     28084     28086     28085     28086     28087     28088     28087     28089
     28088     28089     28090     28091     28090     28092     28091     28092
     28093     28094     28093     28095     28094     28095     28096     28097
     28096     28098     28097     28098     28099     28100     28099     28101
     28100     28101     28102     28103     28102     28104     28103     28104
     28105     28106     28105     28107     28106     28107     28108     28109
     28108     28110     28109     28110     28111     28112     28111     28113
     28112     28113     28114     28115     28114     28116     28115     28116
     28117     28118     28117     28119     28118     28119     28120     28121
     28120     28122     28121     28122     28123     28124     28123     28125
     28124     28125     28126     28127     28126     28128     28127     28128
     28129     28130     28129     28131     28130     28131     28132     28133
     28132     28134     28133     28134     28135     28136     28135     28137
     28136     28137     28138     28139     28138     28140     28139     28140
     28141     28142     28141     28143     28142     28143     28144     28145
     28144     28146     28145     28146     28147     28148     28147     28149
     28148     28149     28150     28151     28150     28152     28151     28152
     28153     28154     28153     28155     28154     28155     28156     28157
     28156     28158     28157     28158     28159     28160     28159     28161
     28160     28161     28162     28163     28162     28164     28163     28164
     28165     28166     28165     28167     28166     28167     28168     28169
     28168     28170     28169     28170     28171     28172     28171     28173
     28172     28173     28174     28175     28174     28176     28175     28176
     28177     28178     28177     28179     28178     28179     28180     28181
     28180     28182     28181     28182     28183     28184     28183     28185
     28184     28185     28186     28187     28186     28188     28187     28188
     28189     28190     28189     28191     28190     28191     28192     28193
     28192     28194     28193     28194     28195     28196     28195     28197
     28196     28197     28198     28199     28198     28200     28199     28200
     28201     28202     28201     28203     28202     28203     28204     28205
     28204     28206     28205     28206     28207     28208     28207     28209
     28208     28209     28210     28211     28210     28212     28211     28212
     28213     28214     28213     28215     28214     28215     28216     28217
     28216     28218     28217     28218     28219     28220     28219     28221
     28220     28221     28222     28223     28222     28224     28223     28224
     28225     28226     28225     28227     28226     28227     28228     28229
     28228     28230     28229     28230     28231     28232     28231     28233
     28232     28233     28234     28235     28234     28236     28235     28236
     28237     28238     28237     28239     28238     28239     28240     28241
     28240     28242     28241     28242     28243     28244     28243     28245
     28244     28245     28246     28247     28246     28248     28247     28248
     28249     28250     28249     28251     28250     28251     28252     28253
     28252     28254     28253     28254     28255     28256     28255     28257
     28256     28257     28258     28259     28258     28260     28259     28260
     28261     28262     28261     28263     28262     28263     28264     28265
     28264     28266     28265     28266     28267     28268     28267     28269
     28268     28269     28270     28271     28270     28272     28271     28272
     28273     28274     28273     28275     28274     28275     28276     28277
     28276     28278     28277     28278     28279     28280     28279     28281
     28280     28281     28282     28283     28282     28284     28283     28284
     28285     28286     28285     28287     28286     28287     28288     28289
     28288     28290     28289     28290     28291     28292     28291     28293
     28292     28293     28294     28295     28294     28296     28295     28296
     28297     28298     28297     28299     28298     28299     28300     28301
     28300     28302     28301     28302     28303     28304     28303     28305
     28304     28305     28306     28307     28306     28308     28307     28308
     28309     28310     28309     28311     28310     28311     28312     28313
     28312     28314     28313     28314     28315     28316     28315     28317
     28316     28317     28318     28319     28318     28320     28319     28320
     28321     28322     28321     28323     28322     28323     28324     28325
     28324     28326     28325     28326     28327     28328     28327     28329
     28328     28329     28330     28331     28330     28332     28331     28332
     28333     28334     28333     28335     28334     28335     28336     28337
     28336     28338     28337     28338     28339     28340     28339     28341
     28340     28341     28342     28343     28342     28344     28343     28344
     28345     28346     28345     28347     28346     28347     28348     28349
     28348     28350     28349     28350     28351     28352     28351     28353
     28352     28353     28354     28355     28354     28356     28355     28356
     28357     28358     28357     28359     28358     28359     28360     28361
     28360     28362     28361     28362     28363     28364     28363     28365
     28364     28365     28366     28367     28366     28368     28367     28368
     28369     28370     28369     28371     28370     28371     28372     28373
     28372     28374     28373     28374     28375     28376     28375     28377
     28376     28377     28378     28379     28378     28380     28379     28380
     28381     28382     28381     28383     28382     28383     28384     28385
     28384     28386     28385     28386     28387     28388     28387     28389
     28388     28389     28390     28391     28390     28392     28391     28392
     28393     28394     28393     28395     28394     28395     28396     28397
     28396     28398     28397     28398     28399     28400     28399     28401
     28400     28401     28402     28403     28402     28404     28403     28404
     28405     28406     28405     28407     28406     28407     28408     28409
     28408     28410     28409     28410     28411     28412     28411     28413
     28412     28413     28414     28415     28414     28416     28415     28416
     28417     28418     28417     28419     28418     28419     28420     28421
     28420     28422     28421     28422     28423     28424     28423     28425
     28424     28425     28426     28427     28426     28428     28427     28428
     28429     28430     28429     28431     28430     28431     28432     28433
     28432     28434     28433     28434     28435     28436     28435     28437
     28436     28437     28438     28439     28438     28440     28439     28440
     28441     28442     28441     28443     28442     28443     28444     28445
     28444     28446     28445     28446     28447     28448     28447     28449
     28448     28449     28450     28451     28450     28452     28451     28452
     28453     28454     28453     28455     28454     28455     28456     28457
     28456     28458     28457     28458     28459     28460     28459     28461
     28460     28461     28462     28463     28462     28464     28463     28464
     28465     28466     28465     28467     28466     28467     28468     28469
     28468     28470     28469     28470     28471     28472     28471     28473
     28472     28473     28474     28475     28474     28476     28475     28476
     28477     28478     28477     28479     28478     28479     28480     28481
     28480     28482     28481     28482     28483     28484     28483     28485
     28484     28485     28486     28487     28486     28488     28487     28488
     28489     28490     28489     28491     28490     28491     28492     28493
     28492     28494     28493     28494     28495     28496     28495     28497
     28496     28497     28498     28499     28498     28500     28499     28500
     28501     28502     28501     28503     28502     28503     28504     28505
     28504     28506     28505     28506     28507     28508     28507     28509
     28508     28509     28510     28511     28510     28512     28511     28512
     28513     28514     28513     28515     28514     28515     28516     28517
     28516     28518     28517     28518     28519     28520     28519     28521
     28520     28521     28522     28523     28522     28524     28523     28524
     28525     28526     28525     28527     28526     28527     28528     28529
     28528     28530     28529     28530     28531     28532     28531     28533
     28532     28533     28534     28535     28534     28536     28535     28536
     28537     28538     28537     28539     28538     28539     28540     28541
     28540     28542     28541     28542     28543     28544     28543     28545
     28544     28545     28546     28547     28546     28548     28547     28548
     28549     28550     28549     28551     28550     28551     28552     28553
     28552     28554     28553     28554     28555     28556     28555     28557
     28556     28557     28558     28559     28558     28560     28559     28560
     28561     28562     28561     28563     28562     28563     28564     28565
     28564     28566     28565     28566     28567     28568     28567     28569
     28568     28569     28570     28571     28570     28572     28571     28572
     28573     28574     28573     28575     28574     28575     28576     28577
     28576     28578     28577     28578     28579     28580     28579     28581
     28580     28581     28582     28583     28582     28584     28583     28584
     28585     28586     28585     28587     28586     28587     28588     28589
     28588     28590     28589     28590     28591     28592     28591     28593
     28592     28593     28594     28595     28594     28596     28595     28596
     28597     28598     28597     28599     28598     28599     28600     28601
     28600     28602     28601     28602     28603     28604     28603     28605
     28604     28605     28606     28607     28606     28608     28607     28608
     28609     28610     28609     28611     28610     28611     28612     28613
     28612     28614     28613     28614     28615     28616     28615     28617
     28616     28617     28618     28619     28618     28620     28619     28620
     28621     28622     28621     28623     28622     28623     28624     28625
     28624     28626     28625     28626     28627     28628     28627     28629
     28628     28629     28630     28631     28630     28632     28631     28632
     28633     28634     28633     28635     28634     28635     28636     28637
     28636     28638     28637     28638     28639     28640     28639     28641
     28640     28641     28642     28643     28642     28644     28643     28644
     28645     28646     28645     28647     28646     28647     28648     28649
     28648     28650     28649     28650     28651     28652     28651     28653
     28652     28653     28654     28655     28654     28656     28655     28656
     28657     28658     28657     28659     28658     28659     28660     28661
     28660     28662     28661     28662     28663     28664     28663     28665
     28664     28665     28666     28667     28666     28668     28667     28668
     28669     28670     28669     28671     28670     28671     28672     28673
     28672     28674     28673     28674     28675     28676     28675     28677
     28676     28677     28678     28679     28678     28680     28679     28680
     28681     28682     28681     28683     28682     28683     28684     28685
     28684     28686     28685     28686     28687     28688     28687     28689
     28688     28689     28690     28691     28690     28692     28691     28692
     28693     28694     28693     28695     28694     28695     28696     28697
     28696     28698     28697     28698     28699     28700     28699     28701
     28700     28701     28702     28703     28702     28704     28703     28704
     28705     28706     28705     28707     28706     28707     28708     28709
     28708     28710     28709     28710     28711     28712     28711     28713
     28712     28713     28714     28715     28714     28716     28715     28716
     28717     28718     28717     28719     28718     28719     28720     28721
     28720     28722     28721     28722     28723     28724     28723     28725
     28724     28725     28726     28727     28726     28728     28727     28728
     28729     28730     28729     28731     28730     28731     28732     28733
     28732     28734     28733     28734     28735     28736     28735     28737
     28736     28737     28738     28739     28738     28740     28739     28740
     28741     28742     28741     28743     28742     28743     28744     28745
     28744     28746     28745     28746     28747     28748     28747     28749
     28748     28749     28750     28751     28750     28752     28751     28752
     28753     28754     28753     28755     28754     28755     28756     28757
     28756     28758     28757     28758     28759     28760     28759     28761
     28760     28761     28762     28763     28762     28764     28763     28764
     28765     28766     28765     28767     28766     28767     28768     28769
     28768     28770     28769     28770     28771     28772     28771     28773
     28772     28773     28774     28775     28774     28776     28775     28776
     28777     28778     28777     28779     28778     28779     28780     28781
     28780     28782     28781     28782     28783     28784     28783     28785
     28784     28785     28786     28787     28786     28788     28787     28788
     28789     28790     28789     28791     28790     28791     28792     28793
     28792     28794     28793     28794     28795     28796     28795     28797
     28796     28797     28798     28799     28798     28800     28799     28800
     28801     28802     28801     28803     28802     28803     28804     28805
     28804     28806     28805     28806     28807     28808     28807     28809
     28808     28809     28810     28811     28810     28812     28811     28812
     28813     28814     28813     28815     28814     28815     28816     28817
     28816     28818     28817     28818     28819     28820     28819     28821
     28820     28821     28822     28823     28822     28824     28823     28824
     28825     28826     28825     28827     28826     28827     28828     28829
     28828     28830     28829     28830     28831     28832     28831     28833
     28832     28833     28834     28835     28834     28836     28835     28836
     28837     28838     28837     28839     28838     28839     28840     28841
     28840     28842     28841     28842     28843     28844     28843     28845
     28844     28845     28846     28847     28846     28848     28847     28848
     28849     28850     28849     28851     28850     28851     28852     28853
     28852     28854     28853     28854     28855     28856     28855     28857
     28856     28857     28858     28859     28858     28860     28859     28860
     28861     28862     28861     28863     28862     28863     28864     28865
     28864     28866     28865     28866     28867     28868     28867     28869
     28868     28869     28870     28871     28870     28872     28871     28872
     28873     28874     28873     28875     28874     28875     28876     28877
     28876     28878     28877     28878     28879     28880     28879     28881
     28880     28881     28882     28883     28882     28884     28883     28884
     28885     28886     28885     28887     28886     28887     28888     28889
     28888     28890     28889     28890     28891     28892     28891     28893
     28892     28893     28894     28895     28894     28896     28895     28896
     28897     28898     28897     28899     28898     28899     28900     28901
     28900     28902     28901     28902     28903     28904     28903     28905
     28904     28905     28906     28907     28906     28908     28907     28908
     28909     28910     28909     28911     28910     28911     28912     28913
     28912     28914     28913     28914     28915     28916     28915     28917
     28916     28917     28918     28919     28918     28920     28919     28920
     28921     28922     28921     28923     28922     28923     28924     28925
     28924     28926     28925     28926     28927     28928     28927     28929
     28928     28929     28930     28931     28930     28932     28931     28932
     28933     28934     28933     28935     28934     28935     28936     28937
     28936     28938     28937     28938     28939     28940     28939     28941
     28940     28941     28942     28943     28942     28944     28943     28944
     28945     28946     28945     28947     28946     28947     28948     28949
     28948     28950     28949     28950     28951     28952     28951     28953
     28952     28953     28954     28955     28954     28956     28955     28956
     28957     28958     28957     28959     28958     28959     28960     28961
     28960     28962     28961     28962     28963     28964     28963     28965
     28964     28965     28966     28967     28966     28968     28967     28968
     28969     28970     28969     28971     28970     28971     28972     28973
     28972     28974     28973     28974     28975     28976     28975     28977
     28976     28977     28978     28979     28978     28980     28979     28980
     28981     28982     28981     28983     28982     28983     28984     28985
     28984     28986     28985     28986     28987     28988     28987     28989
     28988     28989     28990     28991     28990     28992     28991     28992
     28993     28994     28993     28995     28994     28995     28996     28997
     28996     28998     28997     28998     28999     29000     28999     29001
     29000     29001     29002     29003     29002     29004     29003     29004
     29005     29006     29005     29007     29006     29007     29008     29009
     29008     29010     29009     29010     29011     29012     29011     29013
     29012     29013     29014     29015     29014     29016     29015     29016
     29017     29018     29017     29019     29018     29019     29020     29021
     29020     29022     29021     29022     29023     29024     29023     29025
     29024     29025     29026     29027     29026     29028     29027     29028
     29029     29030     29029     29031     29030     29031     29032     29033
     29032     29034     29033     29034     29035     29036     29035     29037
     29036     29037     29038     29039     29038     29040     29039     29040
     29041     29042     29041     29043     29042     29043     29044     29045
     29044     29046     29045     29046     29047     29048     29047     29049
     29048     29049     29050     29051     29050     29052     29051     29052
     29053     29054     29053     29055     29054     29055     29056     29057
     29056     29058     29057     29058     29059     29060     29059     29061
     29060     29061     29062     29063     29062     29064     29063     29064
     29065     29066     29065     29067     29066     29067     29068     29069
     29068     29070     29069     29070     29071     29072     29071     29073
     29072     29073     29074     29075     29074     29076     29075     29076
     29077     29078     29077     29079     29078     29079     29080     29081
     29080     29082     29081     29082     29083     29084     29083     29085
     29084     29085     29086     29087     29086     29088     29087     29088
     29089     29090     29089     29091     29090     29091     29092     29093
     29092     29094     29093     29094     29095     29096     29095     29097
     29096     29097     29098     29099     29098     29100     29099     29100
     29101     29102     29101     29103     29102     29103     29104     29105
     29104     29106     29105     29106     29107     29108     29107     29109
     29108     29109     29110     29111     29110     29112     29111     29112
     29113     29114     29113     29115     29114     29115     29116     29117
     29116     29118     29117     29118     29119     29120     29119     29121
     29120     29121     29122     29123     29122     29124     29123     29124
     29125     29126     29125     29127     29126     29127     29128     29129
     29128     29130     29129     29130     29131     29132     29131     29133
     29132     29133     29134     29135     29134     29136     29135     29136
     29137     29138     29137     29139     29138     29139     29140     29141
     29140     29142     29141     29142     29143     29144     29143     29145
     29144     29145     29146     29147     29146     29148     29147     29148
     29149     29150     29149     29151     29150     29151     29152     29153
     29152     29154     29153     29154     29155     29156     29155     29157
     29156     29157     29158     29159     29158     29160     29159     29160
     29161     29162     29161     29163     29162     29163     29164     29165
     29164     29166     29165     29166     29167     29168     29167     29169
     29168     29169     29170     29171     29170     29172     29171     29172
     29173     29174     29173     29175     29174     29175     29176     29177
     29176     29178     29177     29178     29179     29180     29179     29181
     29180     29181     29182     29183     29182     29184     29183     29184
     29185     29186     29185     29187     29186     29187     29188     29189
     29188     29190     29189     29190     29191     29192     29191     29193
     29192     29193     29194     29195     29194     29196     29195     29196
     29197     29198     29197     29199     29198     29199     29200     29201
     29200     29202     29201     29202     29203     29204     29203     29205
     29204     29205     29206     29207     29206     29208     29207     29208
     29209     29210     29209     29211     29210     29211     29212     29213
     29212     29214     29213     29214     29215     29216     29215     29217
     29216     29217     29218     29219     29218     29220     29219     29220
     29221     29222     29221     29223     29222     29223     29224     29225
     29224     29226     29225     29226     29227     29228     29227     29229
     29228     29229     29230     29231     29230     29232     29231     29232
     29233     29234     29233     29235     29234     29235     29236     29237
     29236     29238     29237     29238     29239     29240     29239     29241
     29240     29241     29242     29243     29242     29244     29243     29244
     29245     29246     29245     29247     29246     29247     29248     29249
     29248     29250     29249     29250     29251     29252     29251     29253
     29252     29253     29254     29255     29254     29256     29255     29256
     29257     29258     29257     29259     29258     29259     29260     29261
     29260     29262     29261     29262     29263     29264     29263     29265
     29264     29265     29266     29267     29266     29268     29267     29268
     29269     29270     29269     29271     29270     29271     29272     29273
     29272     29274     29273     29274     29275     29276     29275     29277
     29276     29277     29278     29279     29278     29280     29279     29280
     29281     29282     29281     29283     29282     29283     29284     29285
     29284     29286     29285     29286     29287     29288     29287     29289
     29288     29289     29290     29291     29290     29292     29291     29292
     29293     29294     29293     29295     29294     29295     29296     29297
     29296     29298     29297     29298     29299     29300     29299     29301
     29300     29301     29302     29303     29302     29304     29303     29304
     29305     29306     29305     29307     29306     29307     29308     29309
     29308     29310     29309     29310     29311     29312     29311     29313
     29312     29313     29314     29315     29314     29316     29315     29316
     29317     29318     29317     29319     29318     29319     29320     29321
     29320     29322     29321     29322     29323     29324     29323     29325
     29324     29325     29326     29327     29326     29328     29327     29328
     29329     29330     29329     29331     29330     29331     29332     29333
     29332     29334     29333     29334     29335     29336     29335     29337
     29336     29337     29338     29339     29338     29340     29339     29340
     29341     29342     29341     29343     29342     29343     29344     29345
     29344     29346     29345     29346     29347     29348     29347     29349
     29348     29349     29350     29351     29350     29352     29351     29352
     29353     29354     29353     29355     29354     29355     29356     29357
     29356     29358     29357     29358     29359     29360     29359     29361
     29360     29361     29362     29363     29362     29364     29363     29364
     29365     29366     29365     29367     29366     29367     29368     29369
     29368     29370     29369     29370     29371     29372     29371     29373
     29372     29373     29374     29375     29374     29376     29375     29376
     29377     29378     29377     29379     29378     29379     29380     29381
     29380     29382     29381     29382     29383     29384     29383     29385
     29384     29385     29386     29387     29386     29388     29387     29388
     29389     29390     29389     29391     29390     29391     29392     29393
     29392     29394     29393     29394     29395     29396     29395     29397
     29396     29397     29398     29399     29398     29400     29399     29400
     29401     29402     29401     29403     29402     29403     29404     29405
     29404     29406     29405     29406     29407     29408     29407     29409
     29408     29409     29410     29411     29410     29412     29411     29412
     29413     29414     29413     29415     29414     29415     29416     29417
     29416     29418     29417     29418     29419     29420     29419     29421
     29420     29421     29422     29423     29422     29424     29423     29424
     29425     29426     29425     29427     29426     29427     29428     29429
     29428     29430     29429     29430     29431     29432     29431     29433
     29432     29433     29434     29435     29434     29436     29435     29436
     29437     29438     29437     29439     29438     29439     29440     29441
     29440     29442     29441     29442     29443     29444     29443     29445
     29444     29445     29446     29447     29446     29448     29447     29448
     29449     29450     29449     29451     29450     29451     29452     29453
     29452     29454     29453     29454     29455     29456     29455     29457
     29456     29457     29458     29459     29458     29460     29459     29460
     29461     29462     29461     29463     29462     29463     29464     29465
     29464     29466     29465     29466     29467     29468     29467     29469
     29468     29469     29470     29471     29470     29472     29471     29472
     29473     29474     29473     29475     29474     29475     29476     29477
     29476     29478     29477     29478     29479     29480     29479     29481
     29480     29481     29482     29483     29482     29484     29483     29484
     29485     29486     29485     29487     29486     29487     29488     29489
     29488     29490     29489     29490     29491     29492     29491     29493
     29492     29493     29494     29495     29494     29496     29495     29496
     29497     29498     29497     29499     29498     29499     29500     29501
     29500     29502     29501     29502     29503     29504     29503     29505
     29504     29505     29506     29507     29506     29508     29507     29508
     29509     29510     29509     29511     29510     29511     29512     29513
     29512     29514     29513     29514     29515     29516     29515     29517
     29516     29517     29518     29519     29518     29520     29519     29520
     29521     29522     29521     29523     29522     29523     29524     29525
     29524     29526     29525     29526     29527     29528     29527     29529
     29528     29529     29530     29531     29530     29532     29531     29532
     29533     29534     29533     29535     29534     29535     29536     29537
     29536     29538     29537     29538     29539     29540     29539     29541
     29540     29541     29542     29543     29542     29544     29543     29544
     29545     29546     29545     29547     29546     29547     29548     29549
     29548     29550     29549     29550     29551     29552     29551     29553
     29552     29553     29554     29555     29554     29556     29555     29556
     29557     29558     29557     29559     29558     29559     29560     29561
     29560     29562     29561     29562     29563     29564     29563     29565
     29564     29565     29566     29567     29566     29568     29567     29568
     29569     29570     29569     29571     29570     29571     29572     29573
     29572     29574     29573     29574     29575     29576     29575     29577
     29576     29577     29578     29579     29578     29580     29579     29580
     29581     29582     29581     29583     29582     29583     29584     29585
     29584     29586     29585     29586     29587     29588     29587     29589
     29588     29589     29590     29591     29590     29592     29591     29592
     29593     29594     29593     29595     29594     29595     29596     29597
     29596     29598     29597     29598     29599     29600     29599     29601
     29600     29601     29602     29603     29602     29604     29603     29604
     29605     29606     29605     29607     29606     29607     29608     29609
     29608     29610     29609     29610     29611     29612     29611     29613
     29612     29613     29614     29615     29614     29616     29615     29616
     29617     29618     29617     29619     29618     29619     29620     29621
     29620     29622     29621     29622     29623     29624     29623     29625
     29624     29625     29626     29627     29626     29628     29627     29628
     29629     29630     29629     29631     29630     29631     29632     29633
     29632     29634     29633     29634     29635     29636     29635     29637
     29636     29637     29638     29639     29638     29640     29639     29640
     29641     29642     29641     29643     29642     29643     29644     29645
     29644     29646     29645     29646     29647     29648     29647     29649
     29648     29649     29650     29651     29650     29652     29651     29652
     29653     29654     29653     29655     29654     29655     29656     29657
     29656     29658     29657     29658     29659     29660     29659     29661
     29660     29661     29662     29663     29662     29664     29663     29664
     29665     29666     29665     29667     29666     29667     29668     29669
     29668     29670     29669     29670     29671     29672     29671     29673
     29672     29673     29674     29675     29674     29676     29675     29676
     29677     29678     29677     29679     29678     29679     29680     29681
     29680     29682     29681     29682     29683     29684     29683     29685
     29684     29685     29686     29687     29686     29688     29687     29688
     29689     29690     29689     29691     29690     29691     29692     29693
     29692     29694     29693     29694     29695     29696     29695     29697
     29696     29697     29698     29699     29698     29700     29699     29700
     29701     29702     29701     29703     29702     29703     29704     29705
     29704     29706     29705     29706     29707     29708     29707     29709
     29708     29709     29710     29711     29710     29712     29711     29712
     29713     29714     29713     29715     29714     29715     29716     29717
     29716     29718     29717     29718     29719     29720     29719     29721
     29720     29721     29722     29723     29722     29724     29723     29724
     29725     29726     29725     29727     29726     29727     29728     29729
     29728     29730     29729     29730     29731     29732     29731     29733
     29732     29733     29734     29735     29734     29736     29735     29736
     29737     29738     29737     29739     29738     29739     29740     29741
     29740     29742     29741     29742     29743     29744     29743     29745
     29744     29745     29746     29747     29746     29748     29747     29748
     29749     29750     29749     29751     29750     29751     29752     29753
     29752     29754     29753     29754     29755     29756     29755     29757
     29756     29757     29758     29759     29758     29760     29759     29760
     29761     29762     29761     29763     29762     29763     29764     29765
     29764     29766     29765     29766     29767     29768     29767     29769
     29768     29769     29770     29771     29770     29772     29771     29772
     29773     29774     29773     29775     29774     29775     29776     29777
     29776     29778     29777     29778     29779     29780     29779     29781
     29780     29781     29782     29783     29782     29784     29783     29784
     29785     29786     29785     29787     29786     29787     29788     29789
     29788     29790     29789     29790     29791     29792     29791     29793
     29792     29793     29794     29795     29794     29796     29795     29796
     29797     29798     29797     29799     29798     29799     29800     29801
     29800     29802     29801     29802     29803     29804     29803     29805
     29804     29805     29806     29807     29806     29808     29807     29808
     29809     29810     29809     29811     29810     29811     29812     29813
     29812     29814     29813     29814     29815     29816     29815     29817
     29816     29817     29818     29819     29818     29820     29819     29820
     29821     29822     29821     29823     29822     29823     29824     29825
     29824     29826     29825     29826     29827     29828     29827     29829
     29828     29829     29830     29831     29830     29832     29831     29832
     29833     29834     29833     29835     29834     29835     29836     29837
     29836     29838     29837     29838     29839     29840     29839     29841
     29840     29841     29842     29843     29842     29844     29843     29844
     29845     29846     29845     29847     29846     29847     29848     29849
     29848     29850     29849     29850     29851     29852     29851     29853
     29852     29853     29854     29855     29854     29856     29855     29856
     29857     29858     29857     29859     29858     29859     29860     29861
     29860     29862     29861     29862     29863     29864     29863     29865
     29864     29865     29866     29867     29866     29868     29867     29868
     29869     29870     29869     29871     29870     29871     29872     29873
     29872     29874     29873     29874     29875     29876     29875     29877
     29876     29877     29878     29879     29878     29880     29879     29880
     29881     29882     29881     29883     29882     29883     29884     29885
     29884     29886     29885     29886     29887     29888     29887     29889
     29888     29889     29890     29891     29890     29892     29891     29892
     29893     29894     29893     29895     29894     29895     29896     29897
     29896     29898     29897     29898     29899     29900     29899     29901
     29900     29901     29902     29903     29902     29904     29903     29904
     29905     29906     29905     29907     29906     29907     29908     29909
     29908     29910     29909     29910     29911     29912     29911     29913
     29912     29913     29914     29915     29914     29916     29915     29916
     29917     29918     29917     29919     29918     29919     29920     29921
     29920     29922     29921     29922     29923     29924     29923     29925
     29924     29925     29926     29927     29926     29928     29927     29928
     29929     29930     29929     29931     29930     29931     29932     29933
     29932     29934     29933     29934     29935     29936     29935     29937
     29936     29937     29938     29939     29938     29940     29939     29940
     29941     29942     29941     29943     29942     29943     29944     29945
     29944     29946     29945     29946     29947     29948     29947     29949
     29948     29949     29950     29951     29950     29952     29951     29952
     29953     29954     29953     29955     29954     29955     29956     29957
     29956     29958     29957     29958     29959     29960     29959     29961
     29960     29961     29962     29963     29962     29964     29963     29964
     29965     29966     29965     29967     29966     29967     29968     29969
     29968     29970     29969     29970     29971     29972     29971     29973
     29972     29973     29974     29975     29974     29976     29975     29976
     29977     29978     29977     29979     29978     29979     29980     29981
     29980     29982     29981     29982     29983     29984     29983     29985
     29984     29985     29986     29987     29986     29988     29987     29988
     29989     29990     29989     29991     29990     29991     29992     29993
     29992     29994     29993     29994     29995     29996     29995     29997
     29996     29997     29998     29999     29998     30000     29999     30000
     30001     30002     30001     30003     30002     30003     30004     30005
     30004     30006     30005     30006     30007     30008     30007     30009
     30008     30009     30010     30011     30010     30012     30011     30012
     30013     30014     30013     30015     30014     30015     30016     30017
     30016     30018     30017     30018     30019     30020     30019     30021
     30020     30021     30022     30023     30022     30024     30023     30024
     30025     30026     30025     30027     30026     30027     30028     30029
     30028     30030     30029     30030     30031     30032     30031     30033
     30032     30033     30034     30035     30034     30036     30035     30036
     30037     30038     30037     30039     30038     30039     30040     30041
     30040     30042     30041     30042     30043     30044     30043     30045
     30044     30045     30046     30047     30046     30048     30047     30048
     30049     30050     30049     30051     30050     30051     30052     30053
     30052     30054     30053     30054     30055     30056     30055     30057
     30056     30057     30058     30059     30058     30060     30059     30060
     30061     30062     30061     30063     30062     30063     30064     30065
     30064     30066     30065     30066     30067     30068     30067     30069
     30068     30069     30070     30071     30070     30072     30071     30072
     30073     30074     30073     30075     30074     30075     30076     30077
     30076     30078     30077     30078     30079     30080     30079     30081
     30080     30081     30082     30083     30082     30084     30083     30084
     30085     30086     30085     30087     30086     30087     30088     30089
     30088     30090     30089     30090     30091     30092     30091     30093
     30092     30093     30094     30095     30094     30096     30095     30096
     30097     30098     30097     30099     30098     30099     30100     30101
     30100     30102     30101     30102     30103     30104     30103     30105
     30104     30105     30106     30107     30106     30108     30107     30108
     30109     30110     30109     30111     30110     30111     30112     30113
     30112     30114     30113     30114     30115     30116     30115     30117
     30116     30117     30118     30119     30118     30120     30119     30120
     30121     30122     30121     30123     30122     30123     30124     30125
     30124     30126     30125     30126     30127     30128     30127     30129
     30128     30129     30130     30131     30130     30132     30131     30132
     30133     30134     30133     30135     30134     30135     30136     30137
     30136     30138     30137     30138     30139     30140     30139     30141
     30140     30141     30142     30143     30142     30144     30143     30144
     30145     30146     30145     30147     30146     30147     30148     30149
     30148     30150     30149     30150     30151     30152     30151     30153
     30152     30153     30154     30155     30154     30156     30155     30156
     30157     30158     30157     30159     30158     30159     30160     30161
     30160     30162     30161     30162     30163     30164     30163     30165
     30164     30165     30166     30167     30166     30168     30167     30168
     30169     30170     30169     30171     30170     30171     30172     30173
     30172     30174     30173     30174     30175     30176     30175     30177
     30176     30177     30178     30179     30178     30180     30179     30180
     30181     30182     30181     30183     30182     30183     30184     30185
     30184     30186     30185     30186     30187     30188     30187     30189
     30188     30189     30190     30191     30190     30192     30191     30192
     30193     30194     30193     30195     30194     30195     30196     30197
     30196     30198     30197     30198     30199     30200     30199     30201
     30200     30201     30202     30203     30202     30204     30203     30204
     30205     30206     30205     30207     30206     30207     30208     30209
     30208     30210     30209     30210     30211     30212     30211     30213
     30212     30213     30214     30215     30214     30216     30215     30216
     30217     30218     30217     30219     30218     30219     30220     30221
     30220     30222     30221     30222     30223     30224     30223     30225
     30224     30225     30226     30227     30226     30228     30227     30228
     30229     30230     30229     30231     30230     30231     30232     30233
     30232     30234     30233     30234     30235     30236     30235     30237
     30236     30237     30238     30239     30238     30240     30239     30240
     30241     30242     30241     30243     30242     30243     30244     30245
     30244     30246     30245     30246     30247     30248     30247     30249
     30248     30249     30250     30251     30250     30252     30251     30252
     30253     30254     30253     30255     30254     30255     30256     30257
     30256     30258     30257     30258     30259     30260     30259     30261
     30260     30261     30262     30263     30262     30264     30263     30264
     30265     30266     30265     30267     30266     30267     30268     30269
     30268     30270     30269     30270     30271     30272     30271     30273
     30272     30273     30274     30275     30274     30276     30275     30276
     30277     30278     30277     30279     30278     30279     30280     30281
     30280     30282     30281     30282     30283     30284     30283     30285
     30284     30285     30286     30287     30286     30288     30287     30288
     30289     30290     30289     30291     30290     30291     30292     30293
     30292     30294     30293     30294     30295     30296     30295     30297
     30296     30297     30298     30299     30298     30300     30299     30300
     30301     30302     30301     30303     30302     30303     30304     30305
     30304     30306     30305     30306     30307     30308     30307     30309
     30308     30309     30310     30311     30310     30312     30311     30312
     30313     30314     30313     30315     30314     30315     30316     30317
     30316     30318     30317     30318     30319     30320     30319     30321
     30320     30321     30322     30323     30322     30324     30323     30324
     30325     30326     30325     30327     30326     30327     30328     30329
     30328     30330     30329     30330     30331     30332     30331     30333
     30332     30333     30334     30335     30334     30336     30335     30336
     30337     30338     30337     30339     30338     30339     30340     30341
     30340     30342     30341     30342     30343     30344     30343     30345
     30344     30345     30346     30347     30346     30348     30347     30348
     30349     30350     30349     30351     30350     30351     30352     30353
     30352     30354     30353     30354     30355     30356     30355     30357
     30356     30357     30358     30359     30358     30360     30359     30360
     30361     30362     30361     30363     30362     30363     30364     30365
     30364     30366     30365     30366     30367     30368     30367     30369
     30368     30369     30370     30371     30370     30372     30371     30372
     30373     30374     30373     30375     30374     30375     30376     30377
     30376     30378     30377     30378     30379     30380     30379     30381
     30380     30381     30382     30383     30382     30384     30383     30384
     30385     30386     30385     30387     30386     30387     30388     30389
     30388     30390     30389     30390     30391     30392     30391     30393
     30392     30393     30394     30395     30394     30396     30395     30396
     30397     30398     30397     30399     30398     30399     30400     30401
     30400     30402     30401     30402     30403     30404     30403     30405
     30404     30405     30406     30407     30406     30408     30407     30408
     30409     30410     30409     30411     30410     30411     30412     30413
     30412     30414     30413     30414     30415     30416     30415     30417
     30416     30417     30418     30419     30418     30420     30419     30420
     30421     30422     30421     30423     30422     30423     30424     30425
     30424     30426     30425     30426     30427     30428     30427     30429
     30428     30429     30430     30431     30430     30432     30431     30432
     30433     30434     30433     30435     30434     30435     30436     30437
     30436     30438     30437     30438     30439     30440     30439     30441
     30440     30441     30442     30443     30442     30444     30443     30444
     30445     30446     30445     30447     30446     30447     30448     30449
     30448     30450     30449     30450     30451     30452     30451     30453
     30452     30453     30454     30455     30454     30456     30455     30456
     30457     30458     30457     30459     30458     30459     30460     30461
     30460     30462     30461     30462     30463     30464     30463     30465
     30464     30465     30466     30467     30466     30468     30467     30468
     30469     30470     30469     30471     30470     30471     30472     30473
     30472     30474     30473     30474     30475     30476     30475     30477
     30476     30477     30478     30479     30478     30480     30479     30480
     30481     30482     30481     30483     30482     30483     30484     30485
     30484     30486     30485     30486     30487     30488     30487     30489
     30488     30489     30490     30491     30490     30492     30491     30492
     30493     30494     30493     30495     30494     30495     30496     30497
     30496     30498     30497     30498     30499     30500     30499     30501
     30500     30501     30502     30503     30502     30504     30503     30504
     30505     30506     30505     30507     30506     30507     30508     30509
     30508     30510     30509     30510     30511     30512     30511     30513
     30512     30513     30514     30515     30514     30516     30515     30516
     30517     30518     30517     30519     30518     30519     30520     30521
     30520     30522     30521     30522     30523     30524     30523     30525
     30524     30525     30526     30527     30526     30528     30527     30528
     30529     30530     30529     30531     30530     30531     30532     30533
     30532     30534     30533     30534     30535     30536     30535     30537
     30536     30537     30538     30539     30538     30540     30539     30540
     30541     30542     30541     30543     30542     30543     30544     30545
     30544     30546     30545     30546     30547     30548     30547     30549
     30548     30549     30550     30551     30550     30552     30551     30552
     30553     30554     30553     30555     30554     30555     30556     30557
     30556     30558     30557     30558     30559     30560     30559     30561
     30560     30561     30562     30563     30562     30564     30563     30564
     30565     30566     30565     30567     30566     30567     30568     30569
     30568     30570     30569     30570     30571     30572     30571     30573
     30572     30573     30574     30575     30574     30576     30575     30576
     30577     30578     30577     30579     30578     30579     30580     30581
     30580     30582     30581     30582     30583     30584     30583     30585
     30584     30585     30586     30587     30586     30588     30587     30588
     30589     30590     30589     30591     30590     30591     30592     30593
     30592     30594     30593     30594     30595     30596     30595     30597
     30596     30597     30598     30599     30598     30600     30599     30600
     30601     30602     30601     30603     30602     30603     30604     30605
     30604     30606     30605     30606     30607     30608     30607     30609
     30608     30609     30610     30611     30610     30612     30611     30612
     30613     30614     30613     30615     30614     30615     30616     30617
     30616     30618     30617     30618     30619     30620     30619     30621
     30620     30621     30622     30623     30622     30624     30623     30624
     30625     30626     30625     30627     30626     30627     30628     30629
     30628     30630     30629     30630     30631     30632     30631     30633
     30632     30633     30634     30635     30634     30636     30635     30636
     30637     30638     30637     30639     30638     30639     30640     30641
     30640     30642     30641     30642     30643     30644     30643     30645
     30644     30645     30646     30647     30646     30648     30647     30648
     30649     30650     30649     30651     30650     30651     30652     30653
     30652     30654     30653     30654     30655     30656     30655     30657
     30656     30657     30658     30659     30658     30660     30659     30660
     30661     30662     30661     30663     30662     30663     30664     30665
     30664     30666     30665     30666     30667     30668     30667     30669
     30668     30669     30670     30671     30670     30672     30671     30672
     30673     30674     30673     30675     30674     30675     30676     30677
     30676     30678     30677     30678     30679     30680     30679     30681
     30680     30681     30682     30683     30682     30684     30683     30684
     30685     30686     30685     30687     30686     30687     30688     30689
     30688     30690     30689     30690     30691     30692     30691     30693
     30692     30693     30694     30695     30694     30696     30695     30696
     30697     30698     30697     30699     30698     30699     30700     30701
     30700     30702     30701     30702     30703     30704     30703     30705
     30704     30705     30706     30707     30706     30708     30707     30708
     30709     30710     30709     30711     30710     30711     30712     30713
     30712     30714     30713     30714     30715     30716     30715     30717
     30716     30717     30718     30719     30718     30720     30719     30720
     30721     30722     30721     30723     30722     30723     30724     30725
     30724     30726     30725     30726     30727     30728     30727     30729
     30728     30729     30730     30731     30730     30732     30731     30732
     30733     30734     30733     30735     30734     30735     30736     30737
     30736     30738     30737     30738     30739     30740     30739     30741
     30740     30741     30742     30743     30742     30744     30743     30744
     30745     30746     30745     30747     30746     30747     30748     30749
     30748     30750     30749     30750     30751     30752     30751     30753
     30752     30753     30754     30755     30754     30756     30755     30756
     30757     30758     30757     30759     30758     30759     30760     30761
     30760     30762     30761     30762     30763     30764     30763     30765
     30764     30765     30766     30767     30766     30768     30767     30768
     30769     30770     30769     30771     30770     30771     30772     30773
     30772     30774     30773     30774     30775     30776     30775     30777
     30776     30777     30778     30779     30778     30780     30779     30780
     30781     30782     30781     30783     30782     30783     30784     30785
     30784     30786     30785     30786     30787     30788     30787     30789
     30788     30789     30790     30791     30790     30792     30791     30792
     30793     30794     30793     30795     30794     30795     30796     30797
     30796     30798     30797     30798     30799     30800     30799     30801
     30800     30801     30802     30803     30802     30804     30803     30804
     30805     30806     30805     30807     30806     30807     30808     30809
     30808     30810     30809     30810     30811     30812     30811     30813
     30812     30813     30814     30815     30814     30816     30815     30816
     30817     30818     30817     30819     30818     30819     30820     30821
     30820     30822     30821     30822     30823     30824     30823     30825
     30824     30825     30826     30827     30826     30828     30827     30828
     30829     30830     30829     30831     30830     30831     30832     30833
     30832     30834     30833     30834     30835     30836     30835     30837
     30836     30837     30838     30839     30838     30840     30839     30840
     30841     30842     30841     30843     30842     30843     30844     30845
     30844     30846     30845     30846     30847     30848     30847     30849
     30848     30849     30850     30851     30850     30852     30851     30852
     30853     30854     30853     30855     30854     30855     30856     30857
     30856     30858     30857     30858     30859     30860     30859     30861
     30860     30861     30862     30863     30862     30864     30863     30864
     30865     30866     30865     30867     30866     30867     30868     30869
     30868     30870     30869     30870     30871     30872     30871     30873
     30872     30873     30874     30875     30874     30876     30875     30876
     30877     30878     30877     30879     30878     30879     30880     30881
     30880     30882     30881     30882     30883     30884     30883     30885
     30884     30885     30886     30887     30886     30888     30887     30888
     30889     30890     30889     30891     30890     30891     30892     30893
     30892     30894     30893     30894     30895     30896     30895     30897
     30896     30897     30898     30899     30898     30900     30899     30900
     30901     30902     30901     30903     30902     30903     30904     30905
     30904     30906     30905     30906     30907     30908     30907     30909
     30908     30909     30910     30911     30910     30912     30911     30912
     30913     30914     30913     30915     30914     30915     30916     30917
     30916     30918     30917     30918     30919     30920     30919     30921
     30920     30921     30922     30923     30922     30924     30923     30924
     30925     30926     30925     30927     30926     30927     30928     30929
     30928     30930     30929     30930     30931     30932     30931     30933
     30932     30933     30934     30935     30934     30936     30935     30936
     30937     30938     30937     30939     30938     30939     30940     30941
     30940     30942     30941     30942     30943     30944     30943     30945
     30944     30945     30946     30947     30946     30948     30947     30948
     30949     30950     30949     30951     30950     30951     30952     30953
     30952     30954     30953     30954     30955     30956     30955     30957
     30956     30957     30958     30959     30958     30960     30959     30960
     30961     30962     30961     30963     30962     30963     30964     30965
     30964     30966     30965     30966     30967     30968     30967     30969
     30968     30969     30970     30971     30970     30972     30971     30972
     30973     30974     30973     30975     30974     30975     30976     30977
     30976     30978     30977     30978     30979     30980     30979     30981
     30980     30981     30982     30983     30982     30984     30983     30984
     30985     30986     30985     30987     30986     30987     30988     30989
     30988     30990     30989     30990     30991     30992     30991     30993
     30992     30993     30994     30995     30994     30996     30995     30996
     30997     30998     30997     30999     30998     30999     31000     31001
     31000     31002     31001     31002     31003     31004     31003     31005
     31004     31005     31006     31007     31006     31008     31007     31008
     31009     31010     31009     31011     31010     31011     31012     31013
     31012     31014     31013     31014     31015     31016     31015     31017
     31016     31017     31018     31019     31018     31020     31019     31020
     31021     31022     31021     31023     31022     31023     31024     31025
     31024     31026     31025     31026     31027     31028     31027     31029
     31028     31029     31030     31031     31030     31032     31031     31032
     31033     31034     31033     31035     31034     31035     31036     31037
     31036     31038     31037     31038     31039     31040     31039     31041
     31040     31041     31042     31043     31042     31044     31043     31044
     31045     31046     31045     31047     31046     31047     31048     31049
     31048     31050     31049     31050     31051     31052     31051     31053
     31052     31053     31054     31055     31054     31056     31055     31056
     31057     31058     31057     31059     31058     31059     31060     31061
     31060     31062     31061     31062     31063     31064     31063     31065
     31064     31065     31066     31067     31066     31068     31067     31068
     31069     31070     31069     31071     31070     31071     31072     31073
     31072     31074     31073     31074     31075     31076     31075     31077
     31076     31077     31078     31079     31078     31080     31079     31080
     31081     31082     31081     31083     31082     31083     31084     31085
     31084     31086     31085     31086     31087     31088     31087     31089
     31088     31089     31090     31091     31090     31092     31091     31092
     31093     31094     31093     31095     31094     31095     31096     31097
     31096     31098     31097     31098     31099     31100     31099     31101
     31100     31101     31102     31103     31102     31104     31103     31104
     31105     31106     31105     31107     31106     31107     31108     31109
     31108     31110     31109     31110     31111     31112     31111     31113
     31112     31113     31114     31115     31114     31116     31115     31116
     31117     31118     31117     31119     31118     31119     31120     31121
     31120     31122     31121     31122     31123     31124     31123     31125
     31124     31125     31126     31127     31126     31128     31127     31128
     31129     31130     31129     31131     31130     31131     31132     31133
     31132     31134     31133     31134     31135     31136     31135     31137
     31136     31137     31138     31139     31138     31140     31139     31140
     31141     31142     31141     31143     31142     31143     31144     31145
     31144     31146     31145     31146     31147     31148     31147     31149
     31148     31149     31150     31151     31150     31152     31151     31152
     31153     31154     31153     31155     31154     31155     31156     31157
     31156     31158     31157     31158     31159     31160     31159     31161
     31160     31161     31162     31163     31162     31164     31163     31164
     31165     31166     31165     31167     31166     31167     31168     31169
     31168     31170     31169     31170     31171     31172     31171     31173
     31172     31173     31174     31175     31174     31176     31175     31176
     31177     31178     31177     31179     31178     31179     31180     31181
     31180     31182     31181     31182     31183     31184     31183     31185
     31184     31185     31186     31187     31186     31188     31187     31188
     31189     31190     31189     31191     31190     31191     31192     31193
     31192     31194     31193     31194     31195     31196     31195     31197
     31196     31197     31198     31199     31198     31200     31199     31200
     31201     31202     31201     31203     31202     31203     31204     31205
     31204     31206     31205     31206     31207     31208     31207     31209
     31208     31209     31210     31211     31210     31212     31211     31212
     31213     31214     31213     31215     31214     31215     31216     31217
     31216     31218     31217     31218     31219     31220     31219     31221
     31220     31221     31222     31223     31222     31224     31223     31224
     31225     31226     31225     31227     31226     31227     31228     31229
     31228     31230     31229     31230     31231     31232     31231     31233
     31232     31233     31234     31235     31234     31236     31235     31236
     31237     31238     31237     31239     31238     31239     31240     31241
     31240     31242     31241     31242     31243     31244     31243     31245
     31244     31245     31246     31247     31246     31248     31247     31248
     31249     31250     31249     31251     31250     31251     31252     31253
     31252     31254     31253     31254     31255     31256     31255     31257
     31256     31257     31258     31259     31258     31260     31259     31260
     31261     31262     31261     31263     31262     31263     31264     31265
     31264     31266     31265     31266     31267     31268     31267     31269
     31268     31269     31270     31271     31270     31272     31271     31272
     31273     31274     31273     31275     31274     31275     31276     31277
     31276     31278     31277     31278     31279     31280     31279     31281
     31280     31281     31282     31283     31282     31284     31283     31284
     31285     31286     31285     31287     31286     31287     31288     31289
     31288     31290     31289     31290     31291     31292     31291     31293
     31292     31293     31294     31295     31294     31296     31295     31296
     31297     31298     31297     31299     31298     31299     31300     31301
     31300     31302     31301     31302     31303     31304     31303     31305
     31304     31305     31306     31307     31306     31308     31307     31308
     31309     31310     31309     31311     31310     31311     31312     31313
     31312     31314     31313     31314     31315     31316     31315     31317
     31316     31317     31318     31319     31318     31320     31319     31320
     31321     31322     31321     31323     31322     31323     31324     31325
     31324     31326     31325     31326     31327     31328     31327     31329
     31328     31329     31330     31331     31330     31332     31331     31332
     31333     31334     31333     31335     31334     31335     31336     31337
     31336     31338     31337     31338     31339     31340     31339     31341
     31340     31341     31342     31343     31342     31344     31343     31344
     31345     31346     31345     31347     31346     31347     31348     31349
     31348     31350     31349     31350     31351     31352     31351     31353
     31352     31353     31354     31355     31354     31356     31355     31356
     31357     31358     31357     31359     31358     31359     31360     31361
     31360     31362     31361     31362     31363     31364     31363     31365
     31364     31365     31366     31367     31366     31368     31367     31368
     31369     31370     31369     31371     31370     31371     31372     31373
     31372     31374     31373     31374     31375     31376     31375     31377
     31376     31377     31378     31379     31378     31380     31379     31380
     31381     31382     31381     31383     31382     31383     31384     31385
     31384     31386     31385     31386     31387     31388     31387     31389
     31388     31389     31390     31391     31390     31392     31391     31392
     31393     31394     31393     31395     31394     31395     31396     31397
     31396     31398     31397     31398     31399     31400     31399     31401
     31400     31401     31402     31403     31402     31404     31403     31404
     31405     31406     31405     31407     31406     31407     31408     31409
     31408     31410     31409     31410     31411     31412     31411     31413
     31412     31413     31414     31415     31414     31416     31415     31416
     31417     31418     31417     31419     31418     31419     31420     31421
     31420     31422     31421     31422     31423     31424     31423     31425
     31424     31425     31426     31427     31426     31428     31427     31428
     31429     31430     31429     31431     31430     31431     31432     31433
     31432     31434     31433     31434     31435     31436     31435     31437
     31436     31437     31438     31439     31438     31440     31439     31440
     31441     31442     31441     31443     31442     31443     31444     31445
     31444     31446     31445     31446     31447     31448     31447     31449
     31448     31449     31450     31451     31450     31452     31451     31452
     31453     31454     31453     31455     31454     31455     31456     31457
     31456     31458     31457     31458     31459     31460     31459     31461
     31460     31461     31462     31463     31462     31464     31463     31464
     31465     31466     31465     31467     31466     31467     31468     31469
     31468     31470     31469     31470     31471     31472     31471     31473
     31472     31473     31474     31475     31474     31476     31475     31476
     31477     31478     31477     31479     31478     31479     31480     31481
     31480     31482     31481     31482     31483     31484     31483     31485
     31484     31485     31486     31487     31486     31488     31487     31488
     31489     31490     31489     31491     31490     31491     31492     31493
     31492     31494     31493     31494     31495     31496     31495     31497
     31496     31497     31498     31499     31498     31500     31499     31500
     31501     31502     31501     31503     31502     31503     31504     31505
     31504     31506     31505     31506     31507     31508     31507     31509
     31508     31509     31510     31511     31510     31512     31511     31512
     31513     31514     31513     31515     31514     31515     31516     31517
     31516     31518     31517     31518     31519     31520     31519     31521
     31520     31521     31522     31523     31522     31524     31523     31524
     31525     31526     31525     31527     31526     31527     31528     31529
     31528     31530     31529     31530     31531     31532     31531     31533
     31532     31533     31534     31535     31534     31536     31535     31536
     31537     31538     31537     31539     31538     31539     31540     31541
     31540     31542     31541     31542     31543     31544     31543     31545
     31544     31545     31546     31547     31546     31548     31547     31548
     31549     31550     31549     31551     31550     31551     31552     31553
     31552     31554     31553     31554     31555     31556     31555     31557
     31556     31557     31558     31559     31558     31560     31559     31560
     31561     31562     31561     31563     31562     31563     31564     31565
     31564     31566     31565     31566     31567     31568     31567     31569
     31568     31569     31570     31571     31570     31572     31571     31572
     31573     31574     31573     31575     31574     31575     31576     31577
     31576     31578     31577     31578     31579     31580     31579     31581
     31580     31581     31582     31583     31582     31584     31583     31584
     31585     31586     31585     31587     31586     31587     31588     31589
     31588     31590     31589     31590     31591     31592     31591     31593
     31592     31593     31594     31595     31594     31596     31595     31596
     31597     31598     31597     31599     31598     31599     31600     31601
     31600     31602     31601     31602     31603     31604     31603     31605
     31604     31605     31606     31607     31606     31608     31607     31608
     31609     31610     31609     31611     31610     31611     31612     31613
     31612     31614     31613     31614     31615     31616     31615     31617
     31616     31617     31618     31619     31618     31620     31619     31620
     31621     31622     31621     31623     31622     31623     31624     31625
     31624     31626     31625     31626     31627     31628     31627     31629
     31628     31629     31630     31631     31630     31632     31631     31632
     31633     31634     31633     31635     31634     31635     31636     31637
     31636     31638     31637     31638     31639     31640     31639     31641
     31640     31641     31642     31643     31642     31644     31643     31644
     31645     31646     31645     31647     31646     31647     31648     31649
     31648     31650     31649     31650     31651     31652     31651     31653
     31652     31653     31654     31655     31654     31656     31655     31656
     31657     31658     31657     31659     31658     31659     31660     31661
     31660     31662     31661     31662     31663     31664     31663     31665
     31664     31665     31666     31667     31666     31668     31667     31668
     31669     31670     31669     31671     31670     31671     31672     31673
     31672     31674     31673     31674     31675     31676     31675     31677
     31676     31677     31678     31679     31678     31680     31679     31680
     31681     31682     31681     31683     31682     31683     31684     31685
     31684     31686     31685     31686     31687     31688     31687     31689
     31688     31689     31690     31691     31690     31692     31691     31692
     31693     31694     31693     31695     31694     31695     31696     31697
     31696     31698     31697     31698     31699     31700     31699     31701
     31700     31701     31702     31703     31702     31704     31703     31704
     31705     31706     31705     31707     31706     31707     31708     31709
     31708     31710     31709     31710     31711     31712     31711     31713
     31712     31713     31714     31715     31714     31716     31715     31716
     31717     31718     31717     31719     31718     31719     31720     31721
     31720     31722     31721     31722     31723     31724     31723     31725
     31724     31725     31726     31727     31726     31728     31727     31728
     31729     31730     31729     31731     31730     31731     31732     31733
     31732     31734     31733     31734     31735     31736     31735     31737
     31736     31737     31738     31739     31738     31740     31739     31740
     31741     31742     31741     31743     31742     31743     31744     31745
     31744     31746     31745     31746     31747     31748     31747     31749
     31748     31749     31750     31751     31750     31752     31751     31752
     31753     31754     31753     31755     31754     31755     31756     31757
     31756     31758     31757     31758     31759     31760     31759     31761
     31760     31761     31762     31763     31762     31764     31763     31764
     31765     31766     31765     31767     31766     31767     31768     31769
     31768     31770     31769     31770     31771     31772     31771     31773
     31772     31773     31774     31775     31774     31776     31775     31776
     31777     31778     31777     31779     31778     31779     31780     31781
     31780     31782     31781     31782     31783     31784     31783     31785
     31784     31785     31786     31787     31786     31788     31787     31788
     31789     31790     31789     31791     31790     31791     31792     31793
     31792     31794     31793     31794     31795     31796     31795     31797
     31796     31797     31798     31799     31798     31800     31799     31800
     31801     31802     31801     31803     31802     31803     31804     31805
     31804     31806     31805     31806     31807     31808     31807     31809
     31808     31809     31810     31811     31810     31812     31811     31812
     31813     31814     31813     31815     31814     31815     31816     31817
     31816     31818     31817     31818     31819     31820     31819     31821
     31820     31821     31822     31823     31822     31824     31823     31824
     31825     31826     31825     31827     31826     31827     31828     31829
     31828     31830     31829     31830     31831     31832     31831     31833
     31832     31833     31834     31835     31834     31836     31835     31836
     31837     31838     31837     31839     31838     31839     31840     31841
     31840     31842     31841     31842     31843     31844     31843     31845
     31844     31845     31846     31847     31846     31848     31847     31848
     31849     31850     31849     31851     31850     31851     31852     31853
     31852     31854     31853     31854     31855     31856     31855     31857
     31856     31857     31858     31859     31858     31860     31859     31860
     31861     31862     31861     31863     31862     31863     31864     31865
     31864     31866     31865     31866     31867     31868     31867     31869
     31868     31869     31870     31871     31870     31872     31871     31872
     31873     31874     31873     31875     31874     31875     31876     31877
     31876     31878     31877     31878     31879     31880     31879     31881
     31880     31881     31882     31883     31882     31884     31883     31884
     31885     31886     31885     31887     31886     31887     31888     31889
     31888     31890     31889     31890     31891     31892     31891     31893
     31892     31893     31894     31895     31894     31896     31895     31896
     31897     31898     31897     31899     31898     31899     31900     31901
     31900     31902     31901     31902     31903     31904     31903     31905
     31904     31905     31906     31907     31906     31908     31907     31908
     31909     31910     31909     31911     31910     31911     31912     31913
     31912     31914     31913     31914     31915     31916     31915     31917
     31916     31917     31918     31919     31918     31920     31919     31920
     31921     31922     31921     31923     31922     31923     31924     31925
     31924     31926     31925     31926     31927     31928     31927     31929
     31928     31929     31930     31931     31930     31932     31931     31932
     31933     31934     31933     31935     31934     31935     31936     31937
     31936     31938     31937     31938     31939     31940     31939     31941
     31940     31941     31942     31943     31942     31944     31943     31944
     31945     31946     31945     31947     31946     31947     31948     31949
     31948     31950     31949     31950     31951     31952     31951     31953
     31952     31953     31954     31955     31954     31956     31955     31956
     31957     31958     31957     31959     31958     31959     31960     31961
     31960     31962     31961     31962     31963     31964     31963     31965
     31964     31965     31966     31967     31966     31968     31967     31968
     31969     31970     31969     31971     31970     31971     31972     31973
     31972     31974     31973     31974     31975     31976     31975     31977
     31976     31977     31978     31979     31978     31980     31979     31980
     31981     31982     31981     31983     31982     31983     31984     31985
     31984     31986     31985     31986     31987     31988     31987     31989
     31988     31989     31990     31991     31990     31992     31991     31992
     31993     31994     31993     31995     31994     31995     31996     31997
     31996     31998     31997     31998     31999     32000     31999     32001
     32000     32001     32002     32003     32002     32004     32003     32004
     32005     32006     32005     32007     32006     32007     32008     32009
     32008     32010     32009     32010     32011     32012     32011     32013
     32012     32013     32014     32015     32014     32016     32015     32016
     32017     32018     32017     32019     32018     32019     32020     32021
     32020     32022     32021     32022     32023     32024     32023     32025
     32024     32025     32026     32027     32026     32028     32027     32028
     32029     32030     32029     32031     32030     32031     32032     32033
     32032     32034     32033     32034     32035     32036     32035     32037
     32036     32037     32038     32039     32038     32040     32039     32040
     32041     32042     32041     32043     32042     32043     32044     32045
     32044     32046     32045     32046     32047     32048     32047     32049
     32048     32049     32050     32051     32050     32052     32051     32052
     32053     32054     32053     32055     32054     32055     32056     32057
     32056     32058     32057     32058     32059     32060     32059     32061
     32060     32061     32062     32063     32062     32064     32063     32064
     32065     32066     32065     32067     32066     32067     32068     32069
     32068     32070     32069     32070     32071     32072     32071     32073
     32072     32073     32074     32075     32074     32076     32075     32076
     32077     32078     32077     32079     32078     32079     32080     32081
     32080     32082     32081     32082     32083     32084     32083     32085
     32084     32085     32086     32087     32086     32088     32087     32088
     32089     32090     32089     32091     32090     32091     32092     32093
     32092     32094     32093     32094     32095     32096     32095     32097
     32096     32097     32098     32099     32098     32100     32099     32100
     32101     32102     32101     32103     32102     32103     32104     32105
     32104     32106     32105     32106     32107     32108     32107     32109
     32108     32109     32110     32111     32110     32112     32111     32112
     32113     32114     32113     32115     32114     32115     32116     32117
     32116     32118     32117     32118     32119     32120     32119     32121
     32120     32121     32122     32123     32122     32124     32123     32124
     32125     32126     32125     32127     32126     32127     32128     32129
     32128     32130     32129     32130     32131     32132     32131     32133
     32132     32133     32134     32135     32134     32136     32135     32136
     32137     32138     32137     32139     32138     32139     32140     32141
     32140     32142     32141     32142     32143     32144     32143     32145
     32144     32145     32146     32147     32146     32148     32147     32148
     32149     32150     32149     32151     32150     32151     32152     32153
     32152     32154     32153     32154     32155     32156     32155     32157
     32156     32157     32158     32159     32158     32160     32159     32160
     32161     32162     32161     32163     32162     32163     32164     32165
     32164     32166     32165     32166     32167     32168     32167     32169
     32168     32169     32170     32171     32170     32172     32171     32172
     32173     32174     32173     32175     32174     32175     32176     32177
     32176     32178     32177     32178     32179     32180     32179     32181
     32180     32181     32182     32183     32182     32184     32183     32184
     32185     32186     32185     32187     32186     32187     32188     32189
     32188     32190     32189     32190     32191     32192     32191     32193
     32192     32193     32194     32195     32194     32196     32195     32196
     32197     32198     32197     32199     32198     32199     32200     32201
     32200     32202     32201     32202     32203     32204     32203     32205
     32204     32205     32206     32207     32206     32208     32207     32208
     32209     32210     32209     32211     32210     32211     32212     32213
     32212     32214     32213     32214     32215     32216     32215     32217
     32216     32217     32218     32219     32218     32220     32219     32220
     32221     32222     32221     32223     32222     32223     32224     32225
     32224     32226     32225     32226     32227     32228     32227     32229
     32228     32229     32230     32231     32230     32232     32231     32232
     32233     32234     32233     32235     32234     32235     32236     32237
     32236     32238     32237     32238     32239     32240     32239     32241
     32240     32241     32242     32243     32242     32244     32243     32244
     32245     32246     32245     32247     32246     32247     32248     32249
     32248     32250     32249     32250     32251     32252     32251     32253
     32252     32253     32254     32255     32254     32256     32255     32256
     32257     32258     32257     32259     32258     32259     32260     32261
     32260     32262     32261     32262     32263     32264     32263     32265
     32264     32265     32266     32267     32266     32268     32267     32268
     32269     32270     32269     32271     32270     32271     32272     32273
     32272     32274     32273     32274     32275     32276     32275     32277
     32276     32277     32278     32279     32278     32280     32279     32280
     32281     32282     32281     32283     32282     32283     32284     32285
     32284     32286     32285     32286     32287     32288     32287     32289
     32288     32289     32290     32291     32290     32292     32291     32292
     32293     32294     32293     32295     32294     32295     32296     32297
     32296     32298     32297     32298     32299     32300     32299     32301
     32300     32301     32302     32303     32302     32304     32303     32304
     32305     32306     32305     32307     32306     32307     32308     32309
     32308     32310     32309     32310     32311     32312     32311     32313
     32312     32313     32314     32315     32314     32316     32315     32316
     32317     32318     32317     32319     32318     32319     32320     32321
     32320     32322     32321     32322     32323     32324     32323     32325
     32324     32325     32326     32327     32326     32328     32327     32328
     32329     32330     32329     32331     32330     32331     32332     32333
     32332     32334     32333     32334     32335     32336     32335     32337
     32336     32337     32338     32339     32338     32340     32339     32340
     32341     32342     32341     32343     32342     32343     32344     32345
     32344     32346     32345     32346     32347     32348     32347     32349
     32348     32349     32350     32351     32350     32352     32351     32352
     32353     32354     32353     32355     32354     32355     32356     32357
     32356     32358     32357     32358     32359     32360     32359     32361
     32360     32361     32362     32363     32362     32364     32363     32364
     32365     32366     32365     32367     32366     32367     32368     32369
     32368     32370     32369     32370     32371     32372     32371     32373
     32372     32373     32374     32375     32374     32376     32375     32376
     32377     32378     32377     32379     32378     32379     32380     32381
     32380     32382     32381     32382     32383     32384     32383     32385
     32384     32385     32386     32387     32386     32388     32387     32388
     32389     32390     32389     32391     32390     32391     32392     32393
     32392     32394     32393     32394     32395     32396     32395     32397
     32396     32397     32398     32399     32398     32400     32399     32400
     32401     32402     32401     32403     32402     32403     32404     32405
     32404     32406     32405     32406     32407     32408     32407     32409
     32408     32409     32410     32411     32410     32412     32411     32412
     32413     32414     32413     32415     32414     32415     32416     32417
     32416     32418     32417     32418     32419     32420     32419     32421
     32420     32421     32422     32423     32422     32424     32423     32424
     32425     32426     32425     32427     32426     32427     32428     32429
     32428     32430     32429     32430     32431     32432     32431     32433
     32432     32433     32434     32435     32434     32436     32435     32436
     32437     32438     32437     32439     32438     32439     32440     32441
     32440     32442     32441     32442     32443     32444     32443     32445
     32444     32445     32446     32447     32446     32448     32447     32448
     32449     32450     32449     32451     32450     32451     32452     32453
     32452     32454     32453     32454     32455     32456     32455     32457
     32456     32457     32458     32459     32458     32460     32459     32460
     32461     32462     32461     32463     32462     32463     32464     32465
     32464     32466     32465     32466     32467     32468     32467     32469
     32468     32469     32470     32471     32470     32472     32471     32472
     32473     32474     32473     32475     32474     32475     32476     32477
     32476     32478     32477     32478     32479     32480     32479     32481
     32480     32481     32482     32483     32482     32484     32483     32484
     32485     32486     32485     32487     32486     32487     32488     32489
     32488     32490     32489     32490     32491     32492     32491     32493
     32492     32493     32494     32495     32494     32496     32495     32496
     32497     32498     32497     32499     32498     32499     32500     32501
     32500     32502     32501     32502     32503     32504     32503     32505
     32504     32505     32506     32507     32506     32508     32507     32508
     32509     32510     32509     32511     32510     32511     32512     32513
     32512     32514     32513     32514     32515     32516     32515     32517
     32516     32517     32518     32519     32518     32520     32519     32520
     32521     32522     32521     32523     32522     32523     32524     32525
     32524     32526     32525     32526     32527     32528     32527     32529
     32528     32529     32530     32531     32530     32532     32531     32532
     32533     32534     32533     32535     32534     32535     32536     32537
     32536     32538     32537     32538     32539     32540     32539     32541
     32540     32541     32542     32543     32542     32544     32543     32544
     32545     32546     32545     32547     32546     32547     32548     32549
     32548     32550     32549     32550     32551     32552     32551     32553
     32552     32553     32554     32555     32554     32556     32555     32556
     32557     32558     32557     32559     32558     32559     32560     32561
     32560     32562     32561     32562     32563     32564     32563     32565
     32564     32565     32566     32567     32566     32568     32567     32568
     32569     32570     32569     32571     32570     32571     32572     32573
     32572     32574     32573     32574     32575     32576     32575     32577
     32576     32577     32578     32579     32578     32580     32579     32580
     32581     32582     32581     32583     32582     32583     32584     32585
     32584     32586     32585     32586     32587     32588     32587     32589
     32588     32589     32590     32591     32590     32592     32591     32592
     32593     32594     32593     32595     32594     32595     32596     32597
     32596     32598     32597     32598     32599     32600     32599     32601
     32600     32601     32602     32603     32602     32604     32603     32604
     32605     32606     32605     32607     32606     32607     32608     32609
     32608     32610     32609     32610     32611     32612     32611     32613
     32612     32613     32614     32615     32614     32616     32615     32616
     32617     32618     32617     32619     32618     32619     32620     32621
     32620     32622     32621     32622     32623     32624     32623     32625
     32624     32625     32626     32627     32626     32628     32627     32628
     32629     32630     32629     32631     32630     32631     32632     32633
     32632     32634     32633     32634     32635     32636     32635     32637
     32636     32637     32638     32639     32638     32640     32639     32640
     32641     32642     32641     32643     32642     32643     32644     32645
     32644     32646     32645     32646     32647     32648     32647     32649
     32648     32649     32650     32651     32650     32652     32651     32652
     32653     32654     32653     32655     32654     32655     32656     32657
     32656     32658     32657     32658     32659     32660     32659     32661
     32660     32661     32662     32663     32662     32664     32663     32664
     32665     32666     32665     32667     32666     32667     32668     32669
     32668     32670     32669     32670     32671     32672     32671     32673
     32672     32673     32674     32675     32674     32676     32675     32676
     32677     32678     32677     32679     32678     32679     32680     32681
     32680     32682     32681     32682     32683     32684     32683     32685
     32684     32685     32686     32687     32686     32688     32687     32688
     32689     32690     32689     32691     32690     32691     32692     32693
     32692     32694     32693     32694     32695     32696     32695     32697
     32696     32697     32698     32699     32698     32700     32699     32700
     32701     32702     32701     32703     32702     32703     32704     32705
     32704     32706     32705     32706     32707     32708     32707     32709
     32708     32709     32710     32711     32710     32712     32711     32712
     32713     32714     32713     32715     32714     32715     32716     32717
     32716     32718     32717     32718     32719     32720     32719     32721
     32720     32721     32722     32723     32722     32724     32723     32724
     32725     32726     32725     32727     32726     32727     32728     32729
     32728     32730     32729     32730     32731     32732     32731     32733
     32732     32733     32734     32735     32734     32736     32735     32736
     32737     32738     32737     32739     32738     32739     32740     32741
     32740     32742     32741     32742     32743     32744     32743     32745
     32744     32745     32746     32747     32746     32748     32747     32748
     32749     32750     32749     32751     32750     32751     32752     32753
     32752     32754     32753     32754     32755     32756     32755     32757
     32756     32757     32758     32759     32758     32760     32759     32760
     32761     32762     32761     32763     32762     32763     32764     32765
     32764     32766     32765     32766     32767     32768     32767     32769
     32768     32769     32770     32771     32770     32772     32771     32772
     32773     32774     32773     32775     32774     32775     32776     32777
     32776     32778     32777     32778     32779     32780     32779     32781
     32780     32781     32782     32783     32782     32784     32783     32784
     32785     32786     32785     32787     32786     32787     32788     32789
     32788     32790     32789     32790     32791     32792     32791     32793
     32792     32793     32794     32795     32794     32796     32795     32796
     32797     32798     32797     32799     32798     32799     32800     32801
     32800     32802     32801     32802     32803     32804     32803     32805
     32804     32805     32806     32807     32806     32808     32807     32808
     32809     32810     32809     32811     32810     32811     32812     32813
     32812     32814     32813     32814     32815     32816     32815     32817
     32816     32817     32818     32819     32818     32820     32819     32820
     32821     32822     32821     32823     32822     32823     32824     32825
     32824     32826     32825     32826     32827     32828     32827     32829
     32828     32829     32830     32831     32830     32832     32831     32832
     32833     32834     32833     32835     32834     32835     32836     32837
     32836     32838     32837     32838     32839     32840     32839     32841
     32840     32841     32842     32843     32842     32844     32843     32844
     32845     32846     32845     32847     32846     32847     32848     32849
     32848     32850     32849     32850     32851     32852     32851     32853
     32852     32853     32854     32855     32854     32856     32855     32856
     32857     32858     32857     32859     32858     32859     32860     32861
     32860     32862     32861     32862     32863     32864     32863     32865
     32864     32865     32866     32867     32866     32868     32867     32868
     32869     32870     32869     32871     32870     32871     32872     32873
     32872     32874     32873     32874     32875     32876     32875     32877
     32876     32877     32878     32879     32878     32880     32879     32880
     32881     32882     32881     32883     32882     32883     32884     32885
     32884     32886     32885     32886     32887     32888     32887     32889
     32888     32889     32890     32891     32890     32892     32891     32892
     32893     32894     32893     32895     32894     32895     32896     32897
     32896     32898     32897     32898     32899     32900     32899     32901
     32900     32901     32902     32903     32902     32904     32903     32904
     32905     32906     32905     32907     32906     32907     32908     32909
     32908     32910     32909     32910     32911     32912     32911     32913
     32912     32913     32914     32915     32914     32916     32915     32916
     32917     32918     32917     32919     32918     32919     32920     32921
     32920     32922     32921     32922     32923     32924     32923     32925
     32924     32925     32926     32927     32926     32928     32927     32928
     32929     32930     32929     32931     32930     32931     32932     32933
     32932     32934     32933     32934     32935     32936     32935     32937
     32936     32937     32938     32939     32938     32940     32939     32940
     32941     32942     32941     32943     32942     32943     32944     32945
     32944     32946     32945     32946     32947     32948     32947     32949
     32948     32949     32950     32951     32950     32952     32951     32952
     32953     32954     32953     32955     32954     32955     32956     32957
     32956     32958     32957     32958     32959     32960     32959     32961
     32960     32961     32962     32963     32962     32964     32963     32964
     32965     32966     32965     32967     32966     32967     32968     32969
     32968     32970     32969     32970     32971     32972     32971     32973
     32972     32973     32974     32975     32974     32976     32975     32976
     32977     32978     32977     32979     32978     32979     32980     32981
     32980     32982     32981     32982     32983     32984     32983     32985
     32984     32985     32986     32987     32986     32988     32987     32988
     32989     32990     32989     32991     32990     32991     32992     32993
     32992     32994     32993     32994     32995     32996     32995     32997
     32996     32997     32998     32999     32998     33000     32999     33000
     33001     33002     33001     33003     33002     33003     33004     33005
     33004     33006     33005     33006     33007     33008     33007     33009
     33008     33009     33010     33011     33010     33012     33011     33012
     33013     33014     33013     33015     33014     33015     33016     33017
     33016     33018     33017     33018     33019     33020     33019     33021
     33020     33021     33022     33023     33022     33024     33023     33024
     33025     33026     33025     33027     33026     33027     33028     33029
     33028     33030     33029     33030     33031     33032     33031     33033
     33032     33033     33034     33035     33034     33036     33035     33036
     33037     33038     33037     33039     33038     33039     33040     33041
     33040     33042     33041     33042     33043     33044     33043     33045
     33044     33045     33046     33047     33046     33048     33047     33048
     33049     33050     33049     33051     33050     33051     33052     33053
     33052     33054     33053     33054     33055     33056     33055     33057
     33056     33057     33058     33059     33058     33060     33059     33060
     33061     33062     33061     33063     33062     33063     33064     33065
     33064     33066     33065     33066     33067     33068     33067     33069
     33068     33069     33070     33071     33070     33072     33071     33072
     33073     33074     33073     33075     33074     33075     33076     33077
     33076     33078     33077     33078     33079     33080     33079     33081
     33080     33081     33082     33083     33082     33084     33083     33084
     33085     33086     33085     33087     33086     33087     33088     33089
     33088     33090     33089     33090     33091     33092     33091     33093
     33092     33093     33094     33095     33094     33096     33095     33096
     33097     33098     33097     33099     33098     33099     33100     33101
     33100     33102     33101     33102     33103     33104     33103     33105
     33104     33105     33106     33107     33106     33108     33107     33108
     33109     33110     33109     33111     33110     33111     33112     33113
     33112     33114     33113     33114     33115     33116     33115     33117
     33116     33117     33118     33119     33118     33120     33119     33120
     33121     33122     33121     33123     33122     33123     33124     33125
     33124     33126     33125     33126     33127     33128     33127     33129
     33128     33129     33130     33131     33130     33132     33131     33132
     33133     33134     33133     33135     33134     33135     33136     33137
     33136     33138     33137     33138     33139     33140     33139     33141
     33140     33141     33142     33143     33142     33144     33143     33144
     33145     33146     33145     33147     33146     33147     33148     33149
     33148     33150     33149     33150     33151     33152     33151     33153
     33152     33153     33154     33155     33154     33156     33155     33156
     33157     33158     33157     33159     33158     33159     33160     33161
     33160     33162     33161     33162     33163     33164     33163     33165
     33164     33165     33166     33167     33166     33168     33167     33168
     33169     33170     33169     33171     33170     33171     33172     33173
     33172     33174     33173     33174     33175     33176     33175     33177
     33176     33177     33178     33179     33178     33180     33179     33180
     33181     33182     33181     33183     33182     33183     33184     33185
     33184     33186     33185     33186     33187     33188     33187     33189
     33188     33189     33190     33191     33190     33192     33191     33192
     33193     33194     33193     33195     33194     33195     33196     33197
     33196     33198     33197     33198     33199     33200     33199     33201
     33200     33201     33202     33203     33202     33204     33203     33204
     33205     33206     33205     33207     33206     33207     33208     33209
     33208     33210     33209     33210     33211     33212     33211     33213
     33212     33213     33214     33215     33214     33216     33215     33216
     33217     33218     33217     33219     33218     33219     33220     33221
     33220     33222     33221     33222     33223     33224     33223     33225
     33224     33225     33226     33227     33226     33228     33227     33228
     33229     33230     33229     33231     33230     33231     33232     33233
     33232     33234     33233     33234     33235     33236     33235     33237
     33236     33237     33238     33239     33238     33240     33239     33240
     33241     33242     33241     33243     33242     33243     33244     33245
     33244     33246     33245     33246     33247     33248     33247     33249
     33248     33249     33250     33251     33250     33252     33251     33252
     33253     33254     33253     33255     33254     33255     33256     33257
     33256     33258     33257     33258     33259     33260     33259     33261
     33260     33261     33262     33263     33262     33264     33263     33264
     33265     33266     33265     33267     33266     33267     33268     33269
     33268     33270     33269     33270     33271     33272     33271     33273
     33272     33273     33274     33275     33274     33276     33275     33276
     33277     33278     33277     33279     33278     33279     33280     33281
     33280     33282     33281     33282     33283     33284     33283     33285
     33284     33285     33286     33287     33286     33288     33287     33288
     33289     33290     33289     33291     33290     33291     33292     33293
     33292     33294     33293     33294     33295     33296     33295     33297
     33296     33297     33298     33299     33298     33300     33299     33300
     33301     33302     33301     33303     33302     33303     33304     33305
     33304     33306     33305     33306     33307     33308     33307     33309
     33308     33309     33310     33311     33310     33312     33311     33312
     33313     33314     33313     33315     33314     33315     33316     33317
     33316     33318     33317     33318     33319     33320     33319     33321
     33320     33321     33322     33323     33322     33324     33323     33324
     33325     33326     33325     33327     33326     33327     33328     33329
     33328     33330     33329     33330     33331     33332     33331     33333
     33332     33333     33334     33335     33334     33336     33335     33336
     33337     33338     33337     33339     33338     33339     33340     33341
     33340     33342     33341     33342     33343     33344     33343     33345
     33344     33345     33346     33347     33346     33348     33347     33348
     33349     33350     33349     33351     33350     33351     33352     33353
     33352     33354     33353     33354     33355     33356     33355     33357
     33356     33357     33358     33359     33358     33360     33359     33360
     33361     33362     33361     33363     33362     33363     33364     33365
     33364     33366     33365     33366     33367     33368     33367     33369
     33368     33369     33370     33371     33370     33372     33371     33372
     33373     33374     33373     33375     33374     33375     33376     33377
     33376     33378     33377     33378     33379     33380     33379     33381
     33380     33381     33382     33383     33382     33384     33383     33384
     33385     33386     33385     33387     33386     33387     33388     33389
     33388     33390     33389     33390     33391     33392     33391     33393
     33392     33393     33394     33395     33394     33396     33395     33396
     33397     33398     33397     33399     33398     33399     33400     33401
     33400     33402     33401     33402     33403     33404     33403     33405
     33404     33405     33406     33407     33406     33408     33407     33408
     33409     33410     33409     33411     33410     33411     33412     33413
     33412     33414     33413     33414     33415     33416     33415     33417
     33416     33417     33418     33419     33418     33420     33419     33420
     33421     33422     33421     33423     33422     33423     33424     33425
     33424     33426     33425     33426     33427     33428     33427     33429
     33428     33429     33430     33431     33430     33432     33431     33432
     33433     33434     33433     33435     33434     33435     33436     33437
     33436     33438     33437     33438     33439     33440     33439     33441
     33440     33441     33442     33443     33442     33444     33443     33444
     33445     33446     33445     33447     33446     33447     33448     33449
     33448     33450     33449     33450     33451     33452     33451     33453
     33452     33453     33454     33455     33454     33456     33455     33456
     33457     33458     33457     33459     33458     33459     33460     33461
     33460     33462     33461     33462     33463     33464     33463     33465
     33464     33465     33466     33467     33466     33468     33467     33468
     33469     33470     33469     33471     33470     33471     33472     33473
     33472     33474     33473     33474     33475     33476     33475     33477
     33476     33477     33478     33479     33478     33480     33479     33480
     33481     33482     33481     33483     33482     33483     33484     33485
     33484     33486     33485     33486     33487     33488     33487     33489
     33488     33489     33490     33491     33490     33492     33491     33492
     33493     33494     33493     33495     33494     33495     33496     33497
     33496     33498     33497     33498     33499     33500     33499     33501
     33500     33501     33502     33503     33502     33504     33503     33504
     33505     33506     33505     33507     33506     33507     33508     33509
     33508     33510     33509     33510     33511     33512     33511     33513
     33512     33513     33514     33515     33514     33516     33515     33516
     33517     33518     33517     33519     33518     33519     33520     33521
     33520     33522     33521     33522     33523     33524     33523     33525
     33524     33525     33526     33527     33526     33528     33527     33528
     33529     33530     33529     33531     33530     33531     33532     33533
     33532     33534     33533     33534     33535     33536     33535     33537
     33536     33537     33538     33539     33538     33540     33539     33540
     33541     33542     33541     33543     33542     33543     33544     33545
     33544     33546     33545     33546     33547     33548     33547     33549
     33548     33549     33550     33551     33550     33552     33551     33552
     33553     33554     33553     33555     33554     33555     33556     33557
     33556     33558     33557     33558     33559     33560     33559     33561
     33560     33561     33562     33563     33562     33564     33563     33564
     33565     33566     33565     33567     33566     33567     33568     33569
     33568     33570     33569     33570     33571     33572     33571     33573
     33572     33573     33574     33575     33574     33576     33575     33576
     33577     33578     33577     33579     33578     33579     33580     33581
     33580     33582     33581     33582     33583     33584     33583     33585
     33584     33585     33586     33587     33586     33588     33587     33588
     33589     33590     33589     33591     33590     33591     33592     33593
     33592     33594     33593     33594     33595     33596     33595     33597
     33596     33597     33598     33599     33598     33600     33599     33600
     33601     33602     33601     33603     33602     33603     33604     33605
     33604     33606     33605     33606     33607     33608     33607     33609
     33608     33609     33610     33611     33610     33612     33611     33612
     33613     33614     33613     33615     33614     33615     33616     33617
     33616     33618     33617     33618     33619     33620     33619     33621
     33620     33621     33622     33623     33622     33624     33623     33624
     33625     33626     33625     33627     33626     33627     33628     33629
     33628     33630     33629     33630     33631     33632     33631     33633
     33632     33633     33634     33635     33634     33636     33635     33636
     33637     33638     33637     33639     33638     33639     33640     33641
     33640     33642     33641     33642     33643     33644     33643     33645
     33644     33645     33646     33647     33646     33648     33647     33648
     33649     33650     33649     33651     33650     33651     33652     33653
     33652     33654     33653     33654     33655     33656     33655     33657
     33656     33657     33658     33659     33658     33660     33659     33660
     33661     33662     33661     33663     33662     33663     33664     33665
     33664     33666     33665     33666     33667     33668     33667     33669
     33668     33669     33670     33671     33670     33672     33671     33672
     33673     33674     33673     33675     33674     33675     33676     33677
     33676     33678     33677     33678     33679     33680     33679     33681
     33680     33681     33682     33683     33682     33684     33683     33684
     33685     33686     33685     33687     33686     33687     33688     33689
     33688     33690     33689     33690     33691     33692     33691     33693
     33692     33693     33694     33695     33694     33696     33695     33696
     33697     33698     33697     33699     33698     33699     33700     33701
     33700     33702     33701     33702     33703     33704     33703     33705
     33704     33705     33706     33707     33706     33708     33707     33708
     33709     33710     33709     33711     33710     33711     33712     33713
     33712     33714     33713     33714     33715     33716     33715     33717
     33716     33717     33718     33719     33718     33720     33719     33720
     33721     33722     33721     33723     33722     33723     33724     33725
     33724     33726     33725     33726     33727     33728     33727     33729
     33728     33729     33730     33731     33730     33732     33731     33732
     33733     33734     33733     33735     33734     33735     33736     33737
     33736     33738     33737     33738     33739     33740     33739     33741
     33740     33741     33742     33743     33742     33744     33743     33744
     33745     33746     33745     33747     33746     33747     33748     33749
     33748     33750     33749     33750     33751     33752     33751     33753
     33752     33753     33754     33755     33754     33756     33755     33756
     33757     33758     33757     33759     33758     33759     33760     33761
     33760     33762     33761     33762     33763     33764     33763     33765
     33764     33765     33766     33767     33766     33768     33767     33768
     33769     33770     33769     33771     33770     33771     33772     33773
     33772     33774     33773     33774     33775     33776     33775     33777
     33776     33777     33778     33779     33778     33780     33779     33780
     33781     33782     33781     33783     33782     33783     33784     33785
     33784     33786     33785     33786     33787     33788     33787     33789
     33788     33789     33790     33791     33790     33792     33791     33792
     33793     33794     33793     33795     33794     33795     33796     33797
     33796     33798     33797     33798     33799     33800     33799     33801
     33800     33801     33802     33803     33802     33804     33803     33804
     33805     33806     33805     33807     33806     33807     33808     33809
     33808     33810     33809     33810     33811     33812     33811     33813
     33812     33813     33814     33815     33814     33816     33815     33816
     33817     33818     33817     33819     33818     33819     33820     33821
     33820     33822     33821     33822     33823     33824     33823     33825
     33824     33825     33826     33827     33826     33828     33827     33828
     33829     33830     33829     33831     33830     33831     33832     33833
     33832     33834     33833     33834     33835     33836     33835     33837
     33836     33837     33838     33839     33838     33840     33839     33840
     33841     33842     33841     33843     33842     33843     33844     33845
     33844     33846     33845     33846     33847     33848     33847     33849
     33848     33849     33850     33851     33850     33852     33851     33852
     33853     33854     33853     33855     33854     33855     33856     33857
     33856     33858     33857     33858     33859     33860     33859     33861
     33860     33861     33862     33863     33862     33864     33863     33864
     33865     33866     33865     33867     33866     33867     33868     33869
     33868     33870     33869     33870     33871     33872     33871     33873
     33872     33873     33874     33875     33874     33876     33875     33876
     33877     33878     33877     33879     33878     33879     33880     33881
     33880     33882     33881     33882     33883     33884     33883     33885
     33884     33885     33886     33887     33886     33888     33887     33888
     33889     33890     33889     33891     33890     33891     33892     33893
     33892     33894     33893     33894     33895     33896     33895     33897
     33896     33897     33898     33899     33898     33900     33899     33900
     33901     33902     33901     33903     33902     33903     33904     33905
     33904     33906     33905     33906     33907     33908     33907     33909
     33908     33909     33910     33911     33910     33912     33911     33912
     33913     33914     33913     33915     33914     33915     33916     33917
     33916     33918     33917     33918     33919     33920     33919     33921
     33920     33921     33922     33923     33922     33924     33923     33924
     33925     33926     33925     33927     33926     33927     33928     33929
     33928     33930     33929     33930     33931     33932     33931     33933
     33932     33933     33934     33935     33934     33936     33935     33936
     33937     33938     33937     33939     33938     33939     33940     33941
     33940     33942     33941     33942     33943     33944     33943     33945
     33944     33945     33946     33947     33946     33948     33947     33948
     33949     33950     33949     33951     33950     33951     33952     33953
     33952     33954     33953     33954     33955     33956     33955     33957
     33956     33957     33958     33959     33958     33960     33959     33960
     33961     33962     33961     33963     33962     33963     33964     33965
     33964     33966     33965     33966     33967     33968     33967     33969
     33968     33969     33970     33971     33970     33972     33971     33972
     33973     33974     33973     33975     33974     33975     33976     33977
     33976     33978     33977     33978     33979     33980     33979     33981
     33980     33981     33982     33983     33982     33984     33983     33984
     33985     33986     33985     33987     33986     33987     33988     33989
     33988     33990     33989     33990     33991     33992     33991     33993
     33992     33993     33994     33995     33994     33996     33995     33996
     33997     33998     33997     33999     33998     33999     34000     34001
     34000     34002     34001     34002     34003     34004     34003     34005
     34004     34005     34006     34007     34006     34008     34007     34008
     34009     34010     34009     34011     34010     34011     34012     34013
     34012     34014     34013     34014     34015     34016     34015     34017
     34016     34017     34018     34019     34018     34020     34019     34020
     34021     34022     34021     34023     34022     34023     34024     34025
     34024     34026     34025     34026     34027     34028     34027     34029
     34028     34029     34030     34031     34030     34032     34031     34032
     34033     34034     34033     34035     34034     34035     34036     34037
     34036     34038     34037     34038     34039     34040     34039     34041
     34040     34041     34042     34043     34042     34044     34043     34044
     34045     34046     34045     34047     34046     34047     34048     34049
     34048     34050     34049     34050     34051     34052     34051     34053
     34052     34053     34054     34055     34054     34056     34055     34056
     34057     34058     34057     34059     34058     34059     34060     34061
     34060     34062     34061     34062     34063     34064     34063     34065
     34064     34065     34066     34067     34066     34068     34067     34068
     34069     34070     34069     34071     34070     34071     34072     34073
     34072     34074     34073     34074     34075     34076     34075     34077
     34076     34077     34078     34079     34078     34080     34079     34080
     34081     34082     34081     34083     34082     34083     34084     34085
     34084     34086     34085     34086     34087     34088     34087     34089
     34088     34089     34090     34091     34090     34092     34091     34092
     34093     34094     34093     34095     34094     34095     34096     34097
     34096     34098     34097     34098     34099     34100     34099     34101
     34100     34101     34102     34103     34102     34104     34103     34104
     34105     34106     34105     34107     34106     34107     34108     34109
     34108     34110     34109     34110     34111     34112     34111     34113
     34112     34113     34114     34115     34114     34116     34115     34116
     34117     34118     34117     34119     34118     34119     34120     34121
     34120     34122     34121     34122     34123     34124     34123     34125
     34124     34125     34126     34127     34126     34128     34127     34128
     34129     34130     34129     34131     34130     34131     34132     34133
     34132     34134     34133     34134     34135     34136     34135     34137
     34136     34137     34138     34139     34138     34140     34139     34140
     34141     34142     34141     34143     34142     34143     34144     34145
     34144     34146     34145     34146     34147     34148     34147     34149
     34148     34149     34150     34151     34150     34152     34151     34152
     34153     34154     34153     34155     34154     34155     34156     34157
     34156     34158     34157     34158     34159     34160     34159     34161
     34160     34161     34162     34163     34162     34164     34163     34164
     34165     34166     34165     34167     34166     34167     34168     34169
     34168     34170     34169     34170     34171     34172     34171     34173
     34172     34173     34174     34175     34174     34176     34175     34176
     34177     34178     34177     34179     34178     34179     34180     34181
     34180     34182     34181     34182     34183     34184     34183     34185
     34184     34185     34186     34187     34186     34188     34187     34188
     34189     34190     34189     34191     34190     34191     34192     34193
     34192     34194     34193     34194     34195     34196     34195     34197
     34196     34197     34198     34199     34198     34200     34199     34200
     34201     34202     34201     34203     34202     34203     34204     34205
     34204     34206     34205     34206     34207     34208     34207     34209
     34208     34209     34210     34211     34210     34212     34211     34212
     34213     34214     34213     34215     34214     34215     34216     34217
     34216     34218     34217     34218     34219     34220     34219     34221
     34220     34221     34222     34223     34222     34224     34223     34224
     34225     34226     34225     34227     34226     34227     34228     34229
     34228     34230     34229     34230     34231     34232     34231     34233
     34232     34233     34234     34235     34234     34236     34235     34236
     34237     34238     34237     34239     34238     34239     34240     34241
     34240     34242     34241     34242     34243     34244     34243     34245
     34244     34245     34246     34247     34246     34248     34247     34248
     34249     34250     34249     34251     34250     34251     34252     34253
     34252     34254     34253     34254     34255     34256     34255     34257
     34256     34257     34258     34259     34258     34260     34259     34260
     34261     34262     34261     34263     34262     34263     34264     34265
     34264     34266     34265     34266     34267     34268     34267     34269
     34268     34269     34270     34271     34270     34272     34271     34272
     34273     34274     34273     34275     34274     34275     34276     34277
     34276     34278     34277     34278     34279     34280     34279     34281
     34280     34281     34282     34283     34282     34284     34283     34284
     34285     34286     34285     34287     34286     34287     34288     34289
     34288     34290     34289     34290     34291     34292     34291     34293
     34292     34293     34294     34295     34294     34296     34295     34296
     34297     34298     34297     34299     34298     34299     34300     34301
     34300     34302     34301     34302     34303     34304     34303     34305
     34304     34305     34306     34307     34306     34308     34307     34308
     34309     34310     34309     34311     34310     34311     34312     34313
     34312     34314     34313     34314     34315     34316     34315     34317
     34316     34317     34318     34319     34318     34320     34319     34320
     34321     34322     34321     34323     34322     34323     34324     34325
     34324     34326     34325     34326     34327     34328     34327     34329
     34328     34329     34330     34331     34330     34332     34331     34332
     34333     34334     34333     34335     34334     34335     34336     34337
     34336     34338     34337     34338     34339     34340     34339     34341
     34340     34341     34342     34343     34342     34344     34343     34344
     34345     34346     34345     34347     34346     34347     34348     34349
     34348     34350     34349     34350     34351     34352     34351     34353
     34352     34353     34354     34355     34354     34356     34355     34356
     34357     34358     34357     34359     34358     34359     34360     34361
     34360     34362     34361     34362     34363     34364     34363     34365
     34364     34365     34366     34367     34366     34368     34367     34368
     34369     34370     34369     34371     34370     34371     34372     34373
     34372     34374     34373     34374     34375     34376     34375     34377
     34376     34377     34378     34379     34378     34380     34379     34380
     34381     34382     34381     34383     34382     34383     34384     34385
     34384     34386     34385     34386     34387     34388     34387     34389
     34388     34389     34390     34391     34390     34392     34391     34392
     34393     34394     34393     34395     34394     34395     34396     34397
     34396     34398     34397     34398     34399     34400     34399     34401
     34400     34401     34402     34403     34402     34404     34403     34404
     34405     34406     34405     34407     34406     34407     34408     34409
     34408     34410     34409     34410     34411     34412     34411     34413
     34412     34413     34414     34415     34414     34416     34415     34416
     34417     34418     34417     34419     34418     34419     34420     34421
     34420     34422     34421     34422     34423     34424     34423     34425
     34424     34425     34426     34427     34426     34428     34427     34428
     34429     34430     34429     34431     34430     34431     34432     34433
     34432     34434     34433     34434     34435     34436     34435     34437
     34436     34437     34438     34439     34438     34440     34439     34440
     34441     34442     34441     34443     34442     34443     34444     34445
     34444     34446     34445     34446     34447     34448     34447     34449
     34448     34449     34450     34451     34450     34452     34451     34452
     34453     34454     34453     34455     34454     34455     34456     34457
     34456     34458     34457     34458     34459     34460     34459     34461
     34460     34461     34462     34463     34462     34464     34463     34464
     34465     34466     34465     34467     34466     34467     34468     34469
     34468     34470     34469     34470     34471     34472     34471     34473
     34472     34473     34474     34475     34474     34476     34475     34476
     34477     34478     34477     34479     34478     34479     34480     34481
     34480     34482     34481     34482     34483     34484     34483     34485
     34484     34485     34486     34487     34486     34488     34487     34488
     34489     34490     34489     34491     34490     34491     34492     34493
     34492     34494     34493     34494     34495     34496     34495     34497
     34496     34497     34498     34499     34498     34500     34499     34500
     34501     34502     34501     34503     34502     34503     34504     34505
     34504     34506     34505     34506     34507     34508     34507     34509
     34508     34509     34510     34511     34510     34512     34511     34512
     34513     34514     34513     34515     34514     34515     34516     34517
     34516     34518     34517     34518     34519     34520     34519     34521
     34520     34521     34522     34523     34522     34524     34523     34524
     34525     34526     34525     34527     34526     34527     34528     34529
     34528     34530     34529     34530     34531     34532     34531     34533
     34532     34533     34534     34535     34534     34536     34535     34536
     34537     34538     34537     34539     34538     34539     34540     34541
     34540     34542     34541     34542     34543     34544     34543     34545
     34544     34545     34546     34547     34546     34548     34547     34548
     34549     34550     34549     34551     34550     34551     34552     34553
     34552     34554     34553     34554     34555     34556     34555     34557
     34556     34557     34558     34559     34558     34560     34559     34560
     34561     34562     34561     34563     34562     34563     34564     34565
     34564     34566     34565     34566     34567     34568     34567     34569
     34568     34569     34570     34571     34570     34572     34571     34572
     34573     34574     34573     34575     34574     34575     34576     34577
     34576     34578     34577     34578     34579     34580     34579     34581
     34580     34581     34582     34583     34582     34584     34583     34584
     34585     34586     34585     34587     34586     34587     34588     34589
     34588     34590     34589     34590     34591     34592     34591     34593
     34592     34593     34594     34595     34594     34596     34595     34596
     34597     34598     34597     34599     34598     34599     34600     34601
     34600     34602     34601     34602     34603     34604     34603     34605
     34604     34605     34606     34607     34606     34608     34607     34608
     34609     34610     34609     34611     34610     34611     34612     34613
     34612     34614     34613     34614     34615     34616     34615     34617
     34616     34617     34618     34619     34618     34620     34619     34620
     34621     34622     34621     34623     34622     34623     34624     34625
     34624     34626     34625     34626     34627     34628     34627     34629
     34628     34629     34630     34631     34630     34632     34631     34632
     34633     34634     34633     34635     34634     34635     34636     34637
     34636     34638     34637     34638     34639     34640     34639     34641
     34640     34641     34642     34643     34642     34644     34643     34644
     34645     34646     34645     34647     34646     34647     34648     34649
     34648     34650     34649     34650     34651     34652     34651     34653
     34652     34653     34654     34655     34654     34656     34655     34656
     34657     34658     34657     34659     34658     34659     34660     34661
     34660     34662     34661     34662     34663     34664     34663     34665
     34664     34665     34666     34667     34666     34668     34667     34668
     34669     34670     34669     34671     34670     34671     34672     34673
     34672     34674     34673     34674     34675     34676     34675     34677
     34676     34677     34678     34679     34678     34680     34679     34680
     34681     34682     34681     34683     34682     34683     34684     34685
     34684     34686     34685     34686     34687     34688     34687     34689
     34688     34689     34690     34691     34690     34692     34691     34692
     34693     34694     34693     34695     34694     34695     34696     34697
     34696     34698     34697     34698     34699     34700     34699     34701
     34700     34701     34702     34703     34702     34704     34703     34704
     34705     34706     34705     34707     34706     34707     34708     34709
     34708     34710     34709     34710     34711     34712     34711     34713
     34712     34713     34714     34715     34714     34716     34715     34716
     34717     34718     34717     34719     34718     34719     34720     34721
     34720     34722     34721     34722     34723     34724     34723     34725
     34724     34725     34726     34727     34726     34728     34727     34728
     34729     34730     34729     34731     34730     34731     34732     34733
     34732     34734     34733     34734     34735     34736     34735     34737
     34736     34737     34738     34739     34738     34740     34739     34740
     34741     34742     34741     34743     34742     34743     34744     34745
     34744     34746     34745     34746     34747     34748     34747     34749
     34748     34749     34750     34751     34750     34752     34751     34752
     34753     34754     34753     34755     34754     34755     34756     34757
     34756     34758     34757     34758     34759     34760     34759     34761
     34760     34761     34762     34763     34762     34764     34763     34764
     34765     34766     34765     34767     34766     34767     34768     34769
     34768     34770     34769     34770     34771     34772     34771     34773
     34772     34773     34774     34775     34774     34776     34775     34776
     34777     34778     34777     34779     34778     34779     34780     34781
     34780     34782     34781     34782     34783     34784     34783     34785
     34784     34785     34786     34787     34786     34788     34787     34788
     34789     34790     34789     34791     34790     34791     34792     34793
     34792     34794     34793     34794     34795     34796     34795     34797
     34796     34797     34798     34799     34798     34800     34799     34800
     34801     34802     34801     34803     34802     34803     34804     34805
     34804     34806     34805     34806     34807     34808     34807     34809
     34808     34809     34810     34811     34810     34812     34811     34812
     34813     34814     34813     34815     34814     34815     34816     34817
     34816     34818     34817     34818     34819     34820     34819     34821
     34820     34821     34822     34823     34822     34824     34823     34824
     34825     34826     34825     34827     34826     34827     34828     34829
     34828     34830     34829     34830     34831     34832     34831     34833
     34832     34833     34834     34835     34834     34836     34835     34836
     34837     34838     34837     34839     34838     34839     34840     34841
     34840     34842     34841     34842     34843     34844     34843     34845
     34844     34845     34846     34847     34846     34848     34847     34848
     34849     34850     34849     34851     34850     34851     34852     34853
     34852     34854     34853     34854     34855     34856     34855     34857
     34856     34857     34858     34859     34858     34860     34859     34860
     34861     34862     34861     34863     34862     34863     34864     34865
     34864     34866     34865     34866     34867     34868     34867     34869
     34868     34869     34870     34871     34870     34872     34871     34872
     34873     34874     34873     34875     34874     34875     34876     34877
     34876     34878     34877     34878     34879     34880     34879     34881
     34880     34881     34882     34883     34882     34884     34883     34884
     34885     34886     34885     34887     34886     34887     34888     34889
     34888     34890     34889     34890     34891     34892     34891     34893
     34892     34893     34894     34895     34894     34896     34895     34896
     34897     34898     34897     34899     34898     34899     34900     34901
     34900     34902     34901     34902     34903     34904     34903     34905
     34904     34905     34906     34907     34906     34908     34907     34908
     34909     34910     34909     34911     34910     34911     34912     34913
     34912     34914     34913     34914     34915     34916     34915     34917
     34916     34917     34918     34919     34918     34920     34919     34920
     34921     34922     34921     34923     34922     34923     34924     34925
     34924     34926     34925     34926     34927     34928     34927     34929
     34928     34929     34930     34931     34930     34932     34931     34932
     34933     34934     34933     34935     34934     34935     34936     34937
     34936     34938     34937     34938     34939     34940     34939     34941
     34940     34941     34942     34943     34942     34944     34943     34944
     34945     34946     34945     34947     34946     34947     34948     34949
     34948     34950     34949     34950     34951     34952     34951     34953
     34952     34953     34954     34955     34954     34956     34955     34956
     34957     34958     34957     34959     34958     34959     34960     34961
     34960     34962     34961     34962     34963     34964     34963     34965
     34964     34965     34966     34967     34966     34968     34967     34968
     34969     34970     34969     34971     34970     34971     34972     34973
     34972     34974     34973     34974     34975     34976     34975     34977
     34976     34977     34978     34979     34978     34980     34979     34980
     34981     34982     34981     34983     34982     34983     34984     34985
     34984     34986     34985     34986     34987     34988     34987     34989
     34988     34989     34990     34991     34990     34992     34991     34992
     34993     34994     34993     34995     34994     34995     34996     34997
     34996     34998     34997     34998     34999     35000     34999     35001
     35000     35001     35002     35003     35002     35004     35003     35004
     35005     35006     35005     35007     35006     35007     35008     35009
     35008     35010     35009     35010     35011     35012     35011     35013
     35012     35013     35014     35015     35014     35016     35015     35016
     35017     35018     35017     35019     35018     35019     35020     35021
     35020     35022     35021     35022     35023     35024     35023     35025
     35024     35025     35026     35027     35026     35028     35027     35028
     35029     35030     35029     35031     35030     35031     35032     35033
     35032     35034     35033     35034     35035     35036     35035     35037
     35036     35037     35038     35039     35038     35040     35039     35040
     35041     35042     35041     35043     35042     35043     35044     35045
     35044     35046     35045     35046     35047     35048     35047     35049
     35048     35049     35050     35051     35050     35052     35051     35052
     35053     35054     35053     35055     35054     35055     35056     35057
     35056     35058     35057     35058     35059     35060     35059     35061
     35060     35061     35062     35063     35062     35064     35063     35064
     35065     35066     35065     35067     35066     35067     35068     35069
     35068     35070     35069     35070     35071     35072     35071     35073
     35072     35073     35074     35075     35074     35076     35075     35076
     35077     35078     35077     35079     35078     35079     35080     35081
     35080     35082     35081     35082     35083     35084     35083     35085
     35084     35085     35086     35087     35086     35088     35087     35088
     35089     35090     35089     35091     35090     35091     35092     35093
     35092     35094     35093     35094     35095     35096     35095     35097
     35096     35097     35098     35099     35098     35100     35099     35100
     35101     35102     35101     35103     35102     35103     35104     35105
     35104     35106     35105     35106     35107     35108     35107     35109
     35108     35109     35110     35111     35110     35112     35111     35112
     35113     35114     35113     35115     35114     35115     35116     35117
     35116     35118     35117     35118     35119     35120     35119     35121
     35120     35121     35122     35123     35122     35124     35123     35124
     35125     35126     35125     35127     35126     35127     35128     35129
     35128     35130     35129     35130     35131     35132     35131     35133
     35132     35133     35134     35135     35134     35136     35135     35136
     35137     35138     35137     35139     35138     35139     35140     35141
     35140     35142     35141     35142     35143     35144     35143     35145
     35144     35145     35146     35147     35146     35148     35147     35148
     35149     35150     35149     35151     35150     35151     35152     35153
     35152     35154     35153     35154     35155     35156     35155     35157
     35156     35157     35158     35159     35158     35160     35159     35160
     35161     35162     35161     35163     35162     35163     35164     35165
     35164     35166     35165     35166     35167     35168     35167     35169
     35168     35169     35170     35171     35170     35172     35171     35172
     35173     35174     35173     35175     35174     35175     35176     35177
     35176     35178     35177     35178     35179     35180     35179     35181
     35180     35181     35182     35183     35182     35184     35183     35184
     35185     35186     35185     35187     35186     35187     35188     35189
     35188     35190     35189     35190     35191     35192     35191     35193
     35192     35193     35194     35195     35194     35196     35195     35196
     35197     35198     35197     35199     35198     35199     35200     35201
     35200     35202     35201     35202     35203     35204     35203     35205
     35204     35205     35206     35207     35206     35208     35207     35208
     35209     35210     35209     35211     35210     35211     35212     35213
     35212     35214     35213     35214     35215     35216     35215     35217
     35216     35217     35218     35219     35218     35220     35219     35220
     35221     35222     35221     35223     35222     35223     35224     35225
     35224     35226     35225     35226     35227     35228     35227     35229
     35228     35229     35230     35231     35230     35232     35231     35232
     35233     35234     35233     35235     35234     35235     35236     35237
     35236     35238     35237     35238     35239     35240     35239     35241
     35240     35241     35242     35243     35242     35244     35243     35244
     35245     35246     35245     35247     35246     35247     35248     35249
     35248     35250     35249     35250     35251     35252     35251     35253
     35252     35253     35254     35255     35254     35256     35255     35256
     35257     35258     35257     35259     35258     35259     35260     35261
     35260     35262     35261     35262     35263     35264     35263     35265
     35264     35265     35266     35267     35266     35268     35267     35268
     35269     35270     35269     35271     35270     35271     35272     35273
     35272     35274     35273     35274     35275     35276     35275     35277
     35276     35277     35278     35279     35278     35280     35279     35280
     35281     35282     35281     35283     35282     35283     35284     35285
     35284     35286     35285     35286     35287     35288     35287     35289
     35288     35289     35290     35291     35290     35292     35291     35292
     35293     35294     35293     35295     35294     35295     35296     35297
     35296     35298     35297     35298     35299     35300     35299     35301
     35300     35301     35302     35303     35302     35304     35303     35304
     35305     35306     35305     35307     35306     35307     35308     35309
     35308     35310     35309     35310     35311     35312     35311     35313
     35312     35313     35314     35315     35314     35316     35315     35316
     35317     35318     35317     35319     35318     35319     35320     35321
     35320     35322     35321     35322     35323     35324     35323     35325
     35324     35325     35326     35327     35326     35328     35327     35328
     35329     35330     35329     35331     35330     35331     35332     35333
     35332     35334     35333     35334     35335     35336     35335     35337
     35336     35337     35338     35339     35338     35340     35339     35340
     35341     35342     35341     35343     35342     35343     35344     35345
     35344     35346     35345     35346     35347     35348     35347     35349
     35348     35349     35350     35351     35350     35352     35351     35352
     35353     35354     35353     35355     35354     35355     35356     35357
     35356     35358     35357     35358     35359     35360     35359     35361
     35360     35361     35362     35363     35362     35364     35363     35364
     35365     35366     35365     35367     35366     35367     35368     35369
     35368     35370     35369     35370     35371     35372     35371     35373
     35372     35373     35374     35375     35374     35376     35375     35376
     35377     35378     35377     35379     35378     35379     35380     35381
     35380     35382     35381     35382     35383     35384     35383     35385
     35384     35385     35386     35387     35386     35388     35387     35388
     35389     35390     35389     35391     35390     35391     35392     35393
     35392     35394     35393     35394     35395     35396     35395     35397
     35396     35397     35398     35399     35398     35400     35399     35400
     35401     35402     35401     35403     35402     35403     35404     35405
     35404     35406     35405     35406     35407     35408     35407     35409
     35408     35409     35410     35411     35410     35412     35411     35412
     35413     35414     35413     35415     35414     35415     35416     35417
     35416     35418     35417     35418     35419     35420     35419     35421
     35420     35421     35422     35423     35422     35424     35423     35424
     35425     35426     35425     35427     35426     35427     35428     35429
     35428     35430     35429     35430     35431     35432     35431     35433
     35432     35433     35434     35435     35434     35436     35435     35436
     35437     35438     35437     35439     35438     35439     35440     35441
     35440     35442     35441     35442     35443     35444     35443     35445
     35444     35445     35446     35447     35446     35448     35447     35448
     35449     35450     35449     35451     35450     35451     35452     35453
     35452     35454     35453     35454     35455     35456     35455     35457
     35456     35457     35458     35459     35458     35460     35459     35460
     35461     35462     35461     35463     35462     35463     35464     35465
     35464     35466     35465     35466     35467     35468     35467     35469
     35468     35469     35470     35471     35470     35472     35471     35472
     35473     35474     35473     35475     35474     35475     35476     35477
     35476     35478     35477     35478     35479     35480     35479     35481
     35480     35481     35482     35483     35482     35484     35483     35484
     35485     35486     35485     35487     35486     35487     35488     35489
     35488     35490     35489     35490     35491     35492     35491     35493
     35492     35493     35494     35495     35494     35496     35495     35496
     35497     35498     35497     35499     35498     35499     35500     35501
     35500     35502     35501     35502     35503     35504     35503     35505
     35504     35505     35506     35507     35506     35508     35507     35508
     35509     35510     35509     35511     35510     35511     35512     35513
     35512     35514     35513     35514     35515     35516     35515     35517
     35516     35517     35518     35519     35518     35520     35519     35520
     35521     35522     35521     35523     35522     35523     35524     35525
     35524     35526     35525     35526     35527     35528     35527     35529
     35528     35529     35530     35531     35530     35532     35531     35532
     35533     35534     35533     35535     35534     35535     35536     35537
     35536     35538     35537     35538     35539     35540     35539     35541
     35540     35541     35542     35543     35542     35544     35543     35544
     35545     35546     35545     35547     35546     35547     35548     35549
     35548     35550     35549     35550     35551     35552     35551     35553
     35552     35553     35554     35555     35554     35556     35555     35556
     35557     35558     35557     35559     35558     35559     35560     35561
     35560     35562     35561     35562     35563     35564     35563     35565
     35564     35565     35566     35567     35566     35568     35567     35568
     35569     35570     35569     35571     35570     35571     35572     35573
     35572     35574     35573     35574     35575     35576     35575     35577
     35576     35577     35578     35579     35578     35580     35579     35580
     35581     35582     35581     35583     35582     35583     35584     35585
     35584     35586     35585     35586     35587     35588     35587     35589
     35588     35589     35590     35591     35590     35592     35591     35592
     35593     35594     35593     35595     35594     35595     35596     35597
     35596     35598     35597     35598     35599     35600     35599     35601
     35600     35601     35602     35603     35602     35604     35603     35604
     35605     35606     35605     35607     35606     35607     35608     35609
     35608     35610     35609     35610     35611     35612     35611     35613
     35612     35613     35614     35615     35614     35616     35615     35616
     35617     35618     35617     35619     35618     35619     35620     35621
     35620     35622     35621     35622     35623     35624     35623     35625
     35624     35625     35626     35627     35626     35628     35627     35628
     35629     35630     35629     35631     35630     35631     35632     35633
     35632     35634     35633     35634     35635     35636     35635     35637
     35636     35637     35638     35639     35638     35640     35639     35640
     35641     35642     35641     35643     35642     35643     35644     35645
     35644     35646     35645     35646     35647     35648     35647     35649
     35648     35649     35650     35651     35650     35652     35651     35652
     35653     35654     35653     35655     35654     35655     35656     35657
     35656     35658     35657     35658     35659     35660     35659     35661
     35660     35661     35662     35663     35662     35664     35663     35664
     35665     35666     35665     35667     35666     35667     35668     35669
     35668     35670     35669     35670     35671     35672     35671     35673
     35672     35673     35674     35675     35674     35676     35675     35676
     35677     35678     35677     35679     35678     35679     35680     35681
     35680     35682     35681     35682     35683     35684     35683     35685
     35684     35685     35686     35687     35686     35688     35687     35688
     35689     35690     35689     35691     35690     35691     35692     35693
     35692     35694     35693     35694     35695     35696     35695     35697
     35696     35697     35698     35699     35698     35700     35699     35700
     35701     35702     35701     35703     35702     35703     35704     35705
     35704     35706     35705     35706     35707     35708     35707     35709
     35708     35709     35710     35711     35710     35712     35711     35712
     35713     35714     35713     35715     35714     35715     35716     35717
     35716     35718     35717     35718     35719     35720     35719     35721
     35720     35721     35722     35723     35722     35724     35723     35724
     35725     35726     35725     35727     35726     35727     35728     35729
     35728     35730     35729     35730     35731     35732     35731     35733
     35732     35733     35734     35735     35734     35736     35735     35736
     35737     35738     35737     35739     35738     35739     35740     35741
     35740     35742     35741     35742     35743     35744     35743     35745
     35744     35745     35746     35747     35746     35748     35747     35748
     35749     35750     35749     35751     35750     35751     35752     35753
     35752     35754     35753     35754     35755     35756     35755     35757
     35756     35757     35758     35759     35758     35760     35759     35760
     35761     35762     35761     35763     35762     35763     35764     35765
     35764     35766     35765     35766     35767     35768     35767     35769
     35768     35769     35770     35771     35770     35772     35771     35772
     35773     35774     35773     35775     35774     35775     35776     35777
     35776     35778     35777     35778     35779     35780     35779     35781
     35780     35781     35782     35783     35782     35784     35783     35784
     35785     35786     35785     35787     35786     35787     35788     35789
     35788     35790     35789     35790     35791     35792     35791     35793
     35792     35793     35794     35795     35794     35796     35795     35796
     35797     35798     35797     35799     35798     35799     35800     35801
     35800     35802     35801     35802     35803     35804     35803     35805
     35804     35805     35806     35807     35806     35808     35807     35808
     35809     35810     35809     35811     35810     35811     35812     35813
     35812     35814     35813     35814     35815     35816     35815     35817
     35816     35817     35818     35819     35818     35820     35819     35820
     35821     35822     35821     35823     35822     35823     35824     35825
     35824     35826     35825     35826     35827     35828     35827     35829
     35828     35829     35830     35831     35830     35832     35831     35832
     35833     35834     35833     35835     35834     35835     35836     35837
     35836     35838     35837     35838     35839     35840     35839     35841
     35840     35841     35842     35843     35842     35844     35843     35844
     35845     35846     35845     35847     35846     35847     35848     35849
     35848     35850     35849     35850     35851     35852     35851     35853
     35852     35853     35854     35855     35854     35856     35855     35856
     35857     35858     35857     35859     35858     35859     35860     35861
     35860     35862     35861     35862     35863     35864     35863     35865
     35864     35865     35866     35867     35866     35868     35867     35868
     35869     35870     35869     35871     35870     35871     35872     35873
     35872     35874     35873     35874     35875     35876     35875     35877
     35876     35877     35878     35879     35878     35880     35879     35880
     35881     35882     35881     35883     35882     35883     35884     35885
     35884     35886     35885     35886     35887     35888     35887     35889
     35888     35889     35890     35891     35890     35892     35891     35892
     35893     35894     35893     35895     35894     35895     35896     35897
     35896     35898     35897     35898     35899     35900     35899     35901
     35900     35901     35902     35903     35902     35904     35903     35904
     35905     35906     35905     35907     35906     35907     35908     35909
     35908     35910     35909     35910     35911     35912     35911     35913
     35912     35913     35914     35915     35914     35916     35915     35916
     35917     35918     35917     35919     35918     35919     35920     35921
     35920     35922     35921     35922     35923     35924     35923     35925
     35924     35925     35926     35927     35926     35928     35927     35928
     35929     35930     35929     35931     35930     35931     35932     35933
     35932     35934     35933     35934     35935     35936     35935     35937
     35936     35937     35938     35939     35938     35940     35939     35940
     35941     35942     35941     35943     35942     35943     35944     35945
     35944     35946     35945     35946     35947     35948     35947     35949
     35948     35949     35950     35951     35950     35952     35951     35952
     35953     35954     35953     35955     35954     35955     35956     35957
     35956     35958     35957     35958     35959     35960     35959     35961
     35960     35961     35962     35963     35962     35964     35963     35964
     35965     35966     35965     35967     35966     35967     35968     35969
     35968     35970     35969     35970     35971     35972     35971     35973
     35972     35973     35974     35975     35974     35976     35975     35976
     35977     35978     35977     35979     35978     35979     35980     35981
     35980     35982     35981     35982     35983     35984     35983     35985
     35984     35985     35986     35987     35986     35988     35987     35988
     35989     35990     35989     35991     35990     35991     35992     35993
     35992     35994     35993     35994     35995     35996     35995     35997
     35996     35997     35998     35999     35998     36000     35999     36000
     36001     36002     36001     36003     36002     36003     36004     36005
     36004     36006     36005     36006     36007     36008     36007     36009
     36008     36009     36010     36011     36010     36012     36011     36012
     36013     36014     36013     36015     36014     36015     36016     36017
     36016     36018     36017     36018     36019     36020     36019     36021
     36020     36021     36022     36023     36022     36024     36023     36024
     36025     36026     36025     36027     36026     36027     36028     36029
     36028     36030     36029     36030     36031     36032     36031     36033
     36032     36033     36034     36035     36034     36036     36035     36036
     36037     36038     36037     36039     36038     36039     36040     36041
     36040     36042     36041     36042     36043     36044     36043     36045
     36044     36045     36046     36047     36046     36048     36047     36048
     36049     36050     36049     36051     36050     36051     36052     36053
     36052     36054     36053     36054     36055     36056     36055     36057
     36056     36057     36058     36059     36058     36060     36059     36060
     36061     36062     36061     36063     36062     36063     36064     36065
     36064     36066     36065     36066     36067     36068     36067     36069
     36068     36069     36070     36071     36070     36072     36071     36072
     36073     36074     36073     36075     36074     36075     36076     36077
     36076     36078     36077     36078     36079     36080     36079     36081
     36080     36081     36082     36083     36082     36084     36083     36084
     36085     36086     36085     36087     36086     36087     36088     36089
     36088     36090     36089     36090     36091     36092     36091     36093
     36092     36093     36094     36095     36094     36096     36095     36096
     36097     36098     36097     36099     36098     36099     36100     36101
     36100     36102     36101     36102     36103     36104     36103     36105
     36104     36105     36106     36107     36106     36108     36107     36108
     36109     36110     36109     36111     36110     36111     36112     36113
     36112     36114     36113     36114     36115     36116     36115     36117
     36116     36117     36118     36119     36118     36120     36119     36120
     36121     36122     36121     36123     36122     36123     36124     36125
     36124     36126     36125     36126     36127     36128     36127     36129
     36128     36129     36130     36131     36130     36132     36131     36132
     36133     36134     36133     36135     36134     36135     36136     36137
     36136     36138     36137     36138     36139     36140     36139     36141
     36140     36141     36142     36143     36142     36144     36143     36144
     36145     36146     36145     36147     36146     36147     36148     36149
     36148     36150     36149     36150     36151     36152     36151     36153
     36152     36153     36154     36155     36154     36156     36155     36156
     36157     36158     36157     36159     36158     36159     36160     36161
     36160     36162     36161     36162     36163     36164     36163     36165
     36164     36165     36166     36167     36166     36168     36167     36168
     36169     36170     36169     36171     36170     36171     36172     36173
     36172     36174     36173     36174     36175     36176     36175     36177
     36176     36177     36178     36179     36178     36180     36179     36180
     36181     36182     36181     36183     36182     36183     36184     36185
     36184     36186     36185     36186     36187     36188     36187     36189
     36188     36189     36190     36191     36190     36192     36191     36192
     36193     36194     36193     36195     36194     36195     36196     36197
     36196     36198     36197     36198     36199     36200     36199     36201
     36200     36201     36202     36203     36202     36204     36203     36204
     36205     36206     36205     36207     36206     36207     36208     36209
     36208     36210     36209     36210     36211     36212     36211     36213
     36212     36213     36214     36215     36214     36216     36215     36216
     36217     36218     36217     36219     36218     36219     36220     36221
     36220     36222     36221     36222     36223     36224     36223     36225
     36224     36225     36226     36227     36226     36228     36227     36228
     36229     36230     36229     36231     36230     36231     36232     36233
     36232     36234     36233     36234     36235     36236     36235     36237
     36236     36237     36238     36239     36238     36240     36239     36240
     36241     36242     36241     36243     36242     36243     36244     36245
     36244     36246     36245     36246     36247     36248     36247     36249
     36248     36249     36250     36251     36250     36252     36251     36252
     36253     36254     36253     36255     36254     36255     36256     36257
     36256     36258     36257     36258     36259     36260     36259     36261
     36260     36261     36262     36263     36262     36264     36263     36264
     36265     36266     36265     36267     36266     36267     36268     36269
     36268     36270     36269     36270     36271     36272     36271     36273
     36272     36273     36274     36275     36274     36276     36275     36276
     36277     36278     36277     36279     36278     36279     36280     36281
     36280     36282     36281     36282     36283     36284     36283     36285
     36284     36285     36286     36287     36286     36288     36287     36288
     36289     36290     36289     36291     36290     36291     36292     36293
     36292     36294     36293     36294     36295     36296     36295     36297
     36296     36297     36298     36299     36298     36300     36299     36300
     36301     36302     36301     36303     36302     36303     36304     36305
     36304     36306     36305     36306     36307     36308     36307     36309
     36308     36309     36310     36311     36310     36312     36311     36312
     36313     36314     36313     36315     36314     36315     36316     36317
     36316     36318     36317     36318     36319     36320     36319     36321
     36320     36321     36322     36323     36322     36324     36323     36324
     36325     36326     36325     36327     36326     36327     36328     36329
     36328     36330     36329     36330     36331     36332     36331     36333
     36332     36333     36334     36335     36334     36336     36335     36336
     36337     36338     36337     36339     36338     36339     36340     36341
     36340     36342     36341     36342     36343     36344     36343     36345
     36344     36345     36346     36347     36346     36348     36347     36348
     36349     36350     36349     36351     36350     36351     36352     36353
     36352     36354     36353     36354     36355     36356     36355     36357
     36356     36357     36358     36359     36358     36360     36359     36360
     36361     36362     36361     36363     36362     36363     36364     36365
     36364     36366     36365     36366     36367     36368     36367     36369
     36368     36369     36370     36371     36370     36372     36371     36372
     36373     36374     36373     36375     36374     36375     36376     36377
     36376     36378     36377     36378     36379     36380     36379     36381
     36380     36381     36382     36383     36382     36384     36383     36384
     36385     36386     36385     36387     36386     36387     36388     36389
     36388     36390     36389     36390     36391     36392     36391     36393
     36392     36393     36394     36395     36394     36396     36395     36396
     36397     36398     36397     36399     36398     36399     36400     36401
     36400     36402     36401     36402     36403     36404     36403     36405
     36404     36405     36406     36407     36406     36408     36407     36408
     36409     36410     36409     36411     36410     36411     36412     36413
     36412     36414     36413     36414     36415     36416     36415     36417
     36416     36417     36418     36419     36418     36420     36419     36420
     36421     36422     36421     36423     36422     36423     36424     36425
     36424     36426     36425     36426     36427     36428     36427     36429
     36428     36429     36430     36431     36430     36432     36431     36432
     36433     36434     36433     36435     36434     36435     36436     36437
     36436     36438     36437     36438     36439     36440     36439     36441
     36440     36441     36442     36443     36442     36444     36443     36444
     36445     36446     36445     36447     36446     36447     36448     36449
     36448     36450     36449     36450     36451     36452     36451     36453
     36452     36453     36454     36455     36454     36456     36455     36456
     36457     36458     36457     36459     36458     36459     36460     36461
     36460     36462     36461     36462     36463     36464     36463     36465
     36464     36465     36466     36467     36466     36468     36467     36468
     36469     36470     36469     36471     36470     36471     36472     36473
     36472     36474     36473     36474     36475     36476     36475     36477
     36476     36477     36478     36479     36478     36480     36479     36480
     36481     36482     36481     36483     36482     36483     36484     36485
     36484     36486     36485     36486     36487     36488     36487     36489
     36488     36489     36490     36491     36490     36492     36491     36492
     36493     36494     36493     36495     36494     36495     36496     36497
     36496     36498     36497     36498     36499     36500     36499     36501
     36500     36501     36502     36503     36502     36504     36503     36504
     36505     36506     36505     36507     36506     36507     36508     36509
     36508     36510     36509     36510     36511     36512     36511     36513
     36512     36513     36514     36515     36514     36516     36515     36516
     36517     36518     36517     36519     36518     36519     36520     36521
     36520     36522     36521     36522     36523     36524     36523     36525
     36524     36525     36526     36527     36526     36528     36527     36528
     36529     36530     36529     36531     36530     36531     36532     36533
     36532     36534     36533     36534     36535     36536     36535     36537
     36536     36537     36538     36539     36538     36540     36539     36540
     36541     36542     36541     36543     36542     36543     36544     36545
     36544     36546     36545     36546     36547     36548     36547     36549
     36548     36549     36550     36551     36550     36552     36551     36552
     36553     36554     36553     36555     36554     36555     36556     36557
     36556     36558     36557     36558     36559     36560     36559     36561
     36560     36561     36562     36563     36562     36564     36563     36564
     36565     36566     36565     36567     36566     36567     36568     36569
     36568     36570     36569     36570     36571     36572     36571     36573
     36572     36573     36574     36575     36574     36576     36575     36576
     36577     36578     36577     36579     36578     36579     36580     36581
     36580     36582     36581     36582     36583     36584     36583     36585
     36584     36585     36586     36587     36586     36588     36587     36588
     36589     36590     36589     36591     36590     36591     36592     36593
     36592     36594     36593     36594     36595     36596     36595     36597
     36596     36597     36598     36599     36598     36600     36599     36600
     36601     36602     36601     36603     36602     36603     36604     36605
     36604     36606     36605     36606     36607     36608     36607     36609
     36608     36609     36610     36611     36610     36612     36611     36612
     36613     36614     36613     36615     36614     36615     36616     36617
     36616     36618     36617     36618     36619     36620     36619     36621
     36620     36621     36622     36623     36622     36624     36623     36624
     36625     36626     36625     36627     36626     36627     36628     36629
     36628     36630     36629     36630     36631     36632     36631     36633
     36632     36633     36634     36635     36634     36636     36635     36636
     36637     36638     36637     36639     36638     36639     36640     36641
     36640     36642     36641     36642     36643     36644     36643     36645
     36644     36645     36646     36647     36646     36648     36647     36648
     36649     36650     36649     36651     36650     36651     36652     36653
     36652     36654     36653     36654     36655     36656     36655     36657
     36656     36657     36658     36659     36658     36660     36659     36660
     36661     36662     36661     36663     36662     36663     36664     36665
     36664     36666     36665     36666     36667     36668     36667     36669
     36668     36669     36670     36671     36670     36672     36671     36672
     36673     36674     36673     36675     36674     36675     36676     36677
     36676     36678     36677     36678     36679     36680     36679     36681
     36680     36681     36682     36683     36682     36684     36683     36684
     36685     36686     36685     36687     36686     36687     36688     36689
     36688     36690     36689     36690     36691     36692     36691     36693
     36692     36693     36694     36695     36694     36696     36695     36696
     36697     36698     36697     36699     36698     36699     36700     36701
     36700     36702     36701     36702     36703     36704     36703     36705
     36704     36705     36706     36707     36706     36708     36707     36708
     36709     36710     36709     36711     36710     36711     36712     36713
     36712     36714     36713     36714     36715     36716     36715     36717
     36716     36717     36718     36719     36718     36720     36719     36720
     36721     36722     36721     36723     36722     36723     36724     36725
     36724     36726     36725     36726     36727     36728     36727     36729
     36728     36729     36730     36731     36730     36732     36731     36732
     36733     36734     36733     36735     36734     36735     36736     36737
     36736     36738     36737     36738     36739     36740     36739     36741
     36740     36741     36742     36743     36742     36744     36743     36744
     36745     36746     36745     36747     36746     36747     36748     36749
     36748     36750     36749     36750     36751     36752     36751     36753
     36752     36753     36754     36755     36754     36756     36755     36756
     36757     36758     36757     36759     36758     36759     36760     36761
     36760     36762     36761     36762     36763     36764     36763     36765
     36764     36765     36766     36767     36766     36768     36767     36768
     36769     36770     36769     36771     36770     36771     36772     36773
     36772     36774     36773     36774     36775     36776     36775     36777
     36776     36777     36778     36779     36778     36780     36779     36780
     36781     36782     36781     36783     36782     36783     36784     36785
     36784     36786     36785     36786     36787     36788     36787     36789
     36788     36789     36790     36791     36790     36792     36791     36792
     36793     36794     36793     36795     36794     36795     36796     36797
     36796     36798     36797     36798     36799     36800     36799     36801
     36800     36801     36802     36803     36802     36804     36803     36804
     36805     36806     36805     36807     36806     36807     36808     36809
     36808     36810     36809     36810     36811     36812     36811     36813
     36812     36813     36814     36815     36814     36816     36815     36816
     36817     36818     36817     36819     36818     36819     36820     36821
     36820     36822     36821     36822     36823     36824     36823     36825
     36824     36825     36826     36827     36826     36828     36827     36828
     36829     36830     36829     36831     36830     36831     36832     36833
     36832     36834     36833     36834     36835     36836     36835     36837
     36836     36837     36838     36839     36838     36840     36839     36840
     36841     36842     36841     36843     36842     36843     36844     36845
     36844     36846     36845     36846     36847     36848     36847     36849
     36848     36849     36850     36851     36850     36852     36851     36852
     36853     36854     36853     36855     36854     36855     36856     36857
     36856     36858     36857     36858     36859     36860     36859     36861
     36860     36861     36862     36863     36862     36864     36863     36864
     36865     36866     36865     36867     36866     36867     36868     36869
     36868     36870     36869     36870     36871     36872     36871     36873
     36872     36873     36874     36875     36874     36876     36875     36876
     36877     36878     36877     36879     36878     36879     36880     36881
     36880     36882     36881     36882     36883     36884     36883     36885
     36884     36885     36886     36887     36886     36888     36887     36888
     36889     36890     36889     36891     36890     36891     36892     36893
     36892     36894     36893     36894     36895     36896     36895     36897
     36896     36897     36898     36899     36898     36900     36899     36900
     36901     36902     36901     36903     36902     36903     36904     36905
     36904     36906     36905     36906     36907     36908     36907     36909
     36908     36909     36910     36911     36910     36912     36911     36912
     36913     36914     36913     36915     36914     36915     36916     36917
     36916     36918     36917     36918     36919     36920     36919     36921
     36920     36921     36922     36923     36922     36924     36923     36924
     36925     36926     36925     36927     36926     36927     36928     36929
     36928     36930     36929     36930     36931     36932     36931     36933
     36932     36933     36934     36935     36934     36936     36935     36936
     36937     36938     36937     36939     36938     36939     36940     36941
     36940     36942     36941     36942     36943     36944     36943     36945
     36944     36945     36946     36947     36946     36948     36947     36948
     36949     36950     36949     36951     36950     36951     36952     36953
     36952     36954     36953     36954     36955     36956     36955     36957
     36956     36957     36958     36959     36958     36960     36959     36960
     36961     36962     36961     36963     36962     36963     36964     36965
     36964     36966     36965     36966     36967     36968     36967     36969
     36968     36969     36970     36971     36970     36972     36971     36972
     36973     36974     36973     36975     36974     36975     36976     36977
     36976     36978     36977     36978     36979     36980     36979     36981
     36980     36981     36982     36983     36982     36984     36983     36984
     36985     36986     36985     36987     36986     36987     36988     36989
     36988     36990     36989     36990     36991     36992     36991     36993
     36992     36993     36994     36995     36994     36996     36995     36996
     36997     36998     36997     36999     36998     36999     37000     37001
     37000     37002     37001     37002     37003     37004     37003     37005
     37004     37005     37006     37007     37006     37008     37007     37008
     37009     37010     37009     37011     37010     37011     37012     37013
     37012     37014     37013     37014     37015     37016     37015     37017
     37016     37017     37018     37019     37018     37020     37019     37020
     37021     37022     37021     37023     37022     37023     37024     37025
     37024     37026     37025     37026     37027     37028     37027     37029
     37028     37029     37030     37031     37030     37032     37031     37032
     37033     37034     37033     37035     37034     37035     37036     37037
     37036     37038     37037     37038     37039     37040     37039     37041
     37040     37041     37042     37043     37042     37044     37043     37044
     37045     37046     37045     37047     37046     37047     37048     37049
     37048     37050     37049     37050     37051     37052     37051     37053
     37052     37053     37054     37055     37054     37056     37055     37056
     37057     37058     37057     37059     37058     37059     37060     37061
     37060     37062     37061     37062     37063     37064     37063     37065
     37064     37065     37066     37067     37066     37068     37067     37068
     37069     37070     37069     37071     37070     37071     37072     37073
     37072     37074     37073     37074     37075     37076     37075     37077
     37076     37077     37078     37079     37078     37080     37079     37080
     37081     37082     37081     37083     37082     37083     37084     37085
     37084     37086     37085     37086     37087     37088     37087     37089
     37088     37089     37090     37091     37090     37092     37091     37092
     37093     37094     37093     37095     37094     37095     37096     37097
     37096     37098     37097     37098     37099     37100     37099     37101
     37100     37101     37102     37103     37102     37104     37103     37104
     37105     37106     37105     37107     37106     37107     37108     37109
     37108     37110     37109     37110     37111     37112     37111     37113
     37112     37113     37114     37115     37114     37116     37115     37116
     37117     37118     37117     37119     37118     37119     37120     37121
     37120     37122     37121     37122     37123     37124     37123     37125
     37124     37125     37126     37127     37126     37128     37127     37128
     37129     37130     37129     37131     37130     37131     37132     37133
     37132     37134     37133     37134     37135     37136     37135     37137
     37136     37137     37138     37139     37138     37140     37139     37140
     37141     37142     37141     37143     37142     37143     37144     37145
     37144     37146     37145     37146     37147     37148     37147     37149
     37148     37149     37150     37151     37150     37152     37151     37152
     37153     37154     37153     37155     37154     37155     37156     37157
     37156     37158     37157     37158     37159     37160     37159     37161
     37160     37161     37162     37163     37162     37164     37163     37164
     37165     37166     37165     37167     37166     37167     37168     37169
     37168     37170     37169     37170     37171     37172     37171     37173
     37172     37173     37174     37175     37174     37176     37175     37176
     37177     37178     37177     37179     37178     37179     37180     37181
     37180     37182     37181     37182     37183     37184     37183     37185
     37184     37185     37186     37187     37186     37188     37187     37188
     37189     37190     37189     37191     37190     37191     37192     37193
     37192     37194     37193     37194     37195     37196     37195     37197
     37196     37197     37198     37199     37198     37200     37199     37200
     37201     37202     37201     37203     37202     37203     37204     37205
     37204     37206     37205     37206     37207     37208     37207     37209
     37208     37209     37210     37211     37210     37212     37211     37212
     37213     37214     37213     37215     37214     37215     37216     37217
     37216     37218     37217     37218     37219     37220     37219     37221
     37220     37221     37222     37223     37222     37224     37223     37224
     37225     37226     37225     37227     37226     37227     37228     37229
     37228     37230     37229     37230     37231     37232     37231     37233
     37232     37233     37234     37235     37234     37236     37235     37236
     37237     37238     37237     37239     37238     37239     37240     37241
     37240     37242     37241     37242     37243     37244     37243     37245
     37244     37245     37246     37247     37246     37248     37247     37248
     37249     37250     37249     37251     37250     37251     37252     37253
     37252     37254     37253     37254     37255     37256     37255     37257
     37256     37257     37258     37259     37258     37260     37259     37260
     37261     37262     37261     37263     37262     37263     37264     37265
     37264     37266     37265     37266     37267     37268     37267     37269
     37268     37269     37270     37271     37270     37272     37271     37272
     37273     37274     37273     37275     37274     37275     37276     37277
     37276     37278     37277     37278     37279     37280     37279     37281
     37280     37281     37282     37283     37282     37284     37283     37284
     37285     37286     37285     37287     37286     37287     37288     37289
     37288     37290     37289     37290     37291     37292     37291     37293
     37292     37293     37294     37295     37294     37296     37295     37296
     37297     37298     37297     37299     37298     37299     37300     37301
     37300     37302     37301     37302     37303     37304     37303     37305
     37304     37305     37306     37307     37306     37308     37307     37308
     37309     37310     37309     37311     37310     37311     37312     37313
     37312     37314     37313     37314     37315     37316     37315     37317
     37316     37317     37318     37319     37318     37320     37319     37320
     37321     37322     37321     37323     37322     37323     37324     37325
     37324     37326     37325     37326     37327     37328     37327     37329
     37328     37329     37330     37331     37330     37332     37331     37332
     37333     37334     37333     37335     37334     37335     37336     37337
     37336     37338     37337     37338     37339     37340     37339     37341
     37340     37341     37342     37343     37342     37344     37343     37344
     37345     37346     37345     37347     37346     37347     37348     37349
     37348     37350     37349     37350     37351     37352     37351     37353
     37352     37353     37354     37355     37354     37356     37355     37356
     37357     37358     37357     37359     37358     37359     37360     37361
     37360     37362     37361     37362     37363     37364     37363     37365
     37364     37365     37366     37367     37366     37368     37367     37368
     37369     37370     37369     37371     37370     37371     37372     37373
     37372     37374     37373     37374     37375     37376     37375     37377
     37376     37377     37378     37379     37378     37380     37379     37380
     37381     37382     37381     37383     37382     37383     37384     37385
     37384     37386     37385     37386     37387     37388     37387     37389
     37388     37389     37390     37391     37390     37392     37391     37392
     37393     37394     37393     37395     37394     37395     37396     37397
     37396     37398     37397     37398     37399     37400     37399     37401
     37400     37401     37402     37403     37402     37404     37403     37404
     37405     37406     37405     37407     37406     37407     37408     37409
     37408     37410     37409     37410     37411     37412     37411     37413
     37412     37413     37414     37415     37414     37416     37415     37416
     37417     37418     37417     37419     37418     37419     37420     37421
     37420     37422     37421     37422     37423     37424     37423     37425
     37424     37425     37426     37427     37426     37428     37427     37428
     37429     37430     37429     37431     37430     37431     37432     37433
     37432     37434     37433     37434     37435     37436     37435     37437
     37436     37437     37438     37439     37438     37440     37439     37440
     37441     37442     37441     37443     37442     37443     37444     37445
     37444     37446     37445     37446     37447     37448     37447     37449
     37448     37449     37450     37451     37450     37452     37451     37452
     37453     37454     37453     37455     37454     37455     37456     37457
     37456     37458     37457     37458     37459     37460     37459     37461
     37460     37461     37462     37463     37462     37464     37463     37464
     37465     37466     37465     37467     37466     37467     37468     37469
     37468     37470     37469     37470     37471     37472     37471     37473
     37472     37473     37474     37475     37474     37476     37475     37476
     37477     37478     37477     37479     37478     37479     37480     37481
     37480     37482     37481     37482     37483     37484     37483     37485
     37484     37485     37486     37487     37486     37488     37487     37488
     37489     37490     37489     37491     37490     37491     37492     37493
     37492     37494     37493     37494     37495     37496     37495     37497
     37496     37497     37498     37499     37498     37500     37499     37500
     37501     37502     37501     37503     37502     37503     37504     37505
     37504     37506     37505     37506     37507     37508     37507     37509
     37508     37509     37510     37511     37510     37512     37511     37512
     37513     37514     37513     37515     37514     37515     37516     37517
     37516     37518     37517     37518     37519     37520     37519     37521
     37520     37521     37522     37523     37522     37524     37523     37524
     37525     37526     37525     37527     37526     37527     37528     37529
     37528     37530     37529     37530     37531     37532     37531     37533
     37532     37533     37534     37535     37534     37536     37535     37536
     37537     37538     37537     37539     37538     37539     37540     37541
     37540     37542     37541     37542     37543     37544     37543     37545
     37544     37545     37546     37547     37546     37548     37547     37548
     37549     37550     37549     37551     37550     37551     37552     37553
     37552     37554     37553     37554     37555     37556     37555     37557
     37556     37557     37558     37559     37558     37560     37559     37560
     37561     37562     37561     37563     37562     37563     37564     37565
     37564     37566     37565     37566     37567     37568     37567     37569
     37568     37569     37570     37571     37570     37572     37571     37572
     37573     37574     37573     37575     37574     37575     37576     37577
     37576     37578     37577     37578     37579     37580     37579     37581
     37580     37581     37582     37583     37582     37584     37583     37584
     37585     37586     37585     37587     37586     37587     37588     37589
     37588     37590     37589     37590     37591     37592     37591     37593
     37592     37593     37594     37595     37594     37596     37595     37596
     37597     37598     37597     37599     37598     37599     37600     37601
     37600     37602     37601     37602     37603     37604     37603     37605
     37604     37605     37606     37607     37606     37608     37607     37608
     37609     37610     37609     37611     37610     37611     37612     37613
     37612     37614     37613     37614     37615     37616     37615     37617
     37616     37617     37618     37619     37618     37620     37619     37620
     37621     37622     37621     37623     37622     37623     37624     37625
     37624     37626     37625     37626     37627     37628     37627     37629
     37628     37629     37630     37631     37630     37632     37631     37632
     37633     37634     37633     37635     37634     37635     37636     37637
     37636     37638     37637     37638     37639     37640     37639     37641
     37640     37641     37642     37643     37642     37644     37643     37644
     37645     37646     37645     37647     37646     37647     37648     37649
     37648     37650     37649     37650     37651     37652     37651     37653
     37652     37653     37654     37655     37654     37656     37655     37656
     37657     37658     37657     37659     37658     37659     37660     37661
     37660     37662     37661     37662     37663     37664     37663     37665
     37664     37665     37666     37667     37666     37668     37667     37668
     37669     37670     37669     37671     37670     37671     37672     37673
     37672     37674     37673     37674     37675     37676     37675     37677
     37676     37677     37678     37679     37678     37680     37679     37680
     37681     37682     37681     37683     37682     37683     37684     37685
     37684     37686     37685     37686     37687     37688     37687     37689
     37688     37689     37690     37691     37690     37692     37691     37692
     37693     37694     37693     37695     37694     37695     37696     37697
     37696     37698     37697     37698     37699     37700     37699     37701
     37700     37701     37702     37703     37702     37704     37703     37704
     37705     37706     37705     37707     37706     37707     37708     37709
     37708     37710     37709     37710     37711     37712     37711     37713
     37712     37713     37714     37715     37714     37716     37715     37716
     37717     37718     37717     37719     37718     37719     37720     37721
     37720     37722     37721     37722     37723     37724     37723     37725
     37724     37725     37726     37727     37726     37728     37727     37728
     37729     37730     37729     37731     37730     37731     37732     37733
     37732     37734     37733     37734     37735     37736     37735     37737
     37736     37737     37738     37739     37738     37740     37739     37740
     37741     37742     37741     37743     37742     37743     37744     37745
     37744     37746     37745     37746     37747     37748     37747     37749
     37748     37749     37750     37751     37750     37752     37751     37752
     37753     37754     37753     37755     37754     37755     37756     37757
     37756     37758     37757     37758     37759     37760     37759     37761
     37760     37761     37762     37763     37762     37764     37763     37764
     37765     37766     37765     37767     37766     37767     37768     37769
     37768     37770     37769     37770     37771     37772     37771     37773
     37772     37773     37774     37775     37774     37776     37775     37776
     37777     37778     37777     37779     37778     37779     37780     37781
     37780     37782     37781     37782     37783     37784     37783     37785
     37784     37785     37786     37787     37786     37788     37787     37788
     37789     37790     37789     37791     37790     37791     37792     37793
     37792     37794     37793     37794     37795     37796     37795     37797
     37796     37797     37798     37799     37798     37800     37799     37800
     37801     37802     37801     37803     37802     37803     37804     37805
     37804     37806     37805     37806     37807     37808     37807     37809
     37808     37809     37810     37811     37810     37812     37811     37812
     37813     37814     37813     37815     37814     37815     37816     37817
     37816     37818     37817     37818     37819     37820     37819     37821
     37820     37821     37822     37823     37822     37824     37823     37824
     37825     37826     37825     37827     37826     37827     37828     37829
     37828     37830     37829     37830     37831     37832     37831     37833
     37832     37833     37834     37835     37834     37836     37835     37836
     37837     37838     37837     37839     37838     37839     37840     37841
     37840     37842     37841     37842     37843     37844     37843     37845
     37844     37845     37846     37847     37846     37848     37847     37848
     37849     37850     37849     37851     37850     37851     37852     37853
     37852     37854     37853     37854     37855     37856     37855     37857
     37856     37857     37858     37859     37858     37860     37859     37860
     37861     37862     37861     37863     37862     37863     37864     37865
     37864     37866     37865     37866     37867     37868     37867     37869
     37868     37869     37870     37871     37870     37872     37871     37872
     37873     37874     37873     37875     37874     37875     37876     37877
     37876     37878     37877     37878     37879     37880     37879     37881
     37880     37881     37882     37883     37882     37884     37883     37884
     37885     37886     37885     37887     37886     37887     37888     37889
     37888     37890     37889     37890     37891     37892     37891     37893
     37892     37893     37894     37895     37894     37896     37895     37896
     37897     37898     37897     37899     37898     37899     37900     37901
     37900     37902     37901     37902     37903     37904     37903     37905
     37904     37905     37906     37907     37906     37908     37907     37908
     37909     37910     37909     37911     37910     37911     37912     37913
     37912     37914     37913     37914     37915     37916     37915     37917
     37916     37917     37918     37919     37918     37920     37919     37920
     37921     37922     37921     37923     37922     37923     37924     37925
     37924     37926     37925     37926     37927     37928     37927     37929
     37928     37929     37930     37931     37930     37932     37931     37932
     37933     37934     37933     37935     37934     37935     37936     37937
     37936     37938     37937     37938     37939     37940     37939     37941
     37940     37941     37942     37943     37942     37944     37943     37944
     37945     37946     37945     37947     37946     37947     37948     37949
     37948     37950     37949     37950     37951     37952     37951     37953
     37952     37953     37954     37955     37954     37956     37955     37956
     37957     37958     37957     37959     37958     37959     37960     37961
     37960     37962     37961     37962     37963     37964     37963     37965
     37964     37965     37966     37967     37966     37968     37967     37968
     37969     37970     37969     37971     37970     37971     37972     37973
     37972     37974     37973     37974     37975     37976     37975     37977
     37976     37977     37978     37979     37978     37980     37979     37980
     37981     37982     37981     37983     37982     37983     37984     37985
     37984     37986     37985     37986     37987     37988     37987     37989
     37988     37989     37990     37991     37990     37992     37991     37992
     37993     37994     37993     37995     37994     37995     37996     37997
     37996     37998     37997     37998     37999     38000     37999     38001
     38000     38001     38002     38003     38002     38004     38003     38004
     38005     38006     38005     38007     38006     38007     38008     38009
     38008     38010     38009     38010     38011     38012     38011     38013
     38012     38013     38014     38015     38014     38016     38015     38016
     38017     38018     38017     38019     38018     38019     38020     38021
     38020     38022     38021     38022     38023     38024     38023     38025
     38024     38025     38026     38027     38026     38028     38027     38028
     38029     38030     38029     38031     38030     38031     38032     38033
     38032     38034     38033     38034     38035     38036     38035     38037
     38036     38037     38038     38039     38038     38040     38039     38040
     38041     38042     38041     38043     38042     38043     38044     38045
     38044     38046     38045     38046     38047     38048     38047     38049
     38048     38049     38050     38051     38050     38052     38051     38052
     38053     38054     38053     38055     38054     38055     38056     38057
     38056     38058     38057     38058     38059     38060     38059     38061
     38060     38061     38062     38063     38062     38064     38063     38064
     38065     38066     38065     38067     38066     38067     38068     38069
     38068     38070     38069     38070     38071     38072     38071     38073
     38072     38073     38074     38075     38074     38076     38075     38076
     38077     38078     38077     38079     38078     38079     38080     38081
     38080     38082     38081     38082     38083     38084     38083     38085
     38084     38085     38086     38087     38086     38088     38087     38088
     38089     38090     38089     38091     38090     38091     38092     38093
     38092     38094     38093     38094     38095     38096     38095     38097
     38096     38097     38098     38099     38098     38100     38099     38100
     38101     38102     38101     38103     38102     38103     38104     38105
     38104     38106     38105     38106     38107     38108     38107     38109
     38108     38109     38110     38111     38110     38112     38111     38112
     38113     38114     38113     38115     38114     38115     38116     38117
     38116     38118     38117     38118     38119     38120     38119     38121
     38120     38121     38122     38123     38122     38124     38123     38124
     38125     38126     38125     38127     38126     38127     38128     38129
     38128     38130     38129     38130     38131     38132     38131     38133
     38132     38133     38134     38135     38134     38136     38135     38136
     38137     38138     38137     38139     38138     38139     38140     38141
     38140     38142     38141     38142     38143     38144     38143     38145
     38144     38145     38146     38147     38146     38148     38147     38148
     38149     38150     38149     38151     38150     38151     38152     38153
     38152     38154     38153     38154     38155     38156     38155     38157
     38156     38157     38158     38159     38158     38160     38159     38160
     38161     38162     38161     38163     38162     38163     38164     38165
     38164     38166     38165     38166     38167     38168     38167     38169
     38168     38169     38170     38171     38170     38172     38171     38172
     38173     38174     38173     38175     38174     38175     38176     38177
     38176     38178     38177     38178     38179     38180     38179     38181
     38180     38181     38182     38183     38182     38184     38183     38184
     38185     38186     38185     38187     38186     38187     38188     38189
     38188     38190     38189     38190     38191     38192     38191     38193
     38192     38193     38194     38195     38194     38196     38195     38196
     38197     38198     38197     38199     38198     38199     38200     38201
     38200     38202     38201     38202     38203     38204     38203     38205
     38204     38205     38206     38207     38206     38208     38207     38208
     38209     38210     38209     38211     38210     38211     38212     38213
     38212     38214     38213     38214     38215     38216     38215     38217
     38216     38217     38218     38219     38218     38220     38219     38220
     38221     38222     38221     38223     38222     38223     38224     38225
     38224     38226     38225     38226     38227     38228     38227     38229
     38228     38229     38230     38231     38230     38232     38231     38232
     38233     38234     38233     38235     38234     38235     38236     38237
     38236     38238     38237     38238     38239     38240     38239     38241
     38240     38241     38242     38243     38242     38244     38243     38244
     38245     38246     38245     38247     38246     38247     38248     38249
     38248     38250     38249     38250     38251     38252     38251     38253
     38252     38253     38254     38255     38254     38256     38255     38256
     38257     38258     38257     38259     38258     38259     38260     38261
     38260     38262     38261     38262     38263     38264     38263     38265
     38264     38265     38266     38267     38266     38268     38267     38268
     38269     38270     38269     38271     38270     38271     38272     38273
     38272     38274     38273     38274     38275     38276     38275     38277
     38276     38277     38278     38279     38278     38280     38279     38280
     38281     38282     38281     38283     38282     38283     38284     38285
     38284     38286     38285     38286     38287     38288     38287     38289
     38288     38289     38290     38291     38290     38292     38291     38292
     38293     38294     38293     38295     38294     38295     38296     38297
     38296     38298     38297     38298     38299     38300     38299     38301
     38300     38301     38302     38303     38302     38304     38303     38304
     38305     38306     38305     38307     38306     38307     38308     38309
     38308     38310     38309     38310     38311     38312     38311     38313
     38312     38313     38314     38315     38314     38316     38315     38316
     38317     38318     38317     38319     38318     38319     38320     38321
     38320     38322     38321     38322     38323     38324     38323     38325
     38324     38325     38326     38327     38326     38328     38327     38328
     38329     38330     38329     38331     38330     38331     38332     38333
     38332     38334     38333     38334     38335     38336     38335     38337
     38336     38337     38338     38339     38338     38340     38339     38340
     38341     38342     38341     38343     38342     38343     38344     38345
     38344     38346     38345     38346     38347     38348     38347     38349
     38348     38349     38350     38351     38350     38352     38351     38352
     38353     38354     38353     38355     38354     38355     38356     38357
     38356     38358     38357     38358     38359     38360     38359     38361
     38360     38361     38362     38363     38362     38364     38363     38364
     38365     38366     38365     38367     38366     38367     38368     38369
     38368     38370     38369     38370     38371     38372     38371     38373
     38372     38373     38374     38375     38374     38376     38375     38376
     38377     38378     38377     38379     38378     38379     38380     38381
     38380     38382     38381     38382     38383     38384     38383     38385
     38384     38385     38386     38387     38386     38388     38387     38388
     38389     38390     38389     38391     38390     38391     38392     38393
     38392     38394     38393     38394     38395     38396     38395     38397
     38396     38397     38398     38399     38398     38400     38399     38400
     38401     38402     38401     38403     38402     38403     38404     38405
     38404     38406     38405     38406     38407     38408     38407     38409
     38408     38409     38410     38411     38410     38412     38411     38412
     38413     38414     38413     38415     38414     38415     38416     38417
     38416     38418     38417     38418     38419     38420     38419     38421
     38420     38421     38422     38423     38422     38424     38423     38424
     38425     38426     38425     38427     38426     38427     38428     38429
     38428     38430     38429     38430     38431     38432     38431     38433
     38432     38433     38434     38435     38434     38436     38435     38436
     38437     38438     38437     38439     38438     38439     38440     38441
     38440     38442     38441     38442     38443     38444     38443     38445
     38444     38445     38446     38447     38446     38448     38447     38448
     38449     38450     38449     38451     38450     38451     38452     38453
     38452     38454     38453     38454     38455     38456     38455     38457
     38456     38457     38458     38459     38458     38460     38459     38460
     38461     38462     38461     38463     38462     38463     38464     38465
     38464     38466     38465     38466     38467     38468     38467     38469
     38468     38469     38470     38471     38470     38472     38471     38472
     38473     38474     38473     38475     38474     38475     38476     38477
     38476     38478     38477     38478     38479     38480     38479     38481
     38480     38481     38482     38483     38482     38484     38483     38484
     38485     38486     38485     38487     38486     38487     38488     38489
     38488     38490     38489     38490     38491     38492     38491     38493
     38492     38493     38494     38495     38494     38496     38495     38496
     38497     38498     38497     38499     38498     38499     38500     38501
     38500     38502     38501     38502     38503     38504     38503     38505
     38504     38505     38506     38507     38506     38508     38507     38508
     38509     38510     38509     38511     38510     38511     38512     38513
     38512     38514     38513     38514     38515     38516     38515     38517
     38516     38517     38518     38519     38518     38520     38519     38520
     38521     38522     38521     38523     38522     38523     38524     38525
     38524     38526     38525     38526     38527     38528     38527     38529
     38528     38529     38530     38531     38530     38532     38531     38532
     38533     38534     38533     38535     38534     38535     38536     38537
     38536     38538     38537     38538     38539     38540     38539     38541
     38540     38541     38542     38543     38542     38544     38543     38544
     38545     38546     38545     38547     38546     38547     38548     38549
     38548     38550     38549     38550     38551     38552     38551     38553
     38552     38553     38554     38555     38554     38556     38555     38556
     38557     38558     38557     38559     38558     38559     38560     38561
     38560     38562     38561     38562     38563     38564     38563     38565
     38564     38565     38566     38567     38566     38568     38567     38568
     38569     38570     38569     38571     38570     38571     38572     38573
     38572     38574     38573     38574     38575     38576     38575     38577
     38576     38577     38578     38579     38578     38580     38579     38580
     38581     38582     38581     38583     38582     38583     38584     38585
     38584     38586     38585     38586     38587     38588     38587     38589
     38588     38589     38590     38591     38590     38592     38591     38592
     38593     38594     38593     38595     38594     38595     38596     38597
     38596     38598     38597     38598     38599     38600     38599     38601
     38600     38601     38602     38603     38602     38604     38603     38604
     38605     38606     38605     38607     38606     38607     38608     38609
     38608     38610     38609     38610     38611     38612     38611     38613
     38612     38613     38614     38615     38614     38616     38615     38616
     38617     38618     38617     38619     38618     38619     38620     38621
     38620     38622     38621     38622     38623     38624     38623     38625
     38624     38625     38626     38627     38626     38628     38627     38628
     38629     38630     38629     38631     38630     38631     38632     38633
     38632     38634     38633     38634     38635     38636     38635     38637
     38636     38637     38638     38639     38638     38640     38639     38640
     38641     38642     38641     38643     38642     38643     38644     38645
     38644     38646     38645     38646     38647     38648     38647     38649
     38648     38649     38650     38651     38650     38652     38651     38652
     38653     38654     38653     38655     38654     38655     38656     38657
     38656     38658     38657     38658     38659     38660     38659     38661
     38660     38661     38662     38663     38662     38664     38663     38664
     38665     38666     38665     38667     38666     38667     38668     38669
     38668     38670     38669     38670     38671     38672     38671     38673
     38672     38673     38674     38675     38674     38676     38675     38676
     38677     38678     38677     38679     38678     38679     38680     38681
     38680     38682     38681     38682     38683     38684     38683     38685
     38684     38685     38686     38687     38686     38688     38687     38688
     38689     38690     38689     38691     38690     38691     38692     38693
     38692     38694     38693     38694     38695     38696     38695     38697
     38696     38697     38698     38699     38698     38700     38699     38700
     38701     38702     38701     38703     38702     38703     38704     38705
     38704     38706     38705     38706     38707     38708     38707     38709
     38708     38709     38710     38711     38710     38712     38711     38712
     38713     38714     38713     38715     38714     38715     38716     38717
     38716     38718     38717     38718     38719     38720     38719     38721
     38720     38721     38722     38723     38722     38724     38723     38724
     38725     38726     38725     38727     38726     38727     38728     38729
     38728     38730     38729     38730     38731     38732     38731     38733
     38732     38733     38734     38735     38734     38736     38735     38736
     38737     38738     38737     38739     38738     38739     38740     38741
     38740     38742     38741     38742     38743     38744     38743     38745
     38744     38745     38746     38747     38746     38748     38747     38748
     38749     38750     38749     38751     38750     38751     38752     38753
     38752     38754     38753     38754     38755     38756     38755     38757
     38756     38757     38758     38759     38758     38760     38759     38760
     38761     38762     38761     38763     38762     38763     38764     38765
     38764     38766     38765     38766     38767     38768     38767     38769
     38768     38769     38770     38771     38770     38772     38771     38772
     38773     38774     38773     38775     38774     38775     38776     38777
     38776     38778     38777     38778     38779     38780     38779     38781
     38780     38781     38782     38783     38782     38784     38783     38784
     38785     38786     38785     38787     38786     38787     38788     38789
     38788     38790     38789     38790     38791     38792     38791     38793
     38792     38793     38794     38795     38794     38796     38795     38796
     38797     38798     38797     38799     38798     38799     38800     38801
     38800     38802     38801     38802     38803     38804     38803     38805
     38804     38805     38806     38807     38806     38808     38807     38808
     38809     38810     38809     38811     38810     38811     38812     38813
     38812     38814     38813     38814     38815     38816     38815     38817
     38816     38817     38818     38819     38818     38820     38819     38820
     38821     38822     38821     38823     38822     38823     38824     38825
     38824     38826     38825     38826     38827     38828     38827     38829
     38828     38829     38830     38831     38830     38832     38831     38832
     38833     38834     38833     38835     38834     38835     38836     38837
     38836     38838     38837     38838     38839     38840     38839     38841
     38840     38841     38842     38843     38842     38844     38843     38844
     38845     38846     38845     38847     38846     38847     38848     38849
     38848     38850     38849     38850     38851     38852     38851     38853
     38852     38853     38854     38855     38854     38856     38855     38856
     38857     38858     38857     38859     38858     38859     38860     38861
     38860     38862     38861     38862     38863     38864     38863     38865
     38864     38865     38866     38867     38866     38868     38867     38868
     38869     38870     38869     38871     38870     38871     38872     38873
     38872     38874     38873     38874     38875     38876     38875     38877
     38876     38877     38878     38879     38878     38880     38879     38880
     38881     38882     38881     38883     38882     38883     38884     38885
     38884     38886     38885     38886     38887     38888     38887     38889
     38888     38889     38890     38891     38890     38892     38891     38892
     38893     38894     38893     38895     38894     38895     38896     38897
     38896     38898     38897     38898     38899     38900     38899     38901
     38900     38901     38902     38903     38902     38904     38903     38904
     38905     38906     38905     38907     38906     38907     38908     38909
     38908     38910     38909     38910     38911     38912     38911     38913
     38912     38913     38914     38915     38914     38916     38915     38916
     38917     38918     38917     38919     38918     38919     38920     38921
     38920     38922     38921     38922     38923     38924     38923     38925
     38924     38925     38926     38927     38926     38928     38927     38928
     38929     38930     38929     38931     38930     38931     38932     38933
     38932     38934     38933     38934     38935     38936     38935     38937
     38936     38937     38938     38939     38938     38940     38939     38940
     38941     38942     38941     38943     38942     38943     38944     38945
     38944     38946     38945     38946     38947     38948     38947     38949
     38948     38949     38950     38951     38950     38952     38951     38952
     38953     38954     38953     38955     38954     38955     38956     38957
     38956     38958     38957     38958     38959     38960     38959     38961
     38960     38961     38962     38963     38962     38964     38963     38964
     38965     38966     38965     38967     38966     38967     38968     38969
     38968     38970     38969     38970     38971     38972     38971     38973
     38972     38973     38974     38975     38974     38976     38975     38976
     38977     38978     38977     38979     38978     38979     38980     38981
     38980     38982     38981     38982     38983     38984     38983     38985
     38984     38985     38986     38987     38986     38988     38987     38988
     38989     38990     38989     38991     38990     38991     38992     38993
     38992     38994     38993     38994     38995     38996     38995     38997
     38996     38997     38998     38999     38998     39000     38999     39000
     39001     39002     39001     39003     39002     39003     39004     39005
     39004     39006     39005     39006     39007     39008     39007     39009
     39008     39009     39010     39011     39010     39012     39011     39012
     39013     39014     39013     39015     39014     39015     39016     39017
     39016     39018     39017     39018     39019     39020     39019     39021
     39020     39021     39022     39023     39022     39024     39023     39024
     39025     39026     39025     39027     39026     39027     39028     39029
     39028     39030     39029     39030     39031     39032     39031     39033
     39032     39033     39034     39035     39034     39036     39035     39036
     39037     39038     39037     39039     39038     39039     39040     39041
     39040     39042     39041     39042     39043     39044     39043     39045
     39044     39045     39046     39047     39046     39048     39047     39048
     39049     39050     39049     39051     39050     39051     39052     39053
     39052     39054     39053     39054     39055     39056     39055     39057
     39056     39057     39058     39059     39058     39060     39059     39060
     39061     39062     39061     39063     39062     39063     39064     39065
     39064     39066     39065     39066     39067     39068     39067     39069
     39068     39069     39070     39071     39070     39072     39071     39072
     39073     39074     39073     39075     39074     39075     39076     39077
     39076     39078     39077     39078     39079     39080     39079     39081
     39080     39081     39082     39083     39082     39084     39083     39084
     39085     39086     39085     39087     39086     39087     39088     39089
     39088     39090     39089     39090     39091     39092     39091     39093
     39092     39093     39094     39095     39094     39096     39095     39096
     39097     39098     39097     39099     39098     39099     39100     39101
     39100     39102     39101     39102     39103     39104     39103     39105
     39104     39105     39106     39107     39106     39108     39107     39108
     39109     39110     39109     39111     39110     39111     39112     39113
     39112     39114     39113     39114     39115     39116     39115     39117
     39116     39117     39118     39119     39118     39120     39119     39120
     39121     39122     39121     39123     39122     39123     39124     39125
     39124     39126     39125     39126     39127     39128     39127     39129
     39128     39129     39130     39131     39130     39132     39131     39132
     39133     39134     39133     39135     39134     39135     39136     39137
     39136     39138     39137     39138     39139     39140     39139     39141
     39140     39141     39142     39143     39142     39144     39143     39144
     39145     39146     39145     39147     39146     39147     39148     39149
     39148     39150     39149     39150     39151     39152     39151     39153
     39152     39153     39154     39155     39154     39156     39155     39156
     39157     39158     39157     39159     39158     39159     39160     39161
     39160     39162     39161     39162     39163     39164     39163     39165
     39164     39165     39166     39167     39166     39168     39167     39168
     39169     39170     39169     39171     39170     39171     39172     39173
     39172     39174     39173     39174     39175     39176     39175     39177
     39176     39177     39178     39179     39178     39180     39179     39180
     39181     39182     39181     39183     39182     39183     39184     39185
     39184     39186     39185     39186     39187     39188     39187     39189
     39188     39189     39190     39191     39190     39192     39191     39192
     39193     39194     39193     39195     39194     39195     39196     39197
     39196     39198     39197     39198     39199     39200     39199     39201
     39200     39201     39202     39203     39202     39204     39203     39204
     39205     39206     39205     39207     39206     39207     39208     39209
     39208     39210     39209     39210     39211     39212     39211     39213
     39212     39213     39214     39215     39214     39216     39215     39216
     39217     39218     39217     39219     39218     39219     39220     39221
     39220     39222     39221     39222     39223     39224     39223     39225
     39224     39225     39226     39227     39226     39228     39227     39228
     39229     39230     39229     39231     39230     39231     39232     39233
     39232     39234     39233     39234     39235     39236     39235     39237
     39236     39237     39238     39239     39238     39240     39239     39240
     39241     39242     39241     39243     39242     39243     39244     39245
     39244     39246     39245     39246     39247     39248     39247     39249
     39248     39249     39250     39251     39250     39252     39251     39252
     39253     39254     39253     39255     39254     39255     39256     39257
     39256     39258     39257     39258     39259     39260     39259     39261
     39260     39261     39262     39263     39262     39264     39263     39264
     39265     39266     39265     39267     39266     39267     39268     39269
     39268     39270     39269     39270     39271     39272     39271     39273
     39272     39273     39274     39275     39274     39276     39275     39276
     39277     39278     39277     39279     39278     39279     39280     39281
     39280     39282     39281     39282     39283     39284     39283     39285
     39284     39285     39286     39287     39286     39288     39287     39288
     39289     39290     39289     39291     39290     39291     39292     39293
     39292     39294     39293     39294     39295     39296     39295     39297
     39296     39297     39298     39299     39298     39300     39299     39300
     39301     39302     39301     39303     39302     39303     39304     39305
     39304     39306     39305     39306     39307     39308     39307     39309
     39308     39309     39310     39311     39310     39312     39311     39312
     39313     39314     39313     39315     39314     39315     39316     39317
     39316     39318     39317     39318     39319     39320     39319     39321
     39320     39321     39322     39323     39322     39324     39323     39324
     39325     39326     39325     39327     39326     39327     39328     39329
     39328     39330     39329     39330     39331     39332     39331     39333
     39332     39333     39334     39335     39334     39336     39335     39336
     39337     39338     39337     39339     39338     39339     39340     39341
     39340     39342     39341     39342     39343     39344     39343     39345
     39344     39345     39346     39347     39346     39348     39347     39348
     39349     39350     39349     39351     39350     39351     39352     39353
     39352     39354     39353     39354     39355     39356     39355     39357
     39356     39357     39358     39359     39358     39360     39359     39360
     39361     39362     39361     39363     39362     39363     39364     39365
     39364     39366     39365     39366     39367     39368     39367     39369
     39368     39369     39370     39371     39370     39372     39371     39372
     39373     39374     39373     39375     39374     39375     39376     39377
     39376     39378     39377     39378     39379     39380     39379     39381
     39380     39381     39382     39383     39382     39384     39383     39384
     39385     39386     39385     39387     39386     39387     39388     39389
     39388     39390     39389     39390     39391     39392     39391     39393
     39392     39393     39394     39395     39394     39396     39395     39396
     39397     39398     39397     39399     39398     39399     39400     39401
     39400     39402     39401     39402     39403     39404     39403     39405
     39404     39405     39406     39407     39406     39408     39407     39408
     39409     39410     39409     39411     39410     39411     39412     39413
     39412     39414     39413     39414     39415     39416     39415     39417
     39416     39417     39418     39419     39418     39420     39419     39420
     39421     39422     39421     39423     39422     39423     39424     39425
     39424     39426     39425     39426     39427     39428     39427     39429
     39428     39429     39430     39431     39430     39432     39431     39432
     39433     39434     39433     39435     39434     39435     39436     39437
     39436     39438     39437     39438     39439     39440     39439     39441
     39440     39441     39442     39443     39442     39444     39443     39444
     39445     39446     39445     39447     39446     39447     39448     39449
     39448     39450     39449     39450     39451     39452     39451     39453
     39452     39453     39454     39455     39454     39456     39455     39456
     39457     39458     39457     39459     39458     39459     39460     39461
     39460     39462     39461     39462     39463     39464     39463     39465
     39464     39465     39466     39467     39466     39468     39467     39468
     39469     39470     39469     39471     39470     39471     39472     39473
     39472     39474     39473     39474     39475     39476     39475     39477
     39476     39477     39478     39479     39478     39480     39479     39480
     39481     39482     39481     39483     39482     39483     39484     39485
     39484     39486     39485     39486     39487     39488     39487     39489
     39488     39489     39490     39491     39490     39492     39491     39492
     39493     39494     39493     39495     39494     39495     39496     39497
     39496     39498     39497     39498     39499     39500     39499     39501
     39500     39501     39502     39503     39502     39504     39503     39504
     39505     39506     39505     39507     39506     39507     39508     39509
     39508     39510     39509     39510     39511     39512     39511     39513
     39512     39513     39514     39515     39514     39516     39515     39516
     39517     39518     39517     39519     39518     39519     39520     39521
     39520     39522     39521     39522     39523     39524     39523     39525
     39524     39525     39526     39527     39526     39528     39527     39528
     39529     39530     39529     39531     39530     39531     39532     39533
     39532     39534     39533     39534     39535     39536     39535     39537
     39536     39537     39538     39539     39538     39540     39539     39540
     39541     39542     39541     39543     39542     39543     39544     39545
     39544     39546     39545     39546     39547     39548     39547     39549
     39548     39549     39550     39551     39550     39552     39551     39552
     39553     39554     39553     39555     39554     39555     39556     39557
     39556     39558     39557     39558     39559     39560     39559     39561
     39560     39561     39562     39563     39562     39564     39563     39564
     39565     39566     39565     39567     39566     39567     39568     39569
     39568     39570     39569     39570     39571     39572     39571     39573
     39572     39573     39574     39575     39574     39576     39575     39576
     39577     39578     39577     39579     39578     39579     39580     39581
     39580     39582     39581     39582     39583     39584     39583     39585
     39584     39585     39586     39587     39586     39588     39587     39588
     39589     39590     39589     39591     39590     39591     39592     39593
     39592     39594     39593     39594     39595     39596     39595     39597
     39596     39597     39598     39599     39598     39600     39599     39600
     39601     39602     39601     39603     39602     39603     39604     39605
     39604     39606     39605     39606     39607     39608     39607     39609
     39608     39609     39610     39611     39610     39612     39611     39612
     39613     39614     39613     39615     39614     39615     39616     39617
     39616     39618     39617     39618     39619     39620     39619     39621
     39620     39621     39622     39623     39622     39624     39623     39624
     39625     39626     39625     39627     39626     39627     39628     39629
     39628     39630     39629     39630     39631     39632     39631     39633
     39632     39633     39634     39635     39634     39636     39635     39636
     39637     39638     39637     39639     39638     39639     39640     39641
     39640     39642     39641     39642     39643     39644     39643     39645
     39644     39645     39646     39647     39646     39648     39647     39648
     39649     39650     39649     39651     39650     39651     39652     39653
     39652     39654     39653     39654     39655     39656     39655     39657
     39656     39657     39658     39659     39658     39660     39659     39660
     39661     39662     39661     39663     39662     39663     39664     39665
     39664     39666     39665     39666     39667     39668     39667     39669
     39668     39669     39670     39671     39670     39672     39671     39672
     39673     39674     39673     39675     39674     39675     39676     39677
     39676     39678     39677     39678     39679     39680     39679     39681
     39680     39681     39682     39683     39682     39684     39683     39684
     39685     39686     39685     39687     39686     39687     39688     39689
     39688     39690     39689     39690     39691     39692     39691     39693
     39692     39693     39694     39695     39694     39696     39695     39696
     39697     39698     39697     39699     39698     39699     39700     39701
     39700     39702     39701     39702     39703     39704     39703     39705
     39704     39705     39706     39707     39706     39708     39707     39708
     39709     39710     39709     39711     39710     39711     39712     39713
     39712     39714     39713     39714     39715     39716     39715     39717
     39716     39717     39718     39719     39718     39720     39719     39720
     39721     39722     39721     39723     39722     39723     39724     39725
     39724     39726     39725     39726     39727     39728     39727     39729
     39728     39729     39730     39731     39730     39732     39731     39732
     39733     39734     39733     39735     39734     39735     39736     39737
     39736     39738     39737     39738     39739     39740     39739     39741
     39740     39741     39742     39743     39742     39744     39743     39744
     39745     39746     39745     39747     39746     39747     39748     39749
     39748     39750     39749     39750     39751     39752     39751     39753
     39752     39753     39754     39755     39754     39756     39755     39756
     39757     39758     39757     39759     39758     39759     39760     39761
     39760     39762     39761     39762     39763     39764     39763     39765
     39764     39765     39766     39767     39766     39768     39767     39768
     39769     39770     39769     39771     39770     39771     39772     39773
     39772     39774     39773     39774     39775     39776     39775     39777
     39776     39777     39778     39779     39778     39780     39779     39780
     39781     39782     39781     39783     39782     39783     39784     39785
     39784     39786     39785     39786     39787     39788     39787     39789
     39788     39789     39790     39791     39790     39792     39791     39792
     39793     39794     39793     39795     39794     39795     39796     39797
     39796     39798     39797     39798     39799     39800     39799     39801
     39800     39801     39802     39803     39802     39804     39803     39804
     39805     39806     39805     39807     39806     39807     39808     39809
     39808     39810     39809     39810     39811     39812     39811     39813
     39812     39813     39814     39815     39814     39816     39815     39816
     39817     39818     39817     39819     39818     39819     39820     39821
     39820     39822     39821     39822     39823     39824     39823     39825
     39824     39825     39826     39827     39826     39828     39827     39828
     39829     39830     39829     39831     39830     39831     39832     39833
     39832     39834     39833     39834     39835     39836     39835     39837
     39836     39837     39838     39839     39838     39840     39839     39840
     39841     39842     39841     39843     39842     39843     39844     39845
     39844     39846     39845     39846     39847     39848     39847     39849
     39848     39849     39850     39851     39850     39852     39851     39852
     39853     39854     39853     39855     39854     39855     39856     39857
     39856     39858     39857     39858     39859     39860     39859     39861
     39860     39861     39862     39863     39862     39864     39863     39864
     39865     39866     39865     39867     39866     39867     39868     39869
     39868     39870     39869     39870     39871     39872     39871     39873
     39872     39873     39874     39875     39874     39876     39875     39876
     39877     39878     39877     39879     39878     39879     39880     39881
     39880     39882     39881     39882     39883     39884     39883     39885
     39884     39885     39886     39887     39886     39888     39887     39888
     39889     39890     39889     39891     39890     39891     39892     39893
     39892     39894     39893     39894     39895     39896     39895     39897
     39896     39897     39898     39899     39898     39900     39899     39900
     39901     39902     39901     39903     39902     39903     39904     39905
     39904     39906     39905     39906     39907     39908     39907     39909
     39908     39909     39910     39911     39910     39912     39911     39912
     39913     39914     39913     39915     39914     39915     39916     39917
     39916     39918     39917     39918     39919     39920     39919     39921
     39920     39921     39922     39923     39922     39924     39923     39924
     39925     39926     39925     39927     39926     39927     39928     39929
     39928     39930     39929     39930     39931     39932     39931     39933
     39932     39933     39934     39935     39934     39936     39935     39936
     39937     39938     39937     39939     39938     39939     39940     39941
     39940     39942     39941     39942     39943     39944     39943     39945
     39944     39945     39946     39947     39946     39948     39947     39948
     39949     39950     39949     39951     39950     39951     39952     39953
     39952     39954     39953     39954     39955     39956     39955     39957
     39956     39957     39958     39959     39958     39960     39959     39960
     39961     39962     39961     39963     39962     39963     39964     39965
     39964     39966     39965     39966     39967     39968     39967     39969
     39968     39969     39970     39971     39970     39972     39971     39972
     39973     39974     39973     39975     39974     39975     39976     39977
     39976     39978     39977     39978     39979     39980     39979     39981
     39980     39981     39982     39983     39982     39984     39983     39984
     39985     39986     39985     39987     39986     39987     39988     39989
     39988     39990     39989     39990     39991     39992     39991     39993
     39992     39993     39994     39995     39994     39996     39995     39996
     39997     39998     39997     39999     39998     39999     40000     40001
     40000     40002     40001     40002     40003     40004     40003     40005
     40004     40005     40006     40007     40006     40008     40007     40008
     40009     40010     40009     40011     40010     40011     40012     40013
     40012     40014     40013     40014     40015     40016     40015     40017
     40016     40017     40018     40019     40018     40020     40019     40020
     40021     40022     40021     40023     40022     40023     40024     40025
     40024     40026     40025     40026     40027     40028     40027     40029
     40028     40029     40030     40031     40030     40032     40031     40032
     40033     40034     40033     40035     40034     40035     40036     40037
     40036     40038     40037     40038     40039     40040     40039     40041
     40040     40041     40042     40043     40042     40044     40043     40044
     40045     40046     40045     40047     40046     40047     40048     40049
     40048     40050     40049     40050     40051     40052     40051     40053
     40052     40053     40054     40055     40054     40056     40055     40056
     40057     40058     40057     40059     40058     40059     40060     40061
     40060     40062     40061     40062     40063     40064     40063     40065
     40064     40065     40066     40067     40066     40068     40067     40068
     40069     40070     40069     40071     40070     40071     40072     40073
     40072     40074     40073     40074     40075     40076     40075     40077
     40076     40077     40078     40079     40078     40080     40079     40080
     40081     40082     40081     40083     40082     40083     40084     40085
     40084     40086     40085     40086     40087     40088     40087     40089
     40088     40089     40090     40091     40090     40092     40091     40092
     40093     40094     40093     40095     40094     40095     40096     40097
     40096     40098     40097     40098     40099     40100     40099     40101
     40100     40101     40102     40103     40102     40104     40103     40104
     40105     40106     40105     40107     40106     40107     40108     40109
     40108     40110     40109     40110     40111     40112     40111     40113
     40112     40113     40114     40115     40114     40116     40115     40116
     40117     40118     40117     40119     40118     40119     40120     40121
     40120     40122     40121     40122     40123     40124     40123     40125
     40124     40125     40126     40127     40126     40128     40127     40128
     40129     40130     40129     40131     40130     40131     40132     40133
     40132     40134     40133     40134     40135     40136     40135     40137
     40136     40137     40138     40139     40138     40140     40139     40140
     40141     40142     40141     40143     40142     40143     40144     40145
     40144     40146     40145     40146     40147     40148     40147     40149
     40148     40149     40150     40151     40150     40152     40151     40152
     40153     40154     40153     40155     40154     40155     40156     40157
     40156     40158     40157     40158     40159     40160     40159     40161
     40160     40161     40162     40163     40162     40164     40163     40164
     40165     40166     40165     40167     40166     40167     40168     40169
     40168     40170     40169     40170     40171     40172     40171     40173
     40172     40173     40174     40175     40174     40176     40175     40176
     40177     40178     40177     40179     40178     40179     40180     40181
     40180     40182     40181     40182     40183     40184     40183     40185
     40184     40185     40186     40187     40186     40188     40187     40188
     40189     40190     40189     40191     40190     40191     40192     40193
     40192     40194     40193     40194     40195     40196     40195     40197
     40196     40197     40198     40199     40198     40200     40199     40200
     40201     40202     40201     40203     40202     40203     40204     40205
     40204     40206     40205     40206     40207     40208     40207     40209
     40208     40209     40210     40211     40210     40212     40211     40212
     40213     40214     40213     40215     40214     40215     40216     40217
     40216     40218     40217     40218     40219     40220     40219     40221
     40220     40221     40222     40223     40222     40224     40223     40224
     40225     40226     40225     40227     40226     40227     40228     40229
     40228     40230     40229     40230     40231     40232     40231     40233
     40232     40233     40234     40235     40234     40236     40235     40236
     40237     40238     40237     40239     40238     40239     40240     40241
     40240     40242     40241     40242     40243     40244     40243     40245
     40244     40245     40246     40247     40246     40248     40247     40248
     40249     40250     40249     40251     40250     40251     40252     40253
     40252     40254     40253     40254     40255     40256     40255     40257
     40256     40257     40258     40259     40258     40260     40259     40260
     40261     40262     40261     40263     40262     40263     40264     40265
     40264     40266     40265     40266     40267     40268     40267     40269
     40268     40269     40270     40271     40270     40272     40271     40272
     40273     40274     40273     40275     40274     40275     40276     40277
     40276     40278     40277     40278     40279     40280     40279     40281
     40280     40281     40282     40283     40282     40284     40283     40284
     40285     40286     40285     40287     40286     40287     40288     40289
     40288     40290     40289     40290     40291     40292     40291     40293
     40292     40293     40294     40295     40294     40296     40295     40296
     40297     40298     40297     40299     40298     40299     40300     40301
     40300     40302     40301     40302     40303     40304     40303     40305
     40304     40305     40306     40307     40306     40308     40307     40308
     40309     40310     40309     40311     40310     40311     40312     40313
     40312     40314     40313     40314     40315     40316     40315     40317
     40316     40317     40318     40319     40318     40320     40319     40320
     40321     40322     40321     40323     40322     40323     40324     40325
     40324     40326     40325     40326     40327     40328     40327     40329
     40328     40329     40330     40331     40330     40332     40331     40332
     40333     40334     40333     40335     40334     40335     40336     40337
     40336     40338     40337     40338     40339     40340     40339     40341
     40340     40341     40342     40343     40342     40344     40343     40344
     40345     40346     40345     40347     40346     40347     40348     40349
     40348     40350     40349     40350     40351     40352     40351     40353
     40352     40353     40354     40355     40354     40356     40355     40356
     40357     40358     40357     40359     40358     40359     40360     40361
     40360     40362     40361     40362     40363     40364     40363     40365
     40364     40365     40366     40367     40366     40368     40367     40368
     40369     40370     40369     40371     40370     40371     40372     40373
     40372     40374     40373     40374     40375     40376     40375     40377
     40376     40377     40378     40379     40378     40380     40379     40380
     40381     40382     40381     40383     40382     40383     40384     40385
     40384     40386     40385     40386     40387     40388     40387     40389
     40388     40389     40390     40391     40390     40392     40391     40392
     40393     40394     40393     40395     40394     40395     40396     40397
     40396     40398     40397     40398     40399     40400     40399     40401
     40400     40401     40402     40403     40402     40404     40403     40404
     40405     40406     40405     40407     40406     40407     40408     40409
     40408     40410     40409     40410     40411     40412     40411     40413
     40412     40413     40414     40415     40414     40416     40415     40416
     40417     40418     40417     40419     40418     40419     40420     40421
     40420     40422     40421     40422     40423     40424     40423     40425
     40424     40425     40426     40427     40426     40428     40427     40428
     40429     40430     40429     40431     40430     40431     40432     40433
     40432     40434     40433     40434     40435     40436     40435     40437
     40436     40437     40438     40439     40438     40440     40439     40440
     40441     40442     40441     40443     40442     40443     40444     40445
     40444     40446     40445     40446     40447     40448     40447     40449
     40448     40449     40450     40451     40450     40452     40451     40452
     40453     40454     40453     40455     40454     40455     40456     40457
     40456     40458     40457     40458     40459     40460     40459     40461
     40460     40461     40462     40463     40462     40464     40463     40464
     40465     40466     40465     40467     40466     40467     40468     40469
     40468     40470     40469     40470     40471     40472     40471     40473
     40472     40473     40474     40475     40474     40476     40475     40476
     40477     40478     40477     40479     40478     40479     40480     40481
     40480     40482     40481     40482     40483     40484     40483     40485
     40484     40485     40486     40487     40486     40488     40487     40488
     40489     40490     40489     40491     40490     40491     40492     40493
     40492     40494     40493     40494     40495     40496     40495     40497
     40496     40497     40498     40499     40498     40500     40499     40500
     40501     40502     40501     40503     40502     40503     40504     40505
     40504     40506     40505     40506     40507     40508     40507     40509
     40508     40509     40510     40511     40510     40512     40511     40512
     40513     40514     40513     40515     40514     40515     40516     40517
     40516     40518     40517     40518     40519     40520     40519     40521
     40520     40521     40522     40523     40522     40524     40523     40524
     40525     40526     40525     40527     40526     40527     40528     40529
     40528     40530     40529     40530     40531     40532     40531     40533
     40532     40533     40534     40535     40534     40536     40535     40536
     40537     40538     40537     40539     40538     40539     40540     40541
     40540     40542     40541     40542     40543     40544     40543     40545
     40544     40545     40546     40547     40546     40548     40547     40548
     40549     40550     40549     40551     40550     40551     40552     40553
     40552     40554     40553     40554     40555     40556     40555     40557
     40556     40557     40558     40559     40558     40560     40559     40560
     40561     40562     40561     40563     40562     40563     40564     40565
     40564     40566     40565     40566     40567     40568     40567     40569
     40568     40569     40570     40571     40570     40572     40571     40572
     40573     40574     40573     40575     40574     40575     40576     40577
     40576     40578     40577     40578     40579     40580     40579     40581
     40580     40581     40582     40583     40582     40584     40583     40584
     40585     40586     40585     40587     40586     40587     40588     40589
     40588     40590     40589     40590     40591     40592     40591     40593
     40592     40593     40594     40595     40594     40596     40595     40596
     40597     40598     40597     40599     40598     40599     40600     40601
     40600     40602     40601     40602     40603     40604     40603     40605
     40604     40605     40606     40607     40606     40608     40607     40608
     40609     40610     40609     40611     40610     40611     40612     40613
     40612     40614     40613     40614     40615     40616     40615     40617
     40616     40617     40618     40619     40618     40620     40619     40620
     40621     40622     40621     40623     40622     40623     40624     40625
     40624     40626     40625     40626     40627     40628     40627     40629
     40628     40629     40630     40631     40630     40632     40631     40632
     40633     40634     40633     40635     40634     40635     40636     40637
     40636     40638     40637     40638     40639     40640     40639     40641
     40640     40641     40642     40643     40642     40644     40643     40644
     40645     40646     40645     40647     40646     40647     40648     40649
     40648     40650     40649     40650     40651     40652     40651     40653
     40652     40653     40654     40655     40654     40656     40655     40656
     40657     40658     40657     40659     40658     40659     40660     40661
     40660     40662     40661     40662     40663     40664     40663     40665
     40664     40665     40666     40667     40666     40668     40667     40668
     40669     40670     40669     40671     40670     40671     40672     40673
     40672     40674     40673     40674     40675     40676     40675     40677
     40676     40677     40678     40679     40678     40680     40679     40680
     40681     40682     40681     40683     40682     40683     40684     40685
     40684     40686     40685     40686     40687     40688     40687     40689
     40688     40689     40690     40691     40690     40692     40691     40692
     40693     40694     40693     40695     40694     40695     40696     40697
     40696     40698     40697     40698     40699     40700     40699     40701
     40700     40701     40702     40703     40702     40704     40703     40704
     40705     40706     40705     40707     40706     40707     40708     40709
     40708     40710     40709     40710     40711     40712     40711     40713
     40712     40713     40714     40715     40714     40716     40715     40716
     40717     40718     40717     40719     40718     40719     40720     40721
     40720     40722     40721     40722     40723     40724     40723     40725
     40724     40725     40726     40727     40726     40728     40727     40728
     40729     40730     40729     40731     40730     40731     40732     40733
     40732     40734     40733     40734     40735     40736     40735     40737
     40736     40737     40738     40739     40738     40740     40739     40740
     40741     40742     40741     40743     40742     40743     40744     40745
     40744     40746     40745     40746     40747     40748     40747     40749
     40748     40749     40750     40751     40750     40752     40751     40752
     40753     40754     40753     40755     40754     40755     40756     40757
     40756     40758     40757     40758     40759     40760     40759     40761
     40760     40761     40762     40763     40762     40764     40763     40764
     40765     40766     40765     40767     40766     40767     40768     40769
     40768     40770     40769     40770     40771     40772     40771     40773
     40772     40773     40774     40775     40774     40776     40775     40776
     40777     40778     40777     40779     40778     40779     40780     40781
     40780     40782     40781     40782     40783     40784     40783     40785
     40784     40785     40786     40787     40786     40788     40787     40788
     40789     40790     40789     40791     40790     40791     40792     40793
     40792     40794     40793     40794     40795     40796     40795     40797
     40796     40797     40798     40799     40798     40800     40799     40800
     40801     40802     40801     40803     40802     40803     40804     40805
     40804     40806     40805     40806     40807     40808     40807     40809
     40808     40809     40810     40811     40810     40812     40811     40812
     40813     40814     40813     40815     40814     40815     40816     40817
     40816     40818     40817     40818     40819     40820     40819     40821
     40820     40821     40822     40823     40822     40824     40823     40824
     40825     40826     40825     40827     40826     40827     40828     40829
     40828     40830     40829     40830     40831     40832     40831     40833
     40832     40833     40834     40835     40834     40836     40835     40836
     40837     40838     40837     40839     40838     40839     40840     40841
     40840     40842     40841     40842     40843     40844     40843     40845
     40844     40845     40846     40847     40846     40848     40847     40848
     40849     40850     40849     40851     40850     40851     40852     40853
     40852     40854     40853     40854     40855     40856     40855     40857
     40856     40857     40858     40859     40858     40860     40859     40860
     40861     40862     40861     40863     40862     40863     40864     40865
     40864     40866     40865     40866     40867     40868     40867     40869
     40868     40869     40870     40871     40870     40872     40871     40872
     40873     40874     40873     40875     40874     40875     40876     40877
     40876     40878     40877     40878     40879     40880     40879     40881
     40880     40881     40882     40883     40882     40884     40883     40884
     40885     40886     40885     40887     40886     40887     40888     40889
     40888     40890     40889     40890     40891     40892     40891     40893
     40892     40893     40894     40895     40894     40896     40895     40896
     40897     40898     40897     40899     40898     40899     40900     40901
     40900     40902     40901     40902     40903     40904     40903     40905
     40904     40905     40906     40907     40906     40908     40907     40908
     40909     40910     40909     40911     40910     40911     40912     40913
     40912     40914     40913     40914     40915     40916     40915     40917
     40916     40917     40918     40919     40918     40920     40919     40920
     40921     40922     40921     40923     40922     40923     40924     40925
     40924     40926     40925     40926     40927     40928     40927     40929
     40928     40929     40930     40931     40930     40932     40931     40932
     40933     40934     40933     40935     40934     40935     40936     40937
     40936     40938     40937     40938     40939     40940     40939     40941
     40940     40941     40942     40943     40942     40944     40943     40944
     40945     40946     40945     40947     40946     40947     40948     40949
     40948     40950     40949     40950     40951     40952     40951     40953
     40952     40953     40954     40955     40954     40956     40955     40956
     40957     40958     40957     40959     40958     40959     40960     40961
     40960     40962     40961     40962     40963     40964     40963     40965
     40964     40965     40966     40967     40966     40968     40967     40968
     40969     40970     40969     40971     40970     40971     40972     40973
     40972     40974     40973     40974     40975     40976     40975     40977
     40976     40977     40978     40979     40978     40980     40979     40980
     40981     40982     40981     40983     40982     40983     40984     40985
     40984     40986     40985     40986     40987     40988     40987     40989
     40988     40989     40990     40991     40990     40992     40991     40992
     40993     40994     40993     40995     40994     40995     40996     40997
     40996     40998     40997     40998     40999     41000     40999     41001
     41000     41001     41002     41003     41002     41004     41003     41004
     41005     41006     41005     41007     41006     41007     41008     41009
     41008     41010     41009     41010     41011     41012     41011     41013
     41012     41013     41014     41015     41014     41016     41015     41016
     41017     41018     41017     41019     41018     41019     41020     41021
     41020     41022     41021     41022     41023     41024     41023     41025
     41024     41025     41026     41027     41026     41028     41027     41028
     41029     41030     41029     41031     41030     41031     41032     41033
     41032     41034     41033     41034     41035     41036     41035     41037
     41036     41037     41038     41039     41038     41040     41039     41040
     41041     41042     41041     41043     41042     41043     41044     41045
     41044     41046     41045     41046     41047     41048     41047     41049
     41048     41049     41050     41051     41050     41052     41051     41052
     41053     41054     41053     41055     41054     41055     41056     41057
     41056     41058     41057     41058     41059     41060     41059     41061
     41060     41061     41062     41063     41062     41064     41063     41064
     41065     41066     41065     41067     41066     41067     41068     41069
     41068     41070     41069     41070     41071     41072     41071     41073
     41072     41073     41074     41075     41074     41076     41075     41076
     41077     41078     41077     41079     41078     41079     41080     41081
     41080     41082     41081     41082     41083     41084     41083     41085
     41084     41085     41086     41087     41086     41088     41087     41088
     41089     41090     41089     41091     41090     41091     41092     41093
     41092     41094     41093     41094     41095     41096     41095     41097
     41096     41097     41098     41099     41098     41100     41099     41100
     41101     41102     41101     41103     41102     41103     41104     41105
     41104     41106     41105     41106     41107     41108     41107     41109
     41108     41109     41110     41111     41110     41112     41111     41112
     41113     41114     41113     41115     41114     41115     41116     41117
     41116     41118     41117     41118     41119     41120     41119     41121
     41120     41121     41122     41123     41122     41124     41123     41124
     41125     41126     41125     41127     41126     41127     41128     41129
     41128     41130     41129     41130     41131     41132     41131     41133
     41132     41133     41134     41135     41134     41136     41135     41136
     41137     41138     41137     41139     41138     41139     41140     41141
     41140     41142     41141     41142     41143     41144     41143     41145
     41144     41145     41146     41147     41146     41148     41147     41148
     41149     41150     41149     41151     41150     41151     41152     41153
     41152     41154     41153     41154     41155     41156     41155     41157
     41156     41157     41158     41159     41158     41160     41159     41160
     41161     41162     41161     41163     41162     41163     41164     41165
     41164     41166     41165     41166     41167     41168     41167     41169
     41168     41169     41170     41171     41170     41172     41171     41172
     41173     41174     41173     41175     41174     41175     41176     41177
     41176     41178     41177     41178     41179     41180     41179     41181
     41180     41181     41182     41183     41182     41184     41183     41184
     41185     41186     41185     41187     41186     41187     41188     41189
     41188     41190     41189     41190     41191     41192     41191     41193
     41192     41193     41194     41195     41194     41196     41195     41196
     41197     41198     41197     41199     41198     41199     41200     41201
     41200     41202     41201     41202     41203     41204     41203     41205
     41204     41205     41206     41207     41206     41208     41207     41208
     41209     41210     41209     41211     41210     41211     41212     41213
     41212     41214     41213     41214     41215     41216     41215     41217
     41216     41217     41218     41219     41218     41220     41219     41220
     41221     41222     41221     41223     41222     41223     41224     41225
     41224     41226     41225     41226     41227     41228     41227     41229
     41228     41229     41230     41231     41230     41232     41231     41232
     41233     41234     41233     41235     41234     41235     41236     41237
     41236     41238     41237     41238     41239     41240     41239     41241
     41240     41241     41242     41243     41242     41244     41243     41244
     41245     41246     41245     41247     41246     41247     41248     41249
     41248     41250     41249     41250     41251     41252     41251     41253
     41252     41253     41254     41255     41254     41256     41255     41256
     41257     41258     41257     41259     41258     41259     41260     41261
     41260     41262     41261     41262     41263     41264     41263     41265
     41264     41265     41266     41267     41266     41268     41267     41268
     41269     41270     41269     41271     41270     41271     41272     41273
     41272     41274     41273     41274     41275     41276     41275     41277
     41276     41277     41278     41279     41278     41280     41279     41280
     41281     41282     41281     41283     41282     41283     41284     41285
     41284     41286     41285     41286     41287     41288     41287     41289
     41288     41289     41290     41291     41290     41292     41291     41292
     41293     41294     41293     41295     41294     41295     41296     41297
     41296     41298     41297     41298     41299     41300     41299     41301
     41300     41301     41302     41303     41302     41304     41303     41304
     41305     41306     41305     41307     41306     41307     41308     41309
     41308     41310     41309     41310     41311     41312     41311     41313
     41312     41313     41314     41315     41314     41316     41315     41316
     41317     41318     41317     41319     41318     41319     41320     41321
     41320     41322     41321     41322     41323     41324     41323     41325
     41324     41325     41326     41327     41326     41328     41327     41328
     41329     41330     41329     41331     41330     41331     41332     41333
     41332     41334     41333     41334     41335     41336     41335     41337
     41336     41337     41338     41339     41338     41340     41339     41340
     41341     41342     41341     41343     41342     41343     41344     41345
     41344     41346     41345     41346     41347     41348     41347     41349
     41348     41349     41350     41351     41350     41352     41351     41352
     41353     41354     41353     41355     41354     41355     41356     41357
     41356     41358     41357     41358     41359     41360     41359     41361
     41360     41361     41362     41363     41362     41364     41363     41364
     41365     41366     41365     41367     41366     41367     41368     41369
     41368     41370     41369     41370     41371     41372     41371     41373
     41372     41373     41374     41375     41374     41376     41375     41376
     41377     41378     41377     41379     41378     41379     41380     41381
     41380     41382     41381     41382     41383     41384     41383     41385
     41384     41385     41386     41387     41386     41388     41387     41388
     41389     41390     41389     41391     41390     41391     41392     41393
     41392     41394     41393     41394     41395     41396     41395     41397
     41396     41397     41398     41399     41398     41400     41399     41400
     41401     41402     41401     41403     41402     41403     41404     41405
     41404     41406     41405     41406     41407     41408     41407     41409
     41408     41409     41410     41411     41410     41412     41411     41412
     41413     41414     41413     41415     41414     41415     41416     41417
     41416     41418     41417     41418     41419     41420     41419     41421
     41420     41421     41422     41423     41422     41424     41423     41424
     41425     41426     41425     41427     41426     41427     41428     41429
     41428     41430     41429     41430     41431     41432     41431     41433
     41432     41433     41434     41435     41434     41436     41435     41436
     41437     41438     41437     41439     41438     41439     41440     41441
     41440     41442     41441     41442     41443     41444     41443     41445
     41444     41445     41446     41447     41446     41448     41447     41448
     41449     41450     41449     41451     41450     41451     41452     41453
     41452     41454     41453     41454     41455     41456     41455     41457
     41456     41457     41458     41459     41458     41460     41459     41460
     41461     41462     41461     41463     41462     41463     41464     41465
     41464     41466     41465     41466     41467     41468     41467     41469
     41468     41469     41470     41471     41470     41472     41471     41472
     41473     41474     41473     41475     41474     41475     41476     41477
     41476     41478     41477     41478     41479     41480     41479     41481
     41480     41481     41482     41483     41482     41484     41483     41484
     41485     41486     41485     41487     41486     41487     41488     41489
     41488     41490     41489     41490     41491     41492     41491     41493
     41492     41493     41494     41495     41494     41496     41495     41496
     41497     41498     41497     41499     41498     41499     41500     41501
     41500     41502     41501     41502     41503     41504     41503     41505
     41504     41505     41506     41507     41506     41508     41507     41508
     41509     41510     41509     41511     41510     41511     41512     41513
     41512     41514     41513     41514     41515     41516     41515     41517
     41516     41517     41518     41519     41518     41520     41519     41520
     41521     41522     41521     41523     41522     41523     41524     41525
     41524     41526     41525     41526     41527     41528     41527     41529
     41528     41529     41530     41531     41530     41532     41531     41532
     41533     41534     41533     41535     41534     41535     41536     41537
     41536     41538     41537     41538     41539     41540     41539     41541
     41540     41541     41542     41543     41542     41544     41543     41544
     41545     41546     41545     41547     41546     41547     41548     41549
     41548     41550     41549     41550     41551     41552     41551     41553
     41552     41553     41554     41555     41554     41556     41555     41556
     41557     41558     41557     41559     41558     41559     41560     41561
     41560     41562     41561     41562     41563     41564     41563     41565
     41564     41565     41566     41567     41566     41568     41567     41568
     41569     41570     41569     41571     41570     41571     41572     41573
     41572     41574     41573     41574     41575     41576     41575     41577
     41576     41577     41578     41579     41578     41580     41579     41580
     41581     41582     41581     41583     41582     41583     41584     41585
     41584     41586     41585     41586     41587     41588     41587     41589
     41588     41589     41590     41591     41590     41592     41591     41592
     41593     41594     41593     41595     41594     41595     41596     41597
     41596     41598     41597     41598     41599     41600     41599     41601
     41600     41601     41602     41603     41602     41604     41603     41604
     41605     41606     41605     41607     41606     41607     41608     41609
     41608     41610     41609     41610     41611     41612     41611     41613
     41612     41613     41614     41615     41614     41616     41615     41616
     41617     41618     41617     41619     41618     41619     41620     41621
     41620     41622     41621     41622     41623     41624     41623     41625
     41624     41625     41626     41627     41626     41628     41627     41628
     41629     41630     41629     41631     41630     41631     41632     41633
     41632     41634     41633     41634     41635     41636     41635     41637
     41636     41637     41638     41639     41638     41640     41639     41640
     41641     41642     41641     41643     41642     41643     41644     41645
     41644     41646     41645     41646     41647     41648     41647     41649
     41648     41649     41650     41651     41650     41652     41651     41652
     41653     41654     41653     41655     41654     41655     41656     41657
     41656     41658     41657     41658     41659     41660     41659     41661
     41660     41661     41662     41663     41662     41664     41663     41664
     41665     41666     41665     41667     41666     41667     41668     41669
     41668     41670     41669     41670     41671     41672     41671     41673
     41672     41673     41674     41675     41674     41676     41675     41676
     41677     41678     41677     41679     41678     41679     41680     41681
     41680     41682     41681     41682     41683     41684     41683     41685
     41684     41685     41686     41687     41686     41688     41687     41688
     41689     41690     41689     41691     41690     41691     41692     41693
     41692     41694     41693     41694     41695     41696     41695     41697
     41696     41697     41698     41699     41698     41700     41699     41700
     41701     41702     41701     41703     41702     41703     41704     41705
     41704     41706     41705     41706     41707     41708     41707     41709
     41708     41709     41710     41711     41710     41712     41711     41712
     41713     41714     41713     41715     41714     41715     41716     41717
     41716     41718     41717     41718     41719     41720     41719     41721
     41720     41721     41722     41723     41722     41724     41723     41724
     41725     41726     41725     41727     41726     41727     41728     41729
     41728     41730     41729     41730     41731     41732     41731     41733
     41732     41733     41734     41735     41734     41736     41735     41736
     41737     41738     41737     41739     41738     41739     41740     41741
     41740     41742     41741     41742     41743     41744     41743     41745
     41744     41745     41746     41747     41746     41748     41747     41748
     41749     41750     41749     41751     41750     41751     41752     41753
     41752     41754     41753     41754     41755     41756     41755     41757
     41756     41757     41758     41759     41758     41760     41759     41760
     41761     41762     41761     41763     41762     41763     41764     41765
     41764     41766     41765     41766     41767     41768     41767     41769
     41768     41769     41770     41771     41770     41772     41771     41772
     41773     41774     41773     41775     41774     41775     41776     41777
     41776     41778     41777     41778     41779     41780     41779     41781
     41780     41781     41782     41783     41782     41784     41783     41784
     41785     41786     41785     41787     41786     41787     41788     41789
     41788     41790     41789     41790     41791     41792     41791     41793
     41792     41793     41794     41795     41794     41796     41795     41796
     41797     41798     41797     41799     41798     41799     41800     41801
     41800     41802     41801     41802     41803     41804     41803     41805
     41804     41805     41806     41807     41806     41808     41807     41808
     41809     41810     41809     41811     41810     41811     41812     41813
     41812     41814     41813     41814     41815     41816     41815     41817
     41816     41817     41818     41819     41818     41820     41819     41820
     41821     41822     41821     41823     41822     41823     41824     41825
     41824     41826     41825     41826     41827     41828     41827     41829
     41828     41829     41830     41831     41830     41832     41831     41832
     41833     41834     41833     41835     41834     41835     41836     41837
     41836     41838     41837     41838     41839     41840     41839     41841
     41840     41841     41842     41843     41842     41844     41843     41844
     41845     41846     41845     41847     41846     41847     41848     41849
     41848     41850     41849     41850     41851     41852     41851     41853
     41852     41853     41854     41855     41854     41856     41855     41856
     41857     41858     41857     41859     41858     41859     41860     41861
     41860     41862     41861     41862     41863     41864     41863     41865
     41864     41865     41866     41867     41866     41868     41867     41868
     41869     41870     41869     41871     41870     41871     41872     41873
     41872     41874     41873     41874     41875     41876     41875     41877
     41876     41877     41878     41879     41878     41880     41879     41880
     41881     41882     41881     41883     41882     41883     41884     41885
     41884     41886     41885     41886     41887     41888     41887     41889
     41888     41889     41890     41891     41890     41892     41891     41892
     41893     41894     41893     41895     41894     41895     41896     41897
     41896     41898     41897     41898     41899     41900     41899     41901
     41900     41901     41902     41903     41902     41904     41903     41904
     41905     41906     41905     41907     41906     41907     41908     41909
     41908     41910     41909     41910     41911     41912     41911     41913
     41912     41913     41914     41915     41914     41916     41915     41916
     41917     41918     41917     41919     41918     41919     41920     41921
     41920     41922     41921     41922     41923     41924     41923     41925
     41924     41925     41926     41927     41926     41928     41927     41928
     41929     41930     41929     41931     41930     41931     41932     41933
     41932     41934     41933     41934     41935     41936     41935     41937
     41936     41937     41938     41939     41938     41940     41939     41940
     41941     41942     41941     41943     41942     41943     41944     41945
     41944     41946     41945     41946     41947     41948     41947     41949
     41948     41949     41950     41951     41950     41952     41951     41952
     41953     41954     41953     41955     41954     41955     41956     41957
     41956     41958     41957     41958     41959     41960     41959     41961
     41960     41961     41962     41963     41962     41964     41963     41964
     41965     41966     41965     41967     41966     41967     41968     41969
     41968     41970     41969     41970     41971     41972     41971     41973
     41972     41973     41974     41975     41974     41976     41975     41976
     41977     41978     41977     41979     41978     41979     41980     41981
     41980     41982     41981     41982     41983     41984     41983     41985
     41984     41985     41986     41987     41986     41988     41987     41988
     41989     41990     41989     41991     41990     41991     41992     41993
     41992     41994     41993     41994     41995     41996     41995     41997
     41996     41997     41998     41999     41998     42000     41999     42000
     42001     42002     42001     42003     42002     42003     42004     42005
     42004     42006     42005     42006     42007     42008     42007     42009
     42008     42009     42010     42011     42010     42012     42011     42012
     42013     42014     42013     42015     42014     42015     42016     42017
     42016     42018     42017     42018     42019     42020     42019     42021
     42020     42021     42022     42023     42022     42024     42023     42024
     42025     42026     42025     42027     42026     42027     42028     42029
     42028     42030     42029     42030     42031     42032     42031     42033
     42032     42033     42034     42035     42034     42036     42035     42036
     42037     42038     42037     42039     42038     42039     42040     42041
     42040     42042     42041     42042     42043     42044     42043     42045
     42044     42045     42046     42047     42046     42048     42047     42048
     42049     42050     42049     42051     42050     42051     42052     42053
     42052     42054     42053     42054     42055     42056     42055     42057
     42056     42057     42058     42059     42058     42060     42059     42060
     42061     42062     42061     42063     42062     42063     42064     42065
     42064     42066     42065     42066     42067     42068     42067     42069
     42068     42069     42070     42071     42070     42072     42071     42072
     42073     42074     42073     42075     42074     42075     42076     42077
     42076     42078     42077     42078     42079     42080     42079     42081
     42080     42081     42082     42083     42082     42084     42083     42084
     42085     42086     42085     42087     42086     42087     42088     42089
     42088     42090     42089     42090     42091     42092     42091     42093
     42092     42093     42094     42095     42094     42096     42095     42096
     42097     42098     42097     42099     42098     42099     42100     42101
     42100     42102     42101     42102     42103     42104     42103     42105
     42104     42105     42106     42107     42106     42108     42107     42108
     42109     42110     42109     42111     42110     42111     42112     42113
     42112     42114     42113     42114     42115     42116     42115     42117
     42116     42117     42118     42119     42118     42120     42119     42120
     42121     42122     42121     42123     42122     42123     42124     42125
     42124     42126     42125     42126     42127     42128     42127     42129
     42128     42129     42130     42131     42130     42132     42131     42132
     42133     42134     42133     42135     42134     42135     42136     42137
     42136     42138     42137     42138     42139     42140     42139     42141
     42140     42141     42142     42143     42142     42144     42143     42144
     42145     42146     42145     42147     42146     42147     42148     42149
     42148     42150     42149     42150     42151     42152     42151     42153
     42152     42153     42154     42155     42154     42156     42155     42156
     42157     42158     42157     42159     42158     42159     42160     42161
     42160     42162     42161     42162     42163     42164     42163     42165
     42164     42165     42166     42167     42166     42168     42167     42168
     42169     42170     42169     42171     42170     42171     42172     42173
     42172     42174     42173     42174     42175     42176     42175     42177
     42176     42177     42178     42179     42178     42180     42179     42180
     42181     42182     42181     42183     42182     42183     42184     42185
     42184     42186     42185     42186     42187     42188     42187     42189
     42188     42189     42190     42191     42190     42192     42191     42192
     42193     42194     42193     42195     42194     42195     42196     42197
     42196     42198     42197     42198     42199     42200     42199     42201
     42200     42201     42202     42203     42202     42204     42203     42204
     42205     42206     42205     42207     42206     42207     42208     42209
     42208     42210     42209     42210     42211     42212     42211     42213
     42212     42213     42214     42215     42214     42216     42215     42216
     42217     42218     42217     42219     42218     42219     42220     42221
     42220     42222     42221     42222     42223     42224     42223     42225
     42224     42225     42226     42227     42226     42228     42227     42228
     42229     42230     42229     42231     42230     42231     42232     42233
     42232     42234     42233     42234     42235     42236     42235     42237
     42236     42237     42238     42239     42238     42240     42239     42240
     42241     42242     42241     42243     42242     42243     42244     42245
     42244     42246     42245     42246     42247     42248     42247     42249
     42248     42249     42250     42251     42250     42252     42251     42252
     42253     42254     42253     42255     42254     42255     42256     42257
     42256     42258     42257     42258     42259     42260     42259     42261
     42260     42261     42262     42263     42262     42264     42263     42264
     42265     42266     42265     42267     42266     42267     42268     42269
     42268     42270     42269     42270     42271     42272     42271     42273
     42272     42273     42274     42275     42274     42276     42275     42276
     42277     42278     42277     42279     42278     42279     42280     42281
     42280     42282     42281     42282     42283     42284     42283     42285
     42284     42285     42286     42287     42286     42288     42287     42288
     42289     42290     42289     42291     42290     42291     42292     42293
     42292     42294     42293     42294     42295     42296     42295     42297
     42296     42297     42298     42299     42298     42300     42299     42300
     42301     42302     42301     42303     42302     42303     42304     42305
     42304     42306     42305     42306     42307     42308     42307     42309
     42308     42309     42310     42311     42310     42312     42311     42312
     42313     42314     42313     42315     42314     42315     42316     42317
     42316     42318     42317     42318     42319     42320     42319     42321
     42320     42321     42322     42323     42322     42324     42323     42324
     42325     42326     42325     42327     42326     42327     42328     42329
     42328     42330     42329     42330     42331     42332     42331     42333
     42332     42333     42334     42335     42334     42336     42335     42336
     42337     42338     42337     42339     42338     42339     42340     42341
     42340     42342     42341     42342     42343     42344     42343     42345
     42344     42345     42346     42347     42346     42348     42347     42348
     42349     42350     42349     42351     42350     42351     42352     42353
     42352     42354     42353     42354     42355     42356     42355     42357
     42356     42357     42358     42359     42358     42360     42359     42360
     42361     42362     42361     42363     42362     42363     42364     42365
     42364     42366     42365     42366     42367     42368     42367     42369
     42368     42369     42370     42371     42370     42372     42371     42372
     42373     42374     42373     42375     42374     42375     42376     42377
     42376     42378     42377     42378     42379     42380     42379     42381
     42380     42381     42382     42383     42382     42384     42383     42384
     42385     42386     42385     42387     42386     42387     42388     42389
     42388     42390     42389     42390     42391     42392     42391     42393
     42392     42393     42394     42395     42394     42396     42395     42396
     42397     42398     42397     42399     42398     42399     42400     42401
     42400     42402     42401     42402     42403     42404     42403     42405
     42404     42405     42406     42407     42406     42408     42407     42408
     42409     42410     42409     42411     42410     42411     42412     42413
     42412     42414     42413     42414     42415     42416     42415     42417
     42416     42417     42418     42419     42418     42420     42419     42420
     42421     42422     42421     42423     42422     42423     42424     42425
     42424     42426     42425     42426     42427     42428     42427     42429
     42428     42429     42430     42431     42430     42432     42431     42432
     42433     42434     42433     42435     42434     42435     42436     42437
     42436     42438     42437     42438     42439     42440     42439     42441
     42440     42441     42442     42443     42442     42444     42443     42444
     42445     42446     42445     42447     42446     42447     42448     42449
     42448     42450     42449     42450     42451     42452     42451     42453
     42452     42453     42454     42455     42454     42456     42455     42456
     42457     42458     42457     42459     42458     42459     42460     42461
     42460     42462     42461     42462     42463     42464     42463     42465
     42464     42465     42466     42467     42466     42468     42467     42468
     42469     42470     42469     42471     42470     42471     42472     42473
     42472     42474     42473     42474     42475     42476     42475     42477
     42476     42477     42478     42479     42478     42480     42479     42480
     42481     42482     42481     42483     42482     42483     42484     42485
     42484     42486     42485     42486     42487     42488     42487     42489
     42488     42489     42490     42491     42490     42492     42491     42492
     42493     42494     42493     42495     42494     42495     42496     42497
     42496     42498     42497     42498     42499     42500     42499     42501
     42500     42501     42502     42503     42502     42504     42503     42504
     42505     42506     42505     42507     42506     42507     42508     42509
     42508     42510     42509     42510     42511     42512     42511     42513
     42512     42513     42514     42515     42514     42516     42515     42516
     42517     42518     42517     42519     42518     42519     42520     42521
     42520     42522     42521     42522     42523     42524     42523     42525
     42524     42525     42526     42527     42526     42528     42527     42528
     42529     42530     42529     42531     42530     42531     42532     42533
     42532     42534     42533     42534     42535     42536     42535     42537
     42536     42537     42538     42539     42538     42540     42539     42540
     42541     42542     42541     42543     42542     42543     42544     42545
     42544     42546     42545     42546     42547     42548     42547     42549
     42548     42549     42550     42551     42550     42552     42551     42552
     42553     42554     42553     42555     42554     42555     42556     42557
     42556     42558     42557     42558     42559     42560     42559     42561
     42560     42561     42562     42563     42562     42564     42563     42564
     42565     42566     42565     42567     42566     42567     42568     42569
     42568     42570     42569     42570     42571     42572     42571     42573
     42572     42573     42574     42575     42574     42576     42575     42576
     42577     42578     42577     42579     42578     42579     42580     42581
     42580     42582     42581     42582     42583     42584     42583     42585
     42584     42585     42586     42587     42586     42588     42587     42588
     42589     42590     42589     42591     42590     42591     42592     42593
     42592     42594     42593     42594     42595     42596     42595     42597
     42596     42597     42598     42599     42598     42600     42599     42600
     42601     42602     42601     42603     42602     42603     42604     42605
     42604     42606     42605     42606     42607     42608     42607     42609
     42608     42609     42610     42611     42610     42612     42611     42612
     42613     42614     42613     42615     42614     42615     42616     42617
     42616     42618     42617     42618     42619     42620     42619     42621
     42620     42621     42622     42623     42622     42624     42623     42624
     42625     42626     42625     42627     42626     42627     42628     42629
     42628     42630     42629     42630     42631     42632     42631     42633
     42632     42633     42634     42635     42634     42636     42635     42636
     42637     42638     42637     42639     42638     42639     42640     42641
     42640     42642     42641     42642     42643     42644     42643     42645
     42644     42645     42646     42647     42646     42648     42647     42648
     42649     42650     42649     42651     42650     42651     42652     42653
     42652     42654     42653     42654     42655     42656     42655     42657
     42656     42657     42658     42659     42658     42660     42659     42660
     42661     42662     42661     42663     42662     42663     42664     42665
     42664     42666     42665     42666     42667     42668     42667     42669
     42668     42669     42670     42671     42670     42672     42671     42672
     42673     42674     42673     42675     42674     42675     42676     42677
     42676     42678     42677     42678     42679     42680     42679     42681
     42680     42681     42682     42683     42682     42684     42683     42684
     42685     42686     42685     42687     42686     42687     42688     42689
     42688     42690     42689     42690     42691     42692     42691     42693
     42692     42693     42694     42695     42694     42696     42695     42696
     42697     42698     42697     42699     42698     42699     42700     42701
     42700     42702     42701     42702     42703     42704     42703     42705
     42704     42705     42706     42707     42706     42708     42707     42708
     42709     42710     42709     42711     42710     42711     42712     42713
     42712     42714     42713     42714     42715     42716     42715     42717
     42716     42717     42718     42719     42718     42720     42719     42720
     42721     42722     42721     42723     42722     42723     42724     42725
     42724     42726     42725     42726     42727     42728     42727     42729
     42728     42729     42730     42731     42730     42732     42731     42732
     42733     42734     42733     42735     42734     42735     42736     42737
     42736     42738     42737     42738     42739     42740     42739     42741
     42740     42741     42742     42743     42742     42744     42743     42744
     42745     42746     42745     42747     42746     42747     42748     42749
     42748     42750     42749     42750     42751     42752     42751     42753
     42752     42753     42754     42755     42754     42756     42755     42756
     42757     42758     42757     42759     42758     42759     42760     42761
     42760     42762     42761     42762     42763     42764     42763     42765
     42764     42765     42766     42767     42766     42768     42767     42768
     42769     42770     42769     42771     42770     42771     42772     42773
     42772     42774     42773     42774     42775     42776     42775     42777
     42776     42777     42778     42779     42778     42780     42779     42780
     42781     42782     42781     42783     42782     42783     42784     42785
     42784     42786     42785     42786     42787     42788     42787     42789
     42788     42789     42790     42791     42790     42792     42791     42792
     42793     42794     42793     42795     42794     42795     42796     42797
     42796     42798     42797     42798     42799     42800     42799     42801
     42800     42801     42802     42803     42802     42804     42803     42804
     42805     42806     42805     42807     42806     42807     42808     42809
     42808     42810     42809     42810     42811     42812     42811     42813
     42812     42813     42814     42815     42814     42816     42815     42816
     42817     42818     42817     42819     42818     42819     42820     42821
     42820     42822     42821     42822     42823     42824     42823     42825
     42824     42825     42826     42827     42826     42828     42827     42828
     42829     42830     42829     42831     42830     42831     42832     42833
     42832     42834     42833     42834     42835     42836     42835     42837
     42836     42837     42838     42839     42838     42840     42839     42840
     42841     42842     42841     42843     42842     42843     42844     42845
     42844     42846     42845     42846     42847     42848     42847     42849
     42848     42849     42850     42851     42850     42852     42851     42852
     42853     42854     42853     42855     42854     42855     42856     42857
     42856     42858     42857     42858     42859     42860     42859     42861
     42860     42861     42862     42863     42862     42864     42863     42864
     42865     42866     42865     42867     42866     42867     42868     42869
     42868     42870     42869     42870     42871     42872     42871     42873
     42872     42873     42874     42875     42874     42876     42875     42876
     42877     42878     42877     42879     42878     42879     42880     42881
     42880     42882     42881     42882     42883     42884     42883     42885
     42884     42885     42886     42887     42886     42888     42887     42888
     42889     42890     42889     42891     42890     42891     42892     42893
     42892     42894     42893     42894     42895     42896     42895     42897
     42896     42897     42898     42899     42898     42900     42899     42900
     42901     42902     42901     42903     42902     42903     42904     42905
     42904     42906     42905     42906     42907     42908     42907     42909
     42908     42909     42910     42911     42910     42912     42911     42912
     42913     42914     42913     42915     42914     42915     42916     42917
     42916     42918     42917     42918     42919     42920     42919     42921
     42920     42921     42922     42923     42922     42924     42923     42924
     42925     42926     42925     42927     42926     42927     42928     42929
     42928     42930     42929     42930     42931     42932     42931     42933
     42932     42933     42934     42935     42934     42936     42935     42936
     42937     42938     42937     42939     42938     42939     42940     42941
     42940     42942     42941     42942     42943     42944     42943     42945
     42944     42945     42946     42947     42946     42948     42947     42948
     42949     42950     42949     42951     42950     42951     42952     42953
     42952     42954     42953     42954     42955     42956     42955     42957
     42956     42957     42958     42959     42958     42960     42959     42960
     42961     42962     42961     42963     42962     42963     42964     42965
     42964     42966     42965     42966     42967     42968     42967     42969
     42968     42969     42970     42971     42970     42972     42971     42972
     42973     42974     42973     42975     42974     42975     42976     42977
     42976     42978     42977     42978     42979     42980     42979     42981
     42980     42981     42982     42983     42982     42984     42983     42984
     42985     42986     42985     42987     42986     42987     42988     42989
     42988     42990     42989     42990     42991     42992     42991     42993
     42992     42993     42994     42995     42994     42996     42995     42996
     42997     42998     42997     42999     42998     42999     43000     43001
     43000     43002     43001     43002     43003     43004     43003     43005
     43004     43005     43006     43007     43006     43008     43007     43008
     43009     43010     43009     43011     43010     43011     43012     43013
     43012     43014     43013     43014     43015     43016     43015     43017
     43016     43017     43018     43019     43018     43020     43019     43020
     43021     43022     43021     43023     43022     43023     43024     43025
     43024     43026     43025     43026     43027     43028     43027     43029
     43028     43029     43030     43031     43030     43032     43031     43032
     43033     43034     43033     43035     43034     43035     43036     43037
     43036     43038     43037     43038     43039     43040     43039     43041
     43040     43041     43042     43043     43042     43044     43043     43044
     43045     43046     43045     43047     43046     43047     43048     43049
     43048     43050     43049     43050     43051     43052     43051     43053
     43052     43053     43054     43055     43054     43056     43055     43056
     43057     43058     43057     43059     43058     43059     43060     43061
     43060     43062     43061     43062     43063     43064     43063     43065
     43064     43065     43066     43067     43066     43068     43067     43068
     43069     43070     43069     43071     43070     43071     43072     43073
     43072     43074     43073     43074     43075     43076     43075     43077
     43076     43077     43078     43079     43078     43080     43079     43080
     43081     43082     43081     43083     43082     43083     43084     43085
     43084     43086     43085     43086     43087     43088     43087     43089
     43088     43089     43090     43091     43090     43092     43091     43092
     43093     43094     43093     43095     43094     43095     43096     43097
     43096     43098     43097     43098     43099     43100     43099     43101
     43100     43101     43102     43103     43102     43104     43103     43104
     43105     43106     43105     43107     43106     43107     43108     43109
     43108     43110     43109     43110     43111     43112     43111     43113
     43112     43113     43114     43115     43114     43116     43115     43116
     43117     43118     43117     43119     43118     43119     43120     43121
     43120     43122     43121     43122     43123     43124     43123     43125
     43124     43125     43126     43127     43126     43128     43127     43128
     43129     43130     43129     43131     43130     43131     43132     43133
     43132     43134     43133     43134     43135     43136     43135     43137
     43136     43137     43138     43139     43138     43140     43139     43140
     43141     43142     43141     43143     43142     43143     43144     43145
     43144     43146     43145     43146     43147     43148     43147     43149
     43148     43149     43150     43151     43150     43152     43151     43152
     43153     43154     43153     43155     43154     43155     43156     43157
     43156     43158     43157     43158     43159     43160     43159     43161
     43160     43161     43162     43163     43162     43164     43163     43164
     43165     43166     43165     43167     43166     43167     43168     43169
     43168     43170     43169     43170     43171     43172     43171     43173
     43172     43173     43174     43175     43174     43176     43175     43176
     43177     43178     43177     43179     43178     43179     43180     43181
     43180     43182     43181     43182     43183     43184     43183     43185
     43184     43185     43186     43187     43186     43188     43187     43188
     43189     43190     43189     43191     43190     43191     43192     43193
     43192     43194     43193     43194     43195     43196     43195     43197
     43196     43197     43198     43199     43198     43200     43199     43200
     43201     43202     43201     43203     43202     43203     43204     43205
     43204     43206     43205     43206     43207     43208     43207     43209
     43208     43209     43210     43211     43210     43212     43211     43212
     43213     43214     43213     43215     43214     43215     43216     43217
     43216     43218     43217     43218     43219     43220     43219     43221
     43220     43221     43222     43223     43222     43224     43223     43224
     43225     43226     43225     43227     43226     43227     43228     43229
     43228     43230     43229     43230     43231     43232     43231     43233
     43232     43233     43234     43235     43234     43236     43235     43236
     43237     43238     43237     43239     43238     43239     43240     43241
     43240     43242     43241     43242     43243     43244     43243     43245
     43244     43245     43246     43247     43246     43248     43247     43248
     43249     43250     43249     43251     43250     43251     43252     43253
     43252     43254     43253     43254     43255     43256     43255     43257
     43256     43257     43258     43259     43258     43260     43259     43260
     43261     43262     43261     43263     43262     43263     43264     43265
     43264     43266     43265     43266     43267     43268     43267     43269
     43268     43269     43270     43271     43270     43272     43271     43272
     43273     43274     43273     43275     43274     43275     43276     43277
     43276     43278     43277     43278     43279     43280     43279     43281
     43280     43281     43282     43283     43282     43284     43283     43284
     43285     43286     43285     43287     43286     43287     43288     43289
     43288     43290     43289     43290     43291     43292     43291     43293
     43292     43293     43294     43295     43294     43296     43295     43296
     43297     43298     43297     43299     43298     43299     43300     43301
     43300     43302     43301     43302     43303     43304     43303     43305
     43304     43305     43306     43307     43306     43308     43307     43308
     43309     43310     43309     43311     43310     43311     43312     43313
     43312     43314     43313     43314     43315     43316     43315     43317
     43316     43317     43318     43319     43318     43320     43319     43320
     43321     43322     43321     43323     43322     43323     43324     43325
     43324     43326     43325     43326     43327     43328     43327     43329
     43328     43329     43330     43331     43330     43332     43331     43332
     43333     43334     43333     43335     43334     43335     43336     43337
     43336     43338     43337     43338     43339     43340     43339     43341
     43340     43341     43342     43343     43342     43344     43343     43344
     43345     43346     43345     43347     43346     43347     43348     43349
     43348     43350     43349     43350     43351     43352     43351     43353
     43352     43353     43354     43355     43354     43356     43355     43356
     43357     43358     43357     43359     43358     43359     43360     43361
     43360     43362     43361     43362     43363     43364     43363     43365
     43364     43365     43366     43367     43366     43368     43367     43368
     43369     43370     43369     43371     43370     43371     43372     43373
     43372     43374     43373     43374     43375     43376     43375     43377
     43376     43377     43378     43379     43378     43380     43379     43380
     43381     43382     43381     43383     43382     43383     43384     43385
     43384     43386     43385     43386     43387     43388     43387     43389
     43388     43389     43390     43391     43390     43392     43391     43392
     43393     43394     43393     43395     43394     43395     43396     43397
     43396     43398     43397     43398     43399     43400     43399     43401
     43400     43401     43402     43403     43402     43404     43403     43404
     43405     43406     43405     43407     43406     43407     43408     43409
     43408     43410     43409     43410     43411     43412     43411     43413
     43412     43413     43414     43415     43414     43416     43415     43416
     43417     43418     43417     43419     43418     43419     43420     43421
     43420     43422     43421     43422     43423     43424     43423     43425
     43424     43425     43426     43427     43426     43428     43427     43428
     43429     43430     43429     43431     43430     43431     43432     43433
     43432     43434     43433     43434     43435     43436     43435     43437
     43436     43437     43438     43439     43438     43440     43439     43440
     43441     43442     43441     43443     43442     43443     43444     43445
     43444     43446     43445     43446     43447     43448     43447     43449
     43448     43449     43450     43451     43450     43452     43451     43452
     43453     43454     43453     43455     43454     43455     43456     43457
     43456     43458     43457     43458     43459     43460     43459     43461
     43460     43461     43462     43463     43462     43464     43463     43464
     43465     43466     43465     43467     43466     43467     43468     43469
     43468     43470     43469     43470     43471     43472     43471     43473
     43472     43473     43474     43475     43474     43476     43475     43476
     43477     43478     43477     43479     43478     43479     43480     43481
     43480     43482     43481     43482     43483     43484     43483     43485
     43484     43485     43486     43487     43486     43488     43487     43488
     43489     43490     43489     43491     43490     43491     43492     43493
     43492     43494     43493     43494     43495     43496     43495     43497
     43496     43497     43498     43499     43498     43500     43499     43500
     43501     43502     43501     43503     43502     43503     43504     43505
     43504     43506     43505     43506     43507     43508     43507     43509
     43508     43509     43510     43511     43510     43512     43511     43512
     43513     43514     43513     43515     43514     43515     43516     43517
     43516     43518     43517     43518     43519     43520     43519     43521
     43520     43521     43522     43523     43522     43524     43523     43524
     43525     43526     43525     43527     43526     43527     43528     43529
     43528     43530     43529     43530     43531     43532     43531     43533
     43532     43533     43534     43535     43534     43536     43535     43536
     43537     43538     43537     43539     43538     43539     43540     43541
     43540     43542     43541     43542     43543     43544     43543     43545
     43544     43545     43546     43547     43546     43548     43547     43548
     43549     43550     43549     43551     43550     43551     43552     43553
     43552     43554     43553     43554     43555     43556     43555     43557
     43556     43557     43558     43559     43558     43560     43559     43560
     43561     43562     43561     43563     43562     43563     43564     43565
     43564     43566     43565     43566     43567     43568     43567     43569
     43568     43569     43570     43571     43570     43572     43571     43572
     43573     43574     43573     43575     43574     43575     43576     43577
     43576     43578     43577     43578     43579     43580     43579     43581
     43580     43581     43582     43583     43582     43584     43583     43584
     43585     43586     43585     43587     43586     43587     43588     43589
     43588     43590     43589     43590     43591     43592     43591     43593
     43592     43593     43594     43595     43594     43596     43595     43596
     43597     43598     43597     43599     43598     43599     43600     43601
     43600     43602     43601     43602     43603     43604     43603     43605
     43604     43605     43606     43607     43606     43608     43607     43608
     43609     43610     43609     43611     43610     43611     43612     43613
     43612     43614     43613     43614     43615     43616     43615     43617
     43616     43617     43618     43619     43618     43620     43619     43620
     43621     43622     43621     43623     43622     43623     43624     43625
     43624     43626     43625     43626     43627     43628     43627     43629
     43628     43629     43630     43631     43630     43632     43631     43632
     43633     43634     43633     43635     43634     43635     43636     43637
     43636     43638     43637     43638     43639     43640     43639     43641
     43640     43641     43642     43643     43642     43644     43643     43644
     43645     43646     43645     43647     43646     43647     43648     43649
     43648     43650     43649     43650     43651     43652     43651     43653
     43652     43653     43654     43655     43654     43656     43655     43656
     43657     43658     43657     43659     43658     43659     43660     43661
     43660     43662     43661     43662     43663     43664     43663     43665
     43664     43665     43666     43667     43666     43668     43667     43668
     43669     43670     43669     43671     43670     43671     43672     43673
     43672     43674     43673     43674     43675     43676     43675     43677
     43676     43677     43678     43679     43678     43680     43679     43680
     43681     43682     43681     43683     43682     43683     43684     43685
     43684     43686     43685     43686     43687     43688     43687     43689
     43688     43689     43690     43691     43690     43692     43691     43692
     43693     43694     43693     43695     43694     43695     43696     43697
     43696     43698     43697     43698     43699     43700     43699     43701
     43700     43701     43702     43703     43702     43704     43703     43704
     43705     43706     43705     43707     43706     43707     43708     43709
     43708     43710     43709     43710     43711     43712     43711     43713
     43712     43713     43714     43715     43714     43716     43715     43716
     43717     43718     43717     43719     43718     43719     43720     43721
     43720     43722     43721     43722     43723     43724     43723     43725
     43724     43725     43726     43727     43726     43728     43727     43728
     43729     43730     43729     43731     43730     43731     43732     43733
     43732     43734     43733     43734     43735     43736     43735     43737
     43736     43737     43738     43739     43738     43740     43739     43740
     43741     43742     43741     43743     43742     43743     43744     43745
     43744     43746     43745     43746     43747     43748     43747     43749
     43748     43749     43750     43751     43750     43752     43751     43752
     43753     43754     43753     43755     43754     43755     43756     43757
     43756     43758     43757     43758     43759     43760     43759     43761
     43760     43761     43762     43763     43762     43764     43763     43764
     43765     43766     43765     43767     43766     43767     43768     43769
     43768     43770     43769     43770     43771     43772     43771     43773
     43772     43773     43774     43775     43774     43776     43775     43776
     43777     43778     43777     43779     43778     43779     43780     43781
     43780     43782     43781     43782     43783     43784     43783     43785
     43784     43785     43786     43787     43786     43788     43787     43788
     43789     43790     43789     43791     43790     43791     43792     43793
     43792     43794     43793     43794     43795     43796     43795     43797
     43796     43797     43798     43799     43798     43800     43799     43800
     43801     43802     43801     43803     43802     43803     43804     43805
     43804     43806     43805     43806     43807     43808     43807     43809
     43808     43809     43810     43811     43810     43812     43811     43812
     43813     43814     43813     43815     43814     43815     43816     43817
     43816     43818     43817     43818     43819     43820     43819     43821
     43820     43821     43822     43823     43822     43824     43823     43824
     43825     43826     43825     43827     43826     43827     43828     43829
     43828     43830     43829     43830     43831     43832     43831     43833
     43832     43833     43834     43835     43834     43836     43835     43836
     43837     43838     43837     43839     43838     43839     43840     43841
     43840     43842     43841     43842     43843     43844     43843     43845
     43844     43845     43846     43847     43846     43848     43847     43848
     43849     43850     43849     43851     43850     43851     43852     43853
     43852     43854     43853     43854     43855     43856     43855     43857
     43856     43857     43858     43859     43858     43860     43859     43860
     43861     43862     43861     43863     43862     43863     43864     43865
     43864     43866     43865     43866     43867     43868     43867     43869
     43868     43869     43870     43871     43870     43872     43871     43872
     43873     43874     43873     43875     43874     43875     43876     43877
     43876     43878     43877     43878     43879     43880     43879     43881
     43880     43881     43882     43883     43882     43884     43883     43884
     43885     43886     43885     43887     43886     43887     43888     43889
     43888     43890     43889     43890     43891     43892     43891     43893
     43892     43893     43894     43895     43894     43896     43895     43896
     43897     43898     43897     43899     43898     43899     43900     43901
     43900     43902     43901     43902     43903     43904     43903     43905
     43904     43905     43906     43907     43906     43908     43907     43908
     43909     43910     43909     43911     43910     43911     43912     43913
     43912     43914     43913     43914     43915     43916     43915     43917
     43916     43917     43918     43919     43918     43920     43919     43920
     43921     43922     43921     43923     43922     43923     43924     43925
     43924     43926     43925     43926     43927     43928     43927     43929
     43928     43929     43930     43931     43930     43932     43931     43932
     43933     43934     43933     43935     43934     43935     43936     43937
     43936     43938     43937     43938     43939     43940     43939     43941
     43940     43941     43942     43943     43942     43944     43943     43944
     43945     43946     43945     43947     43946     43947     43948     43949
     43948     43950     43949     43950     43951     43952     43951     43953
     43952     43953     43954     43955     43954     43956     43955     43956
     43957     43958     43957     43959     43958     43959     43960     43961
     43960     43962     43961     43962     43963     43964     43963     43965
     43964     43965     43966     43967     43966     43968     43967     43968
     43969     43970     43969     43971     43970     43971     43972     43973
     43972     43974     43973     43974     43975     43976     43975     43977
     43976     43977     43978     43979     43978     43980     43979     43980
     43981     43982     43981     43983     43982     43983     43984     43985
     43984     43986     43985     43986     43987     43988     43987     43989
     43988     43989     43990     43991     43990     43992     43991     43992
     43993     43994     43993     43995     43994     43995     43996     43997
     43996     43998     43997     43998     43999     44000     43999     44001
     44000     44001     44002     44003     44002     44004     44003     44004
     44005     44006     44005     44007     44006     44007     44008     44009
     44008     44010     44009     44010     44011     44012     44011     44013
     44012     44013     44014     44015     44014     44016     44015     44016
     44017     44018     44017     44019     44018     44019     44020     44021
     44020     44022     44021     44022     44023     44024     44023     44025
     44024     44025     44026     44027     44026     44028     44027     44028
     44029     44030     44029     44031     44030     44031     44032     44033
     44032     44034     44033     44034     44035     44036     44035     44037
     44036     44037     44038     44039     44038     44040     44039     44040
     44041     44042     44041     44043     44042     44043     44044     44045
     44044     44046     44045     44046     44047     44048     44047     44049
     44048     44049     44050     44051     44050     44052     44051     44052
     44053     44054     44053     44055     44054     44055     44056     44057
     44056     44058     44057     44058     44059     44060     44059     44061
     44060     44061     44062     44063     44062     44064     44063     44064
     44065     44066     44065     44067     44066     44067     44068     44069
     44068     44070     44069     44070     44071     44072     44071     44073
     44072     44073     44074     44075     44074     44076     44075     44076
     44077     44078     44077     44079     44078     44079     44080     44081
     44080     44082     44081     44082     44083     44084     44083     44085
     44084     44085     44086     44087     44086     44088     44087     44088
     44089     44090     44089     44091     44090     44091     44092     44093
     44092     44094     44093     44094     44095     44096     44095     44097
     44096     44097     44098     44099     44098     44100     44099     44100
     44101     44102     44101     44103     44102     44103     44104     44105
     44104     44106     44105     44106     44107     44108     44107     44109
     44108     44109     44110     44111     44110     44112     44111     44112
     44113     44114     44113     44115     44114     44115     44116     44117
     44116     44118     44117     44118     44119     44120     44119     44121
     44120     44121     44122     44123     44122     44124     44123     44124
     44125     44126     44125     44127     44126     44127     44128     44129
     44128     44130     44129     44130     44131     44132     44131     44133
     44132     44133     44134     44135     44134     44136     44135     44136
     44137     44138     44137     44139     44138     44139     44140     44141
     44140     44142     44141     44142     44143     44144     44143     44145
     44144     44145     44146     44147     44146     44148     44147     44148
     44149     44150     44149     44151     44150     44151     44152     44153
     44152     44154     44153     44154     44155     44156     44155     44157
     44156     44157     44158     44159     44158     44160     44159     44160
     44161     44162     44161     44163     44162     44163     44164     44165
     44164     44166     44165     44166     44167     44168     44167     44169
     44168     44169     44170     44171     44170     44172     44171     44172
     44173     44174     44173     44175     44174     44175     44176     44177
     44176     44178     44177     44178     44179     44180     44179     44181
     44180     44181     44182     44183     44182     44184     44183     44184
     44185     44186     44185     44187     44186     44187     44188     44189
     44188     44190     44189     44190     44191     44192     44191     44193
     44192     44193     44194     44195     44194     44196     44195     44196
     44197     44198     44197     44199     44198     44199     44200     44201
     44200     44202     44201     44202     44203     44204     44203     44205
     44204     44205     44206     44207     44206     44208     44207     44208
     44209     44210     44209     44211     44210     44211     44212     44213
     44212     44214     44213     44214     44215     44216     44215     44217
     44216     44217     44218     44219     44218     44220     44219     44220
     44221     44222     44221     44223     44222     44223     44224     44225
     44224     44226     44225     44226     44227     44228     44227     44229
     44228     44229     44230     44231     44230     44232     44231     44232
     44233     44234     44233     44235     44234     44235     44236     44237
     44236     44238     44237     44238     44239     44240     44239     44241
     44240     44241     44242     44243     44242     44244     44243     44244
     44245     44246     44245     44247     44246     44247     44248     44249
     44248     44250     44249     44250     44251     44252     44251     44253
     44252     44253     44254     44255     44254     44256     44255     44256
     44257     44258     44257     44259     44258     44259     44260     44261
     44260     44262     44261     44262     44263     44264     44263     44265
     44264     44265     44266     44267     44266     44268     44267     44268
     44269     44270     44269     44271     44270     44271     44272     44273
     44272     44274     44273     44274     44275     44276     44275     44277
     44276     44277     44278     44279     44278     44280     44279     44280
     44281     44282     44281     44283     44282     44283     44284     44285
     44284     44286     44285     44286     44287     44288     44287     44289
     44288     44289     44290     44291     44290     44292     44291     44292
     44293     44294     44293     44295     44294     44295     44296     44297
     44296     44298     44297     44298     44299     44300     44299     44301
     44300     44301     44302     44303     44302     44304     44303     44304
     44305     44306     44305     44307     44306     44307     44308     44309
     44308     44310     44309     44310     44311     44312     44311     44313
     44312     44313     44314     44315     44314     44316     44315     44316
     44317     44318     44317     44319     44318     44319     44320     44321
     44320     44322     44321     44322     44323     44324     44323     44325
     44324     44325     44326     44327     44326     44328     44327     44328
     44329     44330     44329     44331     44330     44331     44332     44333
     44332     44334     44333     44334     44335     44336     44335     44337
     44336     44337     44338     44339     44338     44340     44339     44340
     44341     44342     44341     44343     44342     44343     44344     44345
     44344     44346     44345     44346     44347     44348     44347     44349
     44348     44349     44350     44351     44350     44352     44351     44352
     44353     44354     44353     44355     44354     44355     44356     44357
     44356     44358     44357     44358     44359     44360     44359     44361
     44360     44361     44362     44363     44362     44364     44363     44364
     44365     44366     44365     44367     44366     44367     44368     44369
     44368     44370     44369     44370     44371     44372     44371     44373
     44372     44373     44374     44375     44374     44376     44375     44376
     44377     44378     44377     44379     44378     44379     44380     44381
     44380     44382     44381     44382     44383     44384     44383     44385
     44384     44385     44386     44387     44386     44388     44387     44388
     44389     44390     44389     44391     44390     44391     44392     44393
     44392     44394     44393     44394     44395     44396     44395     44397
     44396     44397     44398     44399     44398     44400     44399     44400
     44401     44402     44401     44403     44402     44403     44404     44405
     44404     44406     44405     44406     44407     44408     44407     44409
     44408     44409     44410     44411     44410     44412     44411     44412
     44413     44414     44413     44415     44414     44415     44416     44417
     44416     44418     44417     44418     44419     44420     44419     44421
     44420     44421     44422     44423     44422     44424     44423     44424
     44425     44426     44425     44427     44426     44427     44428     44429
     44428     44430     44429     44430     44431     44432     44431     44433
     44432     44433     44434     44435     44434     44436     44435     44436
     44437     44438     44437     44439     44438     44439     44440     44441
     44440     44442     44441     44442     44443     44444     44443     44445
     44444     44445     44446     44447     44446     44448     44447     44448
     44449     44450     44449     44451     44450     44451     44452     44453
     44452     44454     44453     44454     44455     44456     44455     44457
     44456     44457     44458     44459     44458     44460     44459     44460
     44461     44462     44461     44463     44462     44463     44464     44465
     44464     44466     44465     44466     44467     44468     44467     44469
     44468     44469     44470     44471     44470     44472     44471     44472
     44473     44474     44473     44475     44474     44475     44476     44477
     44476     44478     44477     44478     44479     44480     44479     44481
     44480     44481     44482     44483     44482     44484     44483     44484
     44485     44486     44485     44487     44486     44487     44488     44489
     44488     44490     44489     44490     44491     44492     44491     44493
     44492     44493     44494     44495     44494     44496     44495     44496
     44497     44498     44497     44499     44498     44499     44500     44501
     44500     44502     44501     44502     44503     44504     44503     44505
     44504     44505     44506     44507     44506     44508     44507     44508
     44509     44510     44509     44511     44510     44511     44512     44513
     44512     44514     44513     44514     44515     44516     44515     44517
     44516     44517     44518     44519     44518     44520     44519     44520
     44521     44522     44521     44523     44522     44523     44524     44525
     44524     44526     44525     44526     44527     44528     44527     44529
     44528     44529     44530     44531     44530     44532     44531     44532
     44533     44534     44533     44535     44534     44535     44536     44537
     44536     44538     44537     44538     44539     44540     44539     44541
     44540     44541     44542     44543     44542     44544     44543     44544
     44545     44546     44545     44547     44546     44547     44548     44549
     44548     44550     44549     44550     44551     44552     44551     44553
     44552     44553     44554     44555     44554     44556     44555     44556
     44557     44558     44557     44559     44558     44559     44560     44561
     44560     44562     44561     44562     44563     44564     44563     44565
     44564     44565     44566     44567     44566     44568     44567     44568
     44569     44570     44569     44571     44570     44571     44572     44573
     44572     44574     44573     44574     44575     44576     44575     44577
     44576     44577     44578     44579     44578     44580     44579     44580
     44581     44582     44581     44583     44582     44583     44584     44585
     44584     44586     44585     44586     44587     44588     44587     44589
     44588     44589     44590     44591     44590     44592     44591     44592
     44593     44594     44593     44595     44594     44595     44596     44597
     44596     44598     44597     44598     44599     44600     44599     44601
     44600     44601     44602     44603     44602     44604     44603     44604
     44605     44606     44605     44607     44606     44607     44608     44609
     44608     44610     44609     44610     44611     44612     44611     44613
     44612     44613     44614     44615     44614     44616     44615     44616
     44617     44618     44617     44619     44618     44619     44620     44621
     44620     44622     44621     44622     44623     44624     44623     44625
     44624     44625     44626     44627     44626     44628     44627     44628
     44629     44630     44629     44631     44630     44631     44632     44633
     44632     44634     44633     44634     44635     44636     44635     44637
     44636     44637     44638     44639     44638     44640     44639     44640
     44641     44642     44641     44643     44642     44643     44644     44645
     44644     44646     44645     44646     44647     44648     44647     44649
     44648     44649     44650     44651     44650     44652     44651     44652
     44653     44654     44653     44655     44654     44655     44656     44657
     44656     44658     44657     44658     44659     44660     44659     44661
     44660     44661     44662     44663     44662     44664     44663     44664
     44665     44666     44665     44667     44666     44667     44668     44669
     44668     44670     44669     44670     44671     44672     44671     44673
     44672     44673     44674     44675     44674     44676     44675     44676
     44677     44678     44677     44679     44678     44679     44680     44681
     44680     44682     44681     44682     44683     44684     44683     44685
     44684     44685     44686     44687     44686     44688     44687     44688
     44689     44690     44689     44691     44690     44691     44692     44693
     44692     44694     44693     44694     44695     44696     44695     44697
     44696     44697     44698     44699     44698     44700     44699     44700
     44701     44702     44701     44703     44702     44703     44704     44705
     44704     44706     44705     44706     44707     44708     44707     44709
     44708     44709     44710     44711     44710     44712     44711     44712
     44713     44714     44713     44715     44714     44715     44716     44717
     44716     44718     44717     44718     44719     44720     44719     44721
     44720     44721     44722     44723     44722     44724     44723     44724
     44725     44726     44725     44727     44726     44727     44728     44729
     44728     44730     44729     44730     44731     44732     44731     44733
     44732     44733     44734     44735     44734     44736     44735     44736
     44737     44738     44737     44739     44738     44739     44740     44741
     44740     44742     44741     44742     44743     44744     44743     44745
     44744     44745     44746     44747     44746     44748     44747     44748
     44749     44750     44749     44751     44750     44751     44752     44753
     44752     44754     44753     44754     44755     44756     44755     44757
     44756     44757     44758     44759     44758     44760     44759     44760
     44761     44762     44761     44763     44762     44763     44764     44765
     44764     44766     44765     44766     44767     44768     44767     44769
     44768     44769     44770     44771     44770     44772     44771     44772
     44773     44774     44773     44775     44774     44775     44776     44777
     44776     44778     44777     44778     44779     44780     44779     44781
     44780     44781     44782     44783     44782     44784     44783     44784
     44785     44786     44785     44787     44786     44787     44788     44789
     44788     44790     44789     44790     44791     44792     44791     44793
     44792     44793     44794     44795     44794     44796     44795     44796
     44797     44798     44797     44799     44798     44799     44800     44801
     44800     44802     44801     44802     44803     44804     44803     44805
     44804     44805     44806     44807     44806     44808     44807     44808
     44809     44810     44809     44811     44810     44811     44812     44813
     44812     44814     44813     44814     44815     44816     44815     44817
     44816     44817     44818     44819     44818     44820     44819     44820
     44821     44822     44821     44823     44822     44823     44824     44825
     44824     44826     44825     44826     44827     44828     44827     44829
     44828     44829     44830     44831     44830     44832     44831     44832
     44833     44834     44833     44835     44834     44835     44836     44837
     44836     44838     44837     44838     44839     44840     44839     44841
     44840     44841     44842     44843     44842     44844     44843     44844
     44845     44846     44845     44847     44846     44847     44848     44849
     44848     44850     44849     44850     44851     44852     44851     44853
     44852     44853     44854     44855     44854     44856     44855     44856
     44857     44858     44857     44859     44858     44859     44860     44861
     44860     44862     44861     44862     44863     44864     44863     44865
     44864     44865     44866     44867     44866     44868     44867     44868
     44869     44870     44869     44871     44870     44871     44872     44873
     44872     44874     44873     44874     44875     44876     44875     44877
     44876     44877     44878     44879     44878     44880     44879     44880
     44881     44882     44881     44883     44882     44883     44884     44885
     44884     44886     44885     44886     44887     44888     44887     44889
     44888     44889     44890     44891     44890     44892     44891     44892
     44893     44894     44893     44895     44894     44895     44896     44897
     44896     44898     44897     44898     44899     44900     44899     44901
     44900     44901     44902     44903     44902     44904     44903     44904
     44905     44906     44905     44907     44906     44907     44908     44909
     44908     44910     44909     44910     44911     44912     44911     44913
     44912     44913     44914     44915     44914     44916     44915     44916
     44917     44918     44917     44919     44918     44919     44920     44921
     44920     44922     44921     44922     44923     44924     44923     44925
     44924     44925     44926     44927     44926     44928     44927     44928
     44929     44930     44929     44931     44930     44931     44932     44933
     44932     44934     44933     44934     44935     44936     44935     44937
     44936     44937     44938     44939     44938     44940     44939     44940
     44941     44942     44941     44943     44942     44943     44944     44945
     44944     44946     44945     44946     44947     44948     44947     44949
     44948     44949     44950     44951     44950     44952     44951     44952
     44953     44954     44953     44955     44954     44955     44956     44957
     44956     44958     44957     44958     44959     44960     44959     44961
     44960     44961     44962     44963     44962     44964     44963     44964
     44965     44966     44965     44967     44966     44967     44968     44969
     44968     44970     44969     44970     44971     44972     44971     44973
     44972     44973     44974     44975     44974     44976     44975     44976
     44977     44978     44977     44979     44978     44979     44980     44981
     44980     44982     44981     44982     44983     44984     44983     44985
     44984     44985     44986     44987     44986     44988     44987     44988
     44989     44990     44989     44991     44990     44991     44992     44993
     44992     44994     44993     44994     44995     44996     44995     44997
     44996     44997     44998     44999     44998     45000     44999     45000
     45001     45002     45001     45003     45002     45003     45004     45005
     45004     45006     45005     45006     45007     45008     45007     45009
     45008     45009     45010     45011     45010     45012     45011     45012
     45013     45014     45013     45015     45014     45015     45016     45017
     45016     45018     45017     45018     45019     45020     45019     45021
     45020     45021     45022     45023     45022     45024     45023     45024
     45025     45026     45025     45027     45026     45027     45028     45029
     45028     45030     45029     45030     45031     45032     45031     45033
     45032     45033     45034     45035     45034     45036     45035     45036
     45037     45038     45037     45039     45038     45039     45040     45041
     45040     45042     45041     45042     45043     45044     45043     45045
     45044     45045     45046     45047     45046     45048     45047     45048
     45049     45050     45049     45051     45050     45051     45052     45053
     45052     45054     45053     45054     45055     45056     45055     45057
     45056     45057     45058     45059     45058     45060     45059     45060
     45061     45062     45061     45063     45062     45063     45064     45065
     45064     45066     45065     45066     45067     45068     45067     45069
     45068     45069     45070     45071     45070     45072     45071     45072
     45073     45074     45073     45075     45074     45075     45076     45077
     45076     45078     45077     45078     45079     45080     45079     45081
     45080     45081     45082     45083     45082     45084     45083     45084
     45085     45086     45085     45087     45086     45087     45088     45089
     45088     45090     45089     45090     45091     45092     45091     45093
     45092     45093     45094     45095     45094     45096     45095     45096
     45097     45098     45097     45099     45098     45099     45100     45101
     45100     45102     45101     45102     45103     45104     45103     45105
     45104     45105     45106     45107     45106     45108     45107     45108
     45109     45110     45109     45111     45110     45111     45112     45113
     45112     45114     45113     45114     45115     45116     45115     45117
     45116     45117     45118     45119     45118     45120     45119     45120
     45121     45122     45121     45123     45122     45123     45124     45125
     45124     45126     45125     45126     45127     45128     45127     45129
     45128     45129     45130     45131     45130     45132     45131     45132
     45133     45134     45133     45135     45134     45135     45136     45137
     45136     45138     45137     45138     45139     45140     45139     45141
     45140     45141     45142     45143     45142     45144     45143     45144
     45145     45146     45145     45147     45146     45147     45148     45149
     45148     45150     45149     45150     45151     45152     45151     45153
     45152     45153     45154     45155     45154     45156     45155     45156
     45157     45158     45157     45159     45158     45159     45160     45161
     45160     45162     45161     45162     45163     45164     45163     45165
     45164     45165     45166     45167     45166     45168     45167     45168
     45169     45170     45169     45171     45170     45171     45172     45173
     45172     45174     45173     45174     45175     45176     45175     45177
     45176     45177     45178     45179     45178     45180     45179     45180
     45181     45182     45181     45183     45182     45183     45184     45185
     45184     45186     45185     45186     45187     45188     45187     45189
     45188     45189     45190     45191     45190     45192     45191     45192
     45193     45194     45193     45195     45194     45195     45196     45197
     45196     45198     45197     45198     45199     45200     45199     45201
     45200     45201     45202     45203     45202     45204     45203     45204
     45205     45206     45205     45207     45206     45207     45208     45209
     45208     45210     45209     45210     45211     45212     45211     45213
     45212     45213     45214     45215     45214     45216     45215     45216
     45217     45218     45217     45219     45218     45219     45220     45221
     45220     45222     45221     45222     45223     45224     45223     45225
     45224     45225     45226     45227     45226     45228     45227     45228
     45229     45230     45229     45231     45230     45231     45232     45233
     45232     45234     45233     45234     45235     45236     45235     45237
     45236     45237     45238     45239     45238     45240     45239     45240
     45241     45242     45241     45243     45242     45243     45244     45245
     45244     45246     45245     45246     45247     45248     45247     45249
     45248     45249     45250     45251     45250     45252     45251     45252
     45253     45254     45253     45255     45254     45255     45256     45257
     45256     45258     45257     45258     45259     45260     45259     45261
     45260     45261     45262     45263     45262     45264     45263     45264
     45265     45266     45265     45267     45266     45267     45268     45269
     45268     45270     45269     45270     45271     45272     45271     45273
     45272     45273     45274     45275     45274     45276     45275     45276
     45277     45278     45277     45279     45278     45279     45280     45281
     45280     45282     45281     45282     45283     45284     45283     45285
     45284     45285     45286     45287     45286     45288     45287     45288
     45289     45290     45289     45291     45290     45291     45292     45293
     45292     45294     45293     45294     45295     45296     45295     45297
     45296     45297     45298     45299     45298     45300     45299     45300
     45301     45302     45301     45303     45302     45303     45304     45305
     45304     45306     45305     45306     45307     45308     45307     45309
     45308     45309     45310     45311     45310     45312     45311     45312
     45313     45314     45313     45315     45314     45315     45316     45317
     45316     45318     45317     45318     45319     45320     45319     45321
     45320     45321     45322     45323     45322     45324     45323     45324
     45325     45326     45325     45327     45326     45327     45328     45329
     45328     45330     45329     45330     45331     45332     45331     45333
     45332     45333     45334     45335     45334     45336     45335     45336
     45337     45338     45337     45339     45338     45339     45340     45341
     45340     45342     45341     45342     45343     45344     45343     45345
     45344     45345     45346     45347     45346     45348     45347     45348
     45349     45350     45349     45351     45350     45351     45352     45353
     45352     45354     45353     45354     45355     45356     45355     45357
     45356     45357     45358     45359     45358     45360     45359     45360
     45361     45362     45361     45363     45362     45363     45364     45365
     45364     45366     45365     45366     45367     45368     45367     45369
     45368     45369     45370     45371     45370     45372     45371     45372
     45373     45374     45373     45375     45374     45375     45376     45377
     45376     45378     45377     45378     45379     45380     45379     45381
     45380     45381     45382     45383     45382     45384     45383     45384
     45385     45386     45385     45387     45386     45387     45388     45389
     45388     45390     45389     45390     45391     45392     45391     45393
     45392     45393     45394     45395     45394     45396     45395     45396
     45397     45398     45397     45399     45398     45399     45400     45401
     45400     45402     45401     45402     45403     45404     45403     45405
     45404     45405     45406     45407     45406     45408     45407     45408
     45409     45410     45409     45411     45410     45411     45412     45413
     45412     45414     45413     45414     45415     45416     45415     45417
     45416     45417     45418     45419     45418     45420     45419     45420
     45421     45422     45421     45423     45422     45423     45424     45425
     45424     45426     45425     45426     45427     45428     45427     45429
     45428     45429     45430     45431     45430     45432     45431     45432
     45433     45434     45433     45435     45434     45435     45436     45437
     45436     45438     45437     45438     45439     45440     45439     45441
     45440     45441     45442     45443     45442     45444     45443     45444
     45445     45446     45445     45447     45446     45447     45448     45449
     45448     45450     45449     45450     45451     45452     45451     45453
     45452     45453     45454     45455     45454     45456     45455     45456
     45457     45458     45457     45459     45458     45459     45460     45461
     45460     45462     45461     45462     45463     45464     45463     45465
     45464     45465     45466     45467     45466     45468     45467     45468
     45469     45470     45469     45471     45470     45471     45472     45473
     45472     45474     45473     45474     45475     45476     45475     45477
     45476     45477     45478     45479     45478     45480     45479     45480
     45481     45482     45481     45483     45482     45483     45484     45485
     45484     45486     45485     45486     45487     45488     45487     45489
     45488     45489     45490     45491     45490     45492     45491     45492
     45493     45494     45493     45495     45494     45495     45496     45497
     45496     45498     45497     45498     45499     45500     45499     45501
     45500     45501     45502     45503     45502     45504     45503     45504
     45505     45506     45505     45507     45506     45507     45508     45509
     45508     45510     45509     45510     45511     45512     45511     45513
     45512     45513     45514     45515     45514     45516     45515     45516
     45517     45518     45517     45519     45518     45519     45520     45521
     45520     45522     45521     45522     45523     45524     45523     45525
     45524     45525     45526     45527     45526     45528     45527     45528
     45529     45530     45529     45531     45530     45531     45532     45533
     45532     45534     45533     45534     45535     45536     45535     45537
     45536     45537     45538     45539     45538     45540     45539     45540
     45541     45542     45541     45543     45542     45543     45544     45545
     45544     45546     45545     45546     45547     45548     45547     45549
     45548     45549     45550     45551     45550     45552     45551     45552
     45553     45554     45553     45555     45554     45555     45556     45557
     45556     45558     45557     45558     45559     45560     45559     45561
     45560     45561     45562     45563     45562     45564     45563     45564
     45565     45566     45565     45567     45566     45567     45568     45569
     45568     45570     45569     45570     45571     45572     45571     45573
     45572     45573     45574     45575     45574     45576     45575     45576
     45577     45578     45577     45579     45578     45579     45580     45581
     45580     45582     45581     45582     45583     45584     45583     45585
     45584     45585     45586     45587     45586     45588     45587     45588
     45589     45590     45589     45591     45590     45591     45592     45593
     45592     45594     45593     45594     45595     45596     45595     45597
     45596     45597     45598     45599     45598     45600     45599     45600
     45601     45602     45601     45603     45602     45603     45604     45605
     45604     45606     45605     45606     45607     45608     45607     45609
     45608     45609     45610     45611     45610     45612     45611     45612
     45613     45614     45613     45615     45614     45615     45616     45617
     45616     45618     45617     45618     45619     45620     45619     45621
     45620     45621     45622     45623     45622     45624     45623     45624
     45625     45626     45625     45627     45626     45627     45628     45629
     45628     45630     45629     45630     45631     45632     45631     45633
     45632     45633     45634     45635     45634     45636     45635     45636
     45637     45638     45637     45639     45638     45639     45640     45641
     45640     45642     45641     45642     45643     45644     45643     45645
     45644     45645     45646     45647     45646     45648     45647     45648
     45649     45650     45649     45651     45650     45651     45652     45653
     45652     45654     45653     45654     45655     45656     45655     45657
     45656     45657     45658     45659     45658     45660     45659     45660
     45661     45662     45661     45663     45662     45663     45664     45665
     45664     45666     45665     45666     45667     45668     45667     45669
     45668     45669     45670     45671     45670     45672     45671     45672
     45673     45674     45673     45675     45674     45675     45676     45677
     45676     45678     45677     45678     45679     45680     45679     45681
     45680     45681     45682     45683     45682     45684     45683     45684
     45685     45686     45685     45687     45686     45687     45688     45689
     45688     45690     45689     45690     45691     45692     45691     45693
     45692     45693     45694     45695     45694     45696     45695     45696
     45697     45698     45697     45699     45698     45699     45700     45701
     45700     45702     45701     45702     45703     45704     45703     45705
     45704     45705     45706     45707     45706     45708     45707     45708
     45709     45710     45709     45711     45710     45711     45712     45713
     45712     45714     45713     45714     45715     45716     45715     45717
     45716     45717     45718     45719     45718     45720     45719     45720
     45721     45722     45721     45723     45722     45723     45724     45725
     45724     45726     45725     45726     45727     45728     45727     45729
     45728     45729     45730     45731     45730     45732     45731     45732
     45733     45734     45733     45735     45734     45735     45736     45737
     45736     45738     45737     45738     45739     45740     45739     45741
     45740     45741     45742     45743     45742     45744     45743     45744
     45745     45746     45745     45747     45746     45747     45748     45749
     45748     45750     45749     45750     45751     45752     45751     45753
     45752     45753     45754     45755     45754     45756     45755     45756
     45757     45758     45757     45759     45758     45759     45760     45761
     45760     45762     45761     45762     45763     45764     45763     45765
     45764     45765     45766     45767     45766     45768     45767     45768
     45769     45770     45769     45771     45770     45771     45772     45773
     45772     45774     45773     45774     45775     45776     45775     45777
     45776     45777     45778     45779     45778     45780     45779     45780
     45781     45782     45781     45783     45782     45783     45784     45785
     45784     45786     45785     45786     45787     45788     45787     45789
     45788     45789     45790     45791     45790     45792     45791     45792
     45793     45794     45793     45795     45794     45795     45796     45797
     45796     45798     45797     45798     45799     45800     45799     45801
     45800     45801     45802     45803     45802     45804     45803     45804
     45805     45806     45805     45807     45806     45807     45808     45809
     45808     45810     45809     45810     45811     45812     45811     45813
     45812     45813     45814     45815     45814     45816     45815     45816
     45817     45818     45817     45819     45818     45819     45820     45821
     45820     45822     45821     45822     45823     45824     45823     45825
     45824     45825     45826     45827     45826     45828     45827     45828
     45829     45830     45829     45831     45830     45831     45832     45833
     45832     45834     45833     45834     45835     45836     45835     45837
     45836     45837     45838     45839     45838     45840     45839     45840
     45841     45842     45841     45843     45842     45843     45844     45845
     45844     45846     45845     45846     45847     45848     45847     45849
     45848     45849     45850     45851     45850     45852     45851     45852
     45853     45854     45853     45855     45854     45855     45856     45857
     45856     45858     45857     45858     45859     45860     45859     45861
     45860     45861     45862     45863     45862     45864     45863     45864
     45865     45866     45865     45867     45866     45867     45868     45869
     45868     45870     45869     45870     45871     45872     45871     45873
     45872     45873     45874     45875     45874     45876     45875     45876
     45877     45878     45877     45879     45878     45879     45880     45881
     45880     45882     45881     45882     45883     45884     45883     45885
     45884     45885     45886     45887     45886     45888     45887     45888
     45889     45890     45889     45891     45890     45891     45892     45893
     45892     45894     45893     45894     45895     45896     45895     45897
     45896     45897     45898     45899     45898     45900     45899     45900
     45901     45902     45901     45903     45902     45903     45904     45905
     45904     45906     45905     45906     45907     45908     45907     45909
     45908     45909     45910     45911     45910     45912     45911     45912
     45913     45914     45913     45915     45914     45915     45916     45917
     45916     45918     45917     45918     45919     45920     45919     45921
     45920     45921     45922     45923     45922     45924     45923     45924
     45925     45926     45925     45927     45926     45927     45928     45929
     45928     45930     45929     45930     45931     45932     45931     45933
     45932     45933     45934     45935     45934     45936     45935     45936
     45937     45938     45937     45939     45938     45939     45940     45941
     45940     45942     45941     45942     45943     45944     45943     45945
     45944     45945     45946     45947     45946     45948     45947     45948
     45949     45950     45949     45951     45950     45951     45952     45953
     45952     45954     45953     45954     45955     45956     45955     45957
     45956     45957     45958     45959     45958     45960     45959     45960
     45961     45962     45961     45963     45962     45963     45964     45965
     45964     45966     45965     45966     45967     45968     45967     45969
     45968     45969     45970     45971     45970     45972     45971     45972
     45973     45974     45973     45975     45974     45975     45976     45977
     45976     45978     45977     45978     45979     45980     45979     45981
     45980     45981     45982     45983     45982     45984     45983     45984
     45985     45986     45985     45987     45986     45987     45988     45989
     45988     45990     45989     45990     45991     45992     45991     45993
     45992     45993     45994     45995     45994     45996     45995     45996
     45997     45998     45997     45999     45998     45999     46000     46001
     46000     46002     46001     46002     46003     46004     46003     46005
     46004     46005     46006     46007     46006     46008     46007     46008
     46009     46010     46009     46011     46010     46011     46012     46013
     46012     46014     46013     46014     46015     46016     46015     46017
     46016     46017     46018     46019     46018     46020     46019     46020
     46021     46022     46021     46023     46022     46023     46024     46025
     46024     46026     46025     46026     46027     46028     46027     46029
     46028     46029     46030     46031     46030     46032     46031     46032
     46033     46034     46033     46035     46034     46035     46036     46037
     46036     46038     46037     46038     46039     46040     46039     46041
     46040     46041     46042     46043     46042     46044     46043     46044
     46045     46046     46045     46047     46046     46047     46048     46049
     46048     46050     46049     46050     46051     46052     46051     46053
     46052     46053     46054     46055     46054     46056     46055     46056
     46057     46058     46057     46059     46058     46059     46060     46061
     46060     46062     46061     46062     46063     46064     46063     46065
     46064     46065     46066     46067     46066     46068     46067     46068
     46069     46070     46069     46071     46070     46071     46072     46073
     46072     46074     46073     46074     46075     46076     46075     46077
     46076     46077     46078     46079     46078     46080     46079     46080
     46081     46082     46081     46083     46082     46083     46084     46085
     46084     46086     46085     46086     46087     46088     46087     46089
     46088     46089     46090     46091     46090     46092     46091     46092
     46093     46094     46093     46095     46094     46095     46096     46097
     46096     46098     46097     46098     46099     46100     46099     46101
     46100     46101     46102     46103     46102     46104     46103     46104
     46105     46106     46105     46107     46106     46107     46108     46109
     46108     46110     46109     46110     46111     46112     46111     46113
     46112     46113     46114     46115     46114     46116     46115     46116
     46117     46118     46117     46119     46118     46119     46120     46121
     46120     46122     46121     46122     46123     46124     46123     46125
     46124     46125     46126     46127     46126     46128     46127     46128
     46129     46130     46129     46131     46130     46131     46132     46133
     46132     46134     46133     46134     46135     46136     46135     46137
     46136     46137     46138     46139     46138     46140     46139     46140
     46141     46142     46141     46143     46142     46143     46144     46145
     46144     46146     46145     46146     46147     46148     46147     46149
     46148     46149     46150     46151     46150     46152     46151     46152
     46153     46154     46153     46155     46154     46155     46156     46157
     46156     46158     46157     46158     46159     46160     46159     46161
     46160     46161     46162     46163     46162     46164     46163     46164
     46165     46166     46165     46167     46166     46167     46168     46169
     46168     46170     46169     46170     46171     46172     46171     46173
     46172     46173     46174     46175     46174     46176     46175     46176
     46177     46178     46177     46179     46178     46179     46180     46181
     46180     46182     46181     46182     46183     46184     46183     46185
     46184     46185     46186     46187     46186     46188     46187     46188
     46189     46190     46189     46191     46190     46191     46192     46193
     46192     46194     46193     46194     46195     46196     46195     46197
     46196     46197     46198     46199     46198     46200     46199     46200
     46201     46202     46201     46203     46202     46203     46204     46205
     46204     46206     46205     46206     46207     46208     46207     46209
     46208     46209     46210     46211     46210     46212     46211     46212
     46213     46214     46213     46215     46214     46215     46216     46217
     46216     46218     46217     46218     46219     46220     46219     46221
     46220     46221     46222     46223     46222     46224     46223     46224
     46225     46226     46225     46227     46226     46227     46228     46229
     46228     46230     46229     46230     46231     46232     46231     46233
     46232     46233     46234     46235     46234     46236     46235     46236
     46237     46238     46237     46239     46238     46239     46240     46241
     46240     46242     46241     46242     46243     46244     46243     46245
     46244     46245     46246     46247     46246     46248     46247     46248
     46249     46250     46249     46251     46250     46251     46252     46253
     46252     46254     46253     46254     46255     46256     46255     46257
     46256     46257     46258     46259     46258     46260     46259     46260
     46261     46262     46261     46263     46262     46263     46264     46265
     46264     46266     46265     46266     46267     46268     46267     46269
     46268     46269     46270     46271     46270     46272     46271     46272
     46273     46274     46273     46275     46274     46275     46276     46277
     46276     46278     46277     46278     46279     46280     46279     46281
     46280     46281     46282     46283     46282     46284     46283     46284
     46285     46286     46285     46287     46286     46287     46288     46289
     46288     46290     46289     46290     46291     46292     46291     46293
     46292     46293     46294     46295     46294     46296     46295     46296
     46297     46298     46297     46299     46298     46299     46300     46301
     46300     46302     46301     46302     46303     46304     46303     46305
     46304     46305     46306     46307     46306     46308     46307     46308
     46309     46310     46309     46311     46310     46311     46312     46313
     46312     46314     46313     46314     46315     46316     46315     46317
     46316     46317     46318     46319     46318     46320     46319     46320
     46321     46322     46321     46323     46322     46323     46324     46325
     46324     46326     46325     46326     46327     46328     46327     46329
     46328     46329     46330     46331     46330     46332     46331     46332
     46333     46334     46333     46335     46334     46335     46336     46337
     46336     46338     46337     46338     46339     46340     46339     46341
     46340     46341     46342     46343     46342     46344     46343     46344
     46345     46346     46345     46347     46346     46347     46348     46349
     46348     46350     46349     46350     46351     46352     46351     46353
     46352     46353     46354     46355     46354     46356     46355     46356
     46357     46358     46357     46359     46358     46359     46360     46361
     46360     46362     46361     46362     46363     46364     46363     46365
     46364     46365     46366     46367     46366     46368     46367     46368
     46369     46370     46369     46371     46370     46371     46372     46373
     46372     46374     46373     46374     46375     46376     46375     46377
     46376     46377     46378     46379     46378     46380     46379     46380
     46381     46382     46381     46383     46382     46383     46384     46385
     46384     46386     46385     46386     46387     46388     46387     46389
     46388     46389     46390     46391     46390     46392     46391     46392
     46393     46394     46393     46395     46394     46395     46396     46397
     46396     46398     46397     46398     46399     46400     46399     46401
     46400     46401     46402     46403     46402     46404     46403     46404
     46405     46406     46405     46407     46406     46407     46408     46409
     46408     46410     46409     46410     46411     46412     46411     46413
     46412     46413     46414     46415     46414     46416     46415     46416
     46417     46418     46417     46419     46418     46419     46420     46421
     46420     46422     46421     46422     46423     46424     46423     46425
     46424     46425     46426     46427     46426     46428     46427     46428
     46429     46430     46429     46431     46430     46431     46432     46433
     46432     46434     46433     46434     46435     46436     46435     46437
     46436     46437     46438     46439     46438     46440     46439     46440
     46441     46442     46441     46443     46442     46443     46444     46445
     46444     46446     46445     46446     46447     46448     46447     46449
     46448     46449     46450     46451     46450     46452     46451     46452
     46453     46454     46453     46455     46454     46455     46456     46457
     46456     46458     46457     46458     46459     46460     46459     46461
     46460     46461     46462     46463     46462     46464     46463     46464
     46465     46466     46465     46467     46466     46467     46468     46469
     46468     46470     46469     46470     46471     46472     46471     46473
     46472     46473     46474     46475     46474     46476     46475     46476
     46477     46478     46477     46479     46478     46479     46480     46481
     46480     46482     46481     46482     46483     46484     46483     46485
     46484     46485     46486     46487     46486     46488     46487     46488
     46489     46490     46489     46491     46490     46491     46492     46493
     46492     46494     46493     46494     46495     46496     46495     46497
     46496     46497     46498     46499     46498     46500     46499     46500
     46501     46502     46501     46503     46502     46503     46504     46505
     46504     46506     46505     46506     46507     46508     46507     46509
     46508     46509     46510     46511     46510     46512     46511     46512
     46513     46514     46513     46515     46514     46515     46516     46517
     46516     46518     46517     46518     46519     46520     46519     46521
     46520     46521     46522     46523     46522     46524     46523     46524
     46525     46526     46525     46527     46526     46527     46528     46529
     46528     46530     46529     46530     46531     46532     46531     46533
     46532     46533     46534     46535     46534     46536     46535     46536
     46537     46538     46537     46539     46538     46539     46540     46541
     46540     46542     46541     46542     46543     46544     46543     46545
     46544     46545     46546     46547     46546     46548     46547     46548
     46549     46550     46549     46551     46550     46551     46552     46553
     46552     46554     46553     46554     46555     46556     46555     46557
     46556     46557     46558     46559     46558     46560     46559     46560
     46561     46562     46561     46563     46562     46563     46564     46565
     46564     46566     46565     46566     46567     46568     46567     46569
     46568     46569     46570     46571     46570     46572     46571     46572
     46573     46574     46573     46575     46574     46575     46576     46577
     46576     46578     46577     46578     46579     46580     46579     46581
     46580     46581     46582     46583     46582     46584     46583     46584
     46585     46586     46585     46587     46586     46587     46588     46589
     46588     46590     46589     46590     46591     46592     46591     46593
     46592     46593     46594     46595     46594     46596     46595     46596
     46597     46598     46597     46599     46598     46599     46600     46601
     46600     46602     46601     46602     46603     46604     46603     46605
     46604     46605     46606     46607     46606     46608     46607     46608
     46609     46610     46609     46611     46610     46611     46612     46613
     46612     46614     46613     46614     46615     46616     46615     46617
     46616     46617     46618     46619     46618     46620     46619     46620
     46621     46622     46621     46623     46622     46623     46624     46625
     46624     46626     46625     46626     46627     46628     46627     46629
     46628     46629     46630     46631     46630     46632     46631     46632
     46633     46634     46633     46635     46634     46635     46636     46637
     46636     46638     46637     46638     46639     46640     46639     46641
     46640     46641     46642     46643     46642     46644     46643     46644
     46645     46646     46645     46647     46646     46647     46648     46649
     46648     46650     46649     46650     46651     46652     46651     46653
     46652     46653     46654     46655     46654     46656     46655     46656
     46657     46658     46657     46659     46658     46659     46660     46661
     46660     46662     46661     46662     46663     46664     46663     46665
     46664     46665     46666     46667     46666     46668     46667     46668
     46669     46670     46669     46671     46670     46671     46672     46673
     46672     46674     46673     46674     46675     46676     46675     46677
     46676     46677     46678     46679     46678     46680     46679     46680
     46681     46682     46681     46683     46682     46683     46684     46685
     46684     46686     46685     46686     46687     46688     46687     46689
     46688     46689     46690     46691     46690     46692     46691     46692
     46693     46694     46693     46695     46694     46695     46696     46697
     46696     46698     46697     46698     46699     46700     46699     46701
     46700     46701     46702     46703     46702     46704     46703     46704
     46705     46706     46705     46707     46706     46707     46708     46709
     46708     46710     46709     46710     46711     46712     46711     46713
     46712     46713     46714     46715     46714     46716     46715     46716
     46717     46718     46717     46719     46718     46719     46720     46721
     46720     46722     46721     46722     46723     46724     46723     46725
     46724     46725     46726     46727     46726     46728     46727     46728
     46729     46730     46729     46731     46730     46731     46732     46733
     46732     46734     46733     46734     46735     46736     46735     46737
     46736     46737     46738     46739     46738     46740     46739     46740
     46741     46742     46741     46743     46742     46743     46744     46745
     46744     46746     46745     46746     46747     46748     46747     46749
     46748     46749     46750     46751     46750     46752     46751     46752
     46753     46754     46753     46755     46754     46755     46756     46757
     46756     46758     46757     46758     46759     46760     46759     46761
     46760     46761     46762     46763     46762     46764     46763     46764
     46765     46766     46765     46767     46766     46767     46768     46769
     46768     46770     46769     46770     46771     46772     46771     46773
     46772     46773     46774     46775     46774     46776     46775     46776
     46777     46778     46777     46779     46778     46779     46780     46781
     46780     46782     46781     46782     46783     46784     46783     46785
     46784     46785     46786     46787     46786     46788     46787     46788
     46789     46790     46789     46791     46790     46791     46792     46793
     46792     46794     46793     46794     46795     46796     46795     46797
     46796     46797     46798     46799     46798     46800     46799     46800
     46801     46802     46801     46803     46802     46803     46804     46805
     46804     46806     46805     46806     46807     46808     46807     46809
     46808     46809     46810     46811     46810     46812     46811     46812
     46813     46814     46813     46815     46814     46815     46816     46817
     46816     46818     46817     46818     46819     46820     46819     46821
     46820     46821     46822     46823     46822     46824     46823     46824
     46825     46826     46825     46827     46826     46827     46828     46829
     46828     46830     46829     46830     46831     46832     46831     46833
     46832     46833     46834     46835     46834     46836     46835     46836
     46837     46838     46837     46839     46838     46839     46840     46841
     46840     46842     46841     46842     46843     46844     46843     46845
     46844     46845     46846     46847     46846     46848     46847     46848
     46849     46850     46849     46851     46850     46851     46852     46853
     46852     46854     46853     46854     46855     46856     46855     46857
     46856     46857     46858     46859     46858     46860     46859     46860
     46861     46862     46861     46863     46862     46863     46864     46865
     46864     46866     46865     46866     46867     46868     46867     46869
     46868     46869     46870     46871     46870     46872     46871     46872
     46873     46874     46873     46875     46874     46875     46876     46877
     46876     46878     46877     46878     46879     46880     46879     46881
     46880     46881     46882     46883     46882     46884     46883     46884
     46885     46886     46885     46887     46886     46887     46888     46889
     46888     46890     46889     46890     46891     46892     46891     46893
     46892     46893     46894     46895     46894     46896     46895     46896
     46897     46898     46897     46899     46898     46899     46900     46901
     46900     46902     46901     46902     46903     46904     46903     46905
     46904     46905     46906     46907     46906     46908     46907     46908
     46909     46910     46909     46911     46910     46911     46912     46913
     46912     46914     46913     46914     46915     46916     46915     46917
     46916     46917     46918     46919     46918     46920     46919     46920
     46921     46922     46921     46923     46922     46923     46924     46925
     46924     46926     46925     46926     46927     46928     46927     46929
     46928     46929     46930     46931     46930     46932     46931     46932
     46933     46934     46933     46935     46934     46935     46936     46937
     46936     46938     46937     46938     46939     46940     46939     46941
     46940     46941     46942     46943     46942     46944     46943     46944
     46945     46946     46945     46947     46946     46947     46948     46949
     46948     46950     46949     46950     46951     46952     46951     46953
     46952     46953     46954     46955     46954     46956     46955     46956
     46957     46958     46957     46959     46958     46959     46960     46961
     46960     46962     46961     46962     46963     46964     46963     46965
     46964     46965     46966     46967     46966     46968     46967     46968
     46969     46970     46969     46971     46970     46971     46972     46973
     46972     46974     46973     46974     46975     46976     46975     46977
     46976     46977     46978     46979     46978     46980     46979     46980
     46981     46982     46981     46983     46982     46983     46984     46985
     46984     46986     46985     46986     46987     46988     46987     46989
     46988     46989     46990     46991     46990     46992     46991     46992
     46993     46994     46993     46995     46994     46995     46996     46997
     46996     46998     46997     46998     46999     47000     46999     47001
     47000     47001     47002     47003     47002     47004     47003     47004
     47005     47006     47005     47007     47006     47007     47008     47009
     47008     47010     47009     47010     47011     47012     47011     47013
     47012     47013     47014     47015     47014     47016     47015     47016
     47017     47018     47017     47019     47018     47019     47020     47021
     47020     47022     47021     47022     47023     47024     47023     47025
     47024     47025     47026     47027     47026     47028     47027     47028
     47029     47030     47029     47031     47030     47031     47032     47033
     47032     47034     47033     47034     47035     47036     47035     47037
     47036     47037     47038     47039     47038     47040     47039     47040
     47041     47042     47041     47043     47042     47043     47044     47045
     47044     47046     47045     47046     47047     47048     47047     47049
     47048     47049     47050     47051     47050     47052     47051     47052
     47053     47054     47053     47055     47054     47055     47056     47057
     47056     47058     47057     47058     47059     47060     47059     47061
     47060     47061     47062     47063     47062     47064     47063     47064
     47065     47066     47065     47067     47066     47067     47068     47069
     47068     47070     47069     47070     47071     47072     47071     47073
     47072     47073     47074     47075     47074     47076     47075     47076
     47077     47078     47077     47079     47078     47079     47080     47081
     47080     47082     47081     47082     47083     47084     47083     47085
     47084     47085     47086     47087     47086     47088     47087     47088
     47089     47090     47089     47091     47090     47091     47092     47093
     47092     47094     47093     47094     47095     47096     47095     47097
     47096     47097     47098     47099     47098     47100     47099     47100
     47101     47102     47101     47103     47102     47103     47104     47105
     47104     47106     47105     47106     47107     47108     47107     47109
     47108     47109     47110     47111     47110     47112     47111     47112
     47113     47114     47113     47115     47114     47115     47116     47117
     47116     47118     47117     47118     47119     47120     47119     47121
     47120     47121     47122     47123     47122     47124     47123     47124
     47125     47126     47125     47127     47126     47127     47128     47129
     47128     47130     47129     47130     47131     47132     47131     47133
     47132     47133     47134     47135     47134     47136     47135     47136
     47137     47138     47137     47139     47138     47139     47140     47141
     47140     47142     47141     47142     47143     47144     47143     47145
     47144     47145     47146     47147     47146     47148     47147     47148
     47149     47150     47149     47151     47150     47151     47152     47153
     47152     47154     47153     47154     47155     47156     47155     47157
     47156     47157     47158     47159     47158     47160     47159     47160
     47161     47162     47161     47163     47162     47163     47164     47165
     47164     47166     47165     47166     47167     47168     47167     47169
     47168     47169     47170     47171     47170     47172     47171     47172
     47173     47174     47173     47175     47174     47175     47176     47177
     47176     47178     47177     47178     47179     47180     47179     47181
     47180     47181     47182     47183     47182     47184     47183     47184
     47185     47186     47185     47187     47186     47187     47188     47189
     47188     47190     47189     47190     47191     47192     47191     47193
     47192     47193     47194     47195     47194     47196     47195     47196
     47197     47198     47197     47199     47198     47199     47200     47201
     47200     47202     47201     47202     47203     47204     47203     47205
     47204     47205     47206     47207     47206     47208     47207     47208
     47209     47210     47209     47211     47210     47211     47212     47213
     47212     47214     47213     47214     47215     47216     47215     47217
     47216     47217     47218     47219     47218     47220     47219     47220
     47221     47222     47221     47223     47222     47223     47224     47225
     47224     47226     47225     47226     47227     47228     47227     47229
     47228     47229     47230     47231     47230     47232     47231     47232
     47233     47234     47233     47235     47234     47235     47236     47237
     47236     47238     47237     47238     47239     47240     47239     47241
     47240     47241     47242     47243     47242     47244     47243     47244
     47245     47246     47245     47247     47246     47247     47248     47249
     47248     47250     47249     47250     47251     47252     47251     47253
     47252     47253     47254     47255     47254     47256     47255     47256
     47257     47258     47257     47259     47258     47259     47260     47261
     47260     47262     47261     47262     47263     47264     47263     47265
     47264     47265     47266     47267     47266     47268     47267     47268
     47269     47270     47269     47271     47270     47271     47272     47273
     47272     47274     47273     47274     47275     47276     47275     47277
     47276     47277     47278     47279     47278     47280     47279     47280
     47281     47282     47281     47283     47282     47283     47284     47285
     47284     47286     47285     47286     47287     47288     47287     47289
     47288     47289     47290     47291     47290     47292     47291     47292
     47293     47294     47293     47295     47294     47295     47296     47297
     47296     47298     47297     47298     47299     47300     47299     47301
     47300     47301     47302     47303     47302     47304     47303     47304
     47305     47306     47305     47307     47306     47307     47308     47309
     47308     47310     47309     47310     47311     47312     47311     47313
     47312     47313     47314     47315     47314     47316     47315     47316
     47317     47318     47317     47319     47318     47319     47320     47321
     47320     47322     47321     47322     47323     47324     47323     47325
     47324     47325     47326     47327     47326     47328     47327     47328
     47329     47330     47329     47331     47330     47331     47332     47333
     47332     47334     47333     47334     47335     47336     47335     47337
     47336     47337     47338     47339     47338     47340     47339     47340
     47341     47342     47341     47343     47342     47343     47344     47345
     47344     47346     47345     47346     47347     47348     47347     47349
     47348     47349     47350     47351     47350     47352     47351     47352
     47353     47354     47353     47355     47354     47355     47356     47357
     47356     47358     47357     47358     47359     47360     47359     47361
     47360     47361     47362     47363     47362     47364     47363     47364
     47365     47366     47365     47367     47366     47367     47368     47369
     47368     47370     47369     47370     47371     47372     47371     47373
     47372     47373     47374     47375     47374     47376     47375     47376
     47377     47378     47377     47379     47378     47379     47380     47381
     47380     47382     47381     47382     47383     47384     47383     47385
     47384     47385     47386     47387     47386     47388     47387     47388
     47389     47390     47389     47391     47390     47391     47392     47393
     47392     47394     47393     47394     47395     47396     47395     47397
     47396     47397     47398     47399     47398     47400     47399     47400
     47401     47402     47401     47403     47402     47403     47404     47405
     47404     47406     47405     47406     47407     47408     47407     47409
     47408     47409     47410     47411     47410     47412     47411     47412
     47413     47414     47413     47415     47414     47415     47416     47417
     47416     47418     47417     47418     47419     47420     47419     47421
     47420     47421     47422     47423     47422     47424     47423     47424
     47425     47426     47425     47427     47426     47427     47428     47429
     47428     47430     47429     47430     47431     47432     47431     47433
     47432     47433     47434     47435     47434     47436     47435     47436
     47437     47438     47437     47439     47438     47439     47440     47441
     47440     47442     47441     47442     47443     47444     47443     47445
     47444     47445     47446     47447     47446     47448     47447     47448
     47449     47450     47449     47451     47450     47451     47452     47453
     47452     47454     47453     47454     47455     47456     47455     47457
     47456     47457     47458     47459     47458     47460     47459     47460
     47461     47462     47461     47463     47462     47463     47464     47465
     47464     47466     47465     47466     47467     47468     47467     47469
     47468     47469     47470     47471     47470     47472     47471     47472
     47473     47474     47473     47475     47474     47475     47476     47477
     47476     47478     47477     47478     47479     47480     47479     47481
     47480     47481     47482     47483     47482     47484     47483     47484
     47485     47486     47485     47487     47486     47487     47488     47489
     47488     47490     47489     47490     47491     47492     47491     47493
     47492     47493     47494     47495     47494     47496     47495     47496
     47497     47498     47497     47499     47498     47499     47500     47501
     47500     47502     47501     47502     47503     47504     47503     47505
     47504     47505     47506     47507     47506     47508     47507     47508
     47509     47510     47509     47511     47510     47511     47512     47513
     47512     47514     47513     47514     47515     47516     47515     47517
     47516     47517     47518     47519     47518     47520     47519     47520
     47521     47522     47521     47523     47522     47523     47524     47525
     47524     47526     47525     47526     47527     47528     47527     47529
     47528     47529     47530     47531     47530     47532     47531     47532
     47533     47534     47533     47535     47534     47535     47536     47537
     47536     47538     47537     47538     47539     47540     47539     47541
     47540     47541     47542     47543     47542     47544     47543     47544
     47545     47546     47545     47547     47546     47547     47548     47549
     47548     47550     47549     47550     47551     47552     47551     47553
     47552     47553     47554     47555     47554     47556     47555     47556
     47557     47558     47557     47559     47558     47559     47560     47561
     47560     47562     47561     47562     47563     47564     47563     47565
     47564     47565     47566     47567     47566     47568     47567     47568
     47569     47570     47569     47571     47570     47571     47572     47573
     47572     47574     47573     47574     47575     47576     47575     47577
     47576     47577     47578     47579     47578     47580     47579     47580
     47581     47582     47581     47583     47582     47583     47584     47585
     47584     47586     47585     47586     47587     47588     47587     47589
     47588     47589     47590     47591     47590     47592     47591     47592
     47593     47594     47593     47595     47594     47595     47596     47597
     47596     47598     47597     47598     47599     47600     47599     47601
     47600     47601     47602     47603     47602     47604     47603     47604
     47605     47606     47605     47607     47606     47607     47608     47609
     47608     47610     47609     47610     47611     47612     47611     47613
     47612     47613     47614     47615     47614     47616     47615     47616
     47617     47618     47617     47619     47618     47619     47620     47621
     47620     47622     47621     47622     47623     47624     47623     47625
     47624     47625     47626     47627     47626     47628     47627     47628
     47629     47630     47629     47631     47630     47631     47632     47633
     47632     47634     47633     47634     47635     47636     47635     47637
     47636     47637     47638     47639     47638     47640     47639     47640
     47641     47642     47641     47643     47642     47643     47644     47645
     47644     47646     47645     47646     47647     47648     47647     47649
     47648     47649     47650     47651     47650     47652     47651     47652
     47653     47654     47653     47655     47654     47655     47656     47657
     47656     47658     47657     47658     47659     47660     47659     47661
     47660     47661     47662     47663     47662     47664     47663     47664
     47665     47666     47665     47667     47666     47667     47668     47669
     47668     47670     47669     47670     47671     47672     47671     47673
     47672     47673     47674     47675     47674     47676     47675     47676
     47677     47678     47677     47679     47678     47679     47680     47681
     47680     47682     47681     47682     47683     47684     47683     47685
     47684     47685     47686     47687     47686     47688     47687     47688
     47689     47690     47689     47691     47690     47691     47692     47693
     47692     47694     47693     47694     47695     47696     47695     47697
     47696     47697     47698     47699     47698     47700     47699     47700
     47701     47702     47701     47703     47702     47703     47704     47705
     47704     47706     47705     47706     47707     47708     47707     47709
     47708     47709     47710     47711     47710     47712     47711     47712
     47713     47714     47713     47715     47714     47715     47716     47717
     47716     47718     47717     47718     47719     47720     47719     47721
     47720     47721     47722     47723     47722     47724     47723     47724
     47725     47726     47725     47727     47726     47727     47728     47729
     47728     47730     47729     47730     47731     47732     47731     47733
     47732     47733     47734     47735     47734     47736     47735     47736
     47737     47738     47737     47739     47738     47739     47740     47741
     47740     47742     47741     47742     47743     47744     47743     47745
     47744     47745     47746     47747     47746     47748     47747     47748
     47749     47750     47749     47751     47750     47751     47752     47753
     47752     47754     47753     47754     47755     47756     47755     47757
     47756     47757     47758     47759     47758     47760     47759     47760
     47761     47762     47761     47763     47762     47763     47764     47765
     47764     47766     47765     47766     47767     47768     47767     47769
     47768     47769     47770     47771     47770     47772     47771     47772
     47773     47774     47773     47775     47774     47775     47776     47777
     47776     47778     47777     47778     47779     47780     47779     47781
     47780     47781     47782     47783     47782     47784     47783     47784
     47785     47786     47785     47787     47786     47787     47788     47789
     47788     47790     47789     47790     47791     47792     47791     47793
     47792     47793     47794     47795     47794     47796     47795     47796
     47797     47798     47797     47799     47798     47799     47800     47801
     47800     47802     47801     47802     47803     47804     47803     47805
     47804     47805     47806     47807     47806     47808     47807     47808
     47809     47810     47809     47811     47810     47811     47812     47813
     47812     47814     47813     47814     47815     47816     47815     47817
     47816     47817     47818     47819     47818     47820     47819     47820
     47821     47822     47821     47823     47822     47823     47824     47825
     47824     47826     47825     47826     47827     47828     47827     47829
     47828     47829     47830     47831     47830     47832     47831     47832
     47833     47834     47833     47835     47834     47835     47836     47837
     47836     47838     47837     47838     47839     47840     47839     47841
     47840     47841     47842     47843     47842     47844     47843     47844
     47845     47846     47845     47847     47846     47847     47848     47849
     47848     47850     47849     47850     47851     47852     47851     47853
     47852     47853     47854     47855     47854     47856     47855     47856
     47857     47858     47857     47859     47858     47859     47860     47861
     47860     47862     47861     47862     47863     47864     47863     47865
     47864     47865     47866     47867     47866     47868     47867     47868
     47869     47870     47869     47871     47870     47871     47872     47873
     47872     47874     47873     47874     47875     47876     47875     47877
     47876     47877     47878     47879     47878     47880     47879     47880
     47881     47882     47881     47883     47882     47883     47884     47885
     47884     47886     47885     47886     47887     47888     47887     47889
     47888     47889     47890     47891     47890     47892     47891     47892
     47893     47894     47893     47895     47894     47895     47896     47897
     47896     47898     47897     47898     47899     47900     47899     47901
     47900     47901     47902     47903     47902     47904     47903     47904
     47905     47906     47905     47907     47906     47907     47908     47909
     47908     47910     47909     47910     47911     47912     47911     47913
     47912     47913     47914     47915     47914     47916     47915     47916
     47917     47918     47917     47919     47918     47919     47920     47921
     47920     47922     47921     47922     47923     47924     47923     47925
     47924     47925     47926     47927     47926     47928     47927     47928
     47929     47930     47929     47931     47930     47931     47932     47933
     47932     47934     47933     47934     47935     47936     47935     47937
     47936     47937     47938     47939     47938     47940     47939     47940
     47941     47942     47941     47943     47942     47943     47944     47945
     47944     47946     47945     47946     47947     47948     47947     47949
     47948     47949     47950     47951     47950     47952     47951     47952
     47953     47954     47953     47955     47954     47955     47956     47957
     47956     47958     47957     47958     47959     47960     47959     47961
     47960     47961     47962     47963     47962     47964     47963     47964
     47965     47966     47965     47967     47966     47967     47968     47969
     47968     47970     47969     47970     47971     47972     47971     47973
     47972     47973     47974     47975     47974     47976     47975     47976
     47977     47978     47977     47979     47978     47979     47980     47981
     47980     47982     47981     47982     47983     47984     47983     47985
     47984     47985     47986     47987     47986     47988     47987     47988
     47989     47990     47989     47991     47990     47991     47992     47993
     47992     47994     47993     47994     47995     47996     47995     47997
     47996     47997     47998     47999     47998     48000     47999     48000
     48001     48002     48001     48003     48002     48003     48004     48005
     48004     48006     48005     48006     48007     48008     48007     48009
     48008     48009     48010     48011     48010     48012     48011     48012
     48013     48014     48013     48015     48014     48015     48016     48017
     48016     48018     48017     48018     48019     48020     48019     48021
     48020     48021     48022     48023     48022     48024     48023     48024
     48025     48026     48025     48027     48026     48027     48028     48029
     48028     48030     48029     48030     48031     48032     48031     48033
     48032     48033     48034     48035     48034     48036     48035     48036
     48037     48038     48037     48039     48038     48039     48040     48041
     48040     48042     48041     48042     48043     48044     48043     48045
     48044     48045     48046     48047     48046     48048     48047     48048
     48049     48050     48049     48051     48050     48051     48052     48053
     48052     48054     48053     48054     48055     48056     48055     48057
     48056     48057     48058     48059     48058     48060     48059     48060
     48061     48062     48061     48063     48062     48063     48064     48065
     48064     48066     48065     48066     48067     48068     48067     48069
     48068     48069     48070     48071     48070     48072     48071     48072
     48073     48074     48073     48075     48074     48075     48076     48077
     48076     48078     48077     48078     48079     48080     48079     48081
     48080     48081     48082     48083     48082     48084     48083     48084
     48085     48086     48085     48087     48086     48087     48088     48089
     48088     48090     48089     48090     48091     48092     48091     48093
     48092     48093     48094     48095     48094     48096     48095     48096
     48097     48098     48097     48099     48098     48099     48100     48101
     48100     48102     48101     48102     48103     48104     48103     48105
     48104     48105     48106     48107     48106     48108     48107     48108
     48109     48110     48109     48111     48110     48111     48112     48113
     48112     48114     48113     48114     48115     48116     48115     48117
     48116     48117     48118     48119     48118     48120     48119     48120
     48121     48122     48121     48123     48122     48123     48124     48125
     48124     48126     48125     48126     48127     48128     48127     48129
     48128     48129     48130     48131     48130     48132     48131     48132
     48133     48134     48133     48135     48134     48135     48136     48137
     48136     48138     48137     48138     48139     48140     48139     48141
     48140     48141     48142     48143     48142     48144     48143     48144
     48145     48146     48145     48147     48146     48147     48148     48149
     48148     48150     48149     48150     48151     48152     48151     48153
     48152     48153     48154     48155     48154     48156     48155     48156
     48157     48158     48157     48159     48158     48159     48160     48161
     48160     48162     48161     48162     48163     48164     48163     48165
     48164     48165     48166     48167     48166     48168     48167     48168
     48169     48170     48169     48171     48170     48171     48172     48173
     48172     48174     48173     48174     48175     48176     48175     48177
     48176     48177     48178     48179     48178     48180     48179     48180
     48181     48182     48181     48183     48182     48183     48184     48185
     48184     48186     48185     48186     48187     48188     48187     48189
     48188     48189     48190     48191     48190     48192     48191     48192
     48193     48194     48193     48195     48194     48195     48196     48197
     48196     48198     48197     48198     48199     48200     48199     48201
     48200     48201     48202     48203     48202     48204     48203     48204
     48205     48206     48205     48207     48206     48207     48208     48209
     48208     48210     48209     48210     48211     48212     48211     48213
     48212     48213     48214     48215     48214     48216     48215     48216
     48217     48218     48217     48219     48218     48219     48220     48221
     48220     48222     48221     48222     48223     48224     48223     48225
     48224     48225     48226     48227     48226     48228     48227     48228
     48229     48230     48229     48231     48230     48231     48232     48233
     48232     48234     48233     48234     48235     48236     48235     48237
     48236     48237     48238     48239     48238     48240     48239     48240
     48241     48242     48241     48243     48242     48243     48244     48245
     48244     48246     48245     48246     48247     48248     48247     48249
     48248     48249     48250     48251     48250     48252     48251     48252
     48253     48254     48253     48255     48254     48255     48256     48257
     48256     48258     48257     48258     48259     48260     48259     48261
     48260     48261     48262     48263     48262     48264     48263     48264
     48265     48266     48265     48267     48266     48267     48268     48269
     48268     48270     48269     48270     48271     48272     48271     48273
     48272     48273     48274     48275     48274     48276     48275     48276
     48277     48278     48277     48279     48278     48279     48280     48281
     48280     48282     48281     48282     48283     48284     48283     48285
     48284     48285     48286     48287     48286     48288     48287     48288
     48289     48290     48289     48291     48290     48291     48292     48293
     48292     48294     48293     48294     48295     48296     48295     48297
     48296     48297     48298     48299     48298     48300     48299     48300
     48301     48302     48301     48303     48302     48303     48304     48305
     48304     48306     48305     48306     48307     48308     48307     48309
     48308     48309     48310     48311     48310     48312     48311     48312
     48313     48314     48313     48315     48314     48315     48316     48317
     48316     48318     48317     48318     48319     48320     48319     48321
     48320     48321     48322     48323     48322     48324     48323     48324
     48325     48326     48325     48327     48326     48327     48328     48329
     48328     48330     48329     48330     48331     48332     48331     48333
     48332     48333     48334     48335     48334     48336     48335     48336
     48337     48338     48337     48339     48338     48339     48340     48341
     48340     48342     48341     48342     48343     48344     48343     48345
     48344     48345     48346     48347     48346     48348     48347     48348
     48349     48350     48349     48351     48350     48351     48352     48353
     48352     48354     48353     48354     48355     48356     48355     48357
     48356     48357     48358     48359     48358     48360     48359     48360
     48361     48362     48361     48363     48362     48363     48364     48365
     48364     48366     48365     48366     48367     48368     48367     48369
     48368     48369     48370     48371     48370     48372     48371     48372
     48373     48374     48373     48375     48374     48375     48376     48377
     48376     48378     48377     48378     48379     48380     48379     48381
     48380     48381     48382     48383     48382     48384     48383     48384
     48385     48386     48385     48387     48386     48387     48388     48389
     48388     48390     48389     48390     48391     48392     48391     48393
     48392     48393     48394     48395     48394     48396     48395     48396
     48397     48398     48397     48399     48398     48399     48400     48401
     48400     48402     48401     48402     48403     48404     48403     48405
     48404     48405     48406     48407     48406     48408     48407     48408
     48409     48410     48409     48411     48410     48411     48412     48413
     48412     48414     48413     48414     48415     48416     48415     48417
     48416     48417     48418     48419     48418     48420     48419     48420
     48421     48422     48421     48423     48422     48423     48424     48425
     48424     48426     48425     48426     48427     48428     48427     48429
     48428     48429     48430     48431     48430     48432     48431     48432
     48433     48434     48433     48435     48434     48435     48436     48437
     48436     48438     48437     48438     48439     48440     48439     48441
     48440     48441     48442     48443     48442     48444     48443     48444
     48445     48446     48445     48447     48446     48447     48448     48449
     48448     48450     48449     48450     48451     48452     48451     48453
     48452     48453     48454     48455     48454     48456     48455     48456
     48457     48458     48457     48459     48458     48459     48460     48461
     48460     48462     48461     48462     48463     48464     48463     48465
     48464     48465     48466     48467     48466     48468     48467     48468
     48469     48470     48469     48471     48470     48471     48472     48473
     48472     48474     48473     48474     48475     48476     48475     48477
     48476     48477     48478     48479     48478     48480     48479     48480
     48481     48482     48481     48483     48482     48483     48484     48485
     48484     48486     48485     48486     48487     48488     48487     48489
     48488     48489     48490     48491     48490     48492     48491     48492
     48493     48494     48493     48495     48494     48495     48496     48497
     48496     48498     48497     48498     48499     48500     48499     48501
     48500     48501     48502     48503     48502     48504     48503     48504
     48505     48506     48505     48507     48506     48507     48508     48509
     48508     48510     48509     48510     48511     48512     48511     48513
     48512     48513     48514     48515     48514     48516     48515     48516
     48517     48518     48517     48519     48518     48519     48520     48521
     48520     48522     48521     48522     48523     48524     48523     48525
     48524     48525     48526     48527     48526     48528     48527     48528
     48529     48530     48529     48531     48530     48531     48532     48533
     48532     48534     48533     48534     48535     48536     48535     48537
     48536     48537     48538     48539     48538     48540     48539     48540
     48541     48542     48541     48543     48542     48543     48544     48545
     48544     48546     48545     48546     48547     48548     48547     48549
     48548     48549     48550     48551     48550     48552     48551     48552
     48553     48554     48553     48555     48554     48555     48556     48557
     48556     48558     48557     48558     48559     48560     48559     48561
     48560     48561     48562     48563     48562     48564     48563     48564
     48565     48566     48565     48567     48566     48567     48568     48569
     48568     48570     48569     48570     48571     48572     48571     48573
     48572     48573     48574     48575     48574     48576     48575     48576
     48577     48578     48577     48579     48578     48579     48580     48581
     48580     48582     48581     48582     48583     48584     48583     48585
     48584     48585     48586     48587     48586     48588     48587     48588
     48589     48590     48589     48591     48590     48591     48592     48593
     48592     48594     48593     48594     48595     48596     48595     48597
     48596     48597     48598     48599     48598     48600     48599     48600
     48601     48602     48601     48603     48602     48603     48604     48605
     48604     48606     48605     48606     48607     48608     48607     48609
     48608     48609     48610     48611     48610     48612     48611     48612
     48613     48614     48613     48615     48614     48615     48616     48617
     48616     48618     48617     48618     48619     48620     48619     48621
     48620     48621     48622     48623     48622     48624     48623     48624
     48625     48626     48625     48627     48626     48627     48628     48629
     48628     48630     48629     48630     48631     48632     48631     48633
     48632     48633     48634     48635     48634     48636     48635     48636
     48637     48638     48637     48639     48638     48639     48640     48641
     48640     48642     48641     48642     48643     48644     48643     48645
     48644     48645     48646     48647     48646     48648     48647     48648
     48649     48650     48649     48651     48650     48651     48652     48653
     48652     48654     48653     48654     48655     48656     48655     48657
     48656     48657     48658     48659     48658     48660     48659     48660
     48661     48662     48661     48663     48662     48663     48664     48665
     48664     48666     48665     48666     48667     48668     48667     48669
     48668     48669     48670     48671     48670     48672     48671     48672
     48673     48674     48673     48675     48674     48675     48676     48677
     48676     48678     48677     48678     48679     48680     48679     48681
     48680     48681     48682     48683     48682     48684     48683     48684
     48685     48686     48685     48687     48686     48687     48688     48689
     48688     48690     48689     48690     48691     48692     48691     48693
     48692     48693     48694     48695     48694     48696     48695     48696
     48697     48698     48697     48699     48698     48699     48700     48701
     48700     48702     48701     48702     48703     48704     48703     48705
     48704     48705     48706     48707     48706     48708     48707     48708
     48709     48710     48709     48711     48710     48711     48712     48713
     48712     48714     48713     48714     48715     48716     48715     48717
     48716     48717     48718     48719     48718     48720     48719     48720
     48721     48722     48721     48723     48722     48723     48724     48725
     48724     48726     48725     48726     48727     48728     48727     48729
     48728     48729     48730     48731     48730     48732     48731     48732
     48733     48734     48733     48735     48734     48735     48736     48737
     48736     48738     48737     48738     48739     48740     48739     48741
     48740     48741     48742     48743     48742     48744     48743     48744
     48745     48746     48745     48747     48746     48747     48748     48749
     48748     48750     48749     48750     48751     48752     48751     48753
     48752     48753     48754     48755     48754     48756     48755     48756
     48757     48758     48757     48759     48758     48759     48760     48761
     48760     48762     48761     48762     48763     48764     48763     48765
     48764     48765     48766     48767     48766     48768     48767     48768
     48769     48770     48769     48771     48770     48771     48772     48773
     48772     48774     48773     48774     48775     48776     48775     48777
     48776     48777     48778     48779     48778     48780     48779     48780
     48781     48782     48781     48783     48782     48783     48784     48785
     48784     48786     48785     48786     48787     48788     48787     48789
     48788     48789     48790     48791     48790     48792     48791     48792
     48793     48794     48793     48795     48794     48795     48796     48797
     48796     48798     48797     48798     48799     48800     48799     48801
     48800     48801     48802     48803     48802     48804     48803     48804
     48805     48806     48805     48807     48806     48807     48808     48809
     48808     48810     48809     48810     48811     48812     48811     48813
     48812     48813     48814     48815     48814     48816     48815     48816
     48817     48818     48817     48819     48818     48819     48820     48821
     48820     48822     48821     48822     48823     48824     48823     48825
     48824     48825     48826     48827     48826     48828     48827     48828
     48829     48830     48829     48831     48830     48831     48832     48833
     48832     48834     48833     48834     48835     48836     48835     48837
     48836     48837     48838     48839     48838     48840     48839     48840
     48841     48842     48841     48843     48842     48843     48844     48845
     48844     48846     48845     48846     48847     48848     48847     48849
     48848     48849     48850     48851     48850     48852     48851     48852
     48853     48854     48853     48855     48854     48855     48856     48857
     48856     48858     48857     48858     48859     48860     48859     48861
     48860     48861     48862     48863     48862     48864     48863     48864
     48865     48866     48865     48867     48866     48867     48868     48869
     48868     48870     48869     48870     48871     48872     48871     48873
     48872     48873     48874     48875     48874     48876     48875     48876
     48877     48878     48877     48879     48878     48879     48880     48881
     48880     48882     48881     48882     48883     48884     48883     48885
     48884     48885     48886     48887     48886     48888     48887     48888
     48889     48890     48889     48891     48890     48891     48892     48893
     48892     48894     48893     48894     48895     48896     48895     48897
     48896     48897     48898     48899     48898     48900     48899     48900
     48901     48902     48901     48903     48902     48903     48904     48905
     48904     48906     48905     48906     48907     48908     48907     48909
     48908     48909     48910     48911     48910     48912     48911     48912
     48913     48914     48913     48915     48914     48915     48916     48917
     48916     48918     48917     48918     48919     48920     48919     48921
     48920     48921     48922     48923     48922     48924     48923     48924
     48925     48926     48925     48927     48926     48927     48928     48929
     48928     48930     48929     48930     48931     48932     48931     48933
     48932     48933     48934     48935     48934     48936     48935     48936
     48937     48938     48937     48939     48938     48939     48940     48941
     48940     48942     48941     48942     48943     48944     48943     48945
     48944     48945     48946     48947     48946     48948     48947     48948
     48949     48950     48949     48951     48950     48951     48952     48953
     48952     48954     48953     48954     48955     48956     48955     48957
     48956     48957     48958     48959     48958     48960     48959     48960
     48961     48962     48961     48963     48962     48963     48964     48965
     48964     48966     48965     48966     48967     48968     48967     48969
     48968     48969     48970     48971     48970     48972     48971     48972
     48973     48974     48973     48975     48974     48975     48976     48977
     48976     48978     48977     48978     48979     48980     48979     48981
     48980     48981     48982     48983     48982     48984     48983     48984
     48985     48986     48985     48987     48986     48987     48988     48989
     48988     48990     48989     48990     48991     48992     48991     48993
     48992     48993     48994     48995     48994     48996     48995     48996
     48997     48998     48997     48999     48998     48999     49000     49001
     49000     49002     49001     49002     49003     49004     49003     49005
     49004     49005     49006     49007     49006     49008     49007     49008
     49009     49010     49009     49011     49010     49011     49012     49013
     49012     49014     49013     49014     49015     49016     49015     49017
     49016     49017     49018     49019     49018     49020     49019     49020
     49021     49022     49021     49023     49022     49023     49024     49025
     49024     49026     49025     49026     49027     49028     49027     49029
     49028     49029     49030     49031     49030     49032     49031     49032
     49033     49034     49033     49035     49034     49035     49036     49037
     49036     49038     49037     49038     49039     49040     49039     49041
     49040     49041     49042     49043     49042     49044     49043     49044
     49045     49046     49045     49047     49046     49047     49048     49049
     49048     49050     49049     49050     49051     49052     49051     49053
     49052     49053     49054     49055     49054     49056     49055     49056
     49057     49058     49057     49059     49058     49059     49060     49061
     49060     49062     49061     49062     49063     49064     49063     49065
     49064     49065     49066     49067     49066     49068     49067     49068
     49069     49070     49069     49071     49070     49071     49072     49073
     49072     49074     49073     49074     49075     49076     49075     49077
     49076     49077     49078     49079     49078     49080     49079     49080
     49081     49082     49081     49083     49082     49083     49084     49085
     49084     49086     49085     49086     49087     49088     49087     49089
     49088     49089     49090     49091     49090     49092     49091     49092
     49093     49094     49093     49095     49094     49095     49096     49097
     49096     49098     49097     49098     49099     49100     49099     49101
     49100     49101     49102     49103     49102     49104     49103     49104
     49105     49106     49105     49107     49106     49107     49108     49109
     49108     49110     49109     49110     49111     49112     49111     49113
     49112     49113     49114     49115     49114     49116     49115     49116
     49117     49118     49117     49119     49118     49119     49120     49121
     49120     49122     49121     49122     49123     49124     49123     49125
     49124     49125     49126     49127     49126     49128     49127     49128
     49129     49130     49129     49131     49130     49131     49132     49133
     49132     49134     49133     49134     49135     49136     49135     49137
     49136     49137     49138     49139     49138     49140     49139     49140
     49141     49142     49141     49143     49142     49143     49144     49145
     49144     49146     49145     49146     49147     49148     49147     49149
     49148     49149     49150     49151     49150     49152     49151     49152
     49153     49154     49153     49155     49154     49155     49156     49157
     49156     49158     49157     49158     49159     49160     49159     49161
     49160     49161     49162     49163     49162     49164     49163     49164
     49165     49166     49165     49167     49166     49167     49168     49169
     49168     49170     49169     49170     49171     49172     49171     49173
     49172     49173     49174     49175     49174     49176     49175     49176
     49177     49178     49177     49179     49178     49179     49180     49181
     49180     49182     49181     49182     49183     49184     49183     49185
     49184     49185     49186     49187     49186     49188     49187     49188
     49189     49190     49189     49191     49190     49191     49192     49193
     49192     49194     49193     49194     49195     49196     49195     49197
     49196     49197     49198     49199     49198     49200     49199     49200
     49201     49202     49201     49203     49202     49203     49204     49205
     49204     49206     49205     49206     49207     49208     49207     49209
     49208     49209     49210     49211     49210     49212     49211     49212
     49213     49214     49213     49215     49214     49215     49216     49217
     49216     49218     49217     49218     49219     49220     49219     49221
     49220     49221     49222     49223     49222     49224     49223     49224
     49225     49226     49225     49227     49226     49227     49228     49229
     49228     49230     49229     49230     49231     49232     49231     49233
     49232     49233     49234     49235     49234     49236     49235     49236
     49237     49238     49237     49239     49238     49239     49240     49241
     49240     49242     49241     49242     49243     49244     49243     49245
     49244     49245     49246     49247     49246     49248     49247     49248
     49249     49250     49249     49251     49250     49251     49252     49253
     49252     49254     49253     49254     49255     49256     49255     49257
     49256     49257     49258     49259     49258     49260     49259     49260
     49261     49262     49261     49263     49262     49263     49264     49265
     49264     49266     49265     49266     49267     49268     49267     49269
     49268     49269     49270     49271     49270     49272     49271     49272
     49273     49274     49273     49275     49274     49275     49276     49277
     49276     49278     49277     49278     49279     49280     49279     49281
     49280     49281     49282     49283     49282     49284     49283     49284
     49285     49286     49285     49287     49286     49287     49288     49289
     49288     49290     49289     49290     49291     49292     49291     49293
     49292     49293     49294     49295     49294     49296     49295     49296
     49297     49298     49297     49299     49298     49299     49300     49301
     49300     49302     49301     49302     49303     49304     49303     49305
     49304     49305     49306     49307     49306     49308     49307     49308
     49309     49310     49309     49311     49310     49311     49312     49313
     49312     49314     49313     49314     49315     49316     49315     49317
     49316     49317     49318     49319     49318     49320     49319     49320
     49321     49322     49321     49323     49322     49323     49324     49325
     49324     49326     49325     49326     49327     49328     49327     49329
     49328     49329     49330     49331     49330     49332     49331     49332
     49333     49334     49333     49335     49334     49335     49336     49337
     49336     49338     49337     49338     49339     49340     49339     49341
     49340     49341     49342     49343     49342     49344     49343     49344
     49345     49346     49345     49347     49346     49347     49348     49349
     49348     49350     49349     49350     49351     49352     49351     49353
     49352     49353     49354     49355     49354     49356     49355     49356
     49357     49358     49357     49359     49358     49359     49360     49361
     49360     49362     49361     49362     49363     49364     49363     49365
     49364     49365     49366     49367     49366     49368     49367     49368
     49369     49370     49369     49371     49370     49371     49372     49373
     49372     49374     49373     49374     49375     49376     49375     49377
     49376     49377     49378     49379     49378     49380     49379     49380
     49381     49382     49381     49383     49382     49383     49384     49385
     49384     49386     49385     49386     49387     49388     49387     49389
     49388     49389     49390     49391     49390     49392     49391     49392
     49393     49394     49393     49395     49394     49395     49396     49397
     49396     49398     49397     49398     49399     49400     49399     49401
     49400     49401     49402     49403     49402     49404     49403     49404
     49405     49406     49405     49407     49406     49407     49408     49409
     49408     49410     49409     49410     49411     49412     49411     49413
     49412     49413     49414     49415     49414     49416     49415     49416
     49417     49418     49417     49419     49418     49419     49420     49421
     49420     49422     49421     49422     49423     49424     49423     49425
     49424     49425     49426     49427     49426     49428     49427     49428
     49429     49430     49429     49431     49430     49431     49432     49433
     49432     49434     49433     49434     49435     49436     49435     49437
     49436     49437     49438     49439     49438     49440     49439     49440
     49441     49442     49441     49443     49442     49443     49444     49445
     49444     49446     49445     49446     49447     49448     49447     49449
     49448     49449     49450     49451     49450     49452     49451     49452
     49453     49454     49453     49455     49454     49455     49456     49457
     49456     49458     49457     49458     49459     49460     49459     49461
     49460     49461     49462     49463     49462     49464     49463     49464
     49465     49466     49465     49467     49466     49467     49468     49469
     49468     49470     49469     49470     49471     49472     49471     49473
     49472     49473     49474     49475     49474     49476     49475     49476
     49477     49478     49477     49479     49478     49479     49480     49481
     49480     49482     49481     49482     49483     49484     49483     49485
     49484     49485     49486     49487     49486     49488     49487     49488
     49489     49490     49489     49491     49490     49491     49492     49493
     49492     49494     49493     49494     49495     49496     49495     49497
     49496     49497     49498     49499     49498     49500     49499     49500
     49501     49502     49501     49503     49502     49503     49504     49505
     49504     49506     49505     49506     49507     49508     49507     49509
     49508     49509     49510     49511     49510     49512     49511     49512
     49513     49514     49513     49515     49514     49515     49516     49517
     49516     49518     49517     49518     49519     49520     49519     49521
     49520     49521     49522     49523     49522     49524     49523     49524
     49525     49526     49525     49527     49526     49527     49528     49529
     49528     49530     49529     49530     49531     49532     49531     49533
     49532     49533     49534     49535     49534     49536     49535     49536
     49537     49538     49537     49539     49538     49539     49540     49541
     49540     49542     49541     49542     49543     49544     49543     49545
     49544     49545     49546     49547     49546     49548     49547     49548
     49549     49550     49549     49551     49550     49551     49552     49553
     49552     49554     49553     49554     49555     49556     49555     49557
     49556     49557     49558     49559     49558     49560     49559     49560
     49561     49562     49561     49563     49562     49563     49564     49565
     49564     49566     49565     49566     49567     49568     49567     49569
     49568     49569     49570     49571     49570     49572     49571     49572
     49573     49574     49573     49575     49574     49575     49576     49577
     49576     49578     49577     49578     49579     49580     49579     49581
     49580     49581     49582     49583     49582     49584     49583     49584
     49585     49586     49585     49587     49586     49587     49588     49589
     49588     49590     49589     49590     49591     49592     49591     49593
     49592     49593     49594     49595     49594     49596     49595     49596
     49597     49598     49597     49599     49598     49599     49600     49601
     49600     49602     49601     49602     49603     49604     49603     49605
     49604     49605     49606     49607     49606     49608     49607     49608
     49609     49610     49609     49611     49610     49611     49612     49613
     49612     49614     49613     49614     49615     49616     49615     49617
     49616     49617     49618     49619     49618     49620     49619     49620
     49621     49622     49621     49623     49622     49623     49624     49625
     49624     49626     49625     49626     49627     49628     49627     49629
     49628     49629     49630     49631     49630     49632     49631     49632
     49633     49634     49633     49635     49634     49635     49636     49637
     49636     49638     49637     49638     49639     49640     49639     49641
     49640     49641     49642     49643     49642     49644     49643     49644
     49645     49646     49645     49647     49646     49647     49648     49649
     49648     49650     49649     49650     49651     49652     49651     49653
     49652     49653     49654     49655     49654     49656     49655     49656
     49657     49658     49657     49659     49658     49659     49660     49661
     49660     49662     49661     49662     49663     49664     49663     49665
     49664     49665     49666     49667     49666     49668     49667     49668
     49669     49670     49669     49671     49670     49671     49672     49673
     49672     49674     49673     49674     49675     49676     49675     49677
     49676     49677     49678     49679     49678     49680     49679     49680
     49681     49682     49681     49683     49682     49683     49684     49685
     49684     49686     49685     49686     49687     49688     49687     49689
     49688     49689     49690     49691     49690     49692     49691     49692
     49693     49694     49693     49695     49694     49695     49696     49697
     49696     49698     49697     49698     49699     49700     49699     49701
     49700     49701     49702     49703     49702     49704     49703     49704
     49705     49706     49705     49707     49706     49707     49708     49709
     49708     49710     49709     49710     49711     49712     49711     49713
     49712     49713     49714     49715     49714     49716     49715     49716
     49717     49718     49717     49719     49718     49719     49720     49721
     49720     49722     49721     49722     49723     49724     49723     49725
     49724     49725     49726     49727     49726     49728     49727     49728
     49729     49730     49729     49731     49730     49731     49732     49733
     49732     49734     49733     49734     49735     49736     49735     49737
     49736     49737     49738     49739     49738     49740     49739     49740
     49741     49742     49741     49743     49742     49743     49744     49745
     49744     49746     49745     49746     49747     49748     49747     49749
     49748     49749     49750     49751     49750     49752     49751     49752
     49753     49754     49753     49755     49754     49755     49756     49757
     49756     49758     49757     49758     49759     49760     49759     49761
     49760     49761     49762     49763     49762     49764     49763     49764
     49765     49766     49765     49767     49766     49767     49768     49769
     49768     49770     49769     49770     49771     49772     49771     49773
     49772     49773     49774     49775     49774     49776     49775     49776
     49777     49778     49777     49779     49778     49779     49780     49781
     49780     49782     49781     49782     49783     49784     49783     49785
     49784     49785     49786     49787     49786     49788     49787     49788
     49789     49790     49789     49791     49790     49791     49792     49793
     49792     49794     49793     49794     49795     49796     49795     49797
     49796     49797     49798     49799     49798     49800     49799     49800
     49801     49802     49801     49803     49802     49803     49804     49805
     49804     49806     49805     49806     49807     49808     49807     49809
     49808     49809     49810     49811     49810     49812     49811     49812
     49813     49814     49813     49815     49814     49815     49816     49817
     49816     49818     49817     49818     49819     49820     49819     49821
     49820     49821     49822     49823     49822     49824     49823     49824
     49825     49826     49825     49827     49826     49827     49828     49829
     49828     49830     49829     49830     49831     49832     49831     49833
     49832     49833     49834     49835     49834     49836     49835     49836
     49837     49838     49837     49839     49838     49839     49840     49841
     49840     49842     49841     49842     49843     49844     49843     49845
     49844     49845     49846     49847     49846     49848     49847     49848
     49849     49850     49849     49851     49850     49851     49852     49853
     49852     49854     49853     49854     49855     49856     49855     49857
     49856     49857     49858     49859     49858     49860     49859     49860
     49861     49862     49861     49863     49862     49863     49864     49865
     49864     49866     49865     49866     49867     49868     49867     49869
     49868     49869     49870     49871     49870     49872     49871     49872
     49873     49874     49873     49875     49874     49875     49876     49877
     49876     49878     49877     49878     49879     49880     49879     49881
     49880     49881     49882     49883     49882     49884     49883     49884
     49885     49886     49885     49887     49886     49887     49888     49889
     49888     49890     49889     49890     49891     49892     49891     49893
     49892     49893     49894     49895     49894     49896     49895     49896
     49897     49898     49897     49899     49898     49899     49900     49901
     49900     49902     49901     49902     49903     49904     49903     49905
     49904     49905     49906     49907     49906     49908     49907     49908
     49909     49910     49909     49911     49910     49911     49912     49913
     49912     49914     49913     49914     49915     49916     49915     49917
     49916     49917     49918     49919     49918     49920     49919     49920
     49921     49922     49921     49923     49922     49923     49924     49925
     49924     49926     49925     49926     49927     49928     49927     49929
     49928     49929     49930     49931     49930     49932     49931     49932
     49933     49934     49933     49935     49934     49935     49936     49937
     49936     49938     49937     49938     49939     49940     49939     49941
     49940     49941     49942     49943     49942     49944     49943     49944
     49945     49946     49945     49947     49946     49947     49948     49949
     49948     49950     49949     49950     49951     49952     49951     49953
     49952     49953     49954     49955     49954     49956     49955     49956
     49957     49958     49957     49959     49958     49959     49960     49961
     49960     49962     49961     49962     49963     49964     49963     49965
     49964     49965     49966     49967     49966     49968     49967     49968
     49969     49970     49969     49971     49970     49971     49972     49973
     49972     49974     49973     49974     49975     49976     49975     49977
     49976     49977     49978     49979     49978     49980     49979     49980
     49981     49982     49981     49983     49982     49983     49984     49985
     49984     49986     49985     49986     49987     49988     49987     49989
     49988     49989     49990     49991     49990     49992     49991     49992
     49993     49994     49993     49995     49994     49995     49996     49997
     49996     49998     49997     49998     49999     50000     49999     50001
     50000     50001     50002     50003     50002     50004     50003     50004
     50005     50006     50005     50007     50006     50007     50008     50009
     50008     50010     50009     50010     50011     50012     50011     50013
     50012     50013     50014     50015     50014     50016     50015     50016
     50017     50018     50017     50019     50018     50019     50020     50021
     50020     50022     50021     50022     50023     50024     50023     50025
     50024     50025     50026     50027     50026     50028     50027     50028
     50029     50030     50029     50031     50030     50031     50032     50033
     50032     50034     50033     50034     50035     50036     50035     50037
     50036     50037     50038     50039     50038     50040     50039     50040
     50041     50042     50041     50043     50042     50043     50044     50045
     50044     50046     50045     50046     50047     50048     50047     50049
     50048     50049     50050     50051     50050     50052     50051     50052
     50053     50054     50053     50055     50054     50055     50056     50057
     50056     50058     50057     50058     50059     50060     50059     50061
     50060     50061     50062     50063     50062     50064     50063     50064
     50065     50066     50065     50067     50066     50067     50068     50069
     50068     50070     50069     50070     50071     50072     50071     50073
     50072     50073     50074     50075     50074     50076     50075     50076
     50077     50078     50077     50079     50078     50079     50080     50081
     50080     50082     50081     50082     50083     50084     50083     50085
     50084     50085     50086     50087     50086     50088     50087     50088
     50089     50090     50089     50091     50090     50091     50092     50093
     50092     50094     50093     50094     50095     50096     50095     50097
     50096     50097     50098     50099     50098     50100     50099     50100
     50101     50102     50101     50103     50102     50103     50104     50105
     50104     50106     50105     50106     50107     50108     50107     50109
     50108     50109     50110     50111     50110     50112     50111     50112
     50113     50114     50113     50115     50114     50115     50116     50117
     50116     50118     50117     50118     50119     50120     50119     50121
     50120     50121     50122     50123     50122     50124     50123     50124
     50125     50126     50125     50127     50126     50127     50128     50129
     50128     50130     50129     50130     50131     50132     50131     50133
     50132     50133     50134     50135     50134     50136     50135     50136
     50137     50138     50137     50139     50138     50139     50140     50141
     50140     50142     50141     50142     50143     50144     50143     50145
     50144     50145     50146     50147     50146     50148     50147     50148
     50149     50150     50149     50151     50150     50151     50152     50153
     50152     50154     50153     50154     50155     50156     50155     50157
     50156     50157     50158     50159     50158     50160     50159     50160
     50161     50162     50161     50163     50162     50163     50164     50165
     50164     50166     50165     50166     50167     50168     50167     50169
     50168     50169     50170     50171     50170     50172     50171     50172
     50173     50174     50173     50175     50174     50175     50176     50177
     50176     50178     50177     50178     50179     50180     50179     50181
     50180     50181     50182     50183     50182     50184     50183     50184
     50185     50186     50185     50187     50186     50187     50188     50189
     50188     50190     50189     50190     50191     50192     50191     50193
     50192     50193     50194     50195     50194     50196     50195     50196
     50197     50198     50197     50199     50198     50199     50200     50201
     50200     50202     50201     50202     50203     50204     50203     50205
     50204     50205     50206     50207     50206     50208     50207     50208
     50209     50210     50209     50211     50210     50211     50212     50213
     50212     50214     50213     50214     50215     50216     50215     50217
     50216     50217     50218     50219     50218     50220     50219     50220
     50221     50222     50221     50223     50222     50223     50224     50225
     50224     50226     50225     50226     50227     50228     50227     50229
     50228     50229     50230     50231     50230     50232     50231     50232
     50233     50234     50233     50235     50234     50235     50236     50237
     50236     50238     50237     50238     50239     50240     50239     50241
     50240     50241     50242     50243     50242     50244     50243     50244
     50245     50246     50245     50247     50246     50247     50248     50249
     50248     50250     50249     50250     50251     50252     50251     50253
     50252     50253     50254     50255     50254     50256     50255     50256
     50257     50258     50257     50259     50258     50259     50260     50261
     50260     50262     50261     50262     50263     50264     50263     50265
     50264     50265     50266     50267     50266     50268     50267     50268
     50269     50270     50269     50271     50270     50271     50272     50273
     50272     50274     50273     50274     50275     50276     50275     50277
     50276     50277     50278     50279     50278     50280     50279     50280
     50281     50282     50281     50283     50282     50283     50284     50285
     50284     50286     50285     50286     50287     50288     50287     50289
     50288     50289     50290     50291     50290     50292     50291     50292
     50293     50294     50293     50295     50294     50295     50296     50297
     50296     50298     50297     50298     50299     50300     50299     50301
     50300     50301     50302     50303     50302     50304     50303     50304
     50305     50306     50305     50307     50306     50307     50308     50309
     50308     50310     50309     50310     50311     50312     50311     50313
     50312     50313     50314     50315     50314     50316     50315     50316
     50317     50318     50317     50319     50318     50319     50320     50321
     50320     50322     50321     50322     50323     50324     50323     50325
     50324     50325     50326     50327     50326     50328     50327     50328
     50329     50330     50329     50331     50330     50331     50332     50333
     50332     50334     50333     50334     50335     50336     50335     50337
     50336     50337     50338     50339     50338     50340     50339     50340
     50341     50342     50341     50343     50342     50343     50344     50345
     50344     50346     50345     50346     50347     50348     50347     50349
     50348     50349     50350     50351     50350     50352     50351     50352
     50353     50354     50353     50355     50354     50355     50356     50357
     50356     50358     50357     50358     50359     50360     50359     50361
     50360     50361     50362     50363     50362     50364     50363     50364
     50365     50366     50365     50367     50366     50367     50368     50369
     50368     50370     50369     50370     50371     50372     50371     50373
     50372     50373     50374     50375     50374     50376     50375     50376
     50377     50378     50377     50379     50378     50379     50380     50381
     50380     50382     50381     50382     50383     50384     50383     50385
     50384     50385     50386     50387     50386     50388     50387     50388
     50389     50390     50389     50391     50390     50391     50392     50393
     50392     50394     50393     50394     50395     50396     50395     50397
     50396     50397     50398     50399     50398     50400     50399     50400
     50401     50402     50401     50403     50402     50403     50404     50405
     50404     50406     50405     50406     50407     50408     50407     50409
     50408     50409     50410     50411     50410     50412     50411     50412
     50413     50414     50413     50415     50414     50415     50416     50417
     50416     50418     50417     50418     50419     50420     50419     50421
     50420     50421     50422     50423     50422     50424     50423     50424
     50425     50426     50425     50427     50426     50427     50428     50429
     50428     50430     50429     50430     50431     50432     50431     50433
     50432     50433     50434     50435     50434     50436     50435     50436
     50437     50438     50437     50439     50438     50439     50440     50441
     50440     50442     50441     50442     50443     50444     50443     50445
     50444     50445     50446     50447     50446     50448     50447     50448
     50449     50450     50449     50451     50450     50451     50452     50453
     50452     50454     50453     50454     50455     50456     50455     50457
     50456     50457     50458     50459     50458     50460     50459     50460
     50461     50462     50461     50463     50462     50463     50464     50465
     50464     50466     50465     50466     50467     50468     50467     50469
     50468     50469     50470     50471     50470     50472     50471     50472
     50473     50474     50473     50475     50474     50475     50476     50477
     50476     50478     50477     50478     50479     50480     50479     50481
     50480     50481     50482     50483     50482     50484     50483     50484
     50485     50486     50485     50487     50486     50487     50488     50489
     50488     50490     50489     50490     50491     50492     50491     50493
     50492     50493     50494     50495     50494     50496     50495     50496
     50497     50498     50497     50499     50498     50499     50500     50501
     50500     50502     50501     50502     50503     50504     50503     50505
     50504     50505     50506     50507     50506     50508     50507     50508
     50509     50510     50509     50511     50510     50511     50512     50513
     50512     50514     50513     50514     50515     50516     50515     50517
     50516     50517     50518     50519     50518     50520     50519     50520
     50521     50522     50521     50523     50522     50523     50524     50525
     50524     50526     50525     50526     50527     50528     50527     50529
     50528     50529     50530     50531     50530     50532     50531     50532
     50533     50534     50533     50535     50534     50535     50536     50537
     50536     50538     50537     50538     50539     50540     50539     50541
     50540     50541     50542     50543     50542     50544     50543     50544
     50545     50546     50545     50547     50546     50547     50548     50549
     50548     50550     50549     50550     50551     50552     50551     50553
     50552     50553     50554     50555     50554     50556     50555     50556
     50557     50558     50557     50559     50558     50559     50560     50561
     50560     50562     50561     50562     50563     50564     50563     50565
     50564     50565     50566     50567     50566     50568     50567     50568
     50569     50570     50569     50571     50570     50571     50572     50573
     50572     50574     50573     50574     50575     50576     50575     50577
     50576     50577     50578     50579     50578     50580     50579     50580
     50581     50582     50581     50583     50582     50583     50584     50585
     50584     50586     50585     50586     50587     50588     50587     50589
     50588     50589     50590     50591     50590     50592     50591     50592
     50593     50594     50593     50595     50594     50595     50596     50597
     50596     50598     50597     50598     50599     50600     50599     50601
     50600     50601     50602     50603     50602     50604     50603     50604
     50605     50606     50605     50607     50606     50607     50608     50609
     50608     50610     50609     50610     50611     50612     50611     50613
     50612     50613     50614     50615     50614     50616     50615     50616
     50617     50618     50617     50619     50618     50619     50620     50621
     50620     50622     50621     50622     50623     50624     50623     50625
     50624     50625     50626     50627     50626     50628     50627     50628
     50629     50630     50629     50631     50630     50631     50632     50633
     50632     50634     50633     50634     50635     50636     50635     50637
     50636     50637     50638     50639     50638     50640     50639     50640
     50641     50642     50641     50643     50642     50643     50644     50645
     50644     50646     50645     50646     50647     50648     50647     50649
     50648     50649     50650     50651     50650     50652     50651     50652
     50653     50654     50653     50655     50654     50655     50656     50657
     50656     50658     50657     50658     50659     50660     50659     50661
     50660     50661     50662     50663     50662     50664     50663     50664
     50665     50666     50665     50667     50666     50667     50668     50669
     50668     50670     50669     50670     50671     50672     50671     50673
     50672     50673     50674     50675     50674     50676     50675     50676
     50677     50678     50677     50679     50678     50679     50680     50681
     50680     50682     50681     50682     50683     50684     50683     50685
     50684     50685     50686     50687     50686     50688     50687     50688
     50689     50690     50689     50691     50690     50691     50692     50693
     50692     50694     50693     50694     50695     50696     50695     50697
     50696     50697     50698     50699     50698     50700     50699     50700
     50701     50702     50701     50703     50702     50703     50704     50705
     50704     50706     50705     50706     50707     50708     50707     50709
     50708     50709     50710     50711     50710     50712     50711     50712
     50713     50714     50713     50715     50714     50715     50716     50717
     50716     50718     50717     50718     50719     50720     50719     50721
     50720     50721     50722     50723     50722     50724     50723     50724
     50725     50726     50725     50727     50726     50727     50728     50729
     50728     50730     50729     50730     50731     50732     50731     50733
     50732     50733     50734     50735     50734     50736     50735     50736
     50737     50738     50737     50739     50738     50739     50740     50741
     50740     50742     50741     50742     50743     50744     50743     50745
     50744     50745     50746     50747     50746     50748     50747     50748
     50749     50750     50749     50751     50750     50751     50752     50753
     50752     50754     50753     50754     50755     50756     50755     50757
     50756     50757     50758     50759     50758     50760     50759     50760
     50761     50762     50761     50763     50762     50763     50764     50765
     50764     50766     50765     50766     50767     50768     50767     50769
     50768     50769     50770     50771     50770     50772     50771     50772
     50773     50774     50773     50775     50774     50775     50776     50777
     50776     50778     50777     50778     50779     50780     50779     50781
     50780     50781     50782     50783     50782     50784     50783     50784
     50785     50786     50785     50787     50786     50787     50788     50789
     50788     50790     50789     50790     50791     50792     50791     50793
     50792     50793     50794     50795     50794     50796     50795     50796
     50797     50798     50797     50799     50798     50799     50800     50801
     50800     50802     50801     50802     50803     50804     50803     50805
     50804     50805     50806     50807     50806     50808     50807     50808
     50809     50810     50809     50811     50810     50811     50812     50813
     50812     50814     50813     50814     50815     50816     50815     50817
     50816     50817     50818     50819     50818     50820     50819     50820
     50821     50822     50821     50823     50822     50823     50824     50825
     50824     50826     50825     50826     50827     50828     50827     50829
     50828     50829     50830     50831     50830     50832     50831     50832
     50833     50834     50833     50835     50834     50835     50836     50837
     50836     50838     50837     50838     50839     50840     50839     50841
     50840     50841     50842     50843     50842     50844     50843     50844
     50845     50846     50845     50847     50846     50847     50848     50849
     50848     50850     50849     50850     50851     50852     50851     50853
     50852     50853     50854     50855     50854     50856     50855     50856
     50857     50858     50857     50859     50858     50859     50860     50861
     50860     50862     50861     50862     50863     50864     50863     50865
     50864     50865     50866     50867     50866     50868     50867     50868
     50869     50870     50869     50871     50870     50871     50872     50873
     50872     50874     50873     50874     50875     50876     50875     50877
     50876     50877     50878     50879     50878     50880     50879     50880
     50881     50882     50881     50883     50882     50883     50884     50885
     50884     50886     50885     50886     50887     50888     50887     50889
     50888     50889     50890     50891     50890     50892     50891     50892
     50893     50894     50893     50895     50894     50895     50896     50897
     50896     50898     50897     50898     50899     50900     50899     50901
     50900     50901     50902     50903     50902     50904     50903     50904
     50905     50906     50905     50907     50906     50907     50908     50909
     50908     50910     50909     50910     50911     50912     50911     50913
     50912     50913     50914     50915     50914     50916     50915     50916
     50917     50918     50917     50919     50918     50919     50920     50921
     50920     50922     50921     50922     50923     50924     50923     50925
     50924     50925     50926     50927     50926     50928     50927     50928
     50929     50930     50929     50931     50930     50931     50932     50933
     50932     50934     50933     50934     50935     50936     50935     50937
     50936     50937     50938     50939     50938     50940     50939     50940
     50941     50942     50941     50943     50942     50943     50944     50945
     50944     50946     50945     50946     50947     50948     50947     50949
     50948     50949     50950     50951     50950     50952     50951     50952
     50953     50954     50953     50955     50954     50955     50956     50957
     50956     50958     50957     50958     50959     50960     50959     50961
     50960     50961     50962     50963     50962     50964     50963     50964
     50965     50966     50965     50967     50966     50967     50968     50969
     50968     50970     50969     50970     50971     50972     50971     50973
     50972     50973     50974     50975     50974     50976     50975     50976
     50977     50978     50977     50979     50978     50979     50980     50981
     50980     50982     50981     50982     50983     50984     50983     50985
     50984     50985     50986     50987     50986     50988     50987     50988
     50989     50990     50989     50991     50990     50991     50992     50993
     50992     50994     50993     50994     50995     50996     50995     50997
     50996     50997     50998     50999     50998     51000     50999     51000
     51001     51002     51001     51003     51002     51003     51004     51005
     51004     51006     51005     51006     51007     51008     51007     51009
     51008     51009     51010     51011     51010     51012     51011     51012
     51013     51014     51013     51015     51014     51015     51016     51017
     51016     51018     51017     51018     51019     51020     51019     51021
     51020     51021     51022     51023     51022     51024     51023     51024
     51025     51026     51025     51027     51026     51027     51028     51029
     51028     51030     51029     51030     51031     51032     51031     51033
     51032     51033     51034     51035     51034     51036     51035     51036
     51037     51038     51037     51039     51038     51039     51040     51041
     51040     51042     51041     51042     51043     51044     51043     51045
     51044     51045     51046     51047     51046     51048     51047     51048
     51049     51050     51049     51051     51050     51051     51052     51053
     51052     51054     51053     51054     51055     51056     51055     51057
     51056     51057     51058     51059     51058     51060     51059     51060
     51061     51062     51061     51063     51062     51063     51064     51065
     51064     51066     51065     51066     51067     51068     51067     51069
     51068     51069     51070     51071     51070     51072     51071     51072
     51073     51074     51073     51075     51074     51075     51076     51077
     51076     51078     51077     51078     51079     51080     51079     51081
     51080     51081     51082     51083     51082     51084     51083     51084
     51085     51086     51085     51087     51086     51087     51088     51089
     51088     51090     51089     51090     51091     51092     51091     51093
     51092     51093     51094     51095     51094     51096     51095     51096
     51097     51098     51097     51099     51098     51099     51100     51101
     51100     51102     51101     51102     51103     51104     51103     51105
     51104     51105     51106     51107     51106     51108     51107     51108
     51109     51110     51109     51111     51110     51111     51112     51113
     51112     51114     51113     51114     51115     51116     51115     51117
     51116     51117     51118     51119     51118     51120     51119     51120
     51121     51122     51121     51123     51122     51123     51124     51125
     51124     51126     51125     51126     51127     51128     51127     51129
     51128     51129     51130     51131     51130     51132     51131     51132
     51133     51134     51133     51135     51134     51135     51136     51137
     51136     51138     51137     51138     51139     51140     51139     51141
     51140     51141     51142     51143     51142     51144     51143     51144
     51145     51146     51145     51147     51146     51147     51148     51149
     51148     51150     51149     51150     51151     51152     51151     51153
     51152     51153     51154     51155     51154     51156     51155     51156
     51157     51158     51157     51159     51158     51159     51160     51161
     51160     51162     51161     51162     51163     51164     51163     51165
     51164     51165     51166     51167     51166     51168     51167     51168
     51169     51170     51169     51171     51170     51171     51172     51173
     51172     51174     51173     51174     51175     51176     51175     51177
     51176     51177     51178     51179     51178     51180     51179     51180
     51181     51182     51181     51183     51182     51183     51184     51185
     51184     51186     51185     51186     51187     51188     51187     51189
     51188     51189     51190     51191     51190     51192     51191     51192
     51193     51194     51193     51195     51194     51195     51196     51197
     51196     51198     51197     51198     51199     51200     51199     51201
     51200     51201     51202     51203     51202     51204     51203     51204
     51205     51206     51205     51207     51206     51207     51208     51209
     51208     51210     51209     51210     51211     51212     51211     51213
     51212     51213     51214     51215     51214     51216     51215     51216
     51217     51218     51217     51219     51218     51219     51220     51221
     51220     51222     51221     51222     51223     51224     51223     51225
     51224     51225     51226     51227     51226     51228     51227     51228
     51229     51230     51229     51231     51230     51231     51232     51233
     51232     51234     51233     51234     51235     51236     51235     51237
     51236     51237     51238     51239     51238     51240     51239     51240
     51241     51242     51241     51243     51242     51243     51244     51245
     51244     51246     51245     51246     51247     51248     51247     51249
     51248     51249     51250     51251     51250     51252     51251     51252
     51253     51254     51253     51255     51254     51255     51256     51257
     51256     51258     51257     51258     51259     51260     51259     51261
     51260     51261     51262     51263     51262     51264     51263     51264
     51265     51266     51265     51267     51266     51267     51268     51269
     51268     51270     51269     51270     51271     51272     51271     51273
     51272     51273     51274     51275     51274     51276     51275     51276
     51277     51278     51277     51279     51278     51279     51280     51281
     51280     51282     51281     51282     51283     51284     51283     51285
     51284     51285     51286     51287     51286     51288     51287     51288
     51289     51290     51289     51291     51290     51291     51292     51293
     51292     51294     51293     51294     51295     51296     51295     51297
     51296     51297     51298     51299     51298     51300     51299     51300
     51301     51302     51301     51303     51302     51303     51304     51305
     51304     51306     51305     51306     51307     51308     51307     51309
     51308     51309     51310     51311     51310     51312     51311     51312
     51313     51314     51313     51315     51314     51315     51316     51317
     51316     51318     51317     51318     51319     51320     51319     51321
     51320     51321     51322     51323     51322     51324     51323     51324
     51325     51326     51325     51327     51326     51327     51328     51329
     51328     51330     51329     51330     51331     51332     51331     51333
     51332     51333     51334     51335     51334     51336     51335     51336
     51337     51338     51337     51339     51338     51339     51340     51341
     51340     51342     51341     51342     51343     51344     51343     51345
     51344     51345     51346     51347     51346     51348     51347     51348
     51349     51350     51349     51351     51350     51351     51352     51353
     51352     51354     51353     51354     51355     51356     51355     51357
     51356     51357     51358     51359     51358     51360     51359     51360
     51361     51362     51361     51363     51362     51363     51364     51365
     51364     51366     51365     51366     51367     51368     51367     51369
     51368     51369     51370     51371     51370     51372     51371     51372
     51373     51374     51373     51375     51374     51375     51376     51377
     51376     51378     51377     51378     51379     51380     51379     51381
     51380     51381     51382     51383     51382     51384     51383     51384
     51385     51386     51385     51387     51386     51387     51388     51389
     51388     51390     51389     51390     51391     51392     51391     51393
     51392     51393     51394     51395     51394     51396     51395     51396
     51397     51398     51397     51399     51398     51399     51400     51401
     51400     51402     51401     51402     51403     51404     51403     51405
     51404     51405     51406     51407     51406     51408     51407     51408
     51409     51410     51409     51411     51410     51411     51412     51413
     51412     51414     51413     51414     51415     51416     51415     51417
     51416     51417     51418     51419     51418     51420     51419     51420
     51421     51422     51421     51423     51422     51423     51424     51425
     51424     51426     51425     51426     51427     51428     51427     51429
     51428     51429     51430     51431     51430     51432     51431     51432
     51433     51434     51433     51435     51434     51435     51436     51437
     51436     51438     51437     51438     51439     51440     51439     51441
     51440     51441     51442     51443     51442     51444     51443     51444
     51445     51446     51445     51447     51446     51447     51448     51449
     51448     51450     51449     51450     51451     51452     51451     51453
     51452     51453     51454     51455     51454     51456     51455     51456
     51457     51458     51457     51459     51458     51459     51460     51461
     51460     51462     51461     51462     51463     51464     51463     51465
     51464     51465     51466     51467     51466     51468     51467     51468
     51469     51470     51469     51471     51470     51471     51472     51473
     51472     51474     51473     51474     51475     51476     51475     51477
     51476     51477     51478     51479     51478     51480     51479     51480
     51481     51482     51481     51483     51482     51483     51484     51485
     51484     51486     51485     51486     51487     51488     51487     51489
     51488     51489     51490     51491     51490     51492     51491     51492
     51493     51494     51493     51495     51494     51495     51496     51497
     51496     51498     51497     51498     51499     51500     51499     51501
     51500     51501     51502     51503     51502     51504     51503     51504
     51505     51506     51505     51507     51506     51507     51508     51509
     51508     51510     51509     51510     51511     51512     51511     51513
     51512     51513     51514     51515     51514     51516     51515     51516
     51517     51518     51517     51519     51518     51519     51520     51521
     51520     51522     51521     51522     51523     51524     51523     51525
     51524     51525     51526     51527     51526     51528     51527     51528
     51529     51530     51529     51531     51530     51531     51532     51533
     51532     51534     51533     51534     51535     51536     51535     51537
     51536     51537     51538     51539     51538     51540     51539     51540
     51541     51542     51541     51543     51542     51543     51544     51545
     51544     51546     51545     51546     51547     51548     51547     51549
     51548     51549     51550     51551     51550     51552     51551     51552
     51553     51554     51553     51555     51554     51555     51556     51557
     51556     51558     51557     51558     51559     51560     51559     51561
     51560     51561     51562     51563     51562     51564     51563     51564
     51565     51566     51565     51567     51566     51567     51568     51569
     51568     51570     51569     51570     51571     51572     51571     51573
     51572     51573     51574     51575     51574     51576     51575     51576
     51577     51578     51577     51579     51578     51579     51580     51581
     51580     51582     51581     51582     51583     51584     51583     51585
     51584     51585     51586     51587     51586     51588     51587     51588
     51589     51590     51589     51591     51590     51591     51592     51593
     51592     51594     51593     51594     51595     51596     51595     51597
     51596     51597     51598     51599     51598     51600     51599     51600
     51601     51602     51601     51603     51602     51603     51604     51605
     51604     51606     51605     51606     51607     51608     51607     51609
     51608     51609     51610     51611     51610     51612     51611     51612
     51613     51614     51613     51615     51614     51615     51616     51617
     51616     51618     51617     51618     51619     51620     51619     51621
     51620     51621     51622     51623     51622     51624     51623     51624
     51625     51626     51625     51627     51626     51627     51628     51629
     51628     51630     51629     51630     51631     51632     51631     51633
     51632     51633     51634     51635     51634     51636     51635     51636
     51637     51638     51637     51639     51638     51639     51640     51641
     51640     51642     51641     51642     51643     51644     51643     51645
     51644     51645     51646     51647     51646     51648     51647     51648
     51649     51650     51649     51651     51650     51651     51652     51653
     51652     51654     51653     51654     51655     51656     51655     51657
     51656     51657     51658     51659     51658     51660     51659     51660
     51661     51662     51661     51663     51662     51663     51664     51665
     51664     51666     51665     51666     51667     51668     51667     51669
     51668     51669     51670     51671     51670     51672     51671     51672
     51673     51674     51673     51675     51674     51675     51676     51677
     51676     51678     51677     51678     51679     51680     51679     51681
     51680     51681     51682     51683     51682     51684     51683     51684
     51685     51686     51685     51687     51686     51687     51688     51689
     51688     51690     51689     51690     51691     51692     51691     51693
     51692     51693     51694     51695     51694     51696     51695     51696
     51697     51698     51697     51699     51698     51699     51700     51701
     51700     51702     51701     51702     51703     51704     51703     51705
     51704     51705     51706     51707     51706     51708     51707     51708
     51709     51710     51709     51711     51710     51711     51712     51713
     51712     51714     51713     51714     51715     51716     51715     51717
     51716     51717     51718     51719     51718     51720     51719     51720
     51721     51722     51721     51723     51722     51723     51724     51725
     51724     51726     51725     51726     51727     51728     51727     51729
     51728     51729     51730     51731     51730     51732     51731     51732
     51733     51734     51733     51735     51734     51735     51736     51737
     51736     51738     51737     51738     51739     51740     51739     51741
     51740     51741     51742     51743     51742     51744     51743     51744
     51745     51746     51745     51747     51746     51747     51748     51749
     51748     51750     51749     51750     51751     51752     51751     51753
     51752     51753     51754     51755     51754     51756     51755     51756
     51757     51758     51757     51759     51758     51759     51760     51761
     51760     51762     51761     51762     51763     51764     51763     51765
     51764     51765     51766     51767     51766     51768     51767     51768
     51769     51770     51769     51771     51770     51771     51772     51773
     51772     51774     51773     51774     51775     51776     51775     51777
     51776     51777     51778     51779     51778     51780     51779     51780
     51781     51782     51781     51783     51782     51783     51784     51785
     51784     51786     51785     51786     51787     51788     51787     51789
     51788     51789     51790     51791     51790     51792     51791     51792
     51793     51794     51793     51795     51794     51795     51796     51797
     51796     51798     51797     51798     51799     51800     51799     51801
     51800     51801     51802     51803     51802     51804     51803     51804
     51805     51806     51805     51807     51806     51807     51808     51809
     51808     51810     51809     51810     51811     51812     51811     51813
     51812     51813     51814     51815     51814     51816     51815     51816
     51817     51818     51817     51819     51818     51819     51820     51821
     51820     51822     51821     51822     51823     51824     51823     51825
     51824     51825     51826     51827     51826     51828     51827     51828
     51829     51830     51829     51831     51830     51831     51832     51833
     51832     51834     51833     51834     51835     51836     51835     51837
     51836     51837     51838     51839     51838     51840     51839     51840
     51841     51842     51841     51843     51842     51843     51844     51845
     51844     51846     51845     51846     51847     51848     51847     51849
     51848     51849     51850     51851     51850     51852     51851     51852
     51853     51854     51853     51855     51854     51855     51856     51857
     51856     51858     51857     51858     51859     51860     51859     51861
     51860     51861     51862     51863     51862     51864     51863     51864
     51865     51866     51865     51867     51866     51867     51868     51869
     51868     51870     51869     51870     51871     51872     51871     51873
     51872     51873     51874     51875     51874     51876     51875     51876
     51877     51878     51877     51879     51878     51879     51880     51881
     51880     51882     51881     51882     51883     51884     51883     51885
     51884     51885     51886     51887     51886     51888     51887     51888
     51889     51890     51889     51891     51890     51891     51892     51893
     51892     51894     51893     51894     51895     51896     51895     51897
     51896     51897     51898     51899     51898     51900     51899     51900
     51901     51902     51901     51903     51902     51903     51904     51905
     51904     51906     51905     51906     51907     51908     51907     51909
     51908     51909     51910     51911     51910     51912     51911     51912
     51913     51914     51913     51915     51914     51915     51916     51917
     51916     51918     51917     51918     51919     51920     51919     51921
     51920     51921     51922     51923     51922     51924     51923     51924
     51925     51926     51925     51927     51926     51927     51928     51929
     51928     51930     51929     51930     51931     51932     51931     51933
     51932     51933     51934     51935     51934     51936     51935     51936
     51937     51938     51937     51939     51938     51939     51940     51941
     51940     51942     51941     51942     51943     51944     51943     51945
     51944     51945     51946     51947     51946     51948     51947     51948
     51949     51950     51949     51951     51950     51951     51952     51953
     51952     51954     51953     51954     51955     51956     51955     51957
     51956     51957     51958     51959     51958     51960     51959     51960
     51961     51962     51961     51963     51962     51963     51964     51965
     51964     51966     51965     51966     51967     51968     51967     51969
     51968     51969     51970     51971     51970     51972     51971     51972
     51973     51974     51973     51975     51974     51975     51976     51977
     51976     51978     51977     51978     51979     51980     51979     51981
     51980     51981     51982     51983     51982     51984     51983     51984
     51985     51986     51985     51987     51986     51987     51988     51989
     51988     51990     51989     51990     51991     51992     51991     51993
     51992     51993     51994     51995     51994     51996     51995     51996
     51997     51998     51997     51999     51998     51999     52000     52001
     52000     52002     52001     52002     52003     52004     52003     52005
     52004     52005     52006     52007     52006     52008     52007     52008
     52009     52010     52009     52011     52010     52011     52012     52013
     52012     52014     52013     52014     52015     52016     52015     52017
     52016     52017     52018     52019     52018     52020     52019     52020
     52021     52022     52021     52023     52022     52023     52024     52025
     52024     52026     52025     52026     52027     52028     52027     52029
     52028     52029     52030     52031     52030     52032     52031     52032
     52033     52034     52033     52035     52034     52035     52036     52037
     52036     52038     52037     52038     52039     52040     52039     52041
     52040     52041     52042     52043     52042     52044     52043     52044
     52045     52046     52045     52047     52046     52047     52048     52049
     52048     52050     52049     52050     52051     52052     52051     52053
     52052     52053     52054     52055     52054     52056     52055     52056
     52057     52058     52057     52059     52058     52059     52060     52061
     52060     52062     52061     52062     52063     52064     52063     52065
     52064     52065     52066     52067     52066     52068     52067     52068
     52069     52070     52069     52071     52070     52071     52072     52073
     52072     52074     52073     52074     52075     52076     52075     52077
     52076     52077     52078     52079     52078     52080     52079     52080
     52081     52082     52081     52083     52082     52083     52084     52085
     52084     52086     52085     52086     52087     52088     52087     52089
     52088     52089     52090     52091     52090     52092     52091     52092
     52093     52094     52093     52095     52094     52095     52096     52097
     52096     52098     52097     52098     52099     52100     52099     52101
     52100     52101     52102     52103     52102     52104     52103     52104
     52105     52106     52105     52107     52106     52107     52108     52109
     52108     52110     52109     52110     52111     52112     52111     52113
     52112     52113     52114     52115     52114     52116     52115     52116
     52117     52118     52117     52119     52118     52119     52120     52121
     52120     52122     52121     52122     52123     52124     52123     52125
     52124     52125     52126     52127     52126     52128     52127     52128
     52129     52130     52129     52131     52130     52131     52132     52133
     52132     52134     52133     52134     52135     52136     52135     52137
     52136     52137     52138     52139     52138     52140     52139     52140
     52141     52142     52141     52143     52142     52143     52144     52145
     52144     52146     52145     52146     52147     52148     52147     52149
     52148     52149     52150     52151     52150     52152     52151     52152
     52153     52154     52153     52155     52154     52155     52156     52157
     52156     52158     52157     52158     52159     52160     52159     52161
     52160     52161     52162     52163     52162     52164     52163     52164
     52165     52166     52165     52167     52166     52167     52168     52169
     52168     52170     52169     52170     52171     52172     52171     52173
     52172     52173     52174     52175     52174     52176     52175     52176
     52177     52178     52177     52179     52178     52179     52180     52181
     52180     52182     52181     52182     52183     52184     52183     52185
     52184     52185     52186     52187     52186     52188     52187     52188
     52189     52190     52189     52191     52190     52191     52192     52193
     52192     52194     52193     52194     52195     52196     52195     52197
     52196     52197     52198     52199     52198     52200     52199     52200
     52201     52202     52201     52203     52202     52203     52204     52205
     52204     52206     52205     52206     52207     52208     52207     52209
     52208     52209     52210     52211     52210     52212     52211     52212
     52213     52214     52213     52215     52214     52215     52216     52217
     52216     52218     52217     52218     52219     52220     52219     52221
     52220     52221     52222     52223     52222     52224     52223     52224
     52225     52226     52225     52227     52226     52227     52228     52229
     52228     52230     52229     52230     52231     52232     52231     52233
     52232     52233     52234     52235     52234     52236     52235     52236
     52237     52238     52237     52239     52238     52239     52240     52241
     52240     52242     52241     52242     52243     52244     52243     52245
     52244     52245     52246     52247     52246     52248     52247     52248
     52249     52250     52249     52251     52250     52251     52252     52253
     52252     52254     52253     52254     52255     52256     52255     52257
     52256     52257     52258     52259     52258     52260     52259     52260
     52261     52262     52261     52263     52262     52263     52264     52265
     52264     52266     52265     52266     52267     52268     52267     52269
     52268     52269     52270     52271     52270     52272     52271     52272
     52273     52274     52273     52275     52274     52275     52276     52277
     52276     52278     52277     52278     52279     52280     52279     52281
     52280     52281     52282     52283     52282     52284     52283     52284
     52285     52286     52285     52287     52286     52287     52288     52289
     52288     52290     52289     52290     52291     52292     52291     52293
     52292     52293     52294     52295     52294     52296     52295     52296
     52297     52298     52297     52299     52298     52299     52300     52301
     52300     52302     52301     52302     52303     52304     52303     52305
     52304     52305     52306     52307     52306     52308     52307     52308
     52309     52310     52309     52311     52310     52311     52312     52313
     52312     52314     52313     52314     52315     52316     52315     52317
     52316     52317     52318     52319     52318     52320     52319     52320
     52321     52322     52321     52323     52322     52323     52324     52325
     52324     52326     52325     52326     52327     52328     52327     52329
     52328     52329     52330     52331     52330     52332     52331     52332
     52333     52334     52333     52335     52334     52335     52336     52337
     52336     52338     52337     52338     52339     52340     52339     52341
     52340     52341     52342     52343     52342     52344     52343     52344
     52345     52346     52345     52347     52346     52347     52348     52349
     52348     52350     52349     52350     52351     52352     52351     52353
     52352     52353     52354     52355     52354     52356     52355     52356
     52357     52358     52357     52359     52358     52359     52360     52361
     52360     52362     52361     52362     52363     52364     52363     52365
     52364     52365     52366     52367     52366     52368     52367     52368
     52369     52370     52369     52371     52370     52371     52372     52373
     52372     52374     52373     52374     52375     52376     52375     52377
     52376     52377     52378     52379     52378     52380     52379     52380
     52381     52382     52381     52383     52382     52383     52384     52385
     52384     52386     52385     52386     52387     52388     52387     52389
     52388     52389     52390     52391     52390     52392     52391     52392
     52393     52394     52393     52395     52394     52395     52396     52397
     52396     52398     52397     52398     52399     52400     52399     52401
     52400     52401     52402     52403     52402     52404     52403     52404
     52405     52406     52405     52407     52406     52407     52408     52409
     52408     52410     52409     52410     52411     52412     52411     52413
     52412     52413     52414     52415     52414     52416     52415     52416
     52417     52418     52417     52419     52418     52419     52420     52421
     52420     52422     52421     52422     52423     52424     52423     52425
     52424     52425     52426     52427     52426     52428     52427     52428
     52429     52430     52429     52431     52430     52431     52432     52433
     52432     52434     52433     52434     52435     52436     52435     52437
     52436     52437     52438     52439     52438     52440     52439     52440
     52441     52442     52441     52443     52442     52443     52444     52445
     52444     52446     52445     52446     52447     52448     52447     52449
     52448     52449     52450     52451     52450     52452     52451     52452
     52453     52454     52453     52455     52454     52455     52456     52457
     52456     52458     52457     52458     52459     52460     52459     52461
     52460     52461     52462     52463     52462     52464     52463     52464
     52465     52466     52465     52467     52466     52467     52468     52469
     52468     52470     52469     52470     52471     52472     52471     52473
     52472     52473     52474     52475     52474     52476     52475     52476
     52477     52478     52477     52479     52478     52479     52480     52481
     52480     52482     52481     52482     52483     52484     52483     52485
     52484     52485     52486     52487     52486     52488     52487     52488
     52489     52490     52489     52491     52490     52491     52492     52493
     52492     52494     52493     52494     52495     52496     52495     52497
     52496     52497     52498     52499     52498     52500     52499     52500
     52501     52502     52501     52503     52502     52503     52504     52505
     52504     52506     52505     52506     52507     52508     52507     52509
     52508     52509     52510     52511     52510     52512     52511     52512
     52513     52514     52513     52515     52514     52515     52516     52517
     52516     52518     52517     52518     52519     52520     52519     52521
     52520     52521     52522     52523     52522     52524     52523     52524
     52525     52526     52525     52527     52526     52527     52528     52529
     52528     52530     52529     52530     52531     52532     52531     52533
     52532     52533     52534     52535     52534     52536     52535     52536
     52537     52538     52537     52539     52538     52539     52540     52541
     52540     52542     52541     52542     52543     52544     52543     52545
     52544     52545     52546     52547     52546     52548     52547     52548
     52549     52550     52549     52551     52550     52551     52552     52553
     52552     52554     52553     52554     52555     52556     52555     52557
     52556     52557     52558     52559     52558     52560     52559     52560
     52561     52562     52561     52563     52562     52563     52564     52565
     52564     52566     52565     52566     52567     52568     52567     52569
     52568     52569     52570     52571     52570     52572     52571     52572
     52573     52574     52573     52575     52574     52575     52576     52577
     52576     52578     52577     52578     52579     52580     52579     52581
     52580     52581     52582     52583     52582     52584     52583     52584
     52585     52586     52585     52587     52586     52587     52588     52589
     52588     52590     52589     52590     52591     52592     52591     52593
     52592     52593     52594     52595     52594     52596     52595     52596
     52597     52598     52597     52599     52598     52599     52600     52601
     52600     52602     52601     52602     52603     52604     52603     52605
     52604     52605     52606     52607     52606     52608     52607     52608
     52609     52610     52609     52611     52610     52611     52612     52613
     52612     52614     52613     52614     52615     52616     52615     52617
     52616     52617     52618     52619     52618     52620     52619     52620
     52621     52622     52621     52623     52622     52623     52624     52625
     52624     52626     52625     52626     52627     52628     52627     52629
     52628     52629     52630     52631     52630     52632     52631     52632
     52633     52634     52633     52635     52634     52635     52636     52637
     52636     52638     52637     52638     52639     52640     52639     52641
     52640     52641     52642     52643     52642     52644     52643     52644
     52645     52646     52645     52647     52646     52647     52648     52649
     52648     52650     52649     52650     52651     52652     52651     52653
     52652     52653     52654     52655     52654     52656     52655     52656
     52657     52658     52657     52659     52658     52659     52660     52661
     52660     52662     52661     52662     52663     52664     52663     52665
     52664     52665     52666     52667     52666     52668     52667     52668
     52669     52670     52669     52671     52670     52671     52672     52673
     52672     52674     52673     52674     52675     52676     52675     52677
     52676     52677     52678     52679     52678     52680     52679     52680
     52681     52682     52681     52683     52682     52683     52684     52685
     52684     52686     52685     52686     52687     52688     52687     52689
     52688     52689     52690     52691     52690     52692     52691     52692
     52693     52694     52693     52695     52694     52695     52696     52697
     52696     52698     52697     52698     52699     52700     52699     52701
     52700     52701     52702     52703     52702     52704     52703     52704
     52705     52706     52705     52707     52706     52707     52708     52709
     52708     52710     52709     52710     52711     52712     52711     52713
     52712     52713     52714     52715     52714     52716     52715     52716
     52717     52718     52717     52719     52718     52719     52720     52721
     52720     52722     52721     52722     52723     52724     52723     52725
     52724     52725     52726     52727     52726     52728     52727     52728
     52729     52730     52729     52731     52730     52731     52732     52733
     52732     52734     52733     52734     52735     52736     52735     52737
     52736     52737     52738     52739     52738     52740     52739     52740
     52741     52742     52741     52743     52742     52743     52744     52745
     52744     52746     52745     52746     52747     52748     52747     52749
     52748     52749     52750     52751     52750     52752     52751     52752
     52753     52754     52753     52755     52754     52755     52756     52757
     52756     52758     52757     52758     52759     52760     52759     52761
     52760     52761     52762     52763     52762     52764     52763     52764
     52765     52766     52765     52767     52766     52767     52768     52769
     52768     52770     52769     52770     52771     52772     52771     52773
     52772     52773     52774     52775     52774     52776     52775     52776
     52777     52778     52777     52779     52778     52779     52780     52781
     52780     52782     52781     52782     52783     52784     52783     52785
     52784     52785     52786     52787     52786     52788     52787     52788
     52789     52790     52789     52791     52790     52791     52792     52793
     52792     52794     52793     52794     52795     52796     52795     52797
     52796     52797     52798     52799     52798     52800     52799     52800
     52801     52802     52801     52803     52802     52803     52804     52805
     52804     52806     52805     52806     52807     52808     52807     52809
     52808     52809     52810     52811     52810     52812     52811     52812
     52813     52814     52813     52815     52814     52815     52816     52817
     52816     52818     52817     52818     52819     52820     52819     52821
     52820     52821     52822     52823     52822     52824     52823     52824
     52825     52826     52825     52827     52826     52827     52828     52829
     52828     52830     52829     52830     52831     52832     52831     52833
     52832     52833     52834     52835     52834     52836     52835     52836
     52837     52838     52837     52839     52838     52839     52840     52841
     52840     52842     52841     52842     52843     52844     52843     52845
     52844     52845     52846     52847     52846     52848     52847     52848
     52849     52850     52849     52851     52850     52851     52852     52853
     52852     52854     52853     52854     52855     52856     52855     52857
     52856     52857     52858     52859     52858     52860     52859     52860
     52861     52862     52861     52863     52862     52863     52864     52865
     52864     52866     52865     52866     52867     52868     52867     52869
     52868     52869     52870     52871     52870     52872     52871     52872
     52873     52874     52873     52875     52874     52875     52876     52877
     52876     52878     52877     52878     52879     52880     52879     52881
     52880     52881     52882     52883     52882     52884     52883     52884
     52885     52886     52885     52887     52886     52887     52888     52889
     52888     52890     52889     52890     52891     52892     52891     52893
     52892     52893     52894     52895     52894     52896     52895     52896
     52897     52898     52897     52899     52898     52899     52900     52901
     52900     52902     52901     52902     52903     52904     52903     52905
     52904     52905     52906     52907     52906     52908     52907     52908
     52909     52910     52909     52911     52910     52911     52912     52913
     52912     52914     52913     52914     52915     52916     52915     52917
     52916     52917     52918     52919     52918     52920     52919     52920
     52921     52922     52921     52923     52922     52923     52924     52925
     52924     52926     52925     52926     52927     52928     52927     52929
     52928     52929     52930     52931     52930     52932     52931     52932
     52933     52934     52933     52935     52934     52935     52936     52937
     52936     52938     52937     52938     52939     52940     52939     52941
     52940     52941     52942     52943     52942     52944     52943     52944
     52945     52946     52945     52947     52946     52947     52948     52949
     52948     52950     52949     52950     52951     52952     52951     52953
     52952     52953     52954     52955     52954     52956     52955     52956
     52957     52958     52957     52959     52958     52959     52960     52961
     52960     52962     52961     52962     52963     52964     52963     52965
     52964     52965     52966     52967     52966     52968     52967     52968
     52969     52970     52969     52971     52970     52971     52972     52973
     52972     52974     52973     52974     52975     52976     52975     52977
     52976     52977     52978     52979     52978     52980     52979     52980
     52981     52982     52981     52983     52982     52983     52984     52985
     52984     52986     52985     52986     52987     52988     52987     52989
     52988     52989     52990     52991     52990     52992     52991     52992
     52993     52994     52993     52995     52994     52995     52996     52997
     52996     52998     52997     52998     52999     53000     52999     53001
     53000     53001     53002     53003     53002     53004     53003     53004
     53005     53006     53005     53007     53006     53007     53008     53009
     53008     53010     53009     53010     53011     53012     53011     53013
     53012     53013     53014     53015     53014     53016     53015     53016
     53017     53018     53017     53019     53018     53019     53020     53021
     53020     53022     53021     53022     53023     53024     53023     53025
     53024     53025     53026     53027     53026     53028     53027     53028
     53029     53030     53029     53031     53030     53031     53032     53033
     53032     53034     53033     53034     53035     53036     53035     53037
     53036     53037     53038     53039     53038     53040     53039     53040
     53041     53042     53041     53043     53042     53043     53044     53045
     53044     53046     53045     53046     53047     53048     53047     53049
     53048     53049     53050     53051     53050     53052     53051     53052
     53053     53054     53053     53055     53054     53055     53056     53057
     53056     53058     53057     53058     53059     53060     53059     53061
     53060     53061     53062     53063     53062     53064     53063     53064
     53065     53066     53065     53067     53066     53067     53068     53069
     53068     53070     53069     53070     53071     53072     53071     53073
     53072     53073     53074     53075     53074     53076     53075     53076
     53077     53078     53077     53079     53078     53079     53080     53081
     53080     53082     53081     53082     53083     53084     53083     53085
     53084     53085     53086     53087     53086     53088     53087     53088
     53089     53090     53089     53091     53090     53091     53092     53093
     53092     53094     53093     53094     53095     53096     53095     53097
     53096     53097     53098     53099     53098     53100     53099     53100
     53101     53102     53101     53103     53102     53103     53104     53105
     53104     53106     53105     53106     53107     53108     53107     53109
     53108     53109     53110     53111     53110     53112     53111     53112
     53113     53114     53113     53115     53114     53115     53116     53117
     53116     53118     53117     53118     53119     53120     53119     53121
     53120     53121     53122     53123     53122     53124     53123     53124
     53125     53126     53125     53127     53126     53127     53128     53129
     53128     53130     53129     53130     53131     53132     53131     53133
     53132     53133     53134     53135     53134     53136     53135     53136
     53137     53138     53137     53139     53138     53139     53140     53141
     53140     53142     53141     53142     53143     53144     53143     53145
     53144     53145     53146     53147     53146     53148     53147     53148
     53149     53150     53149     53151     53150     53151     53152     53153
     53152     53154     53153     53154     53155     53156     53155     53157
     53156     53157     53158     53159     53158     53160     53159     53160
     53161     53162     53161     53163     53162     53163     53164     53165
     53164     53166     53165     53166     53167     53168     53167     53169
     53168     53169     53170     53171     53170     53172     53171     53172
     53173     53174     53173     53175     53174     53175     53176     53177
     53176     53178     53177     53178     53179     53180     53179     53181
     53180     53181     53182     53183     53182     53184     53183     53184
     53185     53186     53185     53187     53186     53187     53188     53189
     53188     53190     53189     53190     53191     53192     53191     53193
     53192     53193     53194     53195     53194     53196     53195     53196
     53197     53198     53197     53199     53198     53199     53200     53201
     53200     53202     53201     53202     53203     53204     53203     53205
     53204     53205     53206     53207     53206     53208     53207     53208
     53209     53210     53209     53211     53210     53211     53212     53213
     53212     53214     53213     53214     53215     53216     53215     53217
     53216     53217     53218     53219     53218     53220     53219     53220
     53221     53222     53221     53223     53222     53223     53224     53225
     53224     53226     53225     53226     53227     53228     53227     53229
     53228     53229     53230     53231     53230     53232     53231     53232
     53233     53234     53233     53235     53234     53235     53236     53237
     53236     53238     53237     53238     53239     53240     53239     53241
     53240     53241     53242     53243     53242     53244     53243     53244
     53245     53246     53245     53247     53246     53247     53248     53249
     53248     53250     53249     53250     53251     53252     53251     53253
     53252     53253     53254     53255     53254     53256     53255     53256
     53257     53258     53257     53259     53258     53259     53260     53261
     53260     53262     53261     53262     53263     53264     53263     53265
     53264     53265     53266     53267     53266     53268     53267     53268
     53269     53270     53269     53271     53270     53271     53272     53273
     53272     53274     53273     53274     53275     53276     53275     53277
     53276     53277     53278     53279     53278     53280     53279     53280
     53281     53282     53281     53283     53282     53283     53284     53285
     53284     53286     53285     53286     53287     53288     53287     53289
     53288     53289     53290     53291     53290     53292     53291     53292
     53293     53294     53293     53295     53294     53295     53296     53297
     53296     53298     53297     53298     53299     53300     53299     53301
     53300     53301     53302     53303     53302     53304     53303     53304
     53305     53306     53305     53307     53306     53307     53308     53309
     53308     53310     53309     53310     53311     53312     53311     53313
     53312     53313     53314     53315     53314     53316     53315     53316
     53317     53318     53317     53319     53318     53319     53320     53321
     53320     53322     53321     53322     53323     53324     53323     53325
     53324     53325     53326     53327     53326     53328     53327     53328
     53329     53330     53329     53331     53330     53331     53332     53333
     53332     53334     53333     53334     53335     53336     53335     53337
     53336     53337     53338     53339     53338     53340     53339     53340
     53341     53342     53341     53343     53342     53343     53344     53345
     53344     53346     53345     53346     53347     53348     53347     53349
     53348     53349     53350     53351     53350     53352     53351     53352
     53353     53354     53353     53355     53354     53355     53356     53357
     53356     53358     53357     53358     53359     53360     53359     53361
     53360     53361     53362     53363     53362     53364     53363     53364
     53365     53366     53365     53367     53366     53367     53368     53369
     53368     53370     53369     53370     53371     53372     53371     53373
     53372     53373     53374     53375     53374     53376     53375     53376
     53377     53378     53377     53379     53378     53379     53380     53381
     53380     53382     53381     53382     53383     53384     53383     53385
     53384     53385     53386     53387     53386     53388     53387     53388
     53389     53390     53389     53391     53390     53391     53392     53393
     53392     53394     53393     53394     53395     53396     53395     53397
     53396     53397     53398     53399     53398     53400     53399     53400
     53401     53402     53401     53403     53402     53403     53404     53405
     53404     53406     53405     53406     53407     53408     53407     53409
     53408     53409     53410     53411     53410     53412     53411     53412
     53413     53414     53413     53415     53414     53415     53416     53417
     53416     53418     53417     53418     53419     53420     53419     53421
     53420     53421     53422     53423     53422     53424     53423     53424
     53425     53426     53425     53427     53426     53427     53428     53429
     53428     53430     53429     53430     53431     53432     53431     53433
     53432     53433     53434     53435     53434     53436     53435     53436
     53437     53438     53437     53439     53438     53439     53440     53441
     53440     53442     53441     53442     53443     53444     53443     53445
     53444     53445     53446     53447     53446     53448     53447     53448
     53449     53450     53449     53451     53450     53451     53452     53453
     53452     53454     53453     53454     53455     53456     53455     53457
     53456     53457     53458     53459     53458     53460     53459     53460
     53461     53462     53461     53463     53462     53463     53464     53465
     53464     53466     53465     53466     53467     53468     53467     53469
     53468     53469     53470     53471     53470     53472     53471     53472
     53473     53474     53473     53475     53474     53475     53476     53477
     53476     53478     53477     53478     53479     53480     53479     53481
     53480     53481     53482     53483     53482     53484     53483     53484
     53485     53486     53485     53487     53486     53487     53488     53489
     53488     53490     53489     53490     53491     53492     53491     53493
     53492     53493     53494     53495     53494     53496     53495     53496
     53497     53498     53497     53499     53498     53499     53500     53501
     53500     53502     53501     53502     53503     53504     53503     53505
     53504     53505     53506     53507     53506     53508     53507     53508
     53509     53510     53509     53511     53510     53511     53512     53513
     53512     53514     53513     53514     53515     53516     53515     53517
     53516     53517     53518     53519     53518     53520     53519     53520
     53521     53522     53521     53523     53522     53523     53524     53525
     53524     53526     53525     53526     53527     53528     53527     53529
     53528     53529     53530     53531     53530     53532     53531     53532
     53533     53534     53533     53535     53534     53535     53536     53537
     53536     53538     53537     53538     53539     53540     53539     53541
     53540     53541     53542     53543     53542     53544     53543     53544
     53545     53546     53545     53547     53546     53547     53548     53549
     53548     53550     53549     53550     53551     53552     53551     53553
     53552     53553     53554     53555     53554     53556     53555     53556
     53557     53558     53557     53559     53558     53559     53560     53561
     53560     53562     53561     53562     53563     53564     53563     53565
     53564     53565     53566     53567     53566     53568     53567     53568
     53569     53570     53569     53571     53570     53571     53572     53573
     53572     53574     53573     53574     53575     53576     53575     53577
     53576     53577     53578     53579     53578     53580     53579     53580
     53581     53582     53581     53583     53582     53583     53584     53585
     53584     53586     53585     53586     53587     53588     53587     53589
     53588     53589     53590     53591     53590     53592     53591     53592
     53593     53594     53593     53595     53594     53595     53596     53597
     53596     53598     53597     53598     53599     53600     53599     53601
     53600     53601     53602     53603     53602     53604     53603     53604
     53605     53606     53605     53607     53606     53607     53608     53609
     53608     53610     53609     53610     53611     53612     53611     53613
     53612     53613     53614     53615     53614     53616     53615     53616
     53617     53618     53617     53619     53618     53619     53620     53621
     53620     53622     53621     53622     53623     53624     53623     53625
     53624     53625     53626     53627     53626     53628     53627     53628
     53629     53630     53629     53631     53630     53631     53632     53633
     53632     53634     53633     53634     53635     53636     53635     53637
     53636     53637     53638     53639     53638     53640     53639     53640
     53641     53642     53641     53643     53642     53643     53644     53645
     53644     53646     53645     53646     53647     53648     53647     53649
     53648     53649     53650     53651     53650     53652     53651     53652
     53653     53654     53653     53655     53654     53655     53656     53657
     53656     53658     53657     53658     53659     53660     53659     53661
     53660     53661     53662     53663     53662     53664     53663     53664
     53665     53666     53665     53667     53666     53667     53668     53669
     53668     53670     53669     53670     53671     53672     53671     53673
     53672     53673     53674     53675     53674     53676     53675     53676
     53677     53678     53677     53679     53678     53679     53680     53681
     53680     53682     53681     53682     53683     53684     53683     53685
     53684     53685     53686     53687     53686     53688     53687     53688
     53689     53690     53689     53691     53690     53691     53692     53693
     53692     53694     53693     53694     53695     53696     53695     53697
     53696     53697     53698     53699     53698     53700     53699     53700
     53701     53702     53701     53703     53702     53703     53704     53705
     53704     53706     53705     53706     53707     53708     53707     53709
     53708     53709     53710     53711     53710     53712     53711     53712
     53713     53714     53713     53715     53714     53715     53716     53717
     53716     53718     53717     53718     53719     53720     53719     53721
     53720     53721     53722     53723     53722     53724     53723     53724
     53725     53726     53725     53727     53726     53727     53728     53729
     53728     53730     53729     53730     53731     53732     53731     53733
     53732     53733     53734     53735     53734     53736     53735     53736
     53737     53738     53737     53739     53738     53739     53740     53741
     53740     53742     53741     53742     53743     53744     53743     53745
     53744     53745     53746     53747     53746     53748     53747     53748
     53749     53750     53749     53751     53750     53751     53752     53753
     53752     53754     53753     53754     53755     53756     53755     53757
     53756     53757     53758     53759     53758     53760     53759     53760
     53761     53762     53761     53763     53762     53763     53764     53765
     53764     53766     53765     53766     53767     53768     53767     53769
     53768     53769     53770     53771     53770     53772     53771     53772
     53773     53774     53773     53775     53774     53775     53776     53777
     53776     53778     53777     53778     53779     53780     53779     53781
     53780     53781     53782     53783     53782     53784     53783     53784
     53785     53786     53785     53787     53786     53787     53788     53789
     53788     53790     53789     53790     53791     53792     53791     53793
     53792     53793     53794     53795     53794     53796     53795     53796
     53797     53798     53797     53799     53798     53799     53800     53801
     53800     53802     53801     53802     53803     53804     53803     53805
     53804     53805     53806     53807     53806     53808     53807     53808
     53809     53810     53809     53811     53810     53811     53812     53813
     53812     53814     53813     53814     53815     53816     53815     53817
     53816     53817     53818     53819     53818     53820     53819     53820
     53821     53822     53821     53823     53822     53823     53824     53825
     53824     53826     53825     53826     53827     53828     53827     53829
     53828     53829     53830     53831     53830     53832     53831     53832
     53833     53834     53833     53835     53834     53835     53836     53837
     53836     53838     53837     53838     53839     53840     53839     53841
     53840     53841     53842     53843     53842     53844     53843     53844
     53845     53846     53845     53847     53846     53847     53848     53849
     53848     53850     53849     53850     53851     53852     53851     53853
     53852     53853     53854     53855     53854     53856     53855     53856
     53857     53858     53857     53859     53858     53859     53860     53861
     53860     53862     53861     53862     53863     53864     53863     53865
     53864     53865     53866     53867     53866     53868     53867     53868
     53869     53870     53869     53871     53870     53871     53872     53873
     53872     53874     53873     53874     53875     53876     53875     53877
     53876     53877     53878     53879     53878     53880     53879     53880
     53881     53882     53881     53883     53882     53883     53884     53885
     53884     53886     53885     53886     53887     53888     53887     53889
     53888     53889     53890     53891     53890     53892     53891     53892
     53893     53894     53893     53895     53894     53895     53896     53897
     53896     53898     53897     53898     53899     53900     53899     53901
     53900     53901     53902     53903     53902     53904     53903     53904
     53905     53906     53905     53907     53906     53907     53908     53909
     53908     53910     53909     53910     53911     53912     53911     53913
     53912     53913     53914     53915     53914     53916     53915     53916
     53917     53918     53917     53919     53918     53919     53920     53921
     53920     53922     53921     53922     53923     53924     53923     53925
     53924     53925     53926     53927     53926     53928     53927     53928
     53929     53930     53929     53931     53930     53931     53932     53933
     53932     53934     53933     53934     53935     53936     53935     53937
     53936     53937     53938     53939     53938     53940     53939     53940
     53941     53942     53941     53943     53942     53943     53944     53945
     53944     53946     53945     53946     53947     53948     53947     53949
     53948     53949     53950     53951     53950     53952     53951     53952
     53953     53954     53953     53955     53954     53955     53956     53957
     53956     53958     53957     53958     53959     53960     53959     53961
     53960     53961     53962     53963     53962     53964     53963     53964
     53965     53966     53965     53967     53966     53967     53968     53969
     53968     53970     53969     53970     53971     53972     53971     53973
     53972     53973     53974     53975     53974     53976     53975     53976
     53977     53978     53977     53979     53978     53979     53980     53981
     53980     53982     53981     53982     53983     53984     53983     53985
     53984     53985     53986     53987     53986     53988     53987     53988
     53989     53990     53989     53991     53990     53991     53992     53993
     53992     53994     53993     53994     53995     53996     53995     53997
     53996     53997     53998     53999     53998     54000     53999     54000
     54001     54002     54001     54003     54002     54003     54004     54005
     54004     54006     54005     54006     54007     54008     54007     54009
     54008     54009     54010     54011     54010     54012     54011     54012
     54013     54014     54013     54015     54014     54015     54016     54017
     54016     54018     54017     54018     54019     54020     54019     54021
     54020     54021     54022     54023     54022     54024     54023     54024
     54025     54026     54025     54027     54026     54027     54028     54029
     54028     54030     54029     54030     54031     54032     54031     54033
     54032     54033     54034     54035     54034     54036     54035     54036
     54037     54038     54037     54039     54038     54039     54040     54041
     54040     54042     54041     54042     54043     54044     54043     54045
     54044     54045     54046     54047     54046     54048     54047     54048
     54049     54050     54049     54051     54050     54051     54052     54053
     54052     54054     54053     54054     54055     54056     54055     54057
     54056     54057     54058     54059     54058     54060     54059     54060
     54061     54062     54061     54063     54062     54063     54064     54065
     54064     54066     54065     54066     54067     54068     54067     54069
     54068     54069     54070     54071     54070     54072     54071     54072
     54073     54074     54073     54075     54074     54075     54076     54077
     54076     54078     54077     54078     54079     54080     54079     54081
     54080     54081     54082     54083     54082     54084     54083     54084
     54085     54086     54085     54087     54086     54087     54088     54089
     54088     54090     54089     54090     54091     54092     54091     54093
     54092     54093     54094     54095     54094     54096     54095     54096
     54097     54098     54097     54099     54098     54099     54100     54101
     54100     54102     54101     54102     54103     54104     54103     54105
     54104     54105     54106     54107     54106     54108     54107     54108
     54109     54110     54109     54111     54110     54111     54112     54113
     54112     54114     54113     54114     54115     54116     54115     54117
     54116     54117     54118     54119     54118     54120     54119     54120
     54121     54122     54121     54123     54122     54123     54124     54125
     54124     54126     54125     54126     54127     54128     54127     54129
     54128     54129     54130     54131     54130     54132     54131     54132
     54133     54134     54133     54135     54134     54135     54136     54137
     54136     54138     54137     54138     54139     54140     54139     54141
     54140     54141     54142     54143     54142     54144     54143     54144
     54145     54146     54145     54147     54146     54147     54148     54149
     54148     54150     54149     54150     54151     54152     54151     54153
     54152     54153     54154     54155     54154     54156     54155     54156
     54157     54158     54157     54159     54158     54159     54160     54161
     54160     54162     54161     54162     54163     54164     54163     54165
     54164     54165     54166     54167     54166     54168     54167     54168
     54169     54170     54169     54171     54170     54171     54172     54173
     54172     54174     54173     54174     54175     54176     54175     54177
     54176     54177     54178     54179     54178     54180     54179     54180
     54181     54182     54181     54183     54182     54183     54184     54185
     54184     54186     54185     54186     54187     54188     54187     54189
     54188     54189     54190     54191     54190     54192     54191     54192
     54193     54194     54193     54195     54194     54195     54196     54197
     54196     54198     54197     54198     54199     54200     54199     54201
     54200     54201     54202     54203     54202     54204     54203     54204
     54205     54206     54205     54207     54206     54207     54208     54209
     54208     54210     54209     54210     54211     54212     54211     54213
     54212     54213     54214     54215     54214     54216     54215     54216
     54217     54218     54217     54219     54218     54219     54220     54221
     54220     54222     54221     54222     54223     54224     54223     54225
     54224     54225     54226     54227     54226     54228     54227     54228
     54229     54230     54229     54231     54230     54231     54232     54233
     54232     54234     54233     54234     54235     54236     54235     54237
     54236     54237     54238     54239     54238     54240     54239     54240
     54241     54242     54241     54243     54242     54243     54244     54245
     54244     54246     54245     54246     54247     54248     54247     54249
     54248     54249     54250     54251     54250     54252     54251     54252
     54253     54254     54253     54255     54254     54255     54256     54257
     54256     54258     54257     54258     54259     54260     54259     54261
     54260     54261     54262     54263     54262     54264     54263     54264
     54265     54266     54265     54267     54266     54267     54268     54269
     54268     54270     54269     54270     54271     54272     54271     54273
     54272     54273     54274     54275     54274     54276     54275     54276
     54277     54278     54277     54279     54278     54279     54280     54281
     54280     54282     54281     54282     54283     54284     54283     54285
     54284     54285     54286     54287     54286     54288     54287     54288
     54289     54290     54289     54291     54290     54291     54292     54293
     54292     54294     54293     54294     54295     54296     54295     54297
     54296     54297     54298     54299     54298     54300     54299     54300
     54301     54302     54301     54303     54302     54303     54304     54305
     54304     54306     54305     54306     54307     54308     54307     54309
     54308     54309     54310     54311     54310     54312     54311     54312
     54313     54314     54313     54315     54314     54315     54316     54317
     54316     54318     54317     54318     54319     54320     54319     54321
     54320     54321     54322     54323     54322     54324     54323     54324
     54325     54326     54325     54327     54326     54327     54328     54329
     54328     54330     54329     54330     54331     54332     54331     54333
     54332     54333     54334     54335     54334     54336     54335     54336
     54337     54338     54337     54339     54338     54339     54340     54341
     54340     54342     54341     54342     54343     54344     54343     54345
     54344     54345     54346     54347     54346     54348     54347     54348
     54349     54350     54349     54351     54350     54351     54352     54353
     54352     54354     54353     54354     54355     54356     54355     54357
     54356     54357     54358     54359     54358     54360     54359     54360
     54361     54362     54361     54363     54362     54363     54364     54365
     54364     54366     54365     54366     54367     54368     54367     54369
     54368     54369     54370     54371     54370     54372     54371     54372
     54373     54374     54373     54375     54374     54375     54376     54377
     54376     54378     54377     54378     54379     54380     54379     54381
     54380     54381     54382     54383     54382     54384     54383     54384
     54385     54386     54385     54387     54386     54387     54388     54389
     54388     54390     54389     54390     54391     54392     54391     54393
     54392     54393     54394     54395     54394     54396     54395     54396
     54397     54398     54397     54399     54398     54399     54400     54401
     54400     54402     54401     54402     54403     54404     54403     54405
     54404     54405     54406     54407     54406     54408     54407     54408
     54409     54410     54409     54411     54410     54411     54412     54413
     54412     54414     54413     54414     54415     54416     54415     54417
     54416     54417     54418     54419     54418     54420     54419     54420
     54421     54422     54421     54423     54422     54423     54424     54425
     54424     54426     54425     54426     54427     54428     54427     54429
     54428     54429     54430     54431     54430     54432     54431     54432
     54433     54434     54433     54435     54434     54435     54436     54437
     54436     54438     54437     54438     54439     54440     54439     54441
     54440     54441     54442     54443     54442     54444     54443     54444
     54445     54446     54445     54447     54446     54447     54448     54449
     54448     54450     54449     54450     54451     54452     54451     54453
     54452     54453     54454     54455     54454     54456     54455     54456
     54457     54458     54457     54459     54458     54459     54460     54461
     54460     54462     54461     54462     54463     54464     54463     54465
     54464     54465     54466     54467     54466     54468     54467     54468
     54469     54470     54469     54471     54470     54471     54472     54473
     54472     54474     54473     54474     54475     54476     54475     54477
     54476     54477     54478     54479     54478     54480     54479     54480
     54481     54482     54481     54483     54482     54483     54484     54485
     54484     54486     54485     54486     54487     54488     54487     54489
     54488     54489     54490     54491     54490     54492     54491     54492
     54493     54494     54493     54495     54494     54495     54496     54497
     54496     54498     54497     54498     54499     54500     54499     54501
     54500     54501     54502     54503     54502     54504     54503     54504
     54505     54506     54505     54507     54506     54507     54508     54509
     54508     54510     54509     54510     54511     54512     54511     54513
     54512     54513     54514     54515     54514     54516     54515     54516
     54517     54518     54517     54519     54518     54519     54520     54521
     54520     54522     54521     54522     54523     54524     54523     54525
     54524     54525     54526     54527     54526     54528     54527     54528
     54529     54530     54529     54531     54530     54531     54532     54533
     54532     54534     54533     54534     54535     54536     54535     54537
     54536     54537     54538     54539     54538     54540     54539     54540
     54541     54542     54541     54543     54542     54543     54544     54545
     54544     54546     54545     54546     54547     54548     54547     54549
     54548     54549     54550     54551     54550     54552     54551     54552
     54553     54554     54553     54555     54554     54555     54556     54557
     54556     54558     54557     54558     54559     54560     54559     54561
     54560     54561     54562     54563     54562     54564     54563     54564
     54565     54566     54565     54567     54566     54567     54568     54569
     54568     54570     54569     54570     54571     54572     54571     54573
     54572     54573     54574     54575     54574     54576     54575     54576
     54577     54578     54577     54579     54578     54579     54580     54581
     54580     54582     54581     54582     54583     54584     54583     54585
     54584     54585     54586     54587     54586     54588     54587     54588
     54589     54590     54589     54591     54590     54591     54592     54593
     54592     54594     54593     54594     54595     54596     54595     54597
     54596     54597     54598     54599     54598     54600     54599     54600
     54601     54602     54601     54603     54602     54603     54604     54605
     54604     54606     54605     54606     54607     54608     54607     54609
     54608     54609     54610     54611     54610     54612     54611     54612
     54613     54614     54613     54615     54614     54615     54616     54617
     54616     54618     54617     54618     54619     54620     54619     54621
     54620     54621     54622     54623     54622     54624     54623     54624
     54625     54626     54625     54627     54626     54627     54628     54629
     54628     54630     54629     54630     54631     54632     54631     54633
     54632     54633     54634     54635     54634     54636     54635     54636
     54637     54638     54637     54639     54638     54639     54640     54641
     54640     54642     54641     54642     54643     54644     54643     54645
     54644     54645     54646     54647     54646     54648     54647     54648
     54649     54650     54649     54651     54650     54651     54652     54653
     54652     54654     54653     54654     54655     54656     54655     54657
     54656     54657     54658     54659     54658     54660     54659     54660
     54661     54662     54661     54663     54662     54663     54664     54665
     54664     54666     54665     54666     54667     54668     54667     54669
     54668     54669     54670     54671     54670     54672     54671     54672
     54673     54674     54673     54675     54674     54675     54676     54677
     54676     54678     54677     54678     54679     54680     54679     54681
     54680     54681     54682     54683     54682     54684     54683     54684
     54685     54686     54685     54687     54686     54687     54688     54689
     54688     54690     54689     54690     54691     54692     54691     54693
     54692     54693     54694     54695     54694     54696     54695     54696
     54697     54698     54697     54699     54698     54699     54700     54701
     54700     54702     54701     54702     54703     54704     54703     54705
     54704     54705     54706     54707     54706     54708     54707     54708
     54709     54710     54709     54711     54710     54711     54712     54713
     54712     54714     54713     54714     54715     54716     54715     54717
     54716     54717     54718     54719     54718     54720     54719     54720
     54721     54722     54721     54723     54722     54723     54724     54725
     54724     54726     54725     54726     54727     54728     54727     54729
     54728     54729     54730     54731     54730     54732     54731     54732
     54733     54734     54733     54735     54734     54735     54736     54737
     54736     54738     54737     54738     54739     54740     54739     54741
     54740     54741     54742     54743     54742     54744     54743     54744
     54745     54746     54745     54747     54746     54747     54748     54749
     54748     54750     54749     54750     54751     54752     54751     54753
     54752     54753     54754     54755     54754     54756     54755     54756
     54757     54758     54757     54759     54758     54759     54760     54761
     54760     54762     54761     54762     54763     54764     54763     54765
     54764     54765     54766     54767     54766     54768     54767     54768
     54769     54770     54769     54771     54770     54771     54772     54773
     54772     54774     54773     54774     54775     54776     54775     54777
     54776     54777     54778     54779     54778     54780     54779     54780
     54781     54782     54781     54783     54782     54783     54784     54785
     54784     54786     54785     54786     54787     54788     54787     54789
     54788     54789     54790     54791     54790     54792     54791     54792
     54793     54794     54793     54795     54794     54795     54796     54797
     54796     54798     54797     54798     54799     54800     54799     54801
     54800     54801     54802     54803     54802     54804     54803     54804
     54805     54806     54805     54807     54806     54807     54808     54809
     54808     54810     54809     54810     54811     54812     54811     54813
     54812     54813     54814     54815     54814     54816     54815     54816
     54817     54818     54817     54819     54818     54819     54820     54821
     54820     54822     54821     54822     54823     54824     54823     54825
     54824     54825     54826     54827     54826     54828     54827     54828
     54829     54830     54829     54831     54830     54831     54832     54833
     54832     54834     54833     54834     54835     54836     54835     54837
     54836     54837     54838     54839     54838     54840     54839     54840
     54841     54842     54841     54843     54842     54843     54844     54845
     54844     54846     54845     54846     54847     54848     54847     54849
     54848     54849     54850     54851     54850     54852     54851     54852
     54853     54854     54853     54855     54854     54855     54856     54857
     54856     54858     54857     54858     54859     54860     54859     54861
     54860     54861     54862     54863     54862     54864     54863     54864
     54865     54866     54865     54867     54866     54867     54868     54869
     54868     54870     54869     54870     54871     54872     54871     54873
     54872     54873     54874     54875     54874     54876     54875     54876
     54877     54878     54877     54879     54878     54879     54880     54881
     54880     54882     54881     54882     54883     54884     54883     54885
     54884     54885     54886     54887     54886     54888     54887     54888
     54889     54890     54889     54891     54890     54891     54892     54893
     54892     54894     54893     54894     54895     54896     54895     54897
     54896     54897     54898     54899     54898     54900     54899     54900
     54901     54902     54901     54903     54902     54903     54904     54905
     54904     54906     54905     54906     54907     54908     54907     54909
     54908     54909     54910     54911     54910     54912     54911     54912
     54913     54914     54913     54915     54914     54915     54916     54917
     54916     54918     54917     54918     54919     54920     54919     54921
     54920     54921     54922     54923     54922     54924     54923     54924
     54925     54926     54925     54927     54926     54927     54928     54929
     54928     54930     54929     54930     54931     54932     54931     54933
     54932     54933     54934     54935     54934     54936     54935     54936
     54937     54938     54937     54939     54938     54939     54940     54941
     54940     54942     54941     54942     54943     54944     54943     54945
     54944     54945     54946     54947     54946     54948     54947     54948
     54949     54950     54949     54951     54950     54951     54952     54953
     54952     54954     54953     54954     54955     54956     54955     54957
     54956     54957     54958     54959     54958     54960     54959     54960
     54961     54962     54961     54963     54962     54963     54964     54965
     54964     54966     54965     54966     54967     54968     54967     54969
     54968     54969     54970     54971     54970     54972     54971     54972
     54973     54974     54973     54975     54974     54975     54976     54977
     54976     54978     54977     54978     54979     54980     54979     54981
     54980     54981     54982     54983     54982     54984     54983     54984
     54985     54986     54985     54987     54986     54987     54988     54989
     54988     54990     54989     54990     54991     54992     54991     54993
     54992     54993     54994     54995     54994     54996     54995     54996
     54997     54998     54997     54999     54998     54999     55000     55001
     55000     55002     55001     55002     55003     55004     55003     55005
     55004     55005     55006     55007     55006     55008     55007     55008
     55009     55010     55009     55011     55010     55011     55012     55013
     55012     55014     55013     55014     55015     55016     55015     55017
     55016     55017     55018     55019     55018     55020     55019     55020
     55021     55022     55021     55023     55022     55023     55024     55025
     55024     55026     55025     55026     55027     55028     55027     55029
     55028     55029     55030     55031     55030     55032     55031     55032
     55033     55034     55033     55035     55034     55035     55036     55037
     55036     55038     55037     55038     55039     55040     55039     55041
     55040     55041     55042     55043     55042     55044     55043     55044
     55045     55046     55045     55047     55046     55047     55048     55049
     55048     55050     55049     55050     55051     55052     55051     55053
     55052     55053     55054     55055     55054     55056     55055     55056
     55057     55058     55057     55059     55058     55059     55060     55061
     55060     55062     55061     55062     55063     55064     55063     55065
     55064     55065     55066     55067     55066     55068     55067     55068
     55069     55070     55069     55071     55070     55071     55072     55073
     55072     55074     55073     55074     55075     55076     55075     55077
     55076     55077     55078     55079     55078     55080     55079     55080
     55081     55082     55081     55083     55082     55083     55084     55085
     55084     55086     55085     55086     55087     55088     55087     55089
     55088     55089     55090     55091     55090     55092     55091     55092
     55093     55094     55093     55095     55094     55095     55096     55097
     55096     55098     55097     55098     55099     55100     55099     55101
     55100     55101     55102     55103     55102     55104     55103     55104
     55105     55106     55105     55107     55106     55107     55108     55109
     55108     55110     55109     55110     55111     55112     55111     55113
     55112     55113     55114     55115     55114     55116     55115     55116
     55117     55118     55117     55119     55118     55119     55120     55121
     55120     55122     55121     55122     55123     55124     55123     55125
     55124     55125     55126     55127     55126     55128     55127     55128
     55129     55130     55129     55131     55130     55131     55132     55133
     55132     55134     55133     55134     55135     55136     55135     55137
     55136     55137     55138     55139     55138     55140     55139     55140
     55141     55142     55141     55143     55142     55143     55144     55145
     55144     55146     55145     55146     55147     55148     55147     55149
     55148     55149     55150     55151     55150     55152     55151     55152
     55153     55154     55153     55155     55154     55155     55156     55157
     55156     55158     55157     55158     55159     55160     55159     55161
     55160     55161     55162     55163     55162     55164     55163     55164
     55165     55166     55165     55167     55166     55167     55168     55169
     55168     55170     55169     55170     55171     55172     55171     55173
     55172     55173     55174     55175     55174     55176     55175     55176
     55177     55178     55177     55179     55178     55179     55180     55181
     55180     55182     55181     55182     55183     55184     55183     55185
     55184     55185     55186     55187     55186     55188     55187     55188
     55189     55190     55189     55191     55190     55191     55192     55193
     55192     55194     55193     55194     55195     55196     55195     55197
     55196     55197     55198     55199     55198     55200     55199     55200
     55201     55202     55201     55203     55202     55203     55204     55205
     55204     55206     55205     55206     55207     55208     55207     55209
     55208     55209     55210     55211     55210     55212     55211     55212
     55213     55214     55213     55215     55214     55215     55216     55217
     55216     55218     55217     55218     55219     55220     55219     55221
     55220     55221     55222     55223     55222     55224     55223     55224
     55225     55226     55225     55227     55226     55227     55228     55229
     55228     55230     55229     55230     55231     55232     55231     55233
     55232     55233     55234     55235     55234     55236     55235     55236
     55237     55238     55237     55239     55238     55239     55240     55241
     55240     55242     55241     55242     55243     55244     55243     55245
     55244     55245     55246     55247     55246     55248     55247     55248
     55249     55250     55249     55251     55250     55251     55252     55253
     55252     55254     55253     55254     55255     55256     55255     55257
     55256     55257     55258     55259     55258     55260     55259     55260
     55261     55262     55261     55263     55262     55263     55264     55265
     55264     55266     55265     55266     55267     55268     55267     55269
     55268     55269     55270     55271     55270     55272     55271     55272
     55273     55274     55273     55275     55274     55275     55276     55277
     55276     55278     55277     55278     55279     55280     55279     55281
     55280     55281     55282     55283     55282     55284     55283     55284
     55285     55286     55285     55287     55286     55287     55288     55289
     55288     55290     55289     55290     55291     55292     55291     55293
     55292     55293     55294     55295     55294     55296     55295     55296
     55297     55298     55297     55299     55298     55299     55300     55301
     55300     55302     55301     55302     55303     55304     55303     55305
     55304     55305     55306     55307     55306     55308     55307     55308
     55309     55310     55309     55311     55310     55311     55312     55313
     55312     55314     55313     55314     55315     55316     55315     55317
     55316     55317     55318     55319     55318     55320     55319     55320
     55321     55322     55321     55323     55322     55323     55324     55325
     55324     55326     55325     55326     55327     55328     55327     55329
     55328     55329     55330     55331     55330     55332     55331     55332
     55333     55334     55333     55335     55334     55335     55336     55337
     55336     55338     55337     55338     55339     55340     55339     55341
     55340     55341     55342     55343     55342     55344     55343     55344
     55345     55346     55345     55347     55346     55347     55348     55349
     55348     55350     55349     55350     55351     55352     55351     55353
     55352     55353     55354     55355     55354     55356     55355     55356
     55357     55358     55357     55359     55358     55359     55360     55361
     55360     55362     55361     55362     55363     55364     55363     55365
     55364     55365     55366     55367     55366     55368     55367     55368
     55369     55370     55369     55371     55370     55371     55372     55373
     55372     55374     55373     55374     55375     55376     55375     55377
     55376     55377     55378     55379     55378     55380     55379     55380
     55381     55382     55381     55383     55382     55383     55384     55385
     55384     55386     55385     55386     55387     55388     55387     55389
     55388     55389     55390     55391     55390     55392     55391     55392
     55393     55394     55393     55395     55394     55395     55396     55397
     55396     55398     55397     55398     55399     55400     55399     55401
     55400     55401     55402     55403     55402     55404     55403     55404
     55405     55406     55405     55407     55406     55407     55408     55409
     55408     55410     55409     55410     55411     55412     55411     55413
     55412     55413     55414     55415     55414     55416     55415     55416
     55417     55418     55417     55419     55418     55419     55420     55421
     55420     55422     55421     55422     55423     55424     55423     55425
     55424     55425     55426     55427     55426     55428     55427     55428
     55429     55430     55429     55431     55430     55431     55432     55433
     55432     55434     55433     55434     55435     55436     55435     55437
     55436     55437     55438     55439     55438     55440     55439     55440
     55441     55442     55441     55443     55442     55443     55444     55445
     55444     55446     55445     55446     55447     55448     55447     55449
     55448     55449     55450     55451     55450     55452     55451     55452
     55453     55454     55453     55455     55454     55455     55456     55457
     55456     55458     55457     55458     55459     55460     55459     55461
     55460     55461     55462     55463     55462     55464     55463     55464
     55465     55466     55465     55467     55466     55467     55468     55469
     55468     55470     55469     55470     55471     55472     55471     55473
     55472     55473     55474     55475     55474     55476     55475     55476
     55477     55478     55477     55479     55478     55479     55480     55481
     55480     55482     55481     55482     55483     55484     55483     55485
     55484     55485     55486     55487     55486     55488     55487     55488
     55489     55490     55489     55491     55490     55491     55492     55493
     55492     55494     55493     55494     55495     55496     55495     55497
     55496     55497     55498     55499     55498     55500     55499     55500
     55501     55502     55501     55503     55502     55503     55504     55505
     55504     55506     55505     55506     55507     55508     55507     55509
     55508     55509     55510     55511     55510     55512     55511     55512
     55513     55514     55513     55515     55514     55515     55516     55517
     55516     55518     55517     55518     55519     55520     55519     55521
     55520     55521     55522     55523     55522     55524     55523     55524
     55525     55526     55525     55527     55526     55527     55528     55529
     55528     55530     55529     55530     55531     55532     55531     55533
     55532     55533     55534     55535     55534     55536     55535     55536
     55537     55538     55537     55539     55538     55539     55540     55541
     55540     55542     55541     55542     55543     55544     55543     55545
     55544     55545     55546     55547     55546     55548     55547     55548
     55549     55550     55549     55551     55550     55551     55552     55553
     55552     55554     55553     55554     55555     55556     55555     55557
     55556     55557     55558     55559     55558     55560     55559     55560
     55561     55562     55561     55563     55562     55563     55564     55565
     55564     55566     55565     55566     55567     55568     55567     55569
     55568     55569     55570     55571     55570     55572     55571     55572
     55573     55574     55573     55575     55574     55575     55576     55577
     55576     55578     55577     55578     55579     55580     55579     55581
     55580     55581     55582     55583     55582     55584     55583     55584
     55585     55586     55585     55587     55586     55587     55588     55589
     55588     55590     55589     55590     55591     55592     55591     55593
     55592     55593     55594     55595     55594     55596     55595     55596
     55597     55598     55597     55599     55598     55599     55600     55601
     55600     55602     55601     55602     55603     55604     55603     55605
     55604     55605     55606     55607     55606     55608     55607     55608
     55609     55610     55609     55611     55610     55611     55612     55613
     55612     55614     55613     55614     55615     55616     55615     55617
     55616     55617     55618     55619     55618     55620     55619     55620
     55621     55622     55621     55623     55622     55623     55624     55625
     55624     55626     55625     55626     55627     55628     55627     55629
     55628     55629     55630     55631     55630     55632     55631     55632
     55633     55634     55633     55635     55634     55635     55636     55637
     55636     55638     55637     55638     55639     55640     55639     55641
     55640     55641     55642     55643     55642     55644     55643     55644
     55645     55646     55645     55647     55646     55647     55648     55649
     55648     55650     55649     55650     55651     55652     55651     55653
     55652     55653     55654     55655     55654     55656     55655     55656
     55657     55658     55657     55659     55658     55659     55660     55661
     55660     55662     55661     55662     55663     55664     55663     55665
     55664     55665     55666     55667     55666     55668     55667     55668
     55669     55670     55669     55671     55670     55671     55672     55673
     55672     55674     55673     55674     55675     55676     55675     55677
     55676     55677     55678     55679     55678     55680     55679     55680
     55681     55682     55681     55683     55682     55683     55684     55685
     55684     55686     55685     55686     55687     55688     55687     55689
     55688     55689     55690     55691     55690     55692     55691     55692
     55693     55694     55693     55695     55694     55695     55696     55697
     55696     55698     55697     55698     55699     55700     55699     55701
     55700     55701     55702     55703     55702     55704     55703     55704
     55705     55706     55705     55707     55706     55707     55708     55709
     55708     55710     55709     55710     55711     55712     55711     55713
     55712     55713     55714     55715     55714     55716     55715     55716
     55717     55718     55717     55719     55718     55719     55720     55721
     55720     55722     55721     55722     55723     55724     55723     55725
     55724     55725     55726     55727     55726     55728     55727     55728
     55729     55730     55729     55731     55730     55731     55732     55733
     55732     55734     55733     55734     55735     55736     55735     55737
     55736     55737     55738     55739     55738     55740     55739     55740
     55741     55742     55741     55743     55742     55743     55744     55745
     55744     55746     55745     55746     55747     55748     55747     55749
     55748     55749     55750     55751     55750     55752     55751     55752
     55753     55754     55753     55755     55754     55755     55756     55757
     55756     55758     55757     55758     55759     55760     55759     55761
     55760     55761     55762     55763     55762     55764     55763     55764
     55765     55766     55765     55767     55766     55767     55768     55769
     55768     55770     55769     55770     55771     55772     55771     55773
     55772     55773     55774     55775     55774     55776     55775     55776
     55777     55778     55777     55779     55778     55779     55780     55781
     55780     55782     55781     55782     55783     55784     55783     55785
     55784     55785     55786     55787     55786     55788     55787     55788
     55789     55790     55789     55791     55790     55791     55792     55793
     55792     55794     55793     55794     55795     55796     55795     55797
     55796     55797     55798     55799     55798     55800     55799     55800
     55801     55802     55801     55803     55802     55803     55804     55805
     55804     55806     55805     55806     55807     55808     55807     55809
     55808     55809     55810     55811     55810     55812     55811     55812
     55813     55814     55813     55815     55814     55815     55816     55817
     55816     55818     55817     55818     55819     55820     55819     55821
     55820     55821     55822     55823     55822     55824     55823     55824
     55825     55826     55825     55827     55826     55827     55828     55829
     55828     55830     55829     55830     55831     55832     55831     55833
     55832     55833     55834     55835     55834     55836     55835     55836
     55837     55838     55837     55839     55838     55839     55840     55841
     55840     55842     55841     55842     55843     55844     55843     55845
     55844     55845     55846     55847     55846     55848     55847     55848
     55849     55850     55849     55851     55850     55851     55852     55853
     55852     55854     55853     55854     55855     55856     55855     55857
     55856     55857     55858     55859     55858     55860     55859     55860
     55861     55862     55861     55863     55862     55863     55864     55865
     55864     55866     55865     55866     55867     55868     55867     55869
     55868     55869     55870     55871     55870     55872     55871     55872
     55873     55874     55873     55875     55874     55875     55876     55877
     55876     55878     55877     55878     55879     55880     55879     55881
     55880     55881     55882     55883     55882     55884     55883     55884
     55885     55886     55885     55887     55886     55887     55888     55889
     55888     55890     55889     55890     55891     55892     55891     55893
     55892     55893     55894     55895     55894     55896     55895     55896
     55897     55898     55897     55899     55898     55899     55900     55901
     55900     55902     55901     55902     55903     55904     55903     55905
     55904     55905     55906     55907     55906     55908     55907     55908
     55909     55910     55909     55911     55910     55911     55912     55913
     55912     55914     55913     55914     55915     55916     55915     55917
     55916     55917     55918     55919     55918     55920     55919     55920
     55921     55922     55921     55923     55922     55923     55924     55925
     55924     55926     55925     55926     55927     55928     55927     55929
     55928     55929     55930     55931     55930     55932     55931     55932
     55933     55934     55933     55935     55934     55935     55936     55937
     55936     55938     55937     55938     55939     55940     55939     55941
     55940     55941     55942     55943     55942     55944     55943     55944
     55945     55946     55945     55947     55946     55947     55948     55949
     55948     55950     55949     55950     55951     55952     55951     55953
     55952     55953     55954     55955     55954     55956     55955     55956
     55957     55958     55957     55959     55958     55959     55960     55961
     55960     55962     55961     55962     55963     55964     55963     55965
     55964     55965     55966     55967     55966     55968     55967     55968
     55969     55970     55969     55971     55970     55971     55972     55973
     55972     55974     55973     55974     55975     55976     55975     55977
     55976     55977     55978     55979     55978     55980     55979     55980
     55981     55982     55981     55983     55982     55983     55984     55985
     55984     55986     55985     55986     55987     55988     55987     55989
     55988     55989     55990     55991     55990     55992     55991     55992
     55993     55994     55993     55995     55994     55995     55996     55997
     55996     55998     55997     55998     55999     56000     55999     56001
     56000     56001     56002     56003     56002     56004     56003     56004
     56005     56006     56005     56007     56006     56007     56008     56009
     56008     56010     56009     56010     56011     56012     56011     56013
     56012     56013     56014     56015     56014     56016     56015     56016
     56017     56018     56017     56019     56018     56019     56020     56021
     56020     56022     56021     56022     56023     56024     56023     56025
     56024     56025     56026     56027     56026     56028     56027     56028
     56029     56030     56029     56031     56030     56031     56032     56033
     56032     56034     56033     56034     56035     56036     56035     56037
     56036     56037     56038     56039     56038     56040     56039     56040
     56041     56042     56041     56043     56042     56043     56044     56045
     56044     56046     56045     56046     56047     56048     56047     56049
     56048     56049     56050     56051     56050     56052     56051     56052
     56053     56054     56053     56055     56054     56055     56056     56057
     56056     56058     56057     56058     56059     56060     56059     56061
     56060     56061     56062     56063     56062     56064     56063     56064
     56065     56066     56065     56067     56066     56067     56068     56069
     56068     56070     56069     56070     56071     56072     56071     56073
     56072     56073     56074     56075     56074     56076     56075     56076
     56077     56078     56077     56079     56078     56079     56080     56081
     56080     56082     56081     56082     56083     56084     56083     56085
     56084     56085     56086     56087     56086     56088     56087     56088
     56089     56090     56089     56091     56090     56091     56092     56093
     56092     56094     56093     56094     56095     56096     56095     56097
     56096     56097     56098     56099     56098     56100     56099     56100
     56101     56102     56101     56103     56102     56103     56104     56105
     56104     56106     56105     56106     56107     56108     56107     56109
     56108     56109     56110     56111     56110     56112     56111     56112
     56113     56114     56113     56115     56114     56115     56116     56117
     56116     56118     56117     56118     56119     56120     56119     56121
     56120     56121     56122     56123     56122     56124     56123     56124
     56125     56126     56125     56127     56126     56127     56128     56129
     56128     56130     56129     56130     56131     56132     56131     56133
     56132     56133     56134     56135     56134     56136     56135     56136
     56137     56138     56137     56139     56138     56139     56140     56141
     56140     56142     56141     56142     56143     56144     56143     56145
     56144     56145     56146     56147     56146     56148     56147     56148
     56149     56150     56149     56151     56150     56151     56152     56153
     56152     56154     56153     56154     56155     56156     56155     56157
     56156     56157     56158     56159     56158     56160     56159     56160
     56161     56162     56161     56163     56162     56163     56164     56165
     56164     56166     56165     56166     56167     56168     56167     56169
     56168     56169     56170     56171     56170     56172     56171     56172
     56173     56174     56173     56175     56174     56175     56176     56177
     56176     56178     56177     56178     56179     56180     56179     56181
     56180     56181     56182     56183     56182     56184     56183     56184
     56185     56186     56185     56187     56186     56187     56188     56189
     56188     56190     56189     56190     56191     56192     56191     56193
     56192     56193     56194     56195     56194     56196     56195     56196
     56197     56198     56197     56199     56198     56199     56200     56201
     56200     56202     56201     56202     56203     56204     56203     56205
     56204     56205     56206     56207     56206     56208     56207     56208
     56209     56210     56209     56211     56210     56211     56212     56213
     56212     56214     56213     56214     56215     56216     56215     56217
     56216     56217     56218     56219     56218     56220     56219     56220
     56221     56222     56221     56223     56222     56223     56224     56225
     56224     56226     56225     56226     56227     56228     56227     56229
     56228     56229     56230     56231     56230     56232     56231     56232
     56233     56234     56233     56235     56234     56235     56236     56237
     56236     56238     56237     56238     56239     56240     56239     56241
     56240     56241     56242     56243     56242     56244     56243     56244
     56245     56246     56245     56247     56246     56247     56248     56249
     56248     56250     56249     56250     56251     56252     56251     56253
     56252     56253     56254     56255     56254     56256     56255     56256
     56257     56258     56257     56259     56258     56259     56260     56261
     56260     56262     56261     56262     56263     56264     56263     56265
     56264     56265     56266     56267     56266     56268     56267     56268
     56269     56270     56269     56271     56270     56271     56272     56273
     56272     56274     56273     56274     56275     56276     56275     56277
     56276     56277     56278     56279     56278     56280     56279     56280
     56281     56282     56281     56283     56282     56283     56284     56285
     56284     56286     56285     56286     56287     56288     56287     56289
     56288     56289     56290     56291     56290     56292     56291     56292
     56293     56294     56293     56295     56294     56295     56296     56297
     56296     56298     56297     56298     56299     56300     56299     56301
     56300     56301     56302     56303     56302     56304     56303     56304
     56305     56306     56305     56307     56306     56307     56308     56309
     56308     56310     56309     56310     56311     56312     56311     56313
     56312     56313     56314     56315     56314     56316     56315     56316
     56317     56318     56317     56319     56318     56319     56320     56321
     56320     56322     56321     56322     56323     56324     56323     56325
     56324     56325     56326     56327     56326     56328     56327     56328
     56329     56330     56329     56331     56330     56331     56332     56333
     56332     56334     56333     56334     56335     56336     56335     56337
     56336     56337     56338     56339     56338     56340     56339     56340
     56341     56342     56341     56343     56342     56343     56344     56345
     56344     56346     56345     56346     56347     56348     56347     56349
     56348     56349     56350     56351     56350     56352     56351     56352
     56353     56354     56353     56355     56354     56355     56356     56357
     56356     56358     56357     56358     56359     56360     56359     56361
     56360     56361     56362     56363     56362     56364     56363     56364
     56365     56366     56365     56367     56366     56367     56368     56369
     56368     56370     56369     56370     56371     56372     56371     56373
     56372     56373     56374     56375     56374     56376     56375     56376
     56377     56378     56377     56379     56378     56379     56380     56381
     56380     56382     56381     56382     56383     56384     56383     56385
     56384     56385     56386     56387     56386     56388     56387     56388
     56389     56390     56389     56391     56390     56391     56392     56393
     56392     56394     56393     56394     56395     56396     56395     56397
     56396     56397     56398     56399     56398     56400     56399     56400
     56401     56402     56401     56403     56402     56403     56404     56405
     56404     56406     56405     56406     56407     56408     56407     56409
     56408     56409     56410     56411     56410     56412     56411     56412
     56413     56414     56413     56415     56414     56415     56416     56417
     56416     56418     56417     56418     56419     56420     56419     56421
     56420     56421     56422     56423     56422     56424     56423     56424
     56425     56426     56425     56427     56426     56427     56428     56429
     56428     56430     56429     56430     56431     56432     56431     56433
     56432     56433     56434     56435     56434     56436     56435     56436
     56437     56438     56437     56439     56438     56439     56440     56441
     56440     56442     56441     56442     56443     56444     56443     56445
     56444     56445     56446     56447     56446     56448     56447     56448
     56449     56450     56449     56451     56450     56451     56452     56453
     56452     56454     56453     56454     56455     56456     56455     56457
     56456     56457     56458     56459     56458     56460     56459     56460
     56461     56462     56461     56463     56462     56463     56464     56465
     56464     56466     56465     56466     56467     56468     56467     56469
     56468     56469     56470     56471     56470     56472     56471     56472
     56473     56474     56473     56475     56474     56475     56476     56477
     56476     56478     56477     56478     56479     56480     56479     56481
     56480     56481     56482     56483     56482     56484     56483     56484
     56485     56486     56485     56487     56486     56487     56488     56489
     56488     56490     56489     56490     56491     56492     56491     56493
     56492     56493     56494     56495     56494     56496     56495     56496
     56497     56498     56497     56499     56498     56499     56500     56501
     56500     56502     56501     56502     56503     56504     56503     56505
     56504     56505     56506     56507     56506     56508     56507     56508
     56509     56510     56509     56511     56510     56511     56512     56513
     56512     56514     56513     56514     56515     56516     56515     56517
     56516     56517     56518     56519     56518     56520     56519     56520
     56521     56522     56521     56523     56522     56523     56524     56525
     56524     56526     56525     56526     56527     56528     56527     56529
     56528     56529     56530     56531     56530     56532     56531     56532
     56533     56534     56533     56535     56534     56535     56536     56537
     56536     56538     56537     56538     56539     56540     56539     56541
     56540     56541     56542     56543     56542     56544     56543     56544
     56545     56546     56545     56547     56546     56547     56548     56549
     56548     56550     56549     56550     56551     56552     56551     56553
     56552     56553     56554     56555     56554     56556     56555     56556
     56557     56558     56557     56559     56558     56559     56560     56561
     56560     56562     56561     56562     56563     56564     56563     56565
     56564     56565     56566     56567     56566     56568     56567     56568
     56569     56570     56569     56571     56570     56571     56572     56573
     56572     56574     56573     56574     56575     56576     56575     56577
     56576     56577     56578     56579     56578     56580     56579     56580
     56581     56582     56581     56583     56582     56583     56584     56585
     56584     56586     56585     56586     56587     56588     56587     56589
     56588     56589     56590     56591     56590     56592     56591     56592
     56593     56594     56593     56595     56594     56595     56596     56597
     56596     56598     56597     56598     56599     56600     56599     56601
     56600     56601     56602     56603     56602     56604     56603     56604
     56605     56606     56605     56607     56606     56607     56608     56609
     56608     56610     56609     56610     56611     56612     56611     56613
     56612     56613     56614     56615     56614     56616     56615     56616
     56617     56618     56617     56619     56618     56619     56620     56621
     56620     56622     56621     56622     56623     56624     56623     56625
     56624     56625     56626     56627     56626     56628     56627     56628
     56629     56630     56629     56631     56630     56631     56632     56633
     56632     56634     56633     56634     56635     56636     56635     56637
     56636     56637     56638     56639     56638     56640     56639     56640
     56641     56642     56641     56643     56642     56643     56644     56645
     56644     56646     56645     56646     56647     56648     56647     56649
     56648     56649     56650     56651     56650     56652     56651     56652
     56653     56654     56653     56655     56654     56655     56656     56657
     56656     56658     56657     56658     56659     56660     56659     56661
     56660     56661     56662     56663     56662     56664     56663     56664
     56665     56666     56665     56667     56666     56667     56668     56669
     56668     56670     56669     56670     56671     56672     56671     56673
     56672     56673     56674     56675     56674     56676     56675     56676
     56677     56678     56677     56679     56678     56679     56680     56681
     56680     56682     56681     56682     56683     56684     56683     56685
     56684     56685     56686     56687     56686     56688     56687     56688
     56689     56690     56689     56691     56690     56691     56692     56693
     56692     56694     56693     56694     56695     56696     56695     56697
     56696     56697     56698     56699     56698     56700     56699     56700
     56701     56702     56701     56703     56702     56703     56704     56705
     56704     56706     56705     56706     56707     56708     56707     56709
     56708     56709     56710     56711     56710     56712     56711     56712
     56713     56714     56713     56715     56714     56715     56716     56717
     56716     56718     56717     56718     56719     56720     56719     56721
     56720     56721     56722     56723     56722     56724     56723     56724
     56725     56726     56725     56727     56726     56727     56728     56729
     56728     56730     56729     56730     56731     56732     56731     56733
     56732     56733     56734     56735     56734     56736     56735     56736
     56737     56738     56737     56739     56738     56739     56740     56741
     56740     56742     56741     56742     56743     56744     56743     56745
     56744     56745     56746     56747     56746     56748     56747     56748
     56749     56750     56749     56751     56750     56751     56752     56753
     56752     56754     56753     56754     56755     56756     56755     56757
     56756     56757     56758     56759     56758     56760     56759     56760
     56761     56762     56761     56763     56762     56763     56764     56765
     56764     56766     56765     56766     56767     56768     56767     56769
     56768     56769     56770     56771     56770     56772     56771     56772
     56773     56774     56773     56775     56774     56775     56776     56777
     56776     56778     56777     56778     56779     56780     56779     56781
     56780     56781     56782     56783     56782     56784     56783     56784
     56785     56786     56785     56787     56786     56787     56788     56789
     56788     56790     56789     56790     56791     56792     56791     56793
     56792     56793     56794     56795     56794     56796     56795     56796
     56797     56798     56797     56799     56798     56799     56800     56801
     56800     56802     56801     56802     56803     56804     56803     56805
     56804     56805     56806     56807     56806     56808     56807     56808
     56809     56810     56809     56811     56810     56811     56812     56813
     56812     56814     56813     56814     56815     56816     56815     56817
     56816     56817     56818     56819     56818     56820     56819     56820
     56821     56822     56821     56823     56822     56823     56824     56825
     56824     56826     56825     56826     56827     56828     56827     56829
     56828     56829     56830     56831     56830     56832     56831     56832
     56833     56834     56833     56835     56834     56835     56836     56837
     56836     56838     56837     56838     56839     56840     56839     56841
     56840     56841     56842     56843     56842     56844     56843     56844
     56845     56846     56845     56847     56846     56847     56848     56849
     56848     56850     56849     56850     56851     56852     56851     56853
     56852     56853     56854     56855     56854     56856     56855     56856
     56857     56858     56857     56859     56858     56859     56860     56861
     56860     56862     56861     56862     56863     56864     56863     56865
     56864     56865     56866     56867     56866     56868     56867     56868
     56869     56870     56869     56871     56870     56871     56872     56873
     56872     56874     56873     56874     56875     56876     56875     56877
     56876     56877     56878     56879     56878     56880     56879     56880
     56881     56882     56881     56883     56882     56883     56884     56885
     56884     56886     56885     56886     56887     56888     56887     56889
     56888     56889     56890     56891     56890     56892     56891     56892
     56893     56894     56893     56895     56894     56895     56896     56897
     56896     56898     56897     56898     56899     56900     56899     56901
     56900     56901     56902     56903     56902     56904     56903     56904
     56905     56906     56905     56907     56906     56907     56908     56909
     56908     56910     56909     56910     56911     56912     56911     56913
     56912     56913     56914     56915     56914     56916     56915     56916
     56917     56918     56917     56919     56918     56919     56920     56921
     56920     56922     56921     56922     56923     56924     56923     56925
     56924     56925     56926     56927     56926     56928     56927     56928
     56929     56930     56929     56931     56930     56931     56932     56933
     56932     56934     56933     56934     56935     56936     56935     56937
     56936     56937     56938     56939     56938     56940     56939     56940
     56941     56942     56941     56943     56942     56943     56944     56945
     56944     56946     56945     56946     56947     56948     56947     56949
     56948     56949     56950     56951     56950     56952     56951     56952
     56953     56954     56953     56955     56954     56955     56956     56957
     56956     56958     56957     56958     56959     56960     56959     56961
     56960     56961     56962     56963     56962     56964     56963     56964
     56965     56966     56965     56967     56966     56967     56968     56969
     56968     56970     56969     56970     56971     56972     56971     56973
     56972     56973     56974     56975     56974     56976     56975     56976
     56977     56978     56977     56979     56978     56979     56980     56981
     56980     56982     56981     56982     56983     56984     56983     56985
     56984     56985     56986     56987     56986     56988     56987     56988
     56989     56990     56989     56991     56990     56991     56992     56993
     56992     56994     56993     56994     56995     56996     56995     56997
     56996     56997     56998     56999     56998     57000     56999     57000
     57001     57002     57001     57003     57002     57003     57004     57005
     57004     57006     57005     57006     57007     57008     57007     57009
     57008     57009     57010     57011     57010     57012     57011     57012
     57013     57014     57013     57015     57014     57015     57016     57017
     57016     57018     57017     57018     57019     57020     57019     57021
     57020     57021     57022     57023     57022     57024     57023     57024
     57025     57026     57025     57027     57026     57027     57028     57029
     57028     57030     57029     57030     57031     57032     57031     57033
     57032     57033     57034     57035     57034     57036     57035     57036
     57037     57038     57037     57039     57038     57039     57040     57041
     57040     57042     57041     57042     57043     57044     57043     57045
     57044     57045     57046     57047     57046     57048     57047     57048
     57049     57050     57049     57051     57050     57051     57052     57053
     57052     57054     57053     57054     57055     57056     57055     57057
     57056     57057     57058     57059     57058     57060     57059     57060
     57061     57062     57061     57063     57062     57063     57064     57065
     57064     57066     57065     57066     57067     57068     57067     57069
     57068     57069     57070     57071     57070     57072     57071     57072
     57073     57074     57073     57075     57074     57075     57076     57077
     57076     57078     57077     57078     57079     57080     57079     57081
     57080     57081     57082     57083     57082     57084     57083     57084
     57085     57086     57085     57087     57086     57087     57088     57089
     57088     57090     57089     57090     57091     57092     57091     57093
     57092     57093     57094     57095     57094     57096     57095     57096
     57097     57098     57097     57099     57098     57099     57100     57101
     57100     57102     57101     57102     57103     57104     57103     57105
     57104     57105     57106     57107     57106     57108     57107     57108
     57109     57110     57109     57111     57110     57111     57112     57113
     57112     57114     57113     57114     57115     57116     57115     57117
     57116     57117     57118     57119     57118     57120     57119     57120
     57121     57122     57121     57123     57122     57123     57124     57125
     57124     57126     57125     57126     57127     57128     57127     57129
     57128     57129     57130     57131     57130     57132     57131     57132
     57133     57134     57133     57135     57134     57135     57136     57137
     57136     57138     57137     57138     57139     57140     57139     57141
     57140     57141     57142     57143     57142     57144     57143     57144
     57145     57146     57145     57147     57146     57147     57148     57149
     57148     57150     57149     57150     57151     57152     57151     57153
     57152     57153     57154     57155     57154     57156     57155     57156
     57157     57158     57157     57159     57158     57159     57160     57161
     57160     57162     57161     57162     57163     57164     57163     57165
     57164     57165     57166     57167     57166     57168     57167     57168
     57169     57170     57169     57171     57170     57171     57172     57173
     57172     57174     57173     57174     57175     57176     57175     57177
     57176     57177     57178     57179     57178     57180     57179     57180
     57181     57182     57181     57183     57182     57183     57184     57185
     57184     57186     57185     57186     57187     57188     57187     57189
     57188     57189     57190     57191     57190     57192     57191     57192
     57193     57194     57193     57195     57194     57195     57196     57197
     57196     57198     57197     57198     57199     57200     57199     57201
     57200     57201     57202     57203     57202     57204     57203     57204
     57205     57206     57205     57207     57206     57207     57208     57209
     57208     57210     57209     57210     57211     57212     57211     57213
     57212     57213     57214     57215     57214     57216     57215     57216
     57217     57218     57217     57219     57218     57219     57220     57221
     57220     57222     57221     57222     57223     57224     57223     57225
     57224     57225     57226     57227     57226     57228     57227     57228
     57229     57230     57229     57231     57230     57231     57232     57233
     57232     57234     57233     57234     57235     57236     57235     57237
     57236     57237     57238     57239     57238     57240     57239     57240
     57241     57242     57241     57243     57242     57243     57244     57245
     57244     57246     57245     57246     57247     57248     57247     57249
     57248     57249     57250     57251     57250     57252     57251     57252
     57253     57254     57253     57255     57254     57255     57256     57257
     57256     57258     57257     57258     57259     57260     57259     57261
     57260     57261     57262     57263     57262     57264     57263     57264
     57265     57266     57265     57267     57266     57267     57268     57269
     57268     57270     57269     57270     57271     57272     57271     57273
     57272     57273     57274     57275     57274     57276     57275     57276
     57277     57278     57277     57279     57278     57279     57280     57281
     57280     57282     57281     57282     57283     57284     57283     57285
     57284     57285     57286     57287     57286     57288     57287     57288
     57289     57290     57289     57291     57290     57291     57292     57293
     57292     57294     57293     57294     57295     57296     57295     57297
     57296     57297     57298     57299     57298     57300     57299     57300
     57301     57302     57301     57303     57302     57303     57304     57305
     57304     57306     57305     57306     57307     57308     57307     57309
     57308     57309     57310     57311     57310     57312     57311     57312
     57313     57314     57313     57315     57314     57315     57316     57317
     57316     57318     57317     57318     57319     57320     57319     57321
     57320     57321     57322     57323     57322     57324     57323     57324
     57325     57326     57325     57327     57326     57327     57328     57329
     57328     57330     57329     57330     57331     57332     57331     57333
     57332     57333     57334     57335     57334     57336     57335     57336
     57337     57338     57337     57339     57338     57339     57340     57341
     57340     57342     57341     57342     57343     57344     57343     57345
     57344     57345     57346     57347     57346     57348     57347     57348
     57349     57350     57349     57351     57350     57351     57352     57353
     57352     57354     57353     57354     57355     57356     57355     57357
     57356     57357     57358     57359     57358     57360     57359     57360
     57361     57362     57361     57363     57362     57363     57364     57365
     57364     57366     57365     57366     57367     57368     57367     57369
     57368     57369     57370     57371     57370     57372     57371     57372
     57373     57374     57373     57375     57374     57375     57376     57377
     57376     57378     57377     57378     57379     57380     57379     57381
     57380     57381     57382     57383     57382     57384     57383     57384
     57385     57386     57385     57387     57386     57387     57388     57389
     57388     57390     57389     57390     57391     57392     57391     57393
     57392     57393     57394     57395     57394     57396     57395     57396
     57397     57398     57397     57399     57398     57399     57400     57401
     57400     57402     57401     57402     57403     57404     57403     57405
     57404     57405     57406     57407     57406     57408     57407     57408
     57409     57410     57409     57411     57410     57411     57412     57413
     57412     57414     57413     57414     57415     57416     57415     57417
     57416     57417     57418     57419     57418     57420     57419     57420
     57421     57422     57421     57423     57422     57423     57424     57425
     57424     57426     57425     57426     57427     57428     57427     57429
     57428     57429     57430     57431     57430     57432     57431     57432
     57433     57434     57433     57435     57434     57435     57436     57437
     57436     57438     57437     57438     57439     57440     57439     57441
     57440     57441     57442     57443     57442     57444     57443     57444
     57445     57446     57445     57447     57446     57447     57448     57449
     57448     57450     57449     57450     57451     57452     57451     57453
     57452     57453     57454     57455     57454     57456     57455     57456
     57457     57458     57457     57459     57458     57459     57460     57461
     57460     57462     57461     57462     57463     57464     57463     57465
     57464     57465     57466     57467     57466     57468     57467     57468
     57469     57470     57469     57471     57470     57471     57472     57473
     57472     57474     57473     57474     57475     57476     57475     57477
     57476     57477     57478     57479     57478     57480     57479     57480
     57481     57482     57481     57483     57482     57483     57484     57485
     57484     57486     57485     57486     57487     57488     57487     57489
     57488     57489     57490     57491     57490     57492     57491     57492
     57493     57494     57493     57495     57494     57495     57496     57497
     57496     57498     57497     57498     57499     57500     57499     57501
     57500     57501     57502     57503     57502     57504     57503     57504
     57505     57506     57505     57507     57506     57507     57508     57509
     57508     57510     57509     57510     57511     57512     57511     57513
     57512     57513     57514     57515     57514     57516     57515     57516
     57517     57518     57517     57519     57518     57519     57520     57521
     57520     57522     57521     57522     57523     57524     57523     57525
     57524     57525     57526     57527     57526     57528     57527     57528
     57529     57530     57529     57531     57530     57531     57532     57533
     57532     57534     57533     57534     57535     57536     57535     57537
     57536     57537     57538     57539     57538     57540     57539     57540
     57541     57542     57541     57543     57542     57543     57544     57545
     57544     57546     57545     57546     57547     57548     57547     57549
     57548     57549     57550     57551     57550     57552     57551     57552
     57553     57554     57553     57555     57554     57555     57556     57557
     57556     57558     57557     57558     57559     57560     57559     57561
     57560     57561     57562     57563     57562     57564     57563     57564
     57565     57566     57565     57567     57566     57567     57568     57569
     57568     57570     57569     57570     57571     57572     57571     57573
     57572     57573     57574     57575     57574     57576     57575     57576
     57577     57578     57577     57579     57578     57579     57580     57581
     57580     57582     57581     57582     57583     57584     57583     57585
     57584     57585     57586     57587     57586     57588     57587     57588
     57589     57590     57589     57591     57590     57591     57592     57593
     57592     57594     57593     57594     57595     57596     57595     57597
     57596     57597     57598     57599     57598     57600     57599     57600
     57601     57602     57601     57603     57602     57603     57604     57605
     57604     57606     57605     57606     57607     57608     57607     57609
     57608     57609     57610     57611     57610     57612     57611     57612
     57613     57614     57613     57615     57614     57615     57616     57617
     57616     57618     57617     57618     57619     57620     57619     57621
     57620     57621     57622     57623     57622     57624     57623     57624
     57625     57626     57625     57627     57626     57627     57628     57629
     57628     57630     57629     57630     57631     57632     57631     57633
     57632     57633     57634     57635     57634     57636     57635     57636
     57637     57638     57637     57639     57638     57639     57640     57641
     57640     57642     57641     57642     57643     57644     57643     57645
     57644     57645     57646     57647     57646     57648     57647     57648
     57649     57650     57649     57651     57650     57651     57652     57653
     57652     57654     57653     57654     57655     57656     57655     57657
     57656     57657     57658     57659     57658     57660     57659     57660
     57661     57662     57661     57663     57662     57663     57664     57665
     57664     57666     57665     57666     57667     57668     57667     57669
     57668     57669     57670     57671     57670     57672     57671     57672
     57673     57674     57673     57675     57674     57675     57676     57677
     57676     57678     57677     57678     57679     57680     57679     57681
     57680     57681     57682     57683     57682     57684     57683     57684
     57685     57686     57685     57687     57686     57687     57688     57689
     57688     57690     57689     57690     57691     57692     57691     57693
     57692     57693     57694     57695     57694     57696     57695     57696
     57697     57698     57697     57699     57698     57699     57700     57701
     57700     57702     57701     57702     57703     57704     57703     57705
     57704     57705     57706     57707     57706     57708     57707     57708
     57709     57710     57709     57711     57710     57711     57712     57713
     57712     57714     57713     57714     57715     57716     57715     57717
     57716     57717     57718     57719     57718     57720     57719     57720
     57721     57722     57721     57723     57722     57723     57724     57725
     57724     57726     57725     57726     57727     57728     57727     57729
     57728     57729     57730     57731     57730     57732     57731     57732
     57733     57734     57733     57735     57734     57735     57736     57737
     57736     57738     57737     57738     57739     57740     57739     57741
     57740     57741     57742     57743     57742     57744     57743     57744
     57745     57746     57745     57747     57746     57747     57748     57749
     57748     57750     57749     57750     57751     57752     57751     57753
     57752     57753     57754     57755     57754     57756     57755     57756
     57757     57758     57757     57759     57758     57759     57760     57761
     57760     57762     57761     57762     57763     57764     57763     57765
     57764     57765     57766     57767     57766     57768     57767     57768
     57769     57770     57769     57771     57770     57771     57772     57773
     57772     57774     57773     57774     57775     57776     57775     57777
     57776     57777     57778     57779     57778     57780     57779     57780
     57781     57782     57781     57783     57782     57783     57784     57785
     57784     57786     57785     57786     57787     57788     57787     57789
     57788     57789     57790     57791     57790     57792     57791     57792
     57793     57794     57793     57795     57794     57795     57796     57797
     57796     57798     57797     57798     57799     57800     57799     57801
     57800     57801     57802     57803     57802     57804     57803     57804
     57805     57806     57805     57807     57806     57807     57808     57809
     57808     57810     57809     57810     57811     57812     57811     57813
     57812     57813     57814     57815     57814     57816     57815     57816
     57817     57818     57817     57819     57818     57819     57820     57821
     57820     57822     57821     57822     57823     57824     57823     57825
     57824     57825     57826     57827     57826     57828     57827     57828
     57829     57830     57829     57831     57830     57831     57832     57833
     57832     57834     57833     57834     57835     57836     57835     57837
     57836     57837     57838     57839     57838     57840     57839     57840
     57841     57842     57841     57843     57842     57843     57844     57845
     57844     57846     57845     57846     57847     57848     57847     57849
     57848     57849     57850     57851     57850     57852     57851     57852
     57853     57854     57853     57855     57854     57855     57856     57857
     57856     57858     57857     57858     57859     57860     57859     57861
     57860     57861     57862     57863     57862     57864     57863     57864
     57865     57866     57865     57867     57866     57867     57868     57869
     57868     57870     57869     57870     57871     57872     57871     57873
     57872     57873     57874     57875     57874     57876     57875     57876
     57877     57878     57877     57879     57878     57879     57880     57881
     57880     57882     57881     57882     57883     57884     57883     57885
     57884     57885     57886     57887     57886     57888     57887     57888
     57889     57890     57889     57891     57890     57891     57892     57893
     57892     57894     57893     57894     57895     57896     57895     57897
     57896     57897     57898     57899     57898     57900     57899     57900
     57901     57902     57901     57903     57902     57903     57904     57905
     57904     57906     57905     57906     57907     57908     57907     57909
     57908     57909     57910     57911     57910     57912     57911     57912
     57913     57914     57913     57915     57914     57915     57916     57917
     57916     57918     57917     57918     57919     57920     57919     57921
     57920     57921     57922     57923     57922     57924     57923     57924
     57925     57926     57925     57927     57926     57927     57928     57929
     57928     57930     57929     57930     57931     57932     57931     57933
     57932     57933     57934     57935     57934     57936     57935     57936
     57937     57938     57937     57939     57938     57939     57940     57941
     57940     57942     57941     57942     57943     57944     57943     57945
     57944     57945     57946     57947     57946     57948     57947     57948
     57949     57950     57949     57951     57950     57951     57952     57953
     57952     57954     57953     57954     57955     57956     57955     57957
     57956     57957     57958     57959     57958     57960     57959     57960
     57961     57962     57961     57963     57962     57963     57964     57965
     57964     57966     57965     57966     57967     57968     57967     57969
     57968     57969     57970     57971     57970     57972     57971     57972
     57973     57974     57973     57975     57974     57975     57976     57977
     57976     57978     57977     57978     57979     57980     57979     57981
     57980     57981     57982     57983     57982     57984     57983     57984
     57985     57986     57985     57987     57986     57987     57988     57989
     57988     57990     57989     57990     57991     57992     57991     57993
     57992     57993     57994     57995     57994     57996     57995     57996
     57997     57998     57997     57999     57998     57999     58000     58001
     58000     58002     58001     58002     58003     58004     58003     58005
     58004     58005     58006     58007     58006     58008     58007     58008
     58009     58010     58009     58011     58010     58011     58012     58013
     58012     58014     58013     58014     58015     58016     58015     58017
     58016     58017     58018     58019     58018     58020     58019     58020
     58021     58022     58021     58023     58022     58023     58024     58025
     58024     58026     58025     58026     58027     58028     58027     58029
     58028     58029     58030     58031     58030     58032     58031     58032
     58033     58034     58033     58035     58034     58035     58036     58037
     58036     58038     58037     58038     58039     58040     58039     58041
     58040     58041     58042     58043     58042     58044     58043     58044
     58045     58046     58045     58047     58046     58047     58048     58049
     58048     58050     58049     58050     58051     58052     58051     58053
     58052     58053     58054     58055     58054     58056     58055     58056
     58057     58058     58057     58059     58058     58059     58060     58061
     58060     58062     58061     58062     58063     58064     58063     58065
     58064     58065     58066     58067     58066     58068     58067     58068
     58069     58070     58069     58071     58070     58071     58072     58073
     58072     58074     58073     58074     58075     58076     58075     58077
     58076     58077     58078     58079     58078     58080     58079     58080
     58081     58082     58081     58083     58082     58083     58084     58085
     58084     58086     58085     58086     58087     58088     58087     58089
     58088     58089     58090     58091     58090     58092     58091     58092
     58093     58094     58093     58095     58094     58095     58096     58097
     58096     58098     58097     58098     58099     58100     58099     58101
     58100     58101     58102     58103     58102     58104     58103     58104
     58105     58106     58105     58107     58106     58107     58108     58109
     58108     58110     58109     58110     58111     58112     58111     58113
     58112     58113     58114     58115     58114     58116     58115     58116
     58117     58118     58117     58119     58118     58119     58120     58121
     58120     58122     58121     58122     58123     58124     58123     58125
     58124     58125     58126     58127     58126     58128     58127     58128
     58129     58130     58129     58131     58130     58131     58132     58133
     58132     58134     58133     58134     58135     58136     58135     58137
     58136     58137     58138     58139     58138     58140     58139     58140
     58141     58142     58141     58143     58142     58143     58144     58145
     58144     58146     58145     58146     58147     58148     58147     58149
     58148     58149     58150     58151     58150     58152     58151     58152
     58153     58154     58153     58155     58154     58155     58156     58157
     58156     58158     58157     58158     58159     58160     58159     58161
     58160     58161     58162     58163     58162     58164     58163     58164
     58165     58166     58165     58167     58166     58167     58168     58169
     58168     58170     58169     58170     58171     58172     58171     58173
     58172     58173     58174     58175     58174     58176     58175     58176
     58177     58178     58177     58179     58178     58179     58180     58181
     58180     58182     58181     58182     58183     58184     58183     58185
     58184     58185     58186     58187     58186     58188     58187     58188
     58189     58190     58189     58191     58190     58191     58192     58193
     58192     58194     58193     58194     58195     58196     58195     58197
     58196     58197     58198     58199     58198     58200     58199     58200
     58201     58202     58201     58203     58202     58203     58204     58205
     58204     58206     58205     58206     58207     58208     58207     58209
     58208     58209     58210     58211     58210     58212     58211     58212
     58213     58214     58213     58215     58214     58215     58216     58217
     58216     58218     58217     58218     58219     58220     58219     58221
     58220     58221     58222     58223     58222     58224     58223     58224
     58225     58226     58225     58227     58226     58227     58228     58229
     58228     58230     58229     58230     58231     58232     58231     58233
     58232     58233     58234     58235     58234     58236     58235     58236
     58237     58238     58237     58239     58238     58239     58240     58241
     58240     58242     58241     58242     58243     58244     58243     58245
     58244     58245     58246     58247     58246     58248     58247     58248
     58249     58250     58249     58251     58250     58251     58252     58253
     58252     58254     58253     58254     58255     58256     58255     58257
     58256     58257     58258     58259     58258     58260     58259     58260
     58261     58262     58261     58263     58262     58263     58264     58265
     58264     58266     58265     58266     58267     58268     58267     58269
     58268     58269     58270     58271     58270     58272     58271     58272
     58273     58274     58273     58275     58274     58275     58276     58277
     58276     58278     58277     58278     58279     58280     58279     58281
     58280     58281     58282     58283     58282     58284     58283     58284
     58285     58286     58285     58287     58286     58287     58288     58289
     58288     58290     58289     58290     58291     58292     58291     58293
     58292     58293     58294     58295     58294     58296     58295     58296
     58297     58298     58297     58299     58298     58299     58300     58301
     58300     58302     58301     58302     58303     58304     58303     58305
     58304     58305     58306     58307     58306     58308     58307     58308
     58309     58310     58309     58311     58310     58311     58312     58313
     58312     58314     58313     58314     58315     58316     58315     58317
     58316     58317     58318     58319     58318     58320     58319     58320
     58321     58322     58321     58323     58322     58323     58324     58325
     58324     58326     58325     58326     58327     58328     58327     58329
     58328     58329     58330     58331     58330     58332     58331     58332
     58333     58334     58333     58335     58334     58335     58336     58337
     58336     58338     58337     58338     58339     58340     58339     58341
     58340     58341     58342     58343     58342     58344     58343     58344
     58345     58346     58345     58347     58346     58347     58348     58349
     58348     58350     58349     58350     58351     58352     58351     58353
     58352     58353     58354     58355     58354     58356     58355     58356
     58357     58358     58357     58359     58358     58359     58360     58361
     58360     58362     58361     58362     58363     58364     58363     58365
     58364     58365     58366     58367     58366     58368     58367     58368
     58369     58370     58369     58371     58370     58371     58372     58373
     58372     58374     58373     58374     58375     58376     58375     58377
     58376     58377     58378     58379     58378     58380     58379     58380
     58381     58382     58381     58383     58382     58383     58384     58385
     58384     58386     58385     58386     58387     58388     58387     58389
     58388     58389     58390     58391     58390     58392     58391     58392
     58393     58394     58393     58395     58394     58395     58396     58397
     58396     58398     58397     58398     58399     58400     58399     58401
     58400     58401     58402     58403     58402     58404     58403     58404
     58405     58406     58405     58407     58406     58407     58408     58409
     58408     58410     58409     58410     58411     58412     58411     58413
     58412     58413     58414     58415     58414     58416     58415     58416
     58417     58418     58417     58419     58418     58419     58420     58421
     58420     58422     58421     58422     58423     58424     58423     58425
     58424     58425     58426     58427     58426     58428     58427     58428
     58429     58430     58429     58431     58430     58431     58432     58433
     58432     58434     58433     58434     58435     58436     58435     58437
     58436     58437     58438     58439     58438     58440     58439     58440
     58441     58442     58441     58443     58442     58443     58444     58445
     58444     58446     58445     58446     58447     58448     58447     58449
     58448     58449     58450     58451     58450     58452     58451     58452
     58453     58454     58453     58455     58454     58455     58456     58457
     58456     58458     58457     58458     58459     58460     58459     58461
     58460     58461     58462     58463     58462     58464     58463     58464
     58465     58466     58465     58467     58466     58467     58468     58469
     58468     58470     58469     58470     58471     58472     58471     58473
     58472     58473     58474     58475     58474     58476     58475     58476
     58477     58478     58477     58479     58478     58479     58480     58481
     58480     58482     58481     58482     58483     58484     58483     58485
     58484     58485     58486     58487     58486     58488     58487     58488
     58489     58490     58489     58491     58490     58491     58492     58493
     58492     58494     58493     58494     58495     58496     58495     58497
     58496     58497     58498     58499     58498     58500     58499     58500
     58501     58502     58501     58503     58502     58503     58504     58505
     58504     58506     58505     58506     58507     58508     58507     58509
     58508     58509     58510     58511     58510     58512     58511     58512
     58513     58514     58513     58515     58514     58515     58516     58517
     58516     58518     58517     58518     58519     58520     58519     58521
     58520     58521     58522     58523     58522     58524     58523     58524
     58525     58526     58525     58527     58526     58527     58528     58529
     58528     58530     58529     58530     58531     58532     58531     58533
     58532     58533     58534     58535     58534     58536     58535     58536
     58537     58538     58537     58539     58538     58539     58540     58541
     58540     58542     58541     58542     58543     58544     58543     58545
     58544     58545     58546     58547     58546     58548     58547     58548
     58549     58550     58549     58551     58550     58551     58552     58553
     58552     58554     58553     58554     58555     58556     58555     58557
     58556     58557     58558     58559     58558     58560     58559     58560
     58561     58562     58561     58563     58562     58563     58564     58565
     58564     58566     58565     58566     58567     58568     58567     58569
     58568     58569     58570     58571     58570     58572     58571     58572
     58573     58574     58573     58575     58574     58575     58576     58577
     58576     58578     58577     58578     58579     58580     58579     58581
     58580     58581     58582     58583     58582     58584     58583     58584
     58585     58586     58585     58587     58586     58587     58588     58589
     58588     58590     58589     58590     58591     58592     58591     58593
     58592     58593     58594     58595     58594     58596     58595     58596
     58597     58598     58597     58599     58598     58599     58600     58601
     58600     58602     58601     58602     58603     58604     58603     58605
     58604     58605     58606     58607     58606     58608     58607     58608
     58609     58610     58609     58611     58610     58611     58612     58613
     58612     58614     58613     58614     58615     58616     58615     58617
     58616     58617     58618     58619     58618     58620     58619     58620
     58621     58622     58621     58623     58622     58623     58624     58625
     58624     58626     58625     58626     58627     58628     58627     58629
     58628     58629     58630     58631     58630     58632     58631     58632
     58633     58634     58633     58635     58634     58635     58636     58637
     58636     58638     58637     58638     58639     58640     58639     58641
     58640     58641     58642     58643     58642     58644     58643     58644
     58645     58646     58645     58647     58646     58647     58648     58649
     58648     58650     58649     58650     58651     58652     58651     58653
     58652     58653     58654     58655     58654     58656     58655     58656
     58657     58658     58657     58659     58658     58659     58660     58661
     58660     58662     58661     58662     58663     58664     58663     58665
     58664     58665     58666     58667     58666     58668     58667     58668
     58669     58670     58669     58671     58670     58671     58672     58673
     58672     58674     58673     58674     58675     58676     58675     58677
     58676     58677     58678     58679     58678     58680     58679     58680
     58681     58682     58681     58683     58682     58683     58684     58685
     58684     58686     58685     58686     58687     58688     58687     58689
     58688     58689     58690     58691     58690     58692     58691     58692
     58693     58694     58693     58695     58694     58695     58696     58697
     58696     58698     58697     58698     58699     58700     58699     58701
     58700     58701     58702     58703     58702     58704     58703     58704
     58705     58706     58705     58707     58706     58707     58708     58709
     58708     58710     58709     58710     58711     58712     58711     58713
     58712     58713     58714     58715     58714     58716     58715     58716
     58717     58718     58717     58719     58718     58719     58720     58721
     58720     58722     58721     58722     58723     58724     58723     58725
     58724     58725     58726     58727     58726     58728     58727     58728
     58729     58730     58729     58731     58730     58731     58732     58733
     58732     58734     58733     58734     58735     58736     58735     58737
     58736     58737     58738     58739     58738     58740     58739     58740
     58741     58742     58741     58743     58742     58743     58744     58745
     58744     58746     58745     58746     58747     58748     58747     58749
     58748     58749     58750     58751     58750     58752     58751     58752
     58753     58754     58753     58755     58754     58755     58756     58757
     58756     58758     58757     58758     58759     58760     58759     58761
     58760     58761     58762     58763     58762     58764     58763     58764
     58765     58766     58765     58767     58766     58767     58768     58769
     58768     58770     58769     58770     58771     58772     58771     58773
     58772     58773     58774     58775     58774     58776     58775     58776
     58777     58778     58777     58779     58778     58779     58780     58781
     58780     58782     58781     58782     58783     58784     58783     58785
     58784     58785     58786     58787     58786     58788     58787     58788
     58789     58790     58789     58791     58790     58791     58792     58793
     58792     58794     58793     58794     58795     58796     58795     58797
     58796     58797     58798     58799     58798     58800     58799     58800
     58801     58802     58801     58803     58802     58803     58804     58805
     58804     58806     58805     58806     58807     58808     58807     58809
     58808     58809     58810     58811     58810     58812     58811     58812
     58813     58814     58813     58815     58814     58815     58816     58817
     58816     58818     58817     58818     58819     58820     58819     58821
     58820     58821     58822     58823     58822     58824     58823     58824
     58825     58826     58825     58827     58826     58827     58828     58829
     58828     58830     58829     58830     58831     58832     58831     58833
     58832     58833     58834     58835     58834     58836     58835     58836
     58837     58838     58837     58839     58838     58839     58840     58841
     58840     58842     58841     58842     58843     58844     58843     58845
     58844     58845     58846     58847     58846     58848     58847     58848
     58849     58850     58849     58851     58850     58851     58852     58853
     58852     58854     58853     58854     58855     58856     58855     58857
     58856     58857     58858     58859     58858     58860     58859     58860
     58861     58862     58861     58863     58862     58863     58864     58865
     58864     58866     58865     58866     58867     58868     58867     58869
     58868     58869     58870     58871     58870     58872     58871     58872
     58873     58874     58873     58875     58874     58875     58876     58877
     58876     58878     58877     58878     58879     58880     58879     58881
     58880     58881     58882     58883     58882     58884     58883     58884
     58885     58886     58885     58887     58886     58887     58888     58889
     58888     58890     58889     58890     58891     58892     58891     58893
     58892     58893     58894     58895     58894     58896     58895     58896
     58897     58898     58897     58899     58898     58899     58900     58901
     58900     58902     58901     58902     58903     58904     58903     58905
     58904     58905     58906     58907     58906     58908     58907     58908
     58909     58910     58909     58911     58910     58911     58912     58913
     58912     58914     58913     58914     58915     58916     58915     58917
     58916     58917     58918     58919     58918     58920     58919     58920
     58921     58922     58921     58923     58922     58923     58924     58925
     58924     58926     58925     58926     58927     58928     58927     58929
     58928     58929     58930     58931     58930     58932     58931     58932
     58933     58934     58933     58935     58934     58935     58936     58937
     58936     58938     58937     58938     58939     58940     58939     58941
     58940     58941     58942     58943     58942     58944     58943     58944
     58945     58946     58945     58947     58946     58947     58948     58949
     58948     58950     58949     58950     58951     58952     58951     58953
     58952     58953     58954     58955     58954     58956     58955     58956
     58957     58958     58957     58959     58958     58959     58960     58961
     58960     58962     58961     58962     58963     58964     58963     58965
     58964     58965     58966     58967     58966     58968     58967     58968
     58969     58970     58969     58971     58970     58971     58972     58973
     58972     58974     58973     58974     58975     58976     58975     58977
     58976     58977     58978     58979     58978     58980     58979     58980
     58981     58982     58981     58983     58982     58983     58984     58985
     58984     58986     58985     58986     58987     58988     58987     58989
     58988     58989     58990     58991     58990     58992     58991     58992
     58993     58994     58993     58995     58994     58995     58996     58997
     58996     58998     58997     58998     58999     59000     58999     59001
     59000     59001     59002     59003     59002     59004     59003     59004
     59005     59006     59005     59007     59006     59007     59008     59009
     59008     59010     59009     59010     59011     59012     59011     59013
     59012     59013     59014     59015     59014     59016     59015     59016
     59017     59018     59017     59019     59018     59019     59020     59021
     59020     59022     59021     59022     59023     59024     59023     59025
     59024     59025     59026     59027     59026     59028     59027     59028
     59029     59030     59029     59031     59030     59031     59032     59033
     59032     59034     59033     59034     59035     59036     59035     59037
     59036     59037     59038     59039     59038     59040     59039     59040
     59041     59042     59041     59043     59042     59043     59044     59045
     59044     59046     59045     59046     59047     59048     59047     59049
     59048     59049     59050     59051     59050     59052     59051     59052
     59053     59054     59053     59055     59054     59055     59056     59057
     59056     59058     59057     59058     59059     59060     59059     59061
     59060     59061     59062     59063     59062     59064     59063     59064
     59065     59066     59065     59067     59066     59067     59068     59069
     59068     59070     59069     59070     59071     59072     59071     59073
     59072     59073     59074     59075     59074     59076     59075     59076
     59077     59078     59077     59079     59078     59079     59080     59081
     59080     59082     59081     59082     59083     59084     59083     59085
     59084     59085     59086     59087     59086     59088     59087     59088
     59089     59090     59089     59091     59090     59091     59092     59093
     59092     59094     59093     59094     59095     59096     59095     59097
     59096     59097     59098     59099     59098     59100     59099     59100
     59101     59102     59101     59103     59102     59103     59104     59105
     59104     59106     59105     59106     59107     59108     59107     59109
     59108     59109     59110     59111     59110     59112     59111     59112
     59113     59114     59113     59115     59114     59115     59116     59117
     59116     59118     59117     59118     59119     59120     59119     59121
     59120     59121     59122     59123     59122     59124     59123     59124
     59125     59126     59125     59127     59126     59127     59128     59129
     59128     59130     59129     59130     59131     59132     59131     59133
     59132     59133     59134     59135     59134     59136     59135     59136
     59137     59138     59137     59139     59138     59139     59140     59141
     59140     59142     59141     59142     59143     59144     59143     59145
     59144     59145     59146     59147     59146     59148     59147     59148
     59149     59150     59149     59151     59150     59151     59152     59153
     59152     59154     59153     59154     59155     59156     59155     59157
     59156     59157     59158     59159     59158     59160     59159     59160
     59161     59162     59161     59163     59162     59163     59164     59165
     59164     59166     59165     59166     59167     59168     59167     59169
     59168     59169     59170     59171     59170     59172     59171     59172
     59173     59174     59173     59175     59174     59175     59176     59177
     59176     59178     59177     59178     59179     59180     59179     59181
     59180     59181     59182     59183     59182     59184     59183     59184
     59185     59186     59185     59187     59186     59187     59188     59189
     59188     59190     59189     59190     59191     59192     59191     59193
     59192     59193     59194     59195     59194     59196     59195     59196
     59197     59198     59197     59199     59198     59199     59200     59201
     59200     59202     59201     59202     59203     59204     59203     59205
     59204     59205     59206     59207     59206     59208     59207     59208
     59209     59210     59209     59211     59210     59211     59212     59213
     59212     59214     59213     59214     59215     59216     59215     59217
     59216     59217     59218     59219     59218     59220     59219     59220
     59221     59222     59221     59223     59222     59223     59224     59225
     59224     59226     59225     59226     59227     59228     59227     59229
     59228     59229     59230     59231     59230     59232     59231     59232
     59233     59234     59233     59235     59234     59235     59236     59237
     59236     59238     59237     59238     59239     59240     59239     59241
     59240     59241     59242     59243     59242     59244     59243     59244
     59245     59246     59245     59247     59246     59247     59248     59249
     59248     59250     59249     59250     59251     59252     59251     59253
     59252     59253     59254     59255     59254     59256     59255     59256
     59257     59258     59257     59259     59258     59259     59260     59261
     59260     59262     59261     59262     59263     59264     59263     59265
     59264     59265     59266     59267     59266     59268     59267     59268
     59269     59270     59269     59271     59270     59271     59272     59273
     59272     59274     59273     59274     59275     59276     59275     59277
     59276     59277     59278     59279     59278     59280     59279     59280
     59281     59282     59281     59283     59282     59283     59284     59285
     59284     59286     59285     59286     59287     59288     59287     59289
     59288     59289     59290     59291     59290     59292     59291     59292
     59293     59294     59293     59295     59294     59295     59296     59297
     59296     59298     59297     59298     59299     59300     59299     59301
     59300     59301     59302     59303     59302     59304     59303     59304
     59305     59306     59305     59307     59306     59307     59308     59309
     59308     59310     59309     59310     59311     59312     59311     59313
     59312     59313     59314     59315     59314     59316     59315     59316
     59317     59318     59317     59319     59318     59319     59320     59321
     59320     59322     59321     59322     59323     59324     59323     59325
     59324     59325     59326     59327     59326     59328     59327     59328
     59329     59330     59329     59331     59330     59331     59332     59333
     59332     59334     59333     59334     59335     59336     59335     59337
     59336     59337     59338     59339     59338     59340     59339     59340
     59341     59342     59341     59343     59342     59343     59344     59345
     59344     59346     59345     59346     59347     59348     59347     59349
     59348     59349     59350     59351     59350     59352     59351     59352
     59353     59354     59353     59355     59354     59355     59356     59357
     59356     59358     59357     59358     59359     59360     59359     59361
     59360     59361     59362     59363     59362     59364     59363     59364
     59365     59366     59365     59367     59366     59367     59368     59369
     59368     59370     59369     59370     59371     59372     59371     59373
     59372     59373     59374     59375     59374     59376     59375     59376
     59377     59378     59377     59379     59378     59379     59380     59381
     59380     59382     59381     59382     59383     59384     59383     59385
     59384     59385     59386     59387     59386     59388     59387     59388
     59389     59390     59389     59391     59390     59391     59392     59393
     59392     59394     59393     59394     59395     59396     59395     59397
     59396     59397     59398     59399     59398     59400     59399     59400
     59401     59402     59401     59403     59402     59403     59404     59405
     59404     59406     59405     59406     59407     59408     59407     59409
     59408     59409     59410     59411     59410     59412     59411     59412
     59413     59414     59413     59415     59414     59415     59416     59417
     59416     59418     59417     59418     59419     59420     59419     59421
     59420     59421     59422     59423     59422     59424     59423     59424
     59425     59426     59425     59427     59426     59427     59428     59429
     59428     59430     59429     59430     59431     59432     59431     59433
     59432     59433     59434     59435     59434     59436     59435     59436
     59437     59438     59437     59439     59438     59439     59440     59441
     59440     59442     59441     59442     59443     59444     59443     59445
     59444     59445     59446     59447     59446     59448     59447     59448
     59449     59450     59449     59451     59450     59451     59452     59453
     59452     59454     59453     59454     59455     59456     59455     59457
     59456     59457     59458     59459     59458     59460     59459     59460
     59461     59462     59461     59463     59462     59463     59464     59465
     59464     59466     59465     59466     59467     59468     59467     59469
     59468     59469     59470     59471     59470     59472     59471     59472
     59473     59474     59473     59475     59474     59475     59476     59477
     59476     59478     59477     59478     59479     59480     59479     59481
     59480     59481     59482     59483     59482     59484     59483     59484
     59485     59486     59485     59487     59486     59487     59488     59489
     59488     59490     59489     59490     59491     59492     59491     59493
     59492     59493     59494     59495     59494     59496     59495     59496
     59497     59498     59497     59499     59498     59499     59500     59501
     59500     59502     59501     59502     59503     59504     59503     59505
     59504     59505     59506     59507     59506     59508     59507     59508
     59509     59510     59509     59511     59510     59511     59512     59513
     59512     59514     59513     59514     59515     59516     59515     59517
     59516     59517     59518     59519     59518     59520     59519     59520
     59521     59522     59521     59523     59522     59523     59524     59525
     59524     59526     59525     59526     59527     59528     59527     59529
     59528     59529     59530     59531     59530     59532     59531     59532
     59533     59534     59533     59535     59534     59535     59536     59537
     59536     59538     59537     59538     59539     59540     59539     59541
     59540     59541     59542     59543     59542     59544     59543     59544
     59545     59546     59545     59547     59546     59547     59548     59549
     59548     59550     59549     59550     59551     59552     59551     59553
     59552     59553     59554     59555     59554     59556     59555     59556
     59557     59558     59557     59559     59558     59559     59560     59561
     59560     59562     59561     59562     59563     59564     59563     59565
     59564     59565     59566     59567     59566     59568     59567     59568
     59569     59570     59569     59571     59570     59571     59572     59573
     59572     59574     59573     59574     59575     59576     59575     59577
     59576     59577     59578     59579     59578     59580     59579     59580
     59581     59582     59581     59583     59582     59583     59584     59585
     59584     59586     59585     59586     59587     59588     59587     59589
     59588     59589     59590     59591     59590     59592     59591     59592
     59593     59594     59593     59595     59594     59595     59596     59597
     59596     59598     59597     59598     59599     59600     59599     59601
     59600     59601     59602     59603     59602     59604     59603     59604
     59605     59606     59605     59607     59606     59607     59608     59609
     59608     59610     59609     59610     59611     59612     59611     59613
     59612     59613     59614     59615     59614     59616     59615     59616
     59617     59618     59617     59619     59618     59619     59620     59621
     59620     59622     59621     59622     59623     59624     59623     59625
     59624     59625     59626     59627     59626     59628     59627     59628
     59629     59630     59629     59631     59630     59631     59632     59633
     59632     59634     59633     59634     59635     59636     59635     59637
     59636     59637     59638     59639     59638     59640     59639     59640
     59641     59642     59641     59643     59642     59643     59644     59645
     59644     59646     59645     59646     59647     59648     59647     59649
     59648     59649     59650     59651     59650     59652     59651     59652
     59653     59654     59653     59655     59654     59655     59656     59657
     59656     59658     59657     59658     59659     59660     59659     59661
     59660     59661     59662     59663     59662     59664     59663     59664
     59665     59666     59665     59667     59666     59667     59668     59669
     59668     59670     59669     59670     59671     59672     59671     59673
     59672     59673     59674     59675     59674     59676     59675     59676
     59677     59678     59677     59679     59678     59679     59680     59681
     59680     59682     59681     59682     59683     59684     59683     59685
     59684     59685     59686     59687     59686     59688     59687     59688
     59689     59690     59689     59691     59690     59691     59692     59693
     59692     59694     59693     59694     59695     59696     59695     59697
     59696     59697     59698     59699     59698     59700     59699     59700
     59701     59702     59701     59703     59702     59703     59704     59705
     59704     59706     59705     59706     59707     59708     59707     59709
     59708     59709     59710     59711     59710     59712     59711     59712
     59713     59714     59713     59715     59714     59715     59716     59717
     59716     59718     59717     59718     59719     59720     59719     59721
     59720     59721     59722     59723     59722     59724     59723     59724
     59725     59726     59725     59727     59726     59727     59728     59729
     59728     59730     59729     59730     59731     59732     59731     59733
     59732     59733     59734     59735     59734     59736     59735     59736
     59737     59738     59737     59739     59738     59739     59740     59741
     59740     59742     59741     59742     59743     59744     59743     59745
     59744     59745     59746     59747     59746     59748     59747     59748
     59749     59750     59749     59751     59750     59751     59752     59753
     59752     59754     59753     59754     59755     59756     59755     59757
     59756     59757     59758     59759     59758     59760     59759     59760
     59761     59762     59761     59763     59762     59763     59764     59765
     59764     59766     59765     59766     59767     59768     59767     59769
     59768     59769     59770     59771     59770     59772     59771     59772
     59773     59774     59773     59775     59774     59775     59776     59777
     59776     59778     59777     59778     59779     59780     59779     59781
     59780     59781     59782     59783     59782     59784     59783     59784
     59785     59786     59785     59787     59786     59787     59788     59789
     59788     59790     59789     59790     59791     59792     59791     59793
     59792     59793     59794     59795     59794     59796     59795     59796
     59797     59798     59797     59799     59798     59799     59800     59801
     59800     59802     59801     59802     59803     59804     59803     59805
     59804     59805     59806     59807     59806     59808     59807     59808
     59809     59810     59809     59811     59810     59811     59812     59813
     59812     59814     59813     59814     59815     59816     59815     59817
     59816     59817     59818     59819     59818     59820     59819     59820
     59821     59822     59821     59823     59822     59823     59824     59825
     59824     59826     59825     59826     59827     59828     59827     59829
     59828     59829     59830     59831     59830     59832     59831     59832
     59833     59834     59833     59835     59834     59835     59836     59837
     59836     59838     59837     59838     59839     59840     59839     59841
     59840     59841     59842     59843     59842     59844     59843     59844
     59845     59846     59845     59847     59846     59847     59848     59849
     59848     59850     59849     59850     59851     59852     59851     59853
     59852     59853     59854     59855     59854     59856     59855     59856
     59857     59858     59857     59859     59858     59859     59860     59861
     59860     59862     59861     59862     59863     59864     59863     59865
     59864     59865     59866     59867     59866     59868     59867     59868
     59869     59870     59869     59871     59870     59871     59872     59873
     59872     59874     59873     59874     59875     59876     59875     59877
     59876     59877     59878     59879     59878     59880     59879     59880
     59881     59882     59881     59883     59882     59883     59884     59885
     59884     59886     59885     59886     59887     59888     59887     59889
     59888     59889     59890     59891     59890     59892     59891     59892
     59893     59894     59893     59895     59894     59895     59896     59897
     59896     59898     59897     59898     59899     59900     59899     59901
     59900     59901     59902     59903     59902     59904     59903     59904
     59905     59906     59905     59907     59906     59907     59908     59909
     59908     59910     59909     59910     59911     59912     59911     59913
     59912     59913     59914     59915     59914     59916     59915     59916
     59917     59918     59917     59919     59918     59919     59920     59921
     59920     59922     59921     59922     59923     59924     59923     59925
     59924     59925     59926     59927     59926     59928     59927     59928
     59929     59930     59929     59931     59930     59931     59932     59933
     59932     59934     59933     59934     59935     59936     59935     59937
     59936     59937     59938     59939     59938     59940     59939     59940
     59941     59942     59941     59943     59942     59943     59944     59945
     59944     59946     59945     59946     59947     59948     59947     59949
     59948     59949     59950     59951     59950     59952     59951     59952
     59953     59954     59953     59955     59954     59955     59956     59957
     59956     59958     59957     59958     59959     59960     59959     59961
     59960     59961     59962     59963     59962     59964     59963     59964
     59965     59966     59965     59967     59966     59967     59968     59969
     59968     59970     59969     59970     59971     59972     59971     59973
     59972     59973     59974     59975     59974     59976     59975     59976
     59977     59978     59977     59979     59978     59979     59980     59981
     59980     59982     59981     59982     59983     59984     59983     59985
     59984     59985     59986     59987     59986     59988     59987     59988
     59989     59990     59989     59991     59990     59991     59992     59993
     59992     59994     59993     59994     59995     59996     59995     59997
     59996     59997     59998     59999     59998     60000     59999     60000
     60001     60002     60001     60003     60002     60003     60004     60005
     60004     60006     60005     60006     60007     60008     60007     60009
     60008     60009     60010     60011     60010     60012     60011     60012
     60013     60014     60013     60015     60014     60015     60016     60017
     60016     60018     60017     60018     60019     60020     60019     60021
     60020     60021     60022     60023     60022     60024     60023     60024
     60025     60026     60025     60027     60026     60027     60028     60029
     60028     60030     60029     60030     60031     60032     60031     60033
     60032     60033     60034     60035     60034     60036     60035     60036
     60037     60038     60037     60039     60038     60039     60040     60041
     60040     60042     60041     60042     60043     60044     60043     60045
     60044     60045     60046     60047     60046     60048     60047     60048
     60049     60050     60049     60051     60050     60051     60052     60053
     60052     60054     60053     60054     60055     60056     60055     60057
     60056     60057     60058     60059     60058     60060     60059     60060
     60061     60062     60061     60063     60062     60063     60064     60065
     60064     60066     60065     60066     60067     60068     60067     60069
     60068     60069     60070     60071     60070     60072     60071     60072
     60073     60074     60073     60075     60074     60075     60076     60077
     60076     60078     60077     60078     60079     60080     60079     60081
     60080     60081     60082     60083     60082     60084     60083     60084
     60085     60086     60085     60087     60086     60087     60088     60089
     60088     60090     60089     60090     60091     60092     60091     60093
     60092     60093     60094     60095     60094     60096     60095     60096
     60097     60098     60097     60099     60098     60099     60100     60101
     60100     60102     60101     60102     60103     60104     60103     60105
     60104     60105     60106     60107     60106     60108     60107     60108
     60109     60110     60109     60111     60110     60111     60112     60113
     60112     60114     60113     60114     60115     60116     60115     60117
     60116     60117     60118     60119     60118     60120     60119     60120
     60121     60122     60121     60123     60122     60123     60124     60125
     60124     60126     60125     60126     60127     60128     60127     60129
     60128     60129     60130     60131     60130     60132     60131     60132
     60133     60134     60133     60135     60134     60135     60136     60137
     60136     60138     60137     60138     60139     60140     60139     60141
     60140     60141     60142     60143     60142     60144     60143     60144
     60145     60146     60145     60147     60146     60147     60148     60149
     60148     60150     60149     60150     60151     60152     60151     60153
     60152     60153     60154     60155     60154     60156     60155     60156
     60157     60158     60157     60159     60158     60159     60160     60161
     60160     60162     60161     60162     60163     60164     60163     60165
     60164     60165     60166     60167     60166     60168     60167     60168
     60169     60170     60169     60171     60170     60171     60172     60173
     60172     60174     60173     60174     60175     60176     60175     60177
     60176     60177     60178     60179     60178     60180     60179     60180
     60181     60182     60181     60183     60182     60183     60184     60185
     60184     60186     60185     60186     60187     60188     60187     60189
     60188     60189     60190     60191     60190     60192     60191     60192
     60193     60194     60193     60195     60194     60195     60196     60197
     60196     60198     60197     60198     60199     60200     60199     60201
     60200     60201     60202     60203     60202     60204     60203     60204
     60205     60206     60205     60207     60206     60207     60208     60209
     60208     60210     60209     60210     60211     60212     60211     60213
     60212     60213     60214     60215     60214     60216     60215     60216
     60217     60218     60217     60219     60218     60219     60220     60221
     60220     60222     60221     60222     60223     60224     60223     60225
     60224     60225     60226     60227     60226     60228     60227     60228
     60229     60230     60229     60231     60230     60231     60232     60233
     60232     60234     60233     60234     60235     60236     60235     60237
     60236     60237     60238     60239     60238     60240     60239     60240
     60241     60242     60241     60243     60242     60243     60244     60245
     60244     60246     60245     60246     60247     60248     60247     60249
     60248     60249     60250     60251     60250     60252     60251     60252
     60253     60254     60253     60255     60254     60255     60256     60257
     60256     60258     60257     60258     60259     60260     60259     60261
     60260     60261     60262     60263     60262     60264     60263     60264
     60265     60266     60265     60267     60266     60267     60268     60269
     60268     60270     60269     60270     60271     60272     60271     60273
     60272     60273     60274     60275     60274     60276     60275     60276
     60277     60278     60277     60279     60278     60279     60280     60281
     60280     60282     60281     60282     60283     60284     60283     60285
     60284     60285     60286     60287     60286     60288     60287     60288
     60289     60290     60289     60291     60290     60291     60292     60293
     60292     60294     60293     60294     60295     60296     60295     60297
     60296     60297     60298     60299     60298     60300     60299     60300
     60301     60302     60301     60303     60302     60303     60304     60305
     60304     60306     60305     60306     60307     60308     60307     60309
     60308     60309     60310     60311     60310     60312     60311     60312
     60313     60314     60313     60315     60314     60315     60316     60317
     60316     60318     60317     60318     60319     60320     60319     60321
     60320     60321     60322     60323     60322     60324     60323     60324
     60325     60326     60325     60327     60326     60327     60328     60329
     60328     60330     60329     60330     60331     60332     60331     60333
     60332     60333     60334     60335     60334     60336     60335     60336
     60337     60338     60337     60339     60338     60339     60340     60341
     60340     60342     60341     60342     60343     60344     60343     60345
     60344     60345     60346     60347     60346     60348     60347     60348
     60349     60350     60349     60351     60350     60351     60352     60353
     60352     60354     60353     60354     60355     60356     60355     60357
     60356     60357     60358     60359     60358     60360     60359     60360
     60361     60362     60361     60363     60362     60363     60364     60365
     60364     60366     60365     60366     60367     60368     60367     60369
     60368     60369     60370     60371     60370     60372     60371     60372
     60373     60374     60373     60375     60374     60375     60376     60377
     60376     60378     60377     60378     60379     60380     60379     60381
     60380     60381     60382     60383     60382     60384     60383     60384
     60385     60386     60385     60387     60386     60387     60388     60389
     60388     60390     60389     60390     60391     60392     60391     60393
     60392     60393     60394     60395     60394     60396     60395     60396
     60397     60398     60397     60399     60398     60399     60400     60401
     60400     60402     60401     60402     60403     60404     60403     60405
     60404     60405     60406     60407     60406     60408     60407     60408
     60409     60410     60409     60411     60410     60411     60412     60413
     60412     60414     60413     60414     60415     60416     60415     60417
     60416     60417     60418     60419     60418     60420     60419     60420
     60421     60422     60421     60423     60422     60423     60424     60425
     60424     60426     60425     60426     60427     60428     60427     60429
     60428     60429     60430     60431     60430     60432     60431     60432
     60433     60434     60433     60435     60434     60435     60436     60437
     60436     60438     60437     60438     60439     60440     60439     60441
     60440     60441     60442     60443     60442     60444     60443     60444
     60445     60446     60445     60447     60446     60447     60448     60449
     60448     60450     60449     60450     60451     60452     60451     60453
     60452     60453     60454     60455     60454     60456     60455     60456
     60457     60458     60457     60459     60458     60459     60460     60461
     60460     60462     60461     60462     60463     60464     60463     60465
     60464     60465     60466     60467     60466     60468     60467     60468
     60469     60470     60469     60471     60470     60471     60472     60473
     60472     60474     60473     60474     60475     60476     60475     60477
     60476     60477     60478     60479     60478     60480     60479     60480
     60481     60482     60481     60483     60482     60483     60484     60485
     60484     60486     60485     60486     60487     60488     60487     60489
     60488     60489     60490     60491     60490     60492     60491     60492
     60493     60494     60493     60495     60494     60495     60496     60497
     60496     60498     60497     60498     60499     60500     60499     60501
     60500     60501     60502     60503     60502     60504     60503     60504
     60505     60506     60505     60507     60506     60507     60508     60509
     60508     60510     60509     60510     60511     60512     60511     60513
     60512     60513     60514     60515     60514     60516     60515     60516
     60517     60518     60517     60519     60518     60519     60520     60521
     60520     60522     60521     60522     60523     60524     60523     60525
     60524     60525     60526     60527     60526     60528     60527     60528
     60529     60530     60529     60531     60530     60531     60532     60533
     60532     60534     60533     60534     60535     60536     60535     60537
     60536     60537     60538     60539     60538     60540     60539     60540
     60541     60542     60541     60543     60542     60543     60544     60545
     60544     60546     60545     60546     60547     60548     60547     60549
     60548     60549     60550     60551     60550     60552     60551     60552
     60553     60554     60553     60555     60554     60555     60556     60557
     60556     60558     60557     60558     60559     60560     60559     60561
     60560     60561     60562     60563     60562     60564     60563     60564
     60565     60566     60565     60567     60566     60567     60568     60569
     60568     60570     60569     60570     60571     60572     60571     60573
     60572     60573     60574     60575     60574     60576     60575     60576
     60577     60578     60577     60579     60578     60579     60580     60581
     60580     60582     60581     60582     60583     60584     60583     60585
     60584     60585     60586     60587     60586     60588     60587     60588
     60589     60590     60589     60591     60590     60591     60592     60593
     60592     60594     60593     60594     60595     60596     60595     60597
     60596     60597     60598     60599     60598     60600     60599     60600
     60601     60602     60601     60603     60602     60603     60604     60605
     60604     60606     60605     60606     60607     60608     60607     60609
     60608     60609     60610     60611     60610     60612     60611     60612
     60613     60614     60613     60615     60614     60615     60616     60617
     60616     60618     60617     60618     60619     60620     60619     60621
     60620     60621     60622     60623     60622     60624     60623     60624
     60625     60626     60625     60627     60626     60627     60628     60629
     60628     60630     60629     60630     60631     60632     60631     60633
     60632     60633     60634     60635     60634     60636     60635     60636
     60637     60638     60637     60639     60638     60639     60640     60641
     60640     60642     60641     60642     60643     60644     60643     60645
     60644     60645     60646     60647     60646     60648     60647     60648
     60649     60650     60649     60651     60650     60651     60652     60653
     60652     60654     60653     60654     60655     60656     60655     60657
     60656     60657     60658     60659     60658     60660     60659     60660
     60661     60662     60661     60663     60662     60663     60664     60665
     60664     60666     60665     60666     60667     60668     60667     60669
     60668     60669     60670     60671     60670     60672     60671     60672
     60673     60674     60673     60675     60674     60675     60676     60677
     60676     60678     60677     60678     60679     60680     60679     60681
     60680     60681     60682     60683     60682     60684     60683     60684
     60685     60686     60685     60687     60686     60687     60688     60689
     60688     60690     60689     60690     60691     60692     60691     60693
     60692     60693     60694     60695     60694     60696     60695     60696
     60697     60698     60697     60699     60698     60699     60700     60701
     60700     60702     60701     60702     60703     60704     60703     60705
     60704     60705     60706     60707     60706     60708     60707     60708
     60709     60710     60709     60711     60710     60711     60712     60713
     60712     60714     60713     60714     60715     60716     60715     60717
     60716     60717     60718     60719     60718     60720     60719     60720
     60721     60722     60721     60723     60722     60723     60724     60725
     60724     60726     60725     60726     60727     60728     60727     60729
     60728     60729     60730     60731     60730     60732     60731     60732
     60733     60734     60733     60735     60734     60735     60736     60737
     60736     60738     60737     60738     60739     60740     60739     60741
     60740     60741     60742     60743     60742     60744     60743     60744
     60745     60746     60745     60747     60746     60747     60748     60749
     60748     60750     60749     60750     60751     60752     60751     60753
     60752     60753     60754     60755     60754     60756     60755     60756
     60757     60758     60757     60759     60758     60759     60760     60761
     60760     60762     60761     60762     60763     60764     60763     60765
     60764     60765     60766     60767     60766     60768     60767     60768
     60769     60770     60769     60771     60770     60771     60772     60773
     60772     60774     60773     60774     60775     60776     60775     60777
     60776     60777     60778     60779     60778     60780     60779     60780
     60781     60782     60781     60783     60782     60783     60784     60785
     60784     60786     60785     60786     60787     60788     60787     60789
     60788     60789     60790     60791     60790     60792     60791     60792
     60793     60794     60793     60795     60794     60795     60796     60797
     60796     60798     60797     60798     60799     60800     60799     60801
     60800     60801     60802     60803     60802     60804     60803     60804
     60805     60806     60805     60807     60806     60807     60808     60809
     60808     60810     60809     60810     60811     60812     60811     60813
     60812     60813     60814     60815     60814     60816     60815     60816
     60817     60818     60817     60819     60818     60819     60820     60821
     60820     60822     60821     60822     60823     60824     60823     60825
     60824     60825     60826     60827     60826     60828     60827     60828
     60829     60830     60829     60831     60830     60831     60832     60833
     60832     60834     60833     60834     60835     60836     60835     60837
     60836     60837     60838     60839     60838     60840     60839     60840
     60841     60842     60841     60843     60842     60843     60844     60845
     60844     60846     60845     60846     60847     60848     60847     60849
     60848     60849     60850     60851     60850     60852     60851     60852
     60853     60854     60853     60855     60854     60855     60856     60857
     60856     60858     60857     60858     60859     60860     60859     60861
     60860     60861     60862     60863     60862     60864     60863     60864
     60865     60866     60865     60867     60866     60867     60868     60869
     60868     60870     60869     60870     60871     60872     60871     60873
     60872     60873     60874     60875     60874     60876     60875     60876
     60877     60878     60877     60879     60878     60879     60880     60881
     60880     60882     60881     60882     60883     60884     60883     60885
     60884     60885     60886     60887     60886     60888     60887     60888
     60889     60890     60889     60891     60890     60891     60892     60893
     60892     60894     60893     60894     60895     60896     60895     60897
     60896     60897     60898     60899     60898     60900     60899     60900
     60901     60902     60901     60903     60902     60903     60904     60905
     60904     60906     60905     60906     60907     60908     60907     60909
     60908     60909     60910     60911     60910     60912     60911     60912
     60913     60914     60913     60915     60914     60915     60916     60917
     60916     60918     60917     60918     60919     60920     60919     60921
     60920     60921     60922     60923     60922     60924     60923     60924
     60925     60926     60925     60927     60926     60927     60928     60929
     60928     60930     60929     60930     60931     60932     60931     60933
     60932     60933     60934     60935     60934     60936     60935     60936
     60937     60938     60937     60939     60938     60939     60940     60941
     60940     60942     60941     60942     60943     60944     60943     60945
     60944     60945     60946     60947     60946     60948     60947     60948
     60949     60950     60949     60951     60950     60951     60952     60953
     60952     60954     60953     60954     60955     60956     60955     60957
     60956     60957     60958     60959     60958     60960     60959     60960
     60961     60962     60961     60963     60962     60963     60964     60965
     60964     60966     60965     60966     60967     60968     60967     60969
     60968     60969     60970     60971     60970     60972     60971     60972
     60973     60974     60973     60975     60974     60975     60976     60977
     60976     60978     60977     60978     60979     60980     60979     60981
     60980     60981     60982     60983     60982     60984     60983     60984
     60985     60986     60985     60987     60986     60987     60988     60989
     60988     60990     60989     60990     60991     60992     60991     60993
     60992     60993     60994     60995     60994     60996     60995     60996
     60997     60998     60997     60999     60998     60999     61000     61001
     61000     61002     61001     61002     61003     61004     61003     61005
     61004     61005     61006     61007     61006     61008     61007     61008
     61009     61010     61009     61011     61010     61011     61012     61013
     61012     61014     61013     61014     61015     61016     61015     61017
     61016     61017     61018     61019     61018     61020     61019     61020
     61021     61022     61021     61023     61022     61023     61024     61025
     61024     61026     61025     61026     61027     61028     61027     61029
     61028     61029     61030     61031     61030     61032     61031     61032
     61033     61034     61033     61035     61034     61035     61036     61037
     61036     61038     61037     61038     61039     61040     61039     61041
     61040     61041     61042     61043     61042     61044     61043     61044
     61045     61046     61045     61047     61046     61047     61048     61049
     61048     61050     61049     61050     61051     61052     61051     61053
     61052     61053     61054     61055     61054     61056     61055     61056
     61057     61058     61057     61059     61058     61059     61060     61061
     61060     61062     61061     61062     61063     61064     61063     61065
     61064     61065     61066     61067     61066     61068     61067     61068
     61069     61070     61069     61071     61070     61071     61072     61073
     61072     61074     61073     61074     61075     61076     61075     61077
     61076     61077     61078     61079     61078     61080     61079     61080
     61081     61082     61081     61083     61082     61083     61084     61085
     61084     61086     61085     61086     61087     61088     61087     61089
     61088     61089     61090     61091     61090     61092     61091     61092
     61093     61094     61093     61095     61094     61095     61096     61097
     61096     61098     61097     61098     61099     61100     61099     61101
     61100     61101     61102     61103     61102     61104     61103     61104
     61105     61106     61105     61107     61106     61107     61108     61109
     61108     61110     61109     61110     61111     61112     61111     61113
     61112     61113     61114     61115     61114     61116     61115     61116
     61117     61118     61117     61119     61118     61119     61120     61121
     61120     61122     61121     61122     61123     61124     61123     61125
     61124     61125     61126     61127     61126     61128     61127     61128
     61129     61130     61129     61131     61130     61131     61132     61133
     61132     61134     61133     61134     61135     61136     61135     61137
     61136     61137     61138     61139     61138     61140     61139     61140
     61141     61142     61141     61143     61142     61143     61144     61145
     61144     61146     61145     61146     61147     61148     61147     61149
     61148     61149     61150     61151     61150     61152     61151     61152
     61153     61154     61153     61155     61154     61155     61156     61157
     61156     61158     61157     61158     61159     61160     61159     61161
     61160     61161     61162     61163     61162     61164     61163     61164
     61165     61166     61165     61167     61166     61167     61168     61169
     61168     61170     61169     61170     61171     61172     61171     61173
     61172     61173     61174     61175     61174     61176     61175     61176
     61177     61178     61177     61179     61178     61179     61180     61181
     61180     61182     61181     61182     61183     61184     61183     61185
     61184     61185     61186     61187     61186     61188     61187     61188
     61189     61190     61189     61191     61190     61191     61192     61193
     61192     61194     61193     61194     61195     61196     61195     61197
     61196     61197     61198     61199     61198     61200     61199     61200
     61201     61202     61201     61203     61202     61203     61204     61205
     61204     61206     61205     61206     61207     61208     61207     61209
     61208     61209     61210     61211     61210     61212     61211     61212
     61213     61214     61213     61215     61214     61215     61216     61217
     61216     61218     61217     61218     61219     61220     61219     61221
     61220     61221     61222     61223     61222     61224     61223     61224
     61225     61226     61225     61227     61226     61227     61228     61229
     61228     61230     61229     61230     61231     61232     61231     61233
     61232     61233     61234     61235     61234     61236     61235     61236
     61237     61238     61237     61239     61238     61239     61240     61241
     61240     61242     61241     61242     61243     61244     61243     61245
     61244     61245     61246     61247     61246     61248     61247     61248
     61249     61250     61249     61251     61250     61251     61252     61253
     61252     61254     61253     61254     61255     61256     61255     61257
     61256     61257     61258     61259     61258     61260     61259     61260
     61261     61262     61261     61263     61262     61263     61264     61265
     61264     61266     61265     61266     61267     61268     61267     61269
     61268     61269     61270     61271     61270     61272     61271     61272
     61273     61274     61273     61275     61274     61275     61276     61277
     61276     61278     61277     61278     61279     61280     61279     61281
     61280     61281     61282     61283     61282     61284     61283     61284
     61285     61286     61285     61287     61286     61287     61288     61289
     61288     61290     61289     61290     61291     61292     61291     61293
     61292     61293     61294     61295     61294     61296     61295     61296
     61297     61298     61297     61299     61298     61299     61300     61301
     61300     61302     61301     61302     61303     61304     61303     61305
     61304     61305     61306     61307     61306     61308     61307     61308
     61309     61310     61309     61311     61310     61311     61312     61313
     61312     61314     61313     61314     61315     61316     61315     61317
     61316     61317     61318     61319     61318     61320     61319     61320
     61321     61322     61321     61323     61322     61323     61324     61325
     61324     61326     61325     61326     61327     61328     61327     61329
     61328     61329     61330     61331     61330     61332     61331     61332
     61333     61334     61333     61335     61334     61335     61336     61337
     61336     61338     61337     61338     61339     61340     61339     61341
     61340     61341     61342     61343     61342     61344     61343     61344
     61345     61346     61345     61347     61346     61347     61348     61349
     61348     61350     61349     61350     61351     61352     61351     61353
     61352     61353     61354     61355     61354     61356     61355     61356
     61357     61358     61357     61359     61358     61359     61360     61361
     61360     61362     61361     61362     61363     61364     61363     61365
     61364     61365     61366     61367     61366     61368     61367     61368
     61369     61370     61369     61371     61370     61371     61372     61373
     61372     61374     61373     61374     61375     61376     61375     61377
     61376     61377     61378     61379     61378     61380     61379     61380
     61381     61382     61381     61383     61382     61383     61384     61385
     61384     61386     61385     61386     61387     61388     61387     61389
     61388     61389     61390     61391     61390     61392     61391     61392
     61393     61394     61393     61395     61394     61395     61396     61397
     61396     61398     61397     61398     61399     61400     61399     61401
     61400     61401     61402     61403     61402     61404     61403     61404
     61405     61406     61405     61407     61406     61407     61408     61409
     61408     61410     61409     61410     61411     61412     61411     61413
     61412     61413     61414     61415     61414     61416     61415     61416
     61417     61418     61417     61419     61418     61419     61420     61421
     61420     61422     61421     61422     61423     61424     61423     61425
     61424     61425     61426     61427     61426     61428     61427     61428
     61429     61430     61429     61431     61430     61431     61432     61433
     61432     61434     61433     61434     61435     61436     61435     61437
     61436     61437     61438     61439     61438     61440     61439     61440
     61441     61442     61441     61443     61442     61443     61444     61445
     61444     61446     61445     61446     61447     61448     61447     61449
     61448     61449     61450     61451     61450     61452     61451     61452
     61453     61454     61453     61455     61454     61455     61456     61457
     61456     61458     61457     61458     61459     61460     61459     61461
     61460     61461     61462     61463     61462     61464     61463     61464
     61465     61466     61465     61467     61466     61467     61468     61469
     61468     61470     61469     61470     61471     61472     61471     61473
     61472     61473     61474     61475     61474     61476     61475     61476
     61477     61478     61477     61479     61478     61479     61480     61481
     61480     61482     61481     61482     61483     61484     61483     61485
     61484     61485     61486     61487     61486     61488     61487     61488
     61489     61490     61489     61491     61490     61491     61492     61493
     61492     61494     61493     61494     61495     61496     61495     61497
     61496     61497     61498     61499     61498     61500     61499     61500
     61501     61502     61501     61503     61502     61503     61504     61505
     61504     61506     61505     61506     61507     61508     61507     61509
     61508     61509     61510     61511     61510     61512     61511     61512
     61513     61514     61513     61515     61514     61515     61516     61517
     61516     61518     61517     61518     61519     61520     61519     61521
     61520     61521     61522     61523     61522     61524     61523     61524
     61525     61526     61525     61527     61526     61527     61528     61529
     61528     61530     61529     61530     61531     61532     61531     61533
     61532     61533     61534     61535     61534     61536     61535     61536
     61537     61538     61537     61539     61538     61539     61540     61541
     61540     61542     61541     61542     61543     61544     61543     61545
     61544     61545     61546     61547     61546     61548     61547     61548
     61549     61550     61549     61551     61550     61551     61552     61553
     61552     61554     61553     61554     61555     61556     61555     61557
     61556     61557     61558     61559     61558     61560     61559     61560
     61561     61562     61561     61563     61562     61563     61564     61565
     61564     61566     61565     61566     61567     61568     61567     61569
     61568     61569     61570     61571     61570     61572     61571     61572
     61573     61574     61573     61575     61574     61575     61576     61577
     61576     61578     61577     61578     61579     61580     61579     61581
     61580     61581     61582     61583     61582     61584     61583     61584
     61585     61586     61585     61587     61586     61587     61588     61589
     61588     61590     61589     61590     61591     61592     61591     61593
     61592     61593     61594     61595     61594     61596     61595     61596
     61597     61598     61597     61599     61598     61599     61600     61601
     61600     61602     61601     61602     61603     61604     61603     61605
     61604     61605     61606     61607     61606     61608     61607     61608
     61609     61610     61609     61611     61610     61611     61612     61613
     61612     61614     61613     61614     61615     61616     61615     61617
     61616     61617     61618     61619     61618     61620     61619     61620
     61621     61622     61621     61623     61622     61623     61624     61625
     61624     61626     61625     61626     61627     61628     61627     61629
     61628     61629     61630     61631     61630     61632     61631     61632
     61633     61634     61633     61635     61634     61635     61636     61637
     61636     61638     61637     61638     61639     61640     61639     61641
     61640     61641     61642     61643     61642     61644     61643     61644
     61645     61646     61645     61647     61646     61647     61648     61649
     61648     61650     61649     61650     61651     61652     61651     61653
     61652     61653     61654     61655     61654     61656     61655     61656
     61657     61658     61657     61659     61658     61659     61660     61661
     61660     61662     61661     61662     61663     61664     61663     61665
     61664     61665     61666     61667     61666     61668     61667     61668
     61669     61670     61669     61671     61670     61671     61672     61673
     61672     61674     61673     61674     61675     61676     61675     61677
     61676     61677     61678     61679     61678     61680     61679     61680
     61681     61682     61681     61683     61682     61683     61684     61685
     61684     61686     61685     61686     61687     61688     61687     61689
     61688     61689     61690     61691     61690     61692     61691     61692
     61693     61694     61693     61695     61694     61695     61696     61697
     61696     61698     61697     61698     61699     61700     61699     61701
     61700     61701     61702     61703     61702     61704     61703     61704
     61705     61706     61705     61707     61706     61707     61708     61709
     61708     61710     61709     61710     61711     61712     61711     61713
     61712     61713     61714     61715     61714     61716     61715     61716
     61717     61718     61717     61719     61718     61719     61720     61721
     61720     61722     61721     61722     61723     61724     61723     61725
     61724     61725     61726     61727     61726     61728     61727     61728
     61729     61730     61729     61731     61730     61731     61732     61733
     61732     61734     61733     61734     61735     61736     61735     61737
     61736     61737     61738     61739     61738     61740     61739     61740
     61741     61742     61741     61743     61742     61743     61744     61745
     61744     61746     61745     61746     61747     61748     61747     61749
     61748     61749     61750     61751     61750     61752     61751     61752
     61753     61754     61753     61755     61754     61755     61756     61757
     61756     61758     61757     61758     61759     61760     61759     61761
     61760     61761     61762     61763     61762     61764     61763     61764
     61765     61766     61765     61767     61766     61767     61768     61769
     61768     61770     61769     61770     61771     61772     61771     61773
     61772     61773     61774     61775     61774     61776     61775     61776
     61777     61778     61777     61779     61778     61779     61780     61781
     61780     61782     61781     61782     61783     61784     61783     61785
     61784     61785     61786     61787     61786     61788     61787     61788
     61789     61790     61789     61791     61790     61791     61792     61793
     61792     61794     61793     61794     61795     61796     61795     61797
     61796     61797     61798     61799     61798     61800     61799     61800
     61801     61802     61801     61803     61802     61803     61804     61805
     61804     61806     61805     61806     61807     61808     61807     61809
     61808     61809     61810     61811     61810     61812     61811     61812
     61813     61814     61813     61815     61814     61815     61816     61817
     61816     61818     61817     61818     61819     61820     61819     61821
     61820     61821     61822     61823     61822     61824     61823     61824
     61825     61826     61825     61827     61826     61827     61828     61829
     61828     61830     61829     61830     61831     61832     61831     61833
     61832     61833     61834     61835     61834     61836     61835     61836
     61837     61838     61837     61839     61838     61839     61840     61841
     61840     61842     61841     61842     61843     61844     61843     61845
     61844     61845     61846     61847     61846     61848     61847     61848
     61849     61850     61849     61851     61850     61851     61852     61853
     61852     61854     61853     61854     61855     61856     61855     61857
     61856     61857     61858     61859     61858     61860     61859     61860
     61861     61862     61861     61863     61862     61863     61864     61865
     61864     61866     61865     61866     61867     61868     61867     61869
     61868     61869     61870     61871     61870     61872     61871     61872
     61873     61874     61873     61875     61874     61875     61876     61877
     61876     61878     61877     61878     61879     61880     61879     61881
     61880     61881     61882     61883     61882     61884     61883     61884
     61885     61886     61885     61887     61886     61887     61888     61889
     61888     61890     61889     61890     61891     61892     61891     61893
     61892     61893     61894     61895     61894     61896     61895     61896
     61897     61898     61897     61899     61898     61899     61900     61901
     61900     61902     61901     61902     61903     61904     61903     61905
     61904     61905     61906     61907     61906     61908     61907     61908
     61909     61910     61909     61911     61910     61911     61912     61913
     61912     61914     61913     61914     61915     61916     61915     61917
     61916     61917     61918     61919     61918     61920     61919     61920
     61921     61922     61921     61923     61922     61923     61924     61925
     61924     61926     61925     61926     61927     61928     61927     61929
     61928     61929     61930     61931     61930     61932     61931     61932
     61933     61934     61933     61935     61934     61935     61936     61937
     61936     61938     61937     61938     61939     61940     61939     61941
     61940     61941     61942     61943     61942     61944     61943     61944
     61945     61946     61945     61947     61946     61947     61948     61949
     61948     61950     61949     61950     61951     61952     61951     61953
     61952     61953     61954     61955     61954     61956     61955     61956
     61957     61958     61957     61959     61958     61959     61960     61961
     61960     61962     61961     61962     61963     61964     61963     61965
     61964     61965     61966     61967     61966     61968     61967     61968
     61969     61970     61969     61971     61970     61971     61972     61973
     61972     61974     61973     61974     61975     61976     61975     61977
     61976     61977     61978     61979     61978     61980     61979     61980
     61981     61982     61981     61983     61982     61983     61984     61985
     61984     61986     61985     61986     61987     61988     61987     61989
     61988     61989     61990     61991     61990     61992     61991     61992
     61993     61994     61993     61995     61994     61995     61996     61997
     61996     61998     61997     61998     61999     62000     61999     62001
     62000     62001     62002     62003     62002     62004     62003     62004
     62005     62006     62005     62007     62006     62007     62008     62009
     62008     62010     62009     62010     62011     62012     62011     62013
     62012     62013     62014     62015     62014     62016     62015     62016
     62017     62018     62017     62019     62018     62019     62020     62021
     62020     62022     62021     62022     62023     62024     62023     62025
     62024     62025     62026     62027     62026     62028     62027     62028
     62029     62030     62029     62031     62030     62031     62032     62033
     62032     62034     62033     62034     62035     62036     62035     62037
     62036     62037     62038     62039     62038     62040     62039     62040
     62041     62042     62041     62043     62042     62043     62044     62045
     62044     62046     62045     62046     62047     62048     62047     62049
     62048     62049     62050     62051     62050     62052     62051     62052
     62053     62054     62053     62055     62054     62055     62056     62057
     62056     62058     62057     62058     62059     62060     62059     62061
     62060     62061     62062     62063     62062     62064     62063     62064
     62065     62066     62065     62067     62066     62067     62068     62069
     62068     62070     62069     62070     62071     62072     62071     62073
     62072     62073     62074     62075     62074     62076     62075     62076
     62077     62078     62077     62079     62078     62079     62080     62081
     62080     62082     62081     62082     62083     62084     62083     62085
     62084     62085     62086     62087     62086     62088     62087     62088
     62089     62090     62089     62091     62090     62091     62092     62093
     62092     62094     62093     62094     62095     62096     62095     62097
     62096     62097     62098     62099     62098     62100     62099     62100
     62101     62102     62101     62103     62102     62103     62104     62105
     62104     62106     62105     62106     62107     62108     62107     62109
     62108     62109     62110     62111     62110     62112     62111     62112
     62113     62114     62113     62115     62114     62115     62116     62117
     62116     62118     62117     62118     62119     62120     62119     62121
     62120     62121     62122     62123     62122     62124     62123     62124
     62125     62126     62125     62127     62126     62127     62128     62129
     62128     62130     62129     62130     62131     62132     62131     62133
     62132     62133     62134     62135     62134     62136     62135     62136
     62137     62138     62137     62139     62138     62139     62140     62141
     62140     62142     62141     62142     62143     62144     62143     62145
     62144     62145     62146     62147     62146     62148     62147     62148
     62149     62150     62149     62151     62150     62151     62152     62153
     62152     62154     62153     62154     62155     62156     62155     62157
     62156     62157     62158     62159     62158     62160     62159     62160
     62161     62162     62161     62163     62162     62163     62164     62165
     62164     62166     62165     62166     62167     62168     62167     62169
     62168     62169     62170     62171     62170     62172     62171     62172
     62173     62174     62173     62175     62174     62175     62176     62177
     62176     62178     62177     62178     62179     62180     62179     62181
     62180     62181     62182     62183     62182     62184     62183     62184
     62185     62186     62185     62187     62186     62187     62188     62189
     62188     62190     62189     62190     62191     62192     62191     62193
     62192     62193     62194     62195     62194     62196     62195     62196
     62197     62198     62197     62199     62198     62199     62200     62201
     62200     62202     62201     62202     62203     62204     62203     62205
     62204     62205     62206     62207     62206     62208     62207     62208
     62209     62210     62209     62211     62210     62211     62212     62213
     62212     62214     62213     62214     62215     62216     62215     62217
     62216     62217     62218     62219     62218     62220     62219     62220
     62221     62222     62221     62223     62222     62223     62224     62225
     62224     62226     62225     62226     62227     62228     62227     62229
     62228     62229     62230     62231     62230     62232     62231     62232
     62233     62234     62233     62235     62234     62235     62236     62237
     62236     62238     62237     62238     62239     62240     62239     62241
     62240     62241     62242     62243     62242     62244     62243     62244
     62245     62246     62245     62247     62246     62247     62248     62249
     62248     62250     62249     62250     62251     62252     62251     62253
     62252     62253     62254     62255     62254     62256     62255     62256
     62257     62258     62257     62259     62258     62259     62260     62261
     62260     62262     62261     62262     62263     62264     62263     62265
     62264     62265     62266     62267     62266     62268     62267     62268
     62269     62270     62269     62271     62270     62271     62272     62273
     62272     62274     62273     62274     62275     62276     62275     62277
     62276     62277     62278     62279     62278     62280     62279     62280
     62281     62282     62281     62283     62282     62283     62284     62285
     62284     62286     62285     62286     62287     62288     62287     62289
     62288     62289     62290     62291     62290     62292     62291     62292
     62293     62294     62293     62295     62294     62295     62296     62297
     62296     62298     62297     62298     62299     62300     62299     62301
     62300     62301     62302     62303     62302     62304     62303     62304
     62305     62306     62305     62307     62306     62307     62308     62309
     62308     62310     62309     62310     62311     62312     62311     62313
     62312     62313     62314     62315     62314     62316     62315     62316
     62317     62318     62317     62319     62318     62319     62320     62321
     62320     62322     62321     62322     62323     62324     62323     62325
     62324     62325     62326     62327     62326     62328     62327     62328
     62329     62330     62329     62331     62330     62331     62332     62333
     62332     62334     62333     62334     62335     62336     62335     62337
     62336     62337     62338     62339     62338     62340     62339     62340
     62341     62342     62341     62343     62342     62343     62344     62345
     62344     62346     62345     62346     62347     62348     62347     62349
     62348     62349     62350     62351     62350     62352     62351     62352
     62353     62354     62353     62355     62354     62355     62356     62357
     62356     62358     62357     62358     62359     62360     62359     62361
     62360     62361     62362     62363     62362     62364     62363     62364
     62365     62366     62365     62367     62366     62367     62368     62369
     62368     62370     62369     62370     62371     62372     62371     62373
     62372     62373     62374     62375     62374     62376     62375     62376
     62377     62378     62377     62379     62378     62379     62380     62381
     62380     62382     62381     62382     62383     62384     62383     62385
     62384     62385     62386     62387     62386     62388     62387     62388
     62389     62390     62389     62391     62390     62391     62392     62393
     62392     62394     62393     62394     62395     62396     62395     62397
     62396     62397     62398     62399     62398     62400     62399     62400
     62401     62402     62401     62403     62402     62403     62404     62405
     62404     62406     62405     62406     62407     62408     62407     62409
     62408     62409     62410     62411     62410     62412     62411     62412
     62413     62414     62413     62415     62414     62415     62416     62417
     62416     62418     62417     62418     62419     62420     62419     62421
     62420     62421     62422     62423     62422     62424     62423     62424
     62425     62426     62425     62427     62426     62427     62428     62429
     62428     62430     62429     62430     62431     62432     62431     62433
     62432     62433     62434     62435     62434     62436     62435     62436
     62437     62438     62437     62439     62438     62439     62440     62441
     62440     62442     62441     62442     62443     62444     62443     62445
     62444     62445     62446     62447     62446     62448     62447     62448
     62449     62450     62449     62451     62450     62451     62452     62453
     62452     62454     62453     62454     62455     62456     62455     62457
     62456     62457     62458     62459     62458     62460     62459     62460
     62461     62462     62461     62463     62462     62463     62464     62465
     62464     62466     62465     62466     62467     62468     62467     62469
     62468     62469     62470     62471     62470     62472     62471     62472
     62473     62474     62473     62475     62474     62475     62476     62477
     62476     62478     62477     62478     62479     62480     62479     62481
     62480     62481     62482     62483     62482     62484     62483     62484
     62485     62486     62485     62487     62486     62487     62488     62489
     62488     62490     62489     62490     62491     62492     62491     62493
     62492     62493     62494     62495     62494     62496     62495     62496
     62497     62498     62497     62499     62498     62499     62500     62501
     62500     62502     62501     62502     62503     62504     62503     62505
     62504     62505     62506     62507     62506     62508     62507     62508
     62509     62510     62509     62511     62510     62511     62512     62513
     62512     62514     62513     62514     62515     62516     62515     62517
     62516     62517     62518     62519     62518     62520     62519     62520
     62521     62522     62521     62523     62522     62523     62524     62525
     62524     62526     62525     62526     62527     62528     62527     62529
     62528     62529     62530     62531     62530     62532     62531     62532
     62533     62534     62533     62535     62534     62535     62536     62537
     62536     62538     62537     62538     62539     62540     62539     62541
     62540     62541     62542     62543     62542     62544     62543     62544
     62545     62546     62545     62547     62546     62547     62548     62549
     62548     62550     62549     62550     62551     62552     62551     62553
     62552     62553     62554     62555     62554     62556     62555     62556
     62557     62558     62557     62559     62558     62559     62560     62561
     62560     62562     62561     62562     62563     62564     62563     62565
     62564     62565     62566     62567     62566     62568     62567     62568
     62569     62570     62569     62571     62570     62571     62572     62573
     62572     62574     62573     62574     62575     62576     62575     62577
     62576     62577     62578     62579     62578     62580     62579     62580
     62581     62582     62581     62583     62582     62583     62584     62585
     62584     62586     62585     62586     62587     62588     62587     62589
     62588     62589     62590     62591     62590     62592     62591     62592
     62593     62594     62593     62595     62594     62595     62596     62597
     62596     62598     62597     62598     62599     62600     62599     62601
     62600     62601     62602     62603     62602     62604     62603     62604
     62605     62606     62605     62607     62606     62607     62608     62609
     62608     62610     62609     62610     62611     62612     62611     62613
     62612     62613     62614     62615     62614     62616     62615     62616
     62617     62618     62617     62619     62618     62619     62620     62621
     62620     62622     62621     62622     62623     62624     62623     62625
     62624     62625     62626     62627     62626     62628     62627     62628
     62629     62630     62629     62631     62630     62631     62632     62633
     62632     62634     62633     62634     62635     62636     62635     62637
     62636     62637     62638     62639     62638     62640     62639     62640
     62641     62642     62641     62643     62642     62643     62644     62645
     62644     62646     62645     62646     62647     62648     62647     62649
     62648     62649     62650     62651     62650     62652     62651     62652
     62653     62654     62653     62655     62654     62655     62656     62657
     62656     62658     62657     62658     62659     62660     62659     62661
     62660     62661     62662     62663     62662     62664     62663     62664
     62665     62666     62665     62667     62666     62667     62668     62669
     62668     62670     62669     62670     62671     62672     62671     62673
     62672     62673     62674     62675     62674     62676     62675     62676
     62677     62678     62677     62679     62678     62679     62680     62681
     62680     62682     62681     62682     62683     62684     62683     62685
     62684     62685     62686     62687     62686     62688     62687     62688
     62689     62690     62689     62691     62690     62691     62692     62693
     62692     62694     62693     62694     62695     62696     62695     62697
     62696     62697     62698     62699     62698     62700     62699     62700
     62701     62702     62701     62703     62702     62703     62704     62705
     62704     62706     62705     62706     62707     62708     62707     62709
     62708     62709     62710     62711     62710     62712     62711     62712
     62713     62714     62713     62715     62714     62715     62716     62717
     62716     62718     62717     62718     62719     62720     62719     62721
     62720     62721     62722     62723     62722     62724     62723     62724
     62725     62726     62725     62727     62726     62727     62728     62729
     62728     62730     62729     62730     62731     62732     62731     62733
     62732     62733     62734     62735     62734     62736     62735     62736
     62737     62738     62737     62739     62738     62739     62740     62741
     62740     62742     62741     62742     62743     62744     62743     62745
     62744     62745     62746     62747     62746     62748     62747     62748
     62749     62750     62749     62751     62750     62751     62752     62753
     62752     62754     62753     62754     62755     62756     62755     62757
     62756     62757     62758     62759     62758     62760     62759     62760
     62761     62762     62761     62763     62762     62763     62764     62765
     62764     62766     62765     62766     62767     62768     62767     62769
     62768     62769     62770     62771     62770     62772     62771     62772
     62773     62774     62773     62775     62774     62775     62776     62777
     62776     62778     62777     62778     62779     62780     62779     62781
     62780     62781     62782     62783     62782     62784     62783     62784
     62785     62786     62785     62787     62786     62787     62788     62789
     62788     62790     62789     62790     62791     62792     62791     62793
     62792     62793     62794     62795     62794     62796     62795     62796
     62797     62798     62797     62799     62798     62799     62800     62801
     62800     62802     62801     62802     62803     62804     62803     62805
     62804     62805     62806     62807     62806     62808     62807     62808
     62809     62810     62809     62811     62810     62811     62812     62813
     62812     62814     62813     62814     62815     62816     62815     62817
     62816     62817     62818     62819     62818     62820     62819     62820
     62821     62822     62821     62823     62822     62823     62824     62825
     62824     62826     62825     62826     62827     62828     62827     62829
     62828     62829     62830     62831     62830     62832     62831     62832
     62833     62834     62833     62835     62834     62835     62836     62837
     62836     62838     62837     62838     62839     62840     62839     62841
     62840     62841     62842     62843     62842     62844     62843     62844
     62845     62846     62845     62847     62846     62847     62848     62849
     62848     62850     62849     62850     62851     62852     62851     62853
     62852     62853     62854     62855     62854     62856     62855     62856
     62857     62858     62857     62859     62858     62859     62860     62861
     62860     62862     62861     62862     62863     62864     62863     62865
     62864     62865     62866     62867     62866     62868     62867     62868
     62869     62870     62869     62871     62870     62871     62872     62873
     62872     62874     62873     62874     62875     62876     62875     62877
     62876     62877     62878     62879     62878     62880     62879     62880
     62881     62882     62881     62883     62882     62883     62884     62885
     62884     62886     62885     62886     62887     62888     62887     62889
     62888     62889     62890     62891     62890     62892     62891     62892
     62893     62894     62893     62895     62894     62895     62896     62897
     62896     62898     62897     62898     62899     62900     62899     62901
     62900     62901     62902     62903     62902     62904     62903     62904
     62905     62906     62905     62907     62906     62907     62908     62909
     62908     62910     62909     62910     62911     62912     62911     62913
     62912     62913     62914     62915     62914     62916     62915     62916
     62917     62918     62917     62919     62918     62919     62920     62921
     62920     62922     62921     62922     62923     62924     62923     62925
     62924     62925     62926     62927     62926     62928     62927     62928
     62929     62930     62929     62931     62930     62931     62932     62933
     62932     62934     62933     62934     62935     62936     62935     62937
     62936     62937     62938     62939     62938     62940     62939     62940
     62941     62942     62941     62943     62942     62943     62944     62945
     62944     62946     62945     62946     62947     62948     62947     62949
     62948     62949     62950     62951     62950     62952     62951     62952
     62953     62954     62953     62955     62954     62955     62956     62957
     62956     62958     62957     62958     62959     62960     62959     62961
     62960     62961     62962     62963     62962     62964     62963     62964
     62965     62966     62965     62967     62966     62967     62968     62969
     62968     62970     62969     62970     62971     62972     62971     62973
     62972     62973     62974     62975     62974     62976     62975     62976
     62977     62978     62977     62979     62978     62979     62980     62981
     62980     62982     62981     62982     62983     62984     62983     62985
     62984     62985     62986     62987     62986     62988     62987     62988
     62989     62990     62989     62991     62990     62991     62992     62993
     62992     62994     62993     62994     62995     62996     62995     62997
     62996     62997     62998     62999     62998     63000     62999     63000
     63001     63002     63001     63003     63002     63003     63004     63005
     63004     63006     63005     63006     63007     63008     63007     63009
     63008     63009     63010     63011     63010     63012     63011     63012
     63013     63014     63013     63015     63014     63015     63016     63017
     63016     63018     63017     63018     63019     63020     63019     63021
     63020     63021     63022     63023     63022     63024     63023     63024
     63025     63026     63025     63027     63026     63027     63028     63029
     63028     63030     63029     63030     63031     63032     63031     63033
     63032     63033     63034     63035     63034     63036     63035     63036
     63037     63038     63037     63039     63038     63039     63040     63041
     63040     63042     63041     63042     63043     63044     63043     63045
     63044     63045     63046     63047     63046     63048     63047     63048
     63049     63050     63049     63051     63050     63051     63052     63053
     63052     63054     63053     63054     63055     63056     63055     63057
     63056     63057     63058     63059     63058     63060     63059     63060
     63061     63062     63061     63063     63062     63063     63064     63065
     63064     63066     63065     63066     63067     63068     63067     63069
     63068     63069     63070     63071     63070     63072     63071     63072
     63073     63074     63073     63075     63074     63075     63076     63077
     63076     63078     63077     63078     63079     63080     63079     63081
     63080     63081     63082     63083     63082     63084     63083     63084
     63085     63086     63085     63087     63086     63087     63088     63089
     63088     63090     63089     63090     63091     63092     63091     63093
     63092     63093     63094     63095     63094     63096     63095     63096
     63097     63098     63097     63099     63098     63099     63100     63101
     63100     63102     63101     63102     63103     63104     63103     63105
     63104     63105     63106     63107     63106     63108     63107     63108
     63109     63110     63109     63111     63110     63111     63112     63113
     63112     63114     63113     63114     63115     63116     63115     63117
     63116     63117     63118     63119     63118     63120     63119     63120
     63121     63122     63121     63123     63122     63123     63124     63125
     63124     63126     63125     63126     63127     63128     63127     63129
     63128     63129     63130     63131     63130     63132     63131     63132
     63133     63134     63133     63135     63134     63135     63136     63137
     63136     63138     63137     63138     63139     63140     63139     63141
     63140     63141     63142     63143     63142     63144     63143     63144
     63145     63146     63145     63147     63146     63147     63148     63149
     63148     63150     63149     63150     63151     63152     63151     63153
     63152     63153     63154     63155     63154     63156     63155     63156
     63157     63158     63157     63159     63158     63159     63160     63161
     63160     63162     63161     63162     63163     63164     63163     63165
     63164     63165     63166     63167     63166     63168     63167     63168
     63169     63170     63169     63171     63170     63171     63172     63173
     63172     63174     63173     63174     63175     63176     63175     63177
     63176     63177     63178     63179     63178     63180     63179     63180
     63181     63182     63181     63183     63182     63183     63184     63185
     63184     63186     63185     63186     63187     63188     63187     63189
     63188     63189     63190     63191     63190     63192     63191     63192
     63193     63194     63193     63195     63194     63195     63196     63197
     63196     63198     63197     63198     63199     63200     63199     63201
     63200     63201     63202     63203     63202     63204     63203     63204
     63205     63206     63205     63207     63206     63207     63208     63209
     63208     63210     63209     63210     63211     63212     63211     63213
     63212     63213     63214     63215     63214     63216     63215     63216
     63217     63218     63217     63219     63218     63219     63220     63221
     63220     63222     63221     63222     63223     63224     63223     63225
     63224     63225     63226     63227     63226     63228     63227     63228
     63229     63230     63229     63231     63230     63231     63232     63233
     63232     63234     63233     63234     63235     63236     63235     63237
     63236     63237     63238     63239     63238     63240     63239     63240
     63241     63242     63241     63243     63242     63243     63244     63245
     63244     63246     63245     63246     63247     63248     63247     63249
     63248     63249     63250     63251     63250     63252     63251     63252
     63253     63254     63253     63255     63254     63255     63256     63257
     63256     63258     63257     63258     63259     63260     63259     63261
     63260     63261     63262     63263     63262     63264     63263     63264
     63265     63266     63265     63267     63266     63267     63268     63269
     63268     63270     63269     63270     63271     63272     63271     63273
     63272     63273     63274     63275     63274     63276     63275     63276
     63277     63278     63277     63279     63278     63279     63280     63281
     63280     63282     63281     63282     63283     63284     63283     63285
     63284     63285     63286     63287     63286     63288     63287     63288
     63289     63290     63289     63291     63290     63291     63292     63293
     63292     63294     63293     63294     63295     63296     63295     63297
     63296     63297     63298     63299     63298     63300     63299     63300
     63301     63302     63301     63303     63302     63303     63304     63305
     63304     63306     63305     63306     63307     63308     63307     63309
     63308     63309     63310     63311     63310     63312     63311     63312
     63313     63314     63313     63315     63314     63315     63316     63317
     63316     63318     63317     63318     63319     63320     63319     63321
     63320     63321     63322     63323     63322     63324     63323     63324
     63325     63326     63325     63327     63326     63327     63328     63329
     63328     63330     63329     63330     63331     63332     63331     63333
     63332     63333     63334     63335     63334     63336     63335     63336
     63337     63338     63337     63339     63338     63339     63340     63341
     63340     63342     63341     63342     63343     63344     63343     63345
     63344     63345     63346     63347     63346     63348     63347     63348
     63349     63350     63349     63351     63350     63351     63352     63353
     63352     63354     63353     63354     63355     63356     63355     63357
     63356     63357     63358     63359     63358     63360     63359     63360
     63361     63362     63361     63363     63362     63363     63364     63365
     63364     63366     63365     63366     63367     63368     63367     63369
     63368     63369     63370     63371     63370     63372     63371     63372
     63373     63374     63373     63375     63374     63375     63376     63377
     63376     63378     63377     63378     63379     63380     63379     63381
     63380     63381     63382     63383     63382     63384     63383     63384
     63385     63386     63385     63387     63386     63387     63388     63389
     63388     63390     63389     63390     63391     63392     63391     63393
     63392     63393     63394     63395     63394     63396     63395     63396
     63397     63398     63397     63399     63398     63399     63400     63401
     63400     63402     63401     63402     63403     63404     63403     63405
     63404     63405     63406     63407     63406     63408     63407     63408
     63409     63410     63409     63411     63410     63411     63412     63413
     63412     63414     63413     63414     63415     63416     63415     63417
     63416     63417     63418     63419     63418     63420     63419     63420
     63421     63422     63421     63423     63422     63423     63424     63425
     63424     63426     63425     63426     63427     63428     63427     63429
     63428     63429     63430     63431     63430     63432     63431     63432
     63433     63434     63433     63435     63434     63435     63436     63437
     63436     63438     63437     63438     63439     63440     63439     63441
     63440     63441     63442     63443     63442     63444     63443     63444
     63445     63446     63445     63447     63446     63447     63448     63449
     63448     63450     63449     63450     63451     63452     63451     63453
     63452     63453     63454     63455     63454     63456     63455     63456
     63457     63458     63457     63459     63458     63459     63460     63461
     63460     63462     63461     63462     63463     63464     63463     63465
     63464     63465     63466     63467     63466     63468     63467     63468
     63469     63470     63469     63471     63470     63471     63472     63473
     63472     63474     63473     63474     63475     63476     63475     63477
     63476     63477     63478     63479     63478     63480     63479     63480
     63481     63482     63481     63483     63482     63483     63484     63485
     63484     63486     63485     63486     63487     63488     63487     63489
     63488     63489     63490     63491     63490     63492     63491     63492
     63493     63494     63493     63495     63494     63495     63496     63497
     63496     63498     63497     63498     63499     63500     63499     63501
     63500     63501     63502     63503     63502     63504     63503     63504
     63505     63506     63505     63507     63506     63507     63508     63509
     63508     63510     63509     63510     63511     63512     63511     63513
     63512     63513     63514     63515     63514     63516     63515     63516
     63517     63518     63517     63519     63518     63519     63520     63521
     63520     63522     63521     63522     63523     63524     63523     63525
     63524     63525     63526     63527     63526     63528     63527     63528
     63529     63530     63529     63531     63530     63531     63532     63533
     63532     63534     63533     63534     63535     63536     63535     63537
     63536     63537     63538     63539     63538     63540     63539     63540
     63541     63542     63541     63543     63542     63543     63544     63545
     63544     63546     63545     63546     63547     63548     63547     63549
     63548     63549     63550     63551     63550     63552     63551     63552
     63553     63554     63553     63555     63554     63555     63556     63557
     63556     63558     63557     63558     63559     63560     63559     63561
     63560     63561     63562     63563     63562     63564     63563     63564
     63565     63566     63565     63567     63566     63567     63568     63569
     63568     63570     63569     63570     63571     63572     63571     63573
     63572     63573     63574     63575     63574     63576     63575     63576
     63577     63578     63577     63579     63578     63579     63580     63581
     63580     63582     63581     63582     63583     63584     63583     63585
     63584     63585     63586     63587     63586     63588     63587     63588
     63589     63590     63589     63591     63590     63591     63592     63593
     63592     63594     63593     63594     63595     63596     63595     63597
     63596     63597     63598     63599     63598     63600     63599     63600
     63601     63602     63601     63603     63602     63603     63604     63605
     63604     63606     63605     63606     63607     63608     63607     63609
     63608     63609     63610     63611     63610     63612     63611     63612
     63613     63614     63613     63615     63614     63615     63616     63617
     63616     63618     63617     63618     63619     63620     63619     63621
     63620     63621     63622     63623     63622     63624     63623     63624
     63625     63626     63625     63627     63626     63627     63628     63629
     63628     63630     63629     63630     63631     63632     63631     63633
     63632     63633     63634     63635     63634     63636     63635     63636
     63637     63638     63637     63639     63638     63639     63640     63641
     63640     63642     63641     63642     63643     63644     63643     63645
     63644     63645     63646     63647     63646     63648     63647     63648
     63649     63650     63649     63651     63650     63651     63652     63653
     63652     63654     63653     63654     63655     63656     63655     63657
     63656     63657     63658     63659     63658     63660     63659     63660
     63661     63662     63661     63663     63662     63663     63664     63665
     63664     63666     63665     63666     63667     63668     63667     63669
     63668     63669     63670     63671     63670     63672     63671     63672
     63673     63674     63673     63675     63674     63675     63676     63677
     63676     63678     63677     63678     63679     63680     63679     63681
     63680     63681     63682     63683     63682     63684     63683     63684
     63685     63686     63685     63687     63686     63687     63688     63689
     63688     63690     63689     63690     63691     63692     63691     63693
     63692     63693     63694     63695     63694     63696     63695     63696
     63697     63698     63697     63699     63698     63699     63700     63701
     63700     63702     63701     63702     63703     63704     63703     63705
     63704     63705     63706     63707     63706     63708     63707     63708
     63709     63710     63709     63711     63710     63711     63712     63713
     63712     63714     63713     63714     63715     63716     63715     63717
     63716     63717     63718     63719     63718     63720     63719     63720
     63721     63722     63721     63723     63722     63723     63724     63725
     63724     63726     63725     63726     63727     63728     63727     63729
     63728     63729     63730     63731     63730     63732     63731     63732
     63733     63734     63733     63735     63734     63735     63736     63737
     63736     63738     63737     63738     63739     63740     63739     63741
     63740     63741     63742     63743     63742     63744     63743     63744
     63745     63746     63745     63747     63746     63747     63748     63749
     63748     63750     63749     63750     63751     63752     63751     63753
     63752     63753     63754     63755     63754     63756     63755     63756
     63757     63758     63757     63759     63758     63759     63760     63761
     63760     63762     63761     63762     63763     63764     63763     63765
     63764     63765     63766     63767     63766     63768     63767     63768
     63769     63770     63769     63771     63770     63771     63772     63773
     63772     63774     63773     63774     63775     63776     63775     63777
     63776     63777     63778     63779     63778     63780     63779     63780
     63781     63782     63781     63783     63782     63783     63784     63785
     63784     63786     63785     63786     63787     63788     63787     63789
     63788     63789     63790     63791     63790     63792     63791     63792
     63793     63794     63793     63795     63794     63795     63796     63797
     63796     63798     63797     63798     63799     63800     63799     63801
     63800     63801     63802     63803     63802     63804     63803     63804
     63805     63806     63805     63807     63806     63807     63808     63809
     63808     63810     63809     63810     63811     63812     63811     63813
     63812     63813     63814     63815     63814     63816     63815     63816
     63817     63818     63817     63819     63818     63819     63820     63821
     63820     63822     63821     63822     63823     63824     63823     63825
     63824     63825     63826     63827     63826     63828     63827     63828
     63829     63830     63829     63831     63830     63831     63832     63833
     63832     63834     63833     63834     63835     63836     63835     63837
     63836     63837     63838     63839     63838     63840     63839     63840
     63841     63842     63841     63843     63842     63843     63844     63845
     63844     63846     63845     63846     63847     63848     63847     63849
     63848     63849     63850     63851     63850     63852     63851     63852
     63853     63854     63853     63855     63854     63855     63856     63857
     63856     63858     63857     63858     63859     63860     63859     63861
     63860     63861     63862     63863     63862     63864     63863     63864
     63865     63866     63865     63867     63866     63867     63868     63869
     63868     63870     63869     63870     63871     63872     63871     63873
     63872     63873     63874     63875     63874     63876     63875     63876
     63877     63878     63877     63879     63878     63879     63880     63881
     63880     63882     63881     63882     63883     63884     63883     63885
     63884     63885     63886     63887     63886     63888     63887     63888
     63889     63890     63889     63891     63890     63891     63892     63893
     63892     63894     63893     63894     63895     63896     63895     63897
     63896     63897     63898     63899     63898     63900     63899     63900
     63901     63902     63901     63903     63902     63903     63904     63905
     63904     63906     63905     63906     63907     63908     63907     63909
     63908     63909     63910     63911     63910     63912     63911     63912
     63913     63914     63913     63915     63914     63915     63916     63917
     63916     63918     63917     63918     63919     63920     63919     63921
     63920     63921     63922     63923     63922     63924     63923     63924
     63925     63926     63925     63927     63926     63927     63928     63929
     63928     63930     63929     63930     63931     63932     63931     63933
     63932     63933     63934     63935     63934     63936     63935     63936
     63937     63938     63937     63939     63938     63939     63940     63941
     63940     63942     63941     63942     63943     63944     63943     63945
     63944     63945     63946     63947     63946     63948     63947     63948
     63949     63950     63949     63951     63950     63951     63952     63953
     63952     63954     63953     63954     63955     63956     63955     63957
     63956     63957     63958     63959     63958     63960     63959     63960
     63961     63962     63961     63963     63962     63963     63964     63965
     63964     63966     63965     63966     63967     63968     63967     63969
     63968     63969     63970     63971     63970     63972     63971     63972
     63973     63974     63973     63975     63974     63975     63976     63977
     63976     63978     63977     63978     63979     63980     63979     63981
     63980     63981     63982     63983     63982     63984     63983     63984
     63985     63986     63985     63987     63986     63987     63988     63989
     63988     63990     63989     63990     63991     63992     63991     63993
     63992     63993     63994     63995     63994     63996     63995     63996
     63997     63998     63997     63999     63998     63999     64000     64001
     64000     64002     64001     64002     64003     64004     64003     64005
     64004     64005     64006     64007     64006     64008     64007     64008
     64009     64010     64009     64011     64010     64011     64012     64013
     64012     64014     64013     64014     64015     64016     64015     64017
     64016     64017     64018     64019     64018     64020     64019     64020
     64021     64022     64021     64023     64022     64023     64024     64025
     64024     64026     64025     64026     64027     64028     64027     64029
     64028     64029     64030     64031     64030     64032     64031     64032
     64033     64034     64033     64035     64034     64035     64036     64037
     64036     64038     64037     64038     64039     64040     64039     64041
     64040     64041     64042     64043     64042     64044     64043     64044
     64045     64046     64045     64047     64046     64047     64048     64049
     64048     64050     64049     64050     64051     64052     64051     64053
     64052     64053     64054     64055     64054     64056     64055     64056
     64057     64058     64057     64059     64058     64059     64060     64061
     64060     64062     64061     64062     64063     64064     64063     64065
     64064     64065     64066     64067     64066     64068     64067     64068
     64069     64070     64069     64071     64070     64071     64072     64073
     64072     64074     64073     64074     64075     64076     64075     64077
     64076     64077     64078     64079     64078     64080     64079     64080
     64081     64082     64081     64083     64082     64083     64084     64085
     64084     64086     64085     64086     64087     64088     64087     64089
     64088     64089     64090     64091     64090     64092     64091     64092
     64093     64094     64093     64095     64094     64095     64096     64097
     64096     64098     64097     64098     64099     64100     64099     64101
     64100     64101     64102     64103     64102     64104     64103     64104
     64105     64106     64105     64107     64106     64107     64108     64109
     64108     64110     64109     64110     64111     64112     64111     64113
     64112     64113     64114     64115     64114     64116     64115     64116
     64117     64118     64117     64119     64118     64119     64120     64121
     64120     64122     64121     64122     64123     64124     64123     64125
     64124     64125     64126     64127     64126     64128     64127     64128
     64129     64130     64129     64131     64130     64131     64132     64133
     64132     64134     64133     64134     64135     64136     64135     64137
     64136     64137     64138     64139     64138     64140     64139     64140
     64141     64142     64141     64143     64142     64143     64144     64145
     64144     64146     64145     64146     64147     64148     64147     64149
     64148     64149     64150     64151     64150     64152     64151     64152
     64153     64154     64153     64155     64154     64155     64156     64157
     64156     64158     64157     64158     64159     64160     64159     64161
     64160     64161     64162     64163     64162     64164     64163     64164
     64165     64166     64165     64167     64166     64167     64168     64169
     64168     64170     64169     64170     64171     64172     64171     64173
     64172     64173     64174     64175     64174     64176     64175     64176
     64177     64178     64177     64179     64178     64179     64180     64181
     64180     64182     64181     64182     64183     64184     64183     64185
     64184     64185     64186     64187     64186     64188     64187     64188
     64189     64190     64189     64191     64190     64191     64192     64193
     64192     64194     64193     64194     64195     64196     64195     64197
     64196     64197     64198     64199     64198     64200     64199     64200
     64201     64202     64201     64203     64202     64203     64204     64205
     64204     64206     64205     64206     64207     64208     64207     64209
     64208     64209     64210     64211     64210     64212     64211     64212
     64213     64214     64213     64215     64214     64215     64216     64217
     64216     64218     64217     64218     64219     64220     64219     64221
     64220     64221     64222     64223     64222     64224     64223     64224
     64225     64226     64225     64227     64226     64227     64228     64229
     64228     64230     64229     64230     64231     64232     64231     64233
     64232     64233     64234     64235     64234     64236     64235     64236
     64237     64238     64237     64239     64238     64239     64240     64241
     64240     64242     64241     64242     64243     64244     64243     64245
     64244     64245     64246     64247     64246     64248     64247     64248
     64249     64250     64249     64251     64250     64251     64252     64253
     64252     64254     64253     64254     64255     64256     64255     64257
     64256     64257     64258     64259     64258     64260     64259     64260
     64261     64262     64261     64263     64262     64263     64264     64265
     64264     64266     64265     64266     64267     64268     64267     64269
     64268     64269     64270     64271     64270     64272     64271     64272
     64273     64274     64273     64275     64274     64275     64276     64277
     64276     64278     64277     64278     64279     64280     64279     64281
     64280     64281     64282     64283     64282     64284     64283     64284
     64285     64286     64285     64287     64286     64287     64288     64289
     64288     64290     64289     64290     64291     64292     64291     64293
     64292     64293     64294     64295     64294     64296     64295     64296
     64297     64298     64297     64299     64298     64299     64300     64301
     64300     64302     64301     64302     64303     64304     64303     64305
     64304     64305     64306     64307     64306     64308     64307     64308
     64309     64310     64309     64311     64310     64311     64312     64313
     64312     64314     64313     64314     64315     64316     64315     64317
     64316     64317     64318     64319     64318     64320     64319     64320
     64321     64322     64321     64323     64322     64323     64324     64325
     64324     64326     64325     64326     64327     64328     64327     64329
     64328     64329     64330     64331     64330     64332     64331     64332
     64333     64334     64333     64335     64334     64335     64336     64337
     64336     64338     64337     64338     64339     64340     64339     64341
     64340     64341     64342     64343     64342     64344     64343     64344
     64345     64346     64345     64347     64346     64347     64348     64349
     64348     64350     64349     64350     64351     64352     64351     64353
     64352     64353     64354     64355     64354     64356     64355     64356
     64357     64358     64357     64359     64358     64359     64360     64361
     64360     64362     64361     64362     64363     64364     64363     64365
     64364     64365     64366     64367     64366     64368     64367     64368
     64369     64370     64369     64371     64370     64371     64372     64373
     64372     64374     64373     64374     64375     64376     64375     64377
     64376     64377     64378     64379     64378     64380     64379     64380
     64381     64382     64381     64383     64382     64383     64384     64385
     64384     64386     64385     64386     64387     64388     64387     64389
     64388     64389     64390     64391     64390     64392     64391     64392
     64393     64394     64393     64395     64394     64395     64396     64397
     64396     64398     64397     64398     64399     64400     64399     64401
     64400     64401     64402     64403     64402     64404     64403     64404
     64405     64406     64405     64407     64406     64407     64408     64409
     64408     64410     64409     64410     64411     64412     64411     64413
     64412     64413     64414     64415     64414     64416     64415     64416
     64417     64418     64417     64419     64418     64419     64420     64421
     64420     64422     64421     64422     64423     64424     64423     64425
     64424     64425     64426     64427     64426     64428     64427     64428
     64429     64430     64429     64431     64430     64431     64432     64433
     64432     64434     64433     64434     64435     64436     64435     64437
     64436     64437     64438     64439     64438     64440     64439     64440
     64441     64442     64441     64443     64442     64443     64444     64445
     64444     64446     64445     64446     64447     64448     64447     64449
     64448     64449     64450     64451     64450     64452     64451     64452
     64453     64454     64453     64455     64454     64455     64456     64457
     64456     64458     64457     64458     64459     64460     64459     64461
     64460     64461     64462     64463     64462     64464     64463     64464
     64465     64466     64465     64467     64466     64467     64468     64469
     64468     64470     64469     64470     64471     64472     64471     64473
     64472     64473     64474     64475     64474     64476     64475     64476
     64477     64478     64477     64479     64478     64479     64480     64481
     64480     64482     64481     64482     64483     64484     64483     64485
     64484     64485     64486     64487     64486     64488     64487     64488
     64489     64490     64489     64491     64490     64491     64492     64493
     64492     64494     64493     64494     64495     64496     64495     64497
     64496     64497     64498     64499     64498     64500     64499     64500
     64501     64502     64501     64503     64502     64503     64504     64505
     64504     64506     64505     64506     64507     64508     64507     64509
     64508     64509     64510     64511     64510     64512     64511     64512
     64513     64514     64513     64515     64514     64515     64516     64517
     64516     64518     64517     64518     64519     64520     64519     64521
     64520     64521     64522     64523     64522     64524     64523     64524
     64525     64526     64525     64527     64526     64527     64528     64529
     64528     64530     64529     64530     64531     64532     64531     64533
     64532     64533     64534     64535     64534     64536     64535     64536
     64537     64538     64537     64539     64538     64539     64540     64541
     64540     64542     64541     64542     64543     64544     64543     64545
     64544     64545     64546     64547     64546     64548     64547     64548
     64549     64550     64549     64551     64550     64551     64552     64553
     64552     64554     64553     64554     64555     64556     64555     64557
     64556     64557     64558     64559     64558     64560     64559     64560
     64561     64562     64561     64563     64562     64563     64564     64565
     64564     64566     64565     64566     64567     64568     64567     64569
     64568     64569     64570     64571     64570     64572     64571     64572
     64573     64574     64573     64575     64574     64575     64576     64577
     64576     64578     64577     64578     64579     64580     64579     64581
     64580     64581     64582     64583     64582     64584     64583     64584
     64585     64586     64585     64587     64586     64587     64588     64589
     64588     64590     64589     64590     64591     64592     64591     64593
     64592     64593     64594     64595     64594     64596     64595     64596
     64597     64598     64597     64599     64598     64599     64600     64601
     64600     64602     64601     64602     64603     64604     64603     64605
     64604     64605     64606     64607     64606     64608     64607     64608
     64609     64610     64609     64611     64610     64611     64612     64613
     64612     64614     64613     64614     64615     64616     64615     64617
     64616     64617     64618     64619     64618     64620     64619     64620
     64621     64622     64621     64623     64622     64623     64624     64625
     64624     64626     64625     64626     64627     64628     64627     64629
     64628     64629     64630     64631     64630     64632     64631     64632
     64633     64634     64633     64635     64634     64635     64636     64637
     64636     64638     64637     64638     64639     64640     64639     64641
     64640     64641     64642     64643     64642     64644     64643     64644
     64645     64646     64645     64647     64646     64647     64648     64649
     64648     64650     64649     64650     64651     64652     64651     64653
     64652     64653     64654     64655     64654     64656     64655     64656
     64657     64658     64657     64659     64658     64659     64660     64661
     64660     64662     64661     64662     64663     64664     64663     64665
     64664     64665     64666     64667     64666     64668     64667     64668
     64669     64670     64669     64671     64670     64671     64672     64673
     64672     64674     64673     64674     64675     64676     64675     64677
     64676     64677     64678     64679     64678     64680     64679     64680
     64681     64682     64681     64683     64682     64683     64684     64685
     64684     64686     64685     64686     64687     64688     64687     64689
     64688     64689     64690     64691     64690     64692     64691     64692
     64693     64694     64693     64695     64694     64695     64696     64697
     64696     64698     64697     64698     64699     64700     64699     64701
     64700     64701     64702     64703     64702     64704     64703     64704
     64705     64706     64705     64707     64706     64707     64708     64709
     64708     64710     64709     64710     64711     64712     64711     64713
     64712     64713     64714     64715     64714     64716     64715     64716
     64717     64718     64717     64719     64718     64719     64720     64721
     64720     64722     64721     64722     64723     64724     64723     64725
     64724     64725     64726     64727     64726     64728     64727     64728
     64729     64730     64729     64731     64730     64731     64732     64733
     64732     64734     64733     64734     64735     64736     64735     64737
     64736     64737     64738     64739     64738     64740     64739     64740
     64741     64742     64741     64743     64742     64743     64744     64745
     64744     64746     64745     64746     64747     64748     64747     64749
     64748     64749     64750     64751     64750     64752     64751     64752
     64753     64754     64753     64755     64754     64755     64756     64757
     64756     64758     64757     64758     64759     64760     64759     64761
     64760     64761     64762     64763     64762     64764     64763     64764
     64765     64766     64765     64767     64766     64767     64768     64769
     64768     64770     64769     64770     64771     64772     64771     64773
     64772     64773     64774     64775     64774     64776     64775     64776
     64777     64778     64777     64779     64778     64779     64780     64781
     64780     64782     64781     64782     64783     64784     64783     64785
     64784     64785     64786     64787     64786     64788     64787     64788
     64789     64790     64789     64791     64790     64791     64792     64793
     64792     64794     64793     64794     64795     64796     64795     64797
     64796     64797     64798     64799     64798     64800     64799     64800
     64801     64802     64801     64803     64802     64803     64804     64805
     64804     64806     64805     64806     64807     64808     64807     64809
     64808     64809     64810     64811     64810     64812     64811     64812
     64813     64814     64813     64815     64814     64815     64816     64817
     64816     64818     64817     64818     64819     64820     64819     64821
     64820     64821     64822     64823     64822     64824     64823     64824
     64825     64826     64825     64827     64826     64827     64828     64829
     64828     64830     64829     64830     64831     64832     64831     64833
     64832     64833     64834     64835     64834     64836     64835     64836
     64837     64838     64837     64839     64838     64839     64840     64841
     64840     64842     64841     64842     64843     64844     64843     64845
     64844     64845     64846     64847     64846     64848     64847     64848
     64849     64850     64849     64851     64850     64851     64852     64853
     64852     64854     64853     64854     64855     64856     64855     64857
     64856     64857     64858     64859     64858     64860     64859     64860
     64861     64862     64861     64863     64862     64863     64864     64865
     64864     64866     64865     64866     64867     64868     64867     64869
     64868     64869     64870     64871     64870     64872     64871     64872
     64873     64874     64873     64875     64874     64875     64876     64877
     64876     64878     64877     64878     64879     64880     64879     64881
     64880     64881     64882     64883     64882     64884     64883     64884
     64885     64886     64885     64887     64886     64887     64888     64889
     64888     64890     64889     64890     64891     64892     64891     64893
     64892     64893     64894     64895     64894     64896     64895     64896
     64897     64898     64897     64899     64898     64899     64900     64901
     64900     64902     64901     64902     64903     64904     64903     64905
     64904     64905     64906     64907     64906     64908     64907     64908
     64909     64910     64909     64911     64910     64911     64912     64913
     64912     64914     64913     64914     64915     64916     64915     64917
     64916     64917     64918     64919     64918     64920     64919     64920
     64921     64922     64921     64923     64922     64923     64924     64925
     64924     64926     64925     64926     64927     64928     64927     64929
     64928     64929     64930     64931     64930     64932     64931     64932
     64933     64934     64933     64935     64934     64935     64936     64937
     64936     64938     64937     64938     64939     64940     64939     64941
     64940     64941     64942     64943     64942     64944     64943     64944
     64945     64946     64945     64947     64946     64947     64948     64949
     64948     64950     64949     64950     64951     64952     64951     64953
     64952     64953     64954     64955     64954     64956     64955     64956
     64957     64958     64957     64959     64958     64959     64960     64961
     64960     64962     64961     64962     64963     64964     64963     64965
     64964     64965     64966     64967     64966     64968     64967     64968
     64969     64970     64969     64971     64970     64971     64972     64973
     64972     64974     64973     64974     64975     64976     64975     64977
     64976     64977     64978     64979     64978     64980     64979     64980
     64981     64982     64981     64983     64982     64983     64984     64985
     64984     64986     64985     64986     64987     64988     64987     64989
     64988     64989     64990     64991     64990     64992     64991     64992
     64993     64994     64993     64995     64994     64995     64996     64997
     64996     64998     64997     64998     64999     65000     64999     65001
     65000     65001     65002     65003     65002     65004     65003     65004
     65005     65006     65005     65007     65006     65007     65008     65009
     65008     65010     65009     65010     65011     65012     65011     65013
     65012     65013     65014     65015     65014     65016     65015     65016
     65017     65018     65017     65019     65018     65019     65020     65021
     65020     65022     65021     65022     65023     65024     65023     65025
     65024     65025     65026     65027     65026     65028     65027     65028
     65029     65030     65029     65031     65030     65031     65032     65033
     65032     65034     65033     65034     65035     65036     65035     65037
     65036     65037     65038     65039     65038     65040     65039     65040
     65041     65042     65041     65043     65042     65043     65044     65045
     65044     65046     65045     65046     65047     65048     65047     65049
     65048     65049     65050     65051     65050     65052     65051     65052
     65053     65054     65053     65055     65054     65055     65056     65057
     65056     65058     65057     65058     65059     65060     65059     65061
     65060     65061     65062     65063     65062     65064     65063     65064
     65065     65066     65065     65067     65066     65067     65068     65069
     65068     65070     65069     65070     65071     65072     65071     65073
     65072     65073     65074     65075     65074     65076     65075     65076
     65077     65078     65077     65079     65078     65079     65080     65081
     65080     65082     65081     65082     65083     65084     65083     65085
     65084     65085     65086     65087     65086     65088     65087     65088
     65089     65090     65089     65091     65090     65091     65092     65093
     65092     65094     65093     65094     65095     65096     65095     65097
     65096     65097     65098     65099     65098     65100     65099     65100
     65101     65102     65101     65103     65102     65103     65104     65105
     65104     65106     65105     65106     65107     65108     65107     65109
     65108     65109     65110     65111     65110     65112     65111     65112
     65113     65114     65113     65115     65114     65115     65116     65117
     65116     65118     65117     65118     65119     65120     65119     65121
     65120     65121     65122     65123     65122     65124     65123     65124
     65125     65126     65125     65127     65126     65127     65128     65129
     65128     65130     65129     65130     65131     65132     65131     65133
     65132     65133     65134     65135     65134     65136     65135     65136
     65137     65138     65137     65139     65138     65139     65140     65141
     65140     65142     65141     65142     65143     65144     65143     65145
     65144     65145     65146     65147     65146     65148     65147     65148
     65149     65150     65149     65151     65150     65151     65152     65153
     65152     65154     65153     65154     65155     65156     65155     65157
     65156     65157     65158     65159     65158     65160     65159     65160
     65161     65162     65161     65163     65162     65163     65164     65165
     65164     65166     65165     65166     65167     65168     65167     65169
     65168     65169     65170     65171     65170     65172     65171     65172
     65173     65174     65173     65175     65174     65175     65176     65177
     65176     65178     65177     65178     65179     65180     65179     65181
     65180     65181     65182     65183     65182     65184     65183     65184
     65185     65186     65185     65187     65186     65187     65188     65189
     65188     65190     65189     65190     65191     65192     65191     65193
     65192     65193     65194     65195     65194     65196     65195     65196
     65197     65198     65197     65199     65198     65199     65200     65201
     65200     65202     65201     65202     65203     65204     65203     65205
     65204     65205     65206     65207     65206     65208     65207     65208
     65209     65210     65209     65211     65210     65211     65212     65213
     65212     65214     65213     65214     65215     65216     65215     65217
     65216     65217     65218     65219     65218     65220     65219     65220
     65221     65222     65221     65223     65222     65223     65224     65225
     65224     65226     65225     65226     65227     65228     65227     65229
     65228     65229     65230     65231     65230     65232     65231     65232
     65233     65234     65233     65235     65234     65235     65236     65237
     65236     65238     65237     65238     65239     65240     65239     65241
     65240     65241     65242     65243     65242     65244     65243     65244
     65245     65246     65245     65247     65246     65247     65248     65249
     65248     65250     65249     65250     65251     65252     65251     65253
     65252     65253     65254     65255     65254     65256     65255     65256
     65257     65258     65257     65259     65258     65259     65260     65261
     65260     65262     65261     65262     65263     65264     65263     65265
     65264     65265     65266     65267     65266     65268     65267     65268
     65269     65270     65269     65271     65270     65271     65272     65273
     65272     65274     65273     65274     65275     65276     65275     65277
     65276     65277     65278     65279     65278     65280     65279     65280
     65281     65282     65281     65283     65282     65283     65284     65285
     65284     65286     65285     65286     65287     65288     65287     65289
     65288     65289     65290     65291     65290     65292     65291     65292
     65293     65294     65293     65295     65294     65295     65296     65297
     65296     65298     65297     65298     65299     65300     65299     65301
     65300     65301     65302     65303     65302     65304     65303     65304
     65305     65306     65305     65307     65306     65307     65308     65309
     65308     65310     65309     65310     65311     65312     65311     65313
     65312     65313     65314     65315     65314     65316     65315     65316
     65317     65318     65317     65319     65318     65319     65320     65321
     65320     65322     65321     65322     65323     65324     65323     65325
     65324     65325     65326     65327     65326     65328     65327     65328
     65329     65330     65329     65331     65330     65331     65332     65333
     65332     65334     65333     65334     65335     65336     65335     65337
     65336     65337     65338     65339     65338     65340     65339     65340
     65341     65342     65341     65343     65342     65343     65344     65345
     65344     65346     65345     65346     65347     65348     65347     65349
     65348     65349     65350     65351     65350     65352     65351     65352
     65353     65354     65353     65355     65354     65355     65356     65357
     65356     65358     65357     65358     65359     65360     65359     65361
     65360     65361     65362     65363     65362     65364     65363     65364
     65365     65366     65365     65367     65366     65367     65368     65369
     65368     65370     65369     65370     65371     65372     65371     65373
     65372     65373     65374     65375     65374     65376     65375     65376
     65377     65378     65377     65379     65378     65379     65380     65381
     65380     65382     65381     65382     65383     65384     65383     65385
     65384     65385     65386     65387     65386     65388     65387     65388
     65389     65390     65389     65391     65390     65391     65392     65393
     65392     65394     65393     65394     65395     65396     65395     65397
     65396     65397     65398     65399     65398     65400     65399     65400
     65401     65402     65401     65403     65402     65403     65404     65405
     65404     65406     65405     65406     65407     65408     65407     65409
     65408     65409     65410     65411     65410     65412     65411     65412
     65413     65414     65413     65415     65414     65415     65416     65417
     65416     65418     65417     65418     65419     65420     65419     65421
     65420     65421     65422     65423     65422     65424     65423     65424
     65425     65426     65425     65427     65426     65427     65428     65429
     65428     65430     65429     65430     65431     65432     65431     65433
     65432     65433     65434     65435     65434     65436     65435     65436
     65437     65438     65437     65439     65438     65439     65440     65441
     65440     65442     65441     65442     65443     65444     65443     65445
     65444     65445     65446     65447     65446     65448     65447     65448
     65449     65450     65449     65451     65450     65451     65452     65453
     65452     65454     65453     65454     65455     65456     65455     65457
     65456     65457     65458     65459     65458     65460     65459     65460
     65461     65462     65461     65463     65462     65463     65464     65465
     65464     65466     65465     65466     65467     65468     65467     65469
     65468     65469     65470     65471     65470     65472     65471     65472
     65473     65474     65473     65475     65474     65475     65476     65477
     65476     65478     65477     65478     65479     65480     65479     65481
     65480     65481     65482     65483     65482     65484     65483     65484
     65485     65486     65485     65487     65486     65487     65488     65489
     65488     65490     65489     65490     65491     65492     65491     65493
     65492     65493     65494     65495     65494     65496     65495     65496
     65497     65498     65497     65499     65498     65499     65500     65501
     65500     65502     65501     65502     65503     65504     65503     65505
     65504     65505     65506     65507     65506     65508     65507     65508
     65509     65510     65509     65511     65510     65511     65512     65513
     65512     65514     65513     65514     65515     65516     65515     65517
     65516     65517     65518     65519     65518     65520     65519     65520
     65521     65522     65521     65523     65522     65523     65524     65525
     65524     65526     65525     65526     65527     65528     65527     65529
     65528     65529     65530     65531     65530     65532     65531     65532
     65533     65534     65533     65535     65534     65535     65536     65537
     65536     65538     65537     65538     65539     65540     65539     65541
     65540     65541     65542     65543     65542     65544     65543     65544
     65545     65546     65545     65547     65546     65547     65548     65549
     65548     65550     65549     65550     65551     65552     65551     65553
     65552     65553     65554     65555     65554     65556     65555     65556
     65557     65558     65557     65559     65558     65559     65560     65561
     65560     65562     65561     65562     65563     65564     65563     65565
     65564     65565     65566     65567     65566     65568     65567     65568
     65569     65570     65569     65571     65570     65571     65572     65573
     65572     65574     65573     65574     65575     65576     65575     65577
     65576     65577     65578     65579     65578     65580     65579     65580
     65581     65582     65581     65583     65582     65583     65584     65585
     65584     65586     65585     65586     65587     65588     65587     65589
     65588     65589     65590     65591     65590     65592     65591     65592
     65593     65594     65593     65595     65594     65595     65596     65597
     65596     65598     65597     65598     65599     65600     65599     65601
     65600     65601     65602     65603     65602     65604     65603     65604
     65605     65606     65605     65607     65606     65607     65608     65609
     65608     65610     65609     65610     65611     65612     65611     65613
     65612     65613     65614     65615     65614     65616     65615     65616
     65617     65618     65617     65619     65618     65619     65620     65621
     65620     65622     65621     65622     65623     65624     65623     65625
     65624     65625     65626     65627     65626     65628     65627     65628
     65629     65630     65629     65631     65630     65631     65632     65633
     65632     65634     65633     65634     65635     65636     65635     65637
     65636     65637     65638     65639     65638     65640     65639     65640
     65641     65642     65641     65643     65642     65643     65644     65645
     65644     65646     65645     65646     65647     65648     65647     65649
     65648     65649     65650     65651     65650     65652     65651     65652
     65653     65654     65653     65655     65654     65655     65656     65657
     65656     65658     65657     65658     65659     65660     65659     65661
     65660     65661     65662     65663     65662     65664     65663     65664
     65665     65666     65665     65667     65666     65667     65668     65669
     65668     65670     65669     65670     65671     65672     65671     65673
     65672     65673     65674     65675     65674     65676     65675     65676
     65677     65678     65677     65679     65678     65679     65680     65681
     65680     65682     65681     65682     65683     65684     65683     65685
     65684     65685     65686     65687     65686     65688     65687     65688
     65689     65690     65689     65691     65690     65691     65692     65693
     65692     65694     65693     65694     65695     65696     65695     65697
     65696     65697     65698     65699     65698     65700     65699     65700
     65701     65702     65701     65703     65702     65703     65704     65705
     65704     65706     65705     65706     65707     65708     65707     65709
     65708     65709     65710     65711     65710     65712     65711     65712
     65713     65714     65713     65715     65714     65715     65716     65717
     65716     65718     65717     65718     65719     65720     65719     65721
     65720     65721     65722     65723     65722     65724     65723     65724
     65725     65726     65725     65727     65726     65727     65728     65729
     65728     65730     65729     65730     65731     65732     65731     65733
     65732     65733     65734     65735     65734     65736     65735     65736
     65737     65738     65737     65739     65738     65739     65740     65741
     65740     65742     65741     65742     65743     65744     65743     65745
     65744     65745     65746     65747     65746     65748     65747     65748
     65749     65750     65749     65751     65750     65751     65752     65753
     65752     65754     65753     65754     65755     65756     65755     65757
     65756     65757     65758     65759     65758     65760     65759     65760
     65761     65762     65761     65763     65762     65763     65764     65765
     65764     65766     65765     65766     65767     65768     65767     65769
     65768     65769     65770     65771     65770     65772     65771     65772
     65773     65774     65773     65775     65774     65775     65776     65777
     65776     65778     65777     65778     65779     65780     65779     65781
     65780     65781     65782     65783     65782     65784     65783     65784
     65785     65786     65785     65787     65786     65787     65788     65789
     65788     65790     65789     65790     65791     65792     65791     65793
     65792     65793     65794     65795     65794     65796     65795     65796
     65797     65798     65797     65799     65798     65799     65800     65801
     65800     65802     65801     65802     65803     65804     65803     65805
     65804     65805     65806     65807     65806     65808     65807     65808
     65809     65810     65809     65811     65810     65811     65812     65813
     65812     65814     65813     65814     65815     65816     65815     65817
     65816     65817     65818     65819     65818     65820     65819     65820
     65821     65822     65821     65823     65822     65823     65824     65825
     65824     65826     65825     65826     65827     65828     65827     65829
     65828     65829     65830     65831     65830     65832     65831     65832
     65833     65834     65833     65835     65834     65835     65836     65837
     65836     65838     65837     65838     65839     65840     65839     65841
     65840     65841     65842     65843     65842     65844     65843     65844
     65845     65846     65845     65847     65846     65847     65848     65849
     65848     65850     65849     65850     65851     65852     65851     65853
     65852     65853     65854     65855     65854     65856     65855     65856
     65857     65858     65857     65859     65858     65859     65860     65861
     65860     65862     65861     65862     65863     65864     65863     65865
     65864     65865     65866     65867     65866     65868     65867     65868
     65869     65870     65869     65871     65870     65871     65872     65873
     65872     65874     65873     65874     65875     65876     65875     65877
     65876     65877     65878     65879     65878     65880     65879     65880
     65881     65882     65881     65883     65882     65883     65884     65885
     65884     65886     65885     65886     65887     65888     65887     65889
     65888     65889     65890     65891     65890     65892     65891     65892
     65893     65894     65893     65895     65894     65895     65896     65897
     65896     65898     65897     65898     65899     65900     65899     65901
     65900     65901     65902     65903     65902     65904     65903     65904
     65905     65906     65905     65907     65906     65907     65908     65909
     65908     65910     65909     65910     65911     65912     65911     65913
     65912     65913     65914     65915     65914     65916     65915     65916
     65917     65918     65917     65919     65918     65919     65920     65921
     65920     65922     65921     65922     65923     65924     65923     65925
     65924     65925     65926     65927     65926     65928     65927     65928
     65929     65930     65929     65931     65930     65931     65932     65933
     65932     65934     65933     65934     65935     65936     65935     65937
     65936     65937     65938     65939     65938     65940     65939     65940
     65941     65942     65941     65943     65942     65943     65944     65945
     65944     65946     65945     65946     65947     65948     65947     65949
     65948     65949     65950     65951     65950     65952     65951     65952
     65953     65954     65953     65955     65954     65955     65956     65957
     65956     65958     65957     65958     65959     65960     65959     65961
     65960     65961     65962     65963     65962     65964     65963     65964
     65965     65966     65965     65967     65966     65967     65968     65969
     65968     65970     65969     65970     65971     65972     65971     65973
     65972     65973     65974     65975     65974     65976     65975     65976
     65977     65978     65977     65979     65978     65979     65980     65981
     65980     65982     65981     65982     65983     65984     65983     65985
     65984     65985     65986     65987     65986     65988     65987     65988
     65989     65990     65989     65991     65990     65991     65992     65993
     65992     65994     65993     65994     65995     65996     65995     65997
     65996     65997     65998     65999     65998     66000     65999     66000
     66001     66002     66001     66003     66002     66003     66004     66005
     66004     66006     66005     66006     66007     66008     66007     66009
     66008     66009     66010     66011     66010     66012     66011     66012
     66013     66014     66013     66015     66014     66015     66016     66017
     66016     66018     66017     66018     66019     66020     66019     66021
     66020     66021     66022     66023     66022     66024     66023     66024
     66025     66026     66025     66027     66026     66027     66028     66029
     66028     66030     66029     66030     66031     66032     66031     66033
     66032     66033     66034     66035     66034     66036     66035     66036
     66037     66038     66037     66039     66038     66039     66040     66041
     66040     66042     66041     66042     66043     66044     66043     66045
     66044     66045     66046     66047     66046     66048     66047     66048
     66049     66050     66049     66051     66050     66051     66052     66053
     66052     66054     66053     66054     66055     66056     66055     66057
     66056     66057     66058     66059     66058     66060     66059     66060
     66061     66062     66061     66063     66062     66063     66064     66065
     66064     66066     66065     66066     66067     66068     66067     66069
     66068     66069     66070     66071     66070     66072     66071     66072
     66073     66074     66073     66075     66074     66075     66076     66077
     66076     66078     66077     66078     66079     66080     66079     66081
     66080     66081     66082     66083     66082     66084     66083     66084
     66085     66086     66085     66087     66086     66087     66088     66089
     66088     66090     66089     66090     66091     66092     66091     66093
     66092     66093     66094     66095     66094     66096     66095     66096
     66097     66098     66097     66099     66098     66099     66100     66101
     66100     66102     66101     66102     66103     66104     66103     66105
     66104     66105     66106     66107     66106     66108     66107     66108
     66109     66110     66109     66111     66110     66111     66112     66113
     66112     66114     66113     66114     66115     66116     66115     66117
     66116     66117     66118     66119     66118     66120     66119     66120
     66121     66122     66121     66123     66122     66123     66124     66125
     66124     66126     66125     66126     66127     66128     66127     66129
     66128     66129     66130     66131     66130     66132     66131     66132
     66133     66134     66133     66135     66134     66135     66136     66137
     66136     66138     66137     66138     66139     66140     66139     66141
     66140     66141     66142     66143     66142     66144     66143     66144
     66145     66146     66145     66147     66146     66147     66148     66149
     66148     66150     66149     66150     66151     66152     66151     66153
     66152     66153     66154     66155     66154     66156     66155     66156
     66157     66158     66157     66159     66158     66159     66160     66161
     66160     66162     66161     66162     66163     66164     66163     66165
     66164     66165     66166     66167     66166     66168     66167     66168
     66169     66170     66169     66171     66170     66171     66172     66173
     66172     66174     66173     66174     66175     66176     66175     66177
     66176     66177     66178     66179     66178     66180     66179     66180
     66181     66182     66181     66183     66182     66183     66184     66185
     66184     66186     66185     66186     66187     66188     66187     66189
     66188     66189     66190     66191     66190     66192     66191     66192
     66193     66194     66193     66195     66194     66195     66196     66197
     66196     66198     66197     66198     66199     66200     66199     66201
     66200     66201     66202     66203     66202     66204     66203     66204
     66205     66206     66205     66207     66206     66207     66208     66209
     66208     66210     66209     66210     66211     66212     66211     66213
     66212     66213     66214     66215     66214     66216     66215     66216
     66217     66218     66217     66219     66218     66219     66220     66221
     66220     66222     66221     66222     66223     66224     66223     66225
     66224     66225     66226     66227     66226     66228     66227     66228
     66229     66230     66229     66231     66230     66231     66232     66233
     66232     66234     66233     66234     66235     66236     66235     66237
     66236     66237     66238     66239     66238     66240     66239     66240
     66241     66242     66241     66243     66242     66243     66244     66245
     66244     66246     66245     66246     66247     66248     66247     66249
     66248     66249     66250     66251     66250     66252     66251     66252
     66253     66254     66253     66255     66254     66255     66256     66257
     66256     66258     66257     66258     66259     66260     66259     66261
     66260     66261     66262     66263     66262     66264     66263     66264
     66265     66266     66265     66267     66266     66267     66268     66269
     66268     66270     66269     66270     66271     66272     66271     66273
     66272     66273     66274     66275     66274     66276     66275     66276
     66277     66278     66277     66279     66278     66279     66280     66281
     66280     66282     66281     66282     66283     66284     66283     66285
     66284     66285     66286     66287     66286     66288     66287     66288
     66289     66290     66289     66291     66290     66291     66292     66293
     66292     66294     66293     66294     66295     66296     66295     66297
     66296     66297     66298     66299     66298     66300     66299     66300
     66301     66302     66301     66303     66302     66303     66304     66305
     66304     66306     66305     66306     66307     66308     66307     66309
     66308     66309     66310     66311     66310     66312     66311     66312
     66313     66314     66313     66315     66314     66315     66316     66317
     66316     66318     66317     66318     66319     66320     66319     66321
     66320     66321     66322     66323     66322     66324     66323     66324
     66325     66326     66325     66327     66326     66327     66328     66329
     66328     66330     66329     66330     66331     66332     66331     66333
     66332     66333     66334     66335     66334     66336     66335     66336
     66337     66338     66337     66339     66338     66339     66340     66341
     66340     66342     66341     66342     66343     66344     66343     66345
     66344     66345     66346     66347     66346     66348     66347     66348
     66349     66350     66349     66351     66350     66351     66352     66353
     66352     66354     66353     66354     66355     66356     66355     66357
     66356     66357     66358     66359     66358     66360     66359     66360
     66361     66362     66361     66363     66362     66363     66364     66365
     66364     66366     66365     66366     66367     66368     66367     66369
     66368     66369     66370     66371     66370     66372     66371     66372
     66373     66374     66373     66375     66374     66375     66376     66377
     66376     66378     66377     66378     66379     66380     66379     66381
     66380     66381     66382     66383     66382     66384     66383     66384
     66385     66386     66385     66387     66386     66387     66388     66389
     66388     66390     66389     66390     66391     66392     66391     66393
     66392     66393     66394     66395     66394     66396     66395     66396
     66397     66398     66397     66399     66398     66399     66400     66401
     66400     66402     66401     66402     66403     66404     66403     66405
     66404     66405     66406     66407     66406     66408     66407     66408
     66409     66410     66409     66411     66410     66411     66412     66413
     66412     66414     66413     66414     66415     66416     66415     66417
     66416     66417     66418     66419     66418     66420     66419     66420
     66421     66422     66421     66423     66422     66423     66424     66425
     66424     66426     66425     66426     66427     66428     66427     66429
     66428     66429     66430     66431     66430     66432     66431     66432
     66433     66434     66433     66435     66434     66435     66436     66437
     66436     66438     66437     66438     66439     66440     66439     66441
     66440     66441     66442     66443     66442     66444     66443     66444
     66445     66446     66445     66447     66446     66447     66448     66449
     66448     66450     66449     66450     66451     66452     66451     66453
     66452     66453     66454     66455     66454     66456     66455     66456
     66457     66458     66457     66459     66458     66459     66460     66461
     66460     66462     66461     66462     66463     66464     66463     66465
     66464     66465     66466     66467     66466     66468     66467     66468
     66469     66470     66469     66471     66470     66471     66472     66473
     66472     66474     66473     66474     66475     66476     66475     66477
     66476     66477     66478     66479     66478     66480     66479     66480
     66481     66482     66481     66483     66482     66483     66484     66485
     66484     66486     66485     66486     66487     66488     66487     66489
     66488     66489     66490     66491     66490     66492     66491     66492
     66493     66494     66493     66495     66494     66495     66496     66497
     66496     66498     66497     66498     66499     66500     66499     66501
     66500     66501     66502     66503     66502     66504     66503     66504
     66505     66506     66505     66507     66506     66507     66508     66509
     66508     66510     66509     66510     66511     66512     66511     66513
     66512     66513     66514     66515     66514     66516     66515     66516
     66517     66518     66517     66519     66518     66519     66520     66521
     66520     66522     66521     66522     66523     66524     66523     66525
     66524     66525     66526     66527     66526     66528     66527     66528
     66529     66530     66529     66531     66530     66531     66532     66533
     66532     66534     66533     66534     66535     66536     66535     66537
     66536     66537     66538     66539     66538     66540     66539     66540
     66541     66542     66541     66543     66542     66543     66544     66545
     66544     66546     66545     66546     66547     66548     66547     66549
     66548     66549     66550     66551     66550     66552     66551     66552
     66553     66554     66553     66555     66554     66555     66556     66557
     66556     66558     66557     66558     66559     66560     66559     66561
     66560     66561     66562     66563     66562     66564     66563     66564
     66565     66566     66565     66567     66566     66567     66568     66569
     66568     66570     66569     66570     66571     66572     66571     66573
     66572     66573     66574     66575     66574     66576     66575     66576
     66577     66578     66577     66579     66578     66579     66580     66581
     66580     66582     66581     66582     66583     66584     66583     66585
     66584     66585     66586     66587     66586     66588     66587     66588
     66589     66590     66589     66591     66590     66591     66592     66593
     66592     66594     66593     66594     66595     66596     66595     66597
     66596     66597     66598     66599     66598     66600     66599     66600
     66601     66602     66601     66603     66602     66603     66604     66605
     66604     66606     66605     66606     66607     66608     66607     66609
     66608     66609     66610     66611     66610     66612     66611     66612
     66613     66614     66613     66615     66614     66615     66616     66617
     66616     66618     66617     66618     66619     66620     66619     66621
     66620     66621     66622     66623     66622     66624     66623     66624
     66625     66626     66625     66627     66626     66627     66628     66629
     66628     66630     66629     66630     66631     66632     66631     66633
     66632     66633     66634     66635     66634     66636     66635     66636
     66637     66638     66637     66639     66638     66639     66640     66641
     66640     66642     66641     66642     66643     66644     66643     66645
     66644     66645     66646     66647     66646     66648     66647     66648
     66649     66650     66649     66651     66650     66651     66652     66653
     66652     66654     66653     66654     66655     66656     66655     66657
     66656     66657     66658     66659     66658     66660     66659     66660
     66661     66662     66661     66663     66662     66663     66664     66665
     66664     66666     66665     66666     66667     66668     66667     66669
     66668     66669     66670     66671     66670     66672     66671     66672
     66673     66674     66673     66675     66674     66675     66676     66677
     66676     66678     66677     66678     66679     66680     66679     66681
     66680     66681     66682     66683     66682     66684     66683     66684
     66685     66686     66685     66687     66686     66687     66688     66689
     66688     66690     66689     66690     66691     66692     66691     66693
     66692     66693     66694     66695     66694     66696     66695     66696
     66697     66698     66697     66699     66698     66699     66700     66701
     66700     66702     66701     66702     66703     66704     66703     66705
     66704     66705     66706     66707     66706     66708     66707     66708
     66709     66710     66709     66711     66710     66711     66712     66713
     66712     66714     66713     66714     66715     66716     66715     66717
     66716     66717     66718     66719     66718     66720     66719     66720
     66721     66722     66721     66723     66722     66723     66724     66725
     66724     66726     66725     66726     66727     66728     66727     66729
     66728     66729     66730     66731     66730     66732     66731     66732
     66733     66734     66733     66735     66734     66735     66736     66737
     66736     66738     66737     66738     66739     66740     66739     66741
     66740     66741     66742     66743     66742     66744     66743     66744
     66745     66746     66745     66747     66746     66747     66748     66749
     66748     66750     66749     66750     66751     66752     66751     66753
     66752     66753     66754     66755     66754     66756     66755     66756
     66757     66758     66757     66759     66758     66759     66760     66761
     66760     66762     66761     66762     66763     66764     66763     66765
     66764     66765     66766     66767     66766     66768     66767     66768
     66769     66770     66769     66771     66770     66771     66772     66773
     66772     66774     66773     66774     66775     66776     66775     66777
     66776     66777     66778     66779     66778     66780     66779     66780
     66781     66782     66781     66783     66782     66783     66784     66785
     66784     66786     66785     66786     66787     66788     66787     66789
     66788     66789     66790     66791     66790     66792     66791     66792
     66793     66794     66793     66795     66794     66795     66796     66797
     66796     66798     66797     66798     66799     66800     66799     66801
     66800     66801     66802     66803     66802     66804     66803     66804
     66805     66806     66805     66807     66806     66807     66808     66809
     66808     66810     66809     66810     66811     66812     66811     66813
     66812     66813     66814     66815     66814     66816     66815     66816
     66817     66818     66817     66819     66818     66819     66820     66821
     66820     66822     66821     66822     66823     66824     66823     66825
     66824     66825     66826     66827     66826     66828     66827     66828
     66829     66830     66829     66831     66830     66831     66832     66833
     66832     66834     66833     66834     66835     66836     66835     66837
     66836     66837     66838     66839     66838     66840     66839     66840
     66841     66842     66841     66843     66842     66843     66844     66845
     66844     66846     66845     66846     66847     66848     66847     66849
     66848     66849     66850     66851     66850     66852     66851     66852
     66853     66854     66853     66855     66854     66855     66856     66857
     66856     66858     66857     66858     66859     66860     66859     66861
     66860     66861     66862     66863     66862     66864     66863     66864
     66865     66866     66865     66867     66866     66867     66868     66869
     66868     66870     66869     66870     66871     66872     66871     66873
     66872     66873     66874     66875     66874     66876     66875     66876
     66877     66878     66877     66879     66878     66879     66880     66881
     66880     66882     66881     66882     66883     66884     66883     66885
     66884     66885     66886     66887     66886     66888     66887     66888
     66889     66890     66889     66891     66890     66891     66892     66893
     66892     66894     66893     66894     66895     66896     66895     66897
     66896     66897     66898     66899     66898     66900     66899     66900
     66901     66902     66901     66903     66902     66903     66904     66905
     66904     66906     66905     66906     66907     66908     66907     66909
     66908     66909     66910     66911     66910     66912     66911     66912
     66913     66914     66913     66915     66914     66915     66916     66917
     66916     66918     66917     66918     66919     66920     66919     66921
     66920     66921     66922     66923     66922     66924     66923     66924
     66925     66926     66925     66927     66926     66927     66928     66929
     66928     66930     66929     66930     66931     66932     66931     66933
     66932     66933     66934     66935     66934     66936     66935     66936
     66937     66938     66937     66939     66938     66939     66940     66941
     66940     66942     66941     66942     66943     66944     66943     66945
     66944     66945     66946     66947     66946     66948     66947     66948
     66949     66950     66949     66951     66950     66951     66952     66953
     66952     66954     66953     66954     66955     66956     66955     66957
     66956     66957     66958     66959     66958     66960     66959     66960
     66961     66962     66961     66963     66962     66963     66964     66965
     66964     66966     66965     66966     66967     66968     66967     66969
     66968     66969     66970     66971     66970     66972     66971     66972
     66973     66974     66973     66975     66974     66975     66976     66977
     66976     66978     66977     66978     66979     66980     66979     66981
     66980     66981     66982     66983     66982     66984     66983     66984
     66985     66986     66985     66987     66986     66987     66988     66989
     66988     66990     66989     66990     66991     66992     66991     66993
     66992     66993     66994     66995     66994     66996     66995     66996
     66997     66998     66997     66999     66998     66999     67000     67001
     67000     67002     67001     67002     67003     67004     67003     67005
     67004     67005     67006     67007     67006     67008     67007     67008
     67009     67010     67009     67011     67010     67011     67012     67013
     67012     67014     67013     67014     67015     67016     67015     67017
     67016     67017     67018     67019     67018     67020     67019     67020
     67021     67022     67021     67023     67022     67023     67024     67025
     67024     67026     67025     67026     67027     67028     67027     67029
     67028     67029     67030     67031     67030     67032     67031     67032
     67033     67034     67033     67035     67034     67035     67036     67037
     67036     67038     67037     67038     67039     67040     67039     67041
     67040     67041     67042     67043     67042     67044     67043     67044
     67045     67046     67045     67047     67046     67047     67048     67049
     67048     67050     67049     67050     67051     67052     67051     67053
     67052     67053     67054     67055     67054     67056     67055     67056
     67057     67058     67057     67059     67058     67059     67060     67061
     67060     67062     67061     67062     67063     67064     67063     67065
     67064     67065     67066     67067     67066     67068     67067     67068
     67069     67070     67069     67071     67070     67071     67072     67073
     67072     67074     67073     67074     67075     67076     67075     67077
     67076     67077     67078     67079     67078     67080     67079     67080
     67081     67082     67081     67083     67082     67083     67084     67085
     67084     67086     67085     67086     67087     67088     67087     67089
     67088     67089     67090     67091     67090     67092     67091     67092
     67093     67094     67093     67095     67094     67095     67096     67097
     67096     67098     67097     67098     67099     67100     67099     67101
     67100     67101     67102     67103     67102     67104     67103     67104
     67105     67106     67105     67107     67106     67107     67108     67109
     67108     67110     67109     67110     67111     67112     67111     67113
     67112     67113     67114     67115     67114     67116     67115     67116
     67117     67118     67117     67119     67118     67119     67120     67121
     67120     67122     67121     67122     67123     67124     67123     67125
     67124     67125     67126     67127     67126     67128     67127     67128
     67129     67130     67129     67131     67130     67131     67132     67133
     67132     67134     67133     67134     67135     67136     67135     67137
     67136     67137     67138     67139     67138     67140     67139     67140
     67141     67142     67141     67143     67142     67143     67144     67145
     67144     67146     67145     67146     67147     67148     67147     67149
     67148     67149     67150     67151     67150     67152     67151     67152
     67153     67154     67153     67155     67154     67155     67156     67157
     67156     67158     67157     67158     67159     67160     67159     67161
     67160     67161     67162     67163     67162     67164     67163     67164
     67165     67166     67165     67167     67166     67167     67168     67169
     67168     67170     67169     67170     67171     67172     67171     67173
     67172     67173     67174     67175     67174     67176     67175     67176
     67177     67178     67177     67179     67178     67179     67180     67181
     67180     67182     67181     67182     67183     67184     67183     67185
     67184     67185     67186     67187     67186     67188     67187     67188
     67189     67190     67189     67191     67190     67191     67192     67193
     67192     67194     67193     67194     67195     67196     67195     67197
     67196     67197     67198     67199     67198     67200     67199     67200
     67201     67202     67201     67203     67202     67203     67204     67205
     67204     67206     67205     67206     67207     67208     67207     67209
     67208     67209     67210     67211     67210     67212     67211     67212
     67213     67214     67213     67215     67214     67215     67216     67217
     67216     67218     67217     67218     67219     67220     67219     67221
     67220     67221     67222     67223     67222     67224     67223     67224
     67225     67226     67225     67227     67226     67227     67228     67229
     67228     67230     67229     67230     67231     67232     67231     67233
     67232     67233     67234     67235     67234     67236     67235     67236
     67237     67238     67237     67239     67238     67239     67240     67241
     67240     67242     67241     67242     67243     67244     67243     67245
     67244     67245     67246     67247     67246     67248     67247     67248
     67249     67250     67249     67251     67250     67251     67252     67253
     67252     67254     67253     67254     67255     67256     67255     67257
     67256     67257     67258     67259     67258     67260     67259     67260
     67261     67262     67261     67263     67262     67263     67264     67265
     67264     67266     67265     67266     67267     67268     67267     67269
     67268     67269     67270     67271     67270     67272     67271     67272
     67273     67274     67273     67275     67274     67275     67276     67277
     67276     67278     67277     67278     67279     67280     67279     67281
     67280     67281     67282     67283     67282     67284     67283     67284
     67285     67286     67285     67287     67286     67287     67288     67289
     67288     67290     67289     67290     67291     67292     67291     67293
     67292     67293     67294     67295     67294     67296     67295     67296
     67297     67298     67297     67299     67298     67299     67300     67301
     67300     67302     67301     67302     67303     67304     67303     67305
     67304     67305     67306     67307     67306     67308     67307     67308
     67309     67310     67309     67311     67310     67311     67312     67313
     67312     67314     67313     67314     67315     67316     67315     67317
     67316     67317     67318     67319     67318     67320     67319     67320
     67321     67322     67321     67323     67322     67323     67324     67325
     67324     67326     67325     67326     67327     67328     67327     67329
     67328     67329     67330     67331     67330     67332     67331     67332
     67333     67334     67333     67335     67334     67335     67336     67337
     67336     67338     67337     67338     67339     67340     67339     67341
     67340     67341     67342     67343     67342     67344     67343     67344
     67345     67346     67345     67347     67346     67347     67348     67349
     67348     67350     67349     67350     67351     67352     67351     67353
     67352     67353     67354     67355     67354     67356     67355     67356
     67357     67358     67357     67359     67358     67359     67360     67361
     67360     67362     67361     67362     67363     67364     67363     67365
     67364     67365     67366     67367     67366     67368     67367     67368
     67369     67370     67369     67371     67370     67371     67372     67373
     67372     67374     67373     67374     67375     67376     67375     67377
     67376     67377     67378     67379     67378     67380     67379     67380
     67381     67382     67381     67383     67382     67383     67384     67385
     67384     67386     67385     67386     67387     67388     67387     67389
     67388     67389     67390     67391     67390     67392     67391     67392
     67393     67394     67393     67395     67394     67395     67396     67397
     67396     67398     67397     67398     67399     67400     67399     67401
     67400     67401     67402     67403     67402     67404     67403     67404
     67405     67406     67405     67407     67406     67407     67408     67409
     67408     67410     67409     67410     67411     67412     67411     67413
     67412     67413     67414     67415     67414     67416     67415     67416
     67417     67418     67417     67419     67418     67419     67420     67421
     67420     67422     67421     67422     67423     67424     67423     67425
     67424     67425     67426     67427     67426     67428     67427     67428
     67429     67430     67429     67431     67430     67431     67432     67433
     67432     67434     67433     67434     67435     67436     67435     67437
     67436     67437     67438     67439     67438     67440     67439     67440
     67441     67442     67441     67443     67442     67443     67444     67445
     67444     67446     67445     67446     67447     67448     67447     67449
     67448     67449     67450     67451     67450     67452     67451     67452
     67453     67454     67453     67455     67454     67455     67456     67457
     67456     67458     67457     67458     67459     67460     67459     67461
     67460     67461     67462     67463     67462     67464     67463     67464
     67465     67466     67465     67467     67466     67467     67468     67469
     67468     67470     67469     67470     67471     67472     67471     67473
     67472     67473     67474     67475     67474     67476     67475     67476
     67477     67478     67477     67479     67478     67479     67480     67481
     67480     67482     67481     67482     67483     67484     67483     67485
     67484     67485     67486     67487     67486     67488     67487     67488
     67489     67490     67489     67491     67490     67491     67492     67493
     67492     67494     67493     67494     67495     67496     67495     67497
     67496     67497     67498     67499     67498     67500     67499     67500
     67501     67502     67501     67503     67502     67503     67504     67505
     67504     67506     67505     67506     67507     67508     67507     67509
     67508     67509     67510     67511     67510     67512     67511     67512
     67513     67514     67513     67515     67514     67515     67516     67517
     67516     67518     67517     67518     67519     67520     67519     67521
     67520     67521     67522     67523     67522     67524     67523     67524
     67525     67526     67525     67527     67526     67527     67528     67529
     67528     67530     67529     67530     67531     67532     67531     67533
     67532     67533     67534     67535     67534     67536     67535     67536
     67537     67538     67537     67539     67538     67539     67540     67541
     67540     67542     67541     67542     67543     67544     67543     67545
     67544     67545     67546     67547     67546     67548     67547     67548
     67549     67550     67549     67551     67550     67551     67552     67553
     67552     67554     67553     67554     67555     67556     67555     67557
     67556     67557     67558     67559     67558     67560     67559     67560
     67561     67562     67561     67563     67562     67563     67564     67565
     67564     67566     67565     67566     67567     67568     67567     67569
     67568     67569     67570     67571     67570     67572     67571     67572
     67573     67574     67573     67575     67574     67575     67576     67577
     67576     67578     67577     67578     67579     67580     67579     67581
     67580     67581     67582     67583     67582     67584     67583     67584
     67585     67586     67585     67587     67586     67587     67588     67589
     67588     67590     67589     67590     67591     67592     67591     67593
     67592     67593     67594     67595     67594     67596     67595     67596
     67597     67598     67597     67599     67598     67599     67600     67601
     67600     67602     67601     67602     67603     67604     67603     67605
     67604     67605     67606     67607     67606     67608     67607     67608
     67609     67610     67609     67611     67610     67611     67612     67613
     67612     67614     67613     67614     67615     67616     67615     67617
     67616     67617     67618     67619     67618     67620     67619     67620
     67621     67622     67621     67623     67622     67623     67624     67625
     67624     67626     67625     67626     67627     67628     67627     67629
     67628     67629     67630     67631     67630     67632     67631     67632
     67633     67634     67633     67635     67634     67635     67636     67637
     67636     67638     67637     67638     67639     67640     67639     67641
     67640     67641     67642     67643     67642     67644     67643     67644
     67645     67646     67645     67647     67646     67647     67648     67649
     67648     67650     67649     67650     67651     67652     67651     67653
     67652     67653     67654     67655     67654     67656     67655     67656
     67657     67658     67657     67659     67658     67659     67660     67661
     67660     67662     67661     67662     67663     67664     67663     67665
     67664     67665     67666     67667     67666     67668     67667     67668
     67669     67670     67669     67671     67670     67671     67672     67673
     67672     67674     67673     67674     67675     67676     67675     67677
     67676     67677     67678     67679     67678     67680     67679     67680
     67681     67682     67681     67683     67682     67683     67684     67685
     67684     67686     67685     67686     67687     67688     67687     67689
     67688     67689     67690     67691     67690     67692     67691     67692
     67693     67694     67693     67695     67694     67695     67696     67697
     67696     67698     67697     67698     67699     67700     67699     67701
     67700     67701     67702     67703     67702     67704     67703     67704
     67705     67706     67705     67707     67706     67707     67708     67709
     67708     67710     67709     67710     67711     67712     67711     67713
     67712     67713     67714     67715     67714     67716     67715     67716
     67717     67718     67717     67719     67718     67719     67720     67721
     67720     67722     67721     67722     67723     67724     67723     67725
     67724     67725     67726     67727     67726     67728     67727     67728
     67729     67730     67729     67731     67730     67731     67732     67733
     67732     67734     67733     67734     67735     67736     67735     67737
     67736     67737     67738     67739     67738     67740     67739     67740
     67741     67742     67741     67743     67742     67743     67744     67745
     67744     67746     67745     67746     67747     67748     67747     67749
     67748     67749     67750     67751     67750     67752     67751     67752
     67753     67754     67753     67755     67754     67755     67756     67757
     67756     67758     67757     67758     67759     67760     67759     67761
     67760     67761     67762     67763     67762     67764     67763     67764
     67765     67766     67765     67767     67766     67767     67768     67769
     67768     67770     67769     67770     67771     67772     67771     67773
     67772     67773     67774     67775     67774     67776     67775     67776
     67777     67778     67777     67779     67778     67779     67780     67781
     67780     67782     67781     67782     67783     67784     67783     67785
     67784     67785     67786     67787     67786     67788     67787     67788
     67789     67790     67789     67791     67790     67791     67792     67793
     67792     67794     67793     67794     67795     67796     67795     67797
     67796     67797     67798     67799     67798     67800     67799     67800
     67801     67802     67801     67803     67802     67803     67804     67805
     67804     67806     67805     67806     67807     67808     67807     67809
     67808     67809     67810     67811     67810     67812     67811     67812
     67813     67814     67813     67815     67814     67815     67816     67817
     67816     67818     67817     67818     67819     67820     67819     67821
     67820     67821     67822     67823     67822     67824     67823     67824
     67825     67826     67825     67827     67826     67827     67828     67829
     67828     67830     67829     67830     67831     67832     67831     67833
     67832     67833     67834     67835     67834     67836     67835     67836
     67837     67838     67837     67839     67838     67839     67840     67841
     67840     67842     67841     67842     67843     67844     67843     67845
     67844     67845     67846     67847     67846     67848     67847     67848
     67849     67850     67849     67851     67850     67851     67852     67853
     67852     67854     67853     67854     67855     67856     67855     67857
     67856     67857     67858     67859     67858     67860     67859     67860
     67861     67862     67861     67863     67862     67863     67864     67865
     67864     67866     67865     67866     67867     67868     67867     67869
     67868     67869     67870     67871     67870     67872     67871     67872
     67873     67874     67873     67875     67874     67875     67876     67877
     67876     67878     67877     67878     67879     67880     67879     67881
     67880     67881     67882     67883     67882     67884     67883     67884
     67885     67886     67885     67887     67886     67887     67888     67889
     67888     67890     67889     67890     67891     67892     67891     67893
     67892     67893     67894     67895     67894     67896     67895     67896
     67897     67898     67897     67899     67898     67899     67900     67901
     67900     67902     67901     67902     67903     67904     67903     67905
     67904     67905     67906     67907     67906     67908     67907     67908
     67909     67910     67909     67911     67910     67911     67912     67913
     67912     67914     67913     67914     67915     67916     67915     67917
     67916     67917     67918     67919     67918     67920     67919     67920
     67921     67922     67921     67923     67922     67923     67924     67925
     67924     67926     67925     67926     67927     67928     67927     67929
     67928     67929     67930     67931     67930     67932     67931     67932
     67933     67934     67933     67935     67934     67935     67936     67937
     67936     67938     67937     67938     67939     67940     67939     67941
     67940     67941     67942     67943     67942     67944     67943     67944
     67945     67946     67945     67947     67946     67947     67948     67949
     67948     67950     67949     67950     67951     67952     67951     67953
     67952     67953     67954     67955     67954     67956     67955     67956
     67957     67958     67957     67959     67958     67959     67960     67961
     67960     67962     67961     67962     67963     67964     67963     67965
     67964     67965     67966     67967     67966     67968     67967     67968
     67969     67970     67969     67971     67970     67971     67972     67973
     67972     67974     67973     67974     67975     67976     67975     67977
     67976     67977     67978     67979     67978     67980     67979     67980
     67981     67982     67981     67983     67982     67983     67984     67985
     67984     67986     67985     67986     67987     67988     67987     67989
     67988     67989     67990     67991     67990     67992     67991     67992
     67993     67994     67993     67995     67994     67995     67996     67997
     67996     67998     67997     67998     67999     68000     67999     68001
     68000     68001     68002     68003     68002     68004     68003     68004
     68005     68006     68005     68007     68006     68007     68008     68009
     68008     68010     68009     68010     68011     68012     68011     68013
     68012     68013     68014     68015     68014     68016     68015     68016
     68017     68018     68017     68019     68018     68019     68020     68021
     68020     68022     68021     68022     68023     68024     68023     68025
     68024     68025     68026     68027     68026     68028     68027     68028
     68029     68030     68029     68031     68030     68031     68032     68033
     68032     68034     68033     68034     68035     68036     68035     68037
     68036     68037     68038     68039     68038     68040     68039     68040
     68041     68042     68041     68043     68042     68043     68044     68045
     68044     68046     68045     68046     68047     68048     68047     68049
     68048     68049     68050     68051     68050     68052     68051     68052
     68053     68054     68053     68055     68054     68055     68056     68057
     68056     68058     68057     68058     68059     68060     68059     68061
     68060     68061     68062     68063     68062     68064     68063     68064
     68065     68066     68065     68067     68066     68067     68068     68069
     68068     68070     68069     68070     68071     68072     68071     68073
     68072     68073     68074     68075     68074     68076     68075     68076
     68077     68078     68077     68079     68078     68079     68080     68081
     68080     68082     68081     68082     68083     68084     68083     68085
     68084     68085     68086     68087     68086     68088     68087     68088
     68089     68090     68089     68091     68090     68091     68092     68093
     68092     68094     68093     68094     68095     68096     68095     68097
     68096     68097     68098     68099     68098     68100     68099     68100
     68101     68102     68101     68103     68102     68103     68104     68105
     68104     68106     68105     68106     68107     68108     68107     68109
     68108     68109     68110     68111     68110     68112     68111     68112
     68113     68114     68113     68115     68114     68115     68116     68117
     68116     68118     68117     68118     68119     68120     68119     68121
     68120     68121     68122     68123     68122     68124     68123     68124
     68125     68126     68125     68127     68126     68127     68128     68129
     68128     68130     68129     68130     68131     68132     68131     68133
     68132     68133     68134     68135     68134     68136     68135     68136
     68137     68138     68137     68139     68138     68139     68140     68141
     68140     68142     68141     68142     68143     68144     68143     68145
     68144     68145     68146     68147     68146     68148     68147     68148
     68149     68150     68149     68151     68150     68151     68152     68153
     68152     68154     68153     68154     68155     68156     68155     68157
     68156     68157     68158     68159     68158     68160     68159     68160
     68161     68162     68161     68163     68162     68163     68164     68165
     68164     68166     68165     68166     68167     68168     68167     68169
     68168     68169     68170     68171     68170     68172     68171     68172
     68173     68174     68173     68175     68174     68175     68176     68177
     68176     68178     68177     68178     68179     68180     68179     68181
     68180     68181     68182     68183     68182     68184     68183     68184
     68185     68186     68185     68187     68186     68187     68188     68189
     68188     68190     68189     68190     68191     68192     68191     68193
     68192     68193     68194     68195     68194     68196     68195     68196
     68197     68198     68197     68199     68198     68199     68200     68201
     68200     68202     68201     68202     68203     68204     68203     68205
     68204     68205     68206     68207     68206     68208     68207     68208
     68209     68210     68209     68211     68210     68211     68212     68213
     68212     68214     68213     68214     68215     68216     68215     68217
     68216     68217     68218     68219     68218     68220     68219     68220
     68221     68222     68221     68223     68222     68223     68224     68225
     68224     68226     68225     68226     68227     68228     68227     68229
     68228     68229     68230     68231     68230     68232     68231     68232
     68233     68234     68233     68235     68234     68235     68236     68237
     68236     68238     68237     68238     68239     68240     68239     68241
     68240     68241     68242     68243     68242     68244     68243     68244
     68245     68246     68245     68247     68246     68247     68248     68249
     68248     68250     68249     68250     68251     68252     68251     68253
     68252     68253     68254     68255     68254     68256     68255     68256
     68257     68258     68257     68259     68258     68259     68260     68261
     68260     68262     68261     68262     68263     68264     68263     68265
     68264     68265     68266     68267     68266     68268     68267     68268
     68269     68270     68269     68271     68270     68271     68272     68273
     68272     68274     68273     68274     68275     68276     68275     68277
     68276     68277     68278     68279     68278     68280     68279     68280
     68281     68282     68281     68283     68282     68283     68284     68285
     68284     68286     68285     68286     68287     68288     68287     68289
     68288     68289     68290     68291     68290     68292     68291     68292
     68293     68294     68293     68295     68294     68295     68296     68297
     68296     68298     68297     68298     68299     68300     68299     68301
     68300     68301     68302     68303     68302     68304     68303     68304
     68305     68306     68305     68307     68306     68307     68308     68309
     68308     68310     68309     68310     68311     68312     68311     68313
     68312     68313     68314     68315     68314     68316     68315     68316
     68317     68318     68317     68319     68318     68319     68320     68321
     68320     68322     68321     68322     68323     68324     68323     68325
     68324     68325     68326     68327     68326     68328     68327     68328
     68329     68330     68329     68331     68330     68331     68332     68333
     68332     68334     68333     68334     68335     68336     68335     68337
     68336     68337     68338     68339     68338     68340     68339     68340
     68341     68342     68341     68343     68342     68343     68344     68345
     68344     68346     68345     68346     68347     68348     68347     68349
     68348     68349     68350     68351     68350     68352     68351     68352
     68353     68354     68353     68355     68354     68355     68356     68357
     68356     68358     68357     68358     68359     68360     68359     68361
     68360     68361     68362     68363     68362     68364     68363     68364
     68365     68366     68365     68367     68366     68367     68368     68369
     68368     68370     68369     68370     68371     68372     68371     68373
     68372     68373     68374     68375     68374     68376     68375     68376
     68377     68378     68377     68379     68378     68379     68380     68381
     68380     68382     68381     68382     68383     68384     68383     68385
     68384     68385     68386     68387     68386     68388     68387     68388
     68389     68390     68389     68391     68390     68391     68392     68393
     68392     68394     68393     68394     68395     68396     68395     68397
     68396     68397     68398     68399     68398     68400     68399     68400
     68401     68402     68401     68403     68402     68403     68404     68405
     68404     68406     68405     68406     68407     68408     68407     68409
     68408     68409     68410     68411     68410     68412     68411     68412
     68413     68414     68413     68415     68414     68415     68416     68417
     68416     68418     68417     68418     68419     68420     68419     68421
     68420     68421     68422     68423     68422     68424     68423     68424
     68425     68426     68425     68427     68426     68427     68428     68429
     68428     68430     68429     68430     68431     68432     68431     68433
     68432     68433     68434     68435     68434     68436     68435     68436
     68437     68438     68437     68439     68438     68439     68440     68441
     68440     68442     68441     68442     68443     68444     68443     68445
     68444     68445     68446     68447     68446     68448     68447     68448
     68449     68450     68449     68451     68450     68451     68452     68453
     68452     68454     68453     68454     68455     68456     68455     68457
     68456     68457     68458     68459     68458     68460     68459     68460
     68461     68462     68461     68463     68462     68463     68464     68465
     68464     68466     68465     68466     68467     68468     68467     68469
     68468     68469     68470     68471     68470     68472     68471     68472
     68473     68474     68473     68475     68474     68475     68476     68477
     68476     68478     68477     68478     68479     68480     68479     68481
     68480     68481     68482     68483     68482     68484     68483     68484
     68485     68486     68485     68487     68486     68487     68488     68489
     68488     68490     68489     68490     68491     68492     68491     68493
     68492     68493     68494     68495     68494     68496     68495     68496
     68497     68498     68497     68499     68498     68499     68500     68501
     68500     68502     68501     68502     68503     68504     68503     68505
     68504     68505     68506     68507     68506     68508     68507     68508
     68509     68510     68509     68511     68510     68511     68512     68513
     68512     68514     68513     68514     68515     68516     68515     68517
     68516     68517     68518     68519     68518     68520     68519     68520
     68521     68522     68521     68523     68522     68523     68524     68525
     68524     68526     68525     68526     68527     68528     68527     68529
     68528     68529     68530     68531     68530     68532     68531     68532
     68533     68534     68533     68535     68534     68535     68536     68537
     68536     68538     68537     68538     68539     68540     68539     68541
     68540     68541     68542     68543     68542     68544     68543     68544
     68545     68546     68545     68547     68546     68547     68548     68549
     68548     68550     68549     68550     68551     68552     68551     68553
     68552     68553     68554     68555     68554     68556     68555     68556
     68557     68558     68557     68559     68558     68559     68560     68561
     68560     68562     68561     68562     68563     68564     68563     68565
     68564     68565     68566     68567     68566     68568     68567     68568
     68569     68570     68569     68571     68570     68571     68572     68573
     68572     68574     68573     68574     68575     68576     68575     68577
     68576     68577     68578     68579     68578     68580     68579     68580
     68581     68582     68581     68583     68582     68583     68584     68585
     68584     68586     68585     68586     68587     68588     68587     68589
     68588     68589     68590     68591     68590     68592     68591     68592
     68593     68594     68593     68595     68594     68595     68596     68597
     68596     68598     68597     68598     68599     68600     68599     68601
     68600     68601     68602     68603     68602     68604     68603     68604
     68605     68606     68605     68607     68606     68607     68608     68609
     68608     68610     68609     68610     68611     68612     68611     68613
     68612     68613     68614     68615     68614     68616     68615     68616
     68617     68618     68617     68619     68618     68619     68620     68621
     68620     68622     68621     68622     68623     68624     68623     68625
     68624     68625     68626     68627     68626     68628     68627     68628
     68629     68630     68629     68631     68630     68631     68632     68633
     68632     68634     68633     68634     68635     68636     68635     68637
     68636     68637     68638     68639     68638     68640     68639     68640
     68641     68642     68641     68643     68642     68643     68644     68645
     68644     68646     68645     68646     68647     68648     68647     68649
     68648     68649     68650     68651     68650     68652     68651     68652
     68653     68654     68653     68655     68654     68655     68656     68657
     68656     68658     68657     68658     68659     68660     68659     68661
     68660     68661     68662     68663     68662     68664     68663     68664
     68665     68666     68665     68667     68666     68667     68668     68669
     68668     68670     68669     68670     68671     68672     68671     68673
     68672     68673     68674     68675     68674     68676     68675     68676
     68677     68678     68677     68679     68678     68679     68680     68681
     68680     68682     68681     68682     68683     68684     68683     68685
     68684     68685     68686     68687     68686     68688     68687     68688
     68689     68690     68689     68691     68690     68691     68692     68693
     68692     68694     68693     68694     68695     68696     68695     68697
     68696     68697     68698     68699     68698     68700     68699     68700
     68701     68702     68701     68703     68702     68703     68704     68705
     68704     68706     68705     68706     68707     68708     68707     68709
     68708     68709     68710     68711     68710     68712     68711     68712
     68713     68714     68713     68715     68714     68715     68716     68717
     68716     68718     68717     68718     68719     68720     68719     68721
     68720     68721     68722     68723     68722     68724     68723     68724
     68725     68726     68725     68727     68726     68727     68728     68729
     68728     68730     68729     68730     68731     68732     68731     68733
     68732     68733     68734     68735     68734     68736     68735     68736
     68737     68738     68737     68739     68738     68739     68740     68741
     68740     68742     68741     68742     68743     68744     68743     68745
     68744     68745     68746     68747     68746     68748     68747     68748
     68749     68750     68749     68751     68750     68751     68752     68753
     68752     68754     68753     68754     68755     68756     68755     68757
     68756     68757     68758     68759     68758     68760     68759     68760
     68761     68762     68761     68763     68762     68763     68764     68765
     68764     68766     68765     68766     68767     68768     68767     68769
     68768     68769     68770     68771     68770     68772     68771     68772
     68773     68774     68773     68775     68774     68775     68776     68777
     68776     68778     68777     68778     68779     68780     68779     68781
     68780     68781     68782     68783     68782     68784     68783     68784
     68785     68786     68785     68787     68786     68787     68788     68789
     68788     68790     68789     68790     68791     68792     68791     68793
     68792     68793     68794     68795     68794     68796     68795     68796
     68797     68798     68797     68799     68798     68799     68800     68801
     68800     68802     68801     68802     68803     68804     68803     68805
     68804     68805     68806     68807     68806     68808     68807     68808
     68809     68810     68809     68811     68810     68811     68812     68813
     68812     68814     68813     68814     68815     68816     68815     68817
     68816     68817     68818     68819     68818     68820     68819     68820
     68821     68822     68821     68823     68822     68823     68824     68825
     68824     68826     68825     68826     68827     68828     68827     68829
     68828     68829     68830     68831     68830     68832     68831     68832
     68833     68834     68833     68835     68834     68835     68836     68837
     68836     68838     68837     68838     68839     68840     68839     68841
     68840     68841     68842     68843     68842     68844     68843     68844
     68845     68846     68845     68847     68846     68847     68848     68849
     68848     68850     68849     68850     68851     68852     68851     68853
     68852     68853     68854     68855     68854     68856     68855     68856
     68857     68858     68857     68859     68858     68859     68860     68861
     68860     68862     68861     68862     68863     68864     68863     68865
     68864     68865     68866     68867     68866     68868     68867     68868
     68869     68870     68869     68871     68870     68871     68872     68873
     68872     68874     68873     68874     68875     68876     68875     68877
     68876     68877     68878     68879     68878     68880     68879     68880
     68881     68882     68881     68883     68882     68883     68884     68885
     68884     68886     68885     68886     68887     68888     68887     68889
     68888     68889     68890     68891     68890     68892     68891     68892
     68893     68894     68893     68895     68894     68895     68896     68897
     68896     68898     68897     68898     68899     68900     68899     68901
     68900     68901     68902     68903     68902     68904     68903     68904
     68905     68906     68905     68907     68906     68907     68908     68909
     68908     68910     68909     68910     68911     68912     68911     68913
     68912     68913     68914     68915     68914     68916     68915     68916
     68917     68918     68917     68919     68918     68919     68920     68921
     68920     68922     68921     68922     68923     68924     68923     68925
     68924     68925     68926     68927     68926     68928     68927     68928
     68929     68930     68929     68931     68930     68931     68932     68933
     68932     68934     68933     68934     68935     68936     68935     68937
     68936     68937     68938     68939     68938     68940     68939     68940
     68941     68942     68941     68943     68942     68943     68944     68945
     68944     68946     68945     68946     68947     68948     68947     68949
     68948     68949     68950     68951     68950     68952     68951     68952
     68953     68954     68953     68955     68954     68955     68956     68957
     68956     68958     68957     68958     68959     68960     68959     68961
     68960     68961     68962     68963     68962     68964     68963     68964
     68965     68966     68965     68967     68966     68967     68968     68969
     68968     68970     68969     68970     68971     68972     68971     68973
     68972     68973     68974     68975     68974     68976     68975     68976
     68977     68978     68977     68979     68978     68979     68980     68981
     68980     68982     68981     68982     68983     68984     68983     68985
     68984     68985     68986     68987     68986     68988     68987     68988
     68989     68990     68989     68991     68990     68991     68992     68993
     68992     68994     68993     68994     68995     68996     68995     68997
     68996     68997     68998     68999     68998     69000     68999     69000
     69001     69002     69001     69003     69002     69003     69004     69005
     69004     69006     69005     69006     69007     69008     69007     69009
     69008     69009     69010     69011     69010     69012     69011     69012
     69013     69014     69013     69015     69014     69015     69016     69017
     69016     69018     69017     69018     69019     69020     69019     69021
     69020     69021     69022     69023     69022     69024     69023     69024
     69025     69026     69025     69027     69026     69027     69028     69029
     69028     69030     69029     69030     69031     69032     69031     69033
     69032     69033     69034     69035     69034     69036     69035     69036
     69037     69038     69037     69039     69038     69039     69040     69041
     69040     69042     69041     69042     69043     69044     69043     69045
     69044     69045     69046     69047     69046     69048     69047     69048
     69049     69050     69049     69051     69050     69051     69052     69053
     69052     69054     69053     69054     69055     69056     69055     69057
     69056     69057     69058     69059     69058     69060     69059     69060
     69061     69062     69061     69063     69062     69063     69064     69065
     69064     69066     69065     69066     69067     69068     69067     69069
     69068     69069     69070     69071     69070     69072     69071     69072
     69073     69074     69073     69075     69074     69075     69076     69077
     69076     69078     69077     69078     69079     69080     69079     69081
     69080     69081     69082     69083     69082     69084     69083     69084
     69085     69086     69085     69087     69086     69087     69088     69089
     69088     69090     69089     69090     69091     69092     69091     69093
     69092     69093     69094     69095     69094     69096     69095     69096
     69097     69098     69097     69099     69098     69099     69100     69101
     69100     69102     69101     69102     69103     69104     69103     69105
     69104     69105     69106     69107     69106     69108     69107     69108
     69109     69110     69109     69111     69110     69111     69112     69113
     69112     69114     69113     69114     69115     69116     69115     69117
     69116     69117     69118     69119     69118     69120     69119     69120
     69121     69122     69121     69123     69122     69123     69124     69125
     69124     69126     69125     69126     69127     69128     69127     69129
     69128     69129     69130     69131     69130     69132     69131     69132
     69133     69134     69133     69135     69134     69135     69136     69137
     69136     69138     69137     69138     69139     69140     69139     69141
     69140     69141     69142     69143     69142     69144     69143     69144
     69145     69146     69145     69147     69146     69147     69148     69149
     69148     69150     69149     69150     69151     69152     69151     69153
     69152     69153     69154     69155     69154     69156     69155     69156
     69157     69158     69157     69159     69158     69159     69160     69161
     69160     69162     69161     69162     69163     69164     69163     69165
     69164     69165     69166     69167     69166     69168     69167     69168
     69169     69170     69169     69171     69170     69171     69172     69173
     69172     69174     69173     69174     69175     69176     69175     69177
     69176     69177     69178     69179     69178     69180     69179     69180
     69181     69182     69181     69183     69182     69183     69184     69185
     69184     69186     69185     69186     69187     69188     69187     69189
     69188     69189     69190     69191     69190     69192     69191     69192
     69193     69194     69193     69195     69194     69195     69196     69197
     69196     69198     69197     69198     69199     69200     69199     69201
     69200     69201     69202     69203     69202     69204     69203     69204
     69205     69206     69205     69207     69206     69207     69208     69209
     69208     69210     69209     69210     69211     69212     69211     69213
     69212     69213     69214     69215     69214     69216     69215     69216
     69217     69218     69217     69219     69218     69219     69220     69221
     69220     69222     69221     69222     69223     69224     69223     69225
     69224     69225     69226     69227     69226     69228     69227     69228
     69229     69230     69229     69231     69230     69231     69232     69233
     69232     69234     69233     69234     69235     69236     69235     69237
     69236     69237     69238     69239     69238     69240     69239     69240
     69241     69242     69241     69243     69242     69243     69244     69245
     69244     69246     69245     69246     69247     69248     69247     69249
     69248     69249     69250     69251     69250     69252     69251     69252
     69253     69254     69253     69255     69254     69255     69256     69257
     69256     69258     69257     69258     69259     69260     69259     69261
     69260     69261     69262     69263     69262     69264     69263     69264
     69265     69266     69265     69267     69266     69267     69268     69269
     69268     69270     69269     69270     69271     69272     69271     69273
     69272     69273     69274     69275     69274     69276     69275     69276
     69277     69278     69277     69279     69278     69279     69280     69281
     69280     69282     69281     69282     69283     69284     69283     69285
     69284     69285     69286     69287     69286     69288     69287     69288
     69289     69290     69289     69291     69290     69291     69292     69293
     69292     69294     69293     69294     69295     69296     69295     69297
     69296     69297     69298     69299     69298     69300     69299     69300
     69301     69302     69301     69303     69302     69303     69304     69305
     69304     69306     69305     69306     69307     69308     69307     69309
     69308     69309     69310     69311     69310     69312     69311     69312
     69313     69314     69313     69315     69314     69315     69316     69317
     69316     69318     69317     69318     69319     69320     69319     69321
     69320     69321     69322     69323     69322     69324     69323     69324
     69325     69326     69325     69327     69326     69327     69328     69329
     69328     69330     69329     69330     69331     69332     69331     69333
     69332     69333     69334     69335     69334     69336     69335     69336
     69337     69338     69337     69339     69338     69339     69340     69341
     69340     69342     69341     69342     69343     69344     69343     69345
     69344     69345     69346     69347     69346     69348     69347     69348
     69349     69350     69349     69351     69350     69351     69352     69353
     69352     69354     69353     69354     69355     69356     69355     69357
     69356     69357     69358     69359     69358     69360     69359     69360
     69361     69362     69361     69363     69362     69363     69364     69365
     69364     69366     69365     69366     69367     69368     69367     69369
     69368     69369     69370     69371     69370     69372     69371     69372
     69373     69374     69373     69375     69374     69375     69376     69377
     69376     69378     69377     69378     69379     69380     69379     69381
     69380     69381     69382     69383     69382     69384     69383     69384
     69385     69386     69385     69387     69386     69387     69388     69389
     69388     69390     69389     69390     69391     69392     69391     69393
     69392     69393     69394     69395     69394     69396     69395     69396
     69397     69398     69397     69399     69398     69399     69400     69401
     69400     69402     69401     69402     69403     69404     69403     69405
     69404     69405     69406     69407     69406     69408     69407     69408
     69409     69410     69409     69411     69410     69411     69412     69413
     69412     69414     69413     69414     69415     69416     69415     69417
     69416     69417     69418     69419     69418     69420     69419     69420
     69421     69422     69421     69423     69422     69423     69424     69425
     69424     69426     69425     69426     69427     69428     69427     69429
     69428     69429     69430     69431     69430     69432     69431     69432
     69433     69434     69433     69435     69434     69435     69436     69437
     69436     69438     69437     69438     69439     69440     69439     69441
     69440     69441     69442     69443     69442     69444     69443     69444
     69445     69446     69445     69447     69446     69447     69448     69449
     69448     69450     69449     69450     69451     69452     69451     69453
     69452     69453     69454     69455     69454     69456     69455     69456
     69457     69458     69457     69459     69458     69459     69460     69461
     69460     69462     69461     69462     69463     69464     69463     69465
     69464     69465     69466     69467     69466     69468     69467     69468
     69469     69470     69469     69471     69470     69471     69472     69473
     69472     69474     69473     69474     69475     69476     69475     69477
     69476     69477     69478     69479     69478     69480     69479     69480
     69481     69482     69481     69483     69482     69483     69484     69485
     69484     69486     69485     69486     69487     69488     69487     69489
     69488     69489     69490     69491     69490     69492     69491     69492
     69493     69494     69493     69495     69494     69495     69496     69497
     69496     69498     69497     69498     69499     69500     69499     69501
     69500     69501     69502     69503     69502     69504     69503     69504
     69505     69506     69505     69507     69506     69507     69508     69509
     69508     69510     69509     69510     69511     69512     69511     69513
     69512     69513     69514     69515     69514     69516     69515     69516
     69517     69518     69517     69519     69518     69519     69520     69521
     69520     69522     69521     69522     69523     69524     69523     69525
     69524     69525     69526     69527     69526     69528     69527     69528
     69529     69530     69529     69531     69530     69531     69532     69533
     69532     69534     69533     69534     69535     69536     69535     69537
     69536     69537     69538     69539     69538     69540     69539     69540
     69541     69542     69541     69543     69542     69543     69544     69545
     69544     69546     69545     69546     69547     69548     69547     69549
     69548     69549     69550     69551     69550     69552     69551     69552
     69553     69554     69553     69555     69554     69555     69556     69557
     69556     69558     69557     69558     69559     69560     69559     69561
     69560     69561     69562     69563     69562     69564     69563     69564
     69565     69566     69565     69567     69566     69567     69568     69569
     69568     69570     69569     69570     69571     69572     69571     69573
     69572     69573     69574     69575     69574     69576     69575     69576
     69577     69578     69577     69579     69578     69579     69580     69581
     69580     69582     69581     69582     69583     69584     69583     69585
     69584     69585     69586     69587     69586     69588     69587     69588
     69589     69590     69589     69591     69590     69591     69592     69593
     69592     69594     69593     69594     69595     69596     69595     69597
     69596     69597     69598     69599     69598     69600     69599     69600
     69601     69602     69601     69603     69602     69603     69604     69605
     69604     69606     69605     69606     69607     69608     69607     69609
     69608     69609     69610     69611     69610     69612     69611     69612
     69613     69614     69613     69615     69614     69615     69616     69617
     69616     69618     69617     69618     69619     69620     69619     69621
     69620     69621     69622     69623     69622     69624     69623     69624
     69625     69626     69625     69627     69626     69627     69628     69629
     69628     69630     69629     69630     69631     69632     69631     69633
     69632     69633     69634     69635     69634     69636     69635     69636
     69637     69638     69637     69639     69638     69639     69640     69641
     69640     69642     69641     69642     69643     69644     69643     69645
     69644     69645     69646     69647     69646     69648     69647     69648
     69649     69650     69649     69651     69650     69651     69652     69653
     69652     69654     69653     69654     69655     69656     69655     69657
     69656     69657     69658     69659     69658     69660     69659     69660
     69661     69662     69661     69663     69662     69663     69664     69665
     69664     69666     69665     69666     69667     69668     69667     69669
     69668     69669     69670     69671     69670     69672     69671     69672
     69673     69674     69673     69675     69674     69675     69676     69677
     69676     69678     69677     69678     69679     69680     69679     69681
     69680     69681     69682     69683     69682     69684     69683     69684
     69685     69686     69685     69687     69686     69687     69688     69689
     69688     69690     69689     69690     69691     69692     69691     69693
     69692     69693     69694     69695     69694     69696     69695     69696
     69697     69698     69697     69699     69698     69699     69700     69701
     69700     69702     69701     69702     69703     69704     69703     69705
     69704     69705     69706     69707     69706     69708     69707     69708
     69709     69710     69709     69711     69710     69711     69712     69713
     69712     69714     69713     69714     69715     69716     69715     69717
     69716     69717     69718     69719     69718     69720     69719     69720
     69721     69722     69721     69723     69722     69723     69724     69725
     69724     69726     69725     69726     69727     69728     69727     69729
     69728     69729     69730     69731     69730     69732     69731     69732
     69733     69734     69733     69735     69734     69735     69736     69737
     69736     69738     69737     69738     69739     69740     69739     69741
     69740     69741     69742     69743     69742     69744     69743     69744
     69745     69746     69745     69747     69746     69747     69748     69749
     69748     69750     69749     69750     69751     69752     69751     69753
     69752     69753     69754     69755     69754     69756     69755     69756
     69757     69758     69757     69759     69758     69759     69760     69761
     69760     69762     69761     69762     69763     69764     69763     69765
     69764     69765     69766     69767     69766     69768     69767     69768
     69769     69770     69769     69771     69770     69771     69772     69773
     69772     69774     69773     69774     69775     69776     69775     69777
     69776     69777     69778     69779     69778     69780     69779     69780
     69781     69782     69781     69783     69782     69783     69784     69785
     69784     69786     69785     69786     69787     69788     69787     69789
     69788     69789     69790     69791     69790     69792     69791     69792
     69793     69794     69793     69795     69794     69795     69796     69797
     69796     69798     69797     69798     69799     69800     69799     69801
     69800     69801     69802     69803     69802     69804     69803     69804
     69805     69806     69805     69807     69806     69807     69808     69809
     69808     69810     69809     69810     69811     69812     69811     69813
     69812     69813     69814     69815     69814     69816     69815     69816
     69817     69818     69817     69819     69818     69819     69820     69821
     69820     69822     69821     69822     69823     69824     69823     69825
     69824     69825     69826     69827     69826     69828     69827     69828
     69829     69830     69829     69831     69830     69831     69832     69833
     69832     69834     69833     69834     69835     69836     69835     69837
     69836     69837     69838     69839     69838     69840     69839     69840
     69841     69842     69841     69843     69842     69843     69844     69845
     69844     69846     69845     69846     69847     69848     69847     69849
     69848     69849     69850     69851     69850     69852     69851     69852
     69853     69854     69853     69855     69854     69855     69856     69857
     69856     69858     69857     69858     69859     69860     69859     69861
     69860     69861     69862     69863     69862     69864     69863     69864
     69865     69866     69865     69867     69866     69867     69868     69869
     69868     69870     69869     69870     69871     69872     69871     69873
     69872     69873     69874     69875     69874     69876     69875     69876
     69877     69878     69877     69879     69878     69879     69880     69881
     69880     69882     69881     69882     69883     69884     69883     69885
     69884     69885     69886     69887     69886     69888     69887     69888
     69889     69890     69889     69891     69890     69891     69892     69893
     69892     69894     69893     69894     69895     69896     69895     69897
     69896     69897     69898     69899     69898     69900     69899     69900
     69901     69902     69901     69903     69902     69903     69904     69905
     69904     69906     69905     69906     69907     69908     69907     69909
     69908     69909     69910     69911     69910     69912     69911     69912
     69913     69914     69913     69915     69914     69915     69916     69917
     69916     69918     69917     69918     69919     69920     69919     69921
     69920     69921     69922     69923     69922     69924     69923     69924
     69925     69926     69925     69927     69926     69927     69928     69929
     69928     69930     69929     69930     69931     69932     69931     69933
     69932     69933     69934     69935     69934     69936     69935     69936
     69937     69938     69937     69939     69938     69939     69940     69941
     69940     69942     69941     69942     69943     69944     69943     69945
     69944     69945     69946     69947     69946     69948     69947     69948
     69949     69950     69949     69951     69950     69951     69952     69953
     69952     69954     69953     69954     69955     69956     69955     69957
     69956     69957     69958     69959     69958     69960     69959     69960
     69961     69962     69961     69963     69962     69963     69964     69965
     69964     69966     69965     69966     69967     69968     69967     69969
     69968     69969     69970     69971     69970     69972     69971     69972
     69973     69974     69973     69975     69974     69975     69976     69977
     69976     69978     69977     69978     69979     69980     69979     69981
     69980     69981     69982     69983     69982     69984     69983     69984
     69985     69986     69985     69987     69986     69987     69988     69989
     69988     69990     69989     69990     69991     69992     69991     69993
     69992     69993     69994     69995     69994     69996     69995     69996
     69997     69998     69997     69999     69998     69999     70000     70001
     70000     70002     70001     70002     70003     70004     70003     70005
     70004     70005     70006     70007     70006     70008     70007     70008
     70009     70010     70009     70011     70010     70011     70012     70013
     70012     70014     70013     70014     70015     70016     70015     70017
     70016     70017     70018     70019     70018     70020     70019     70020
     70021     70022     70021     70023     70022     70023     70024     70025
     70024     70026     70025     70026     70027     70028     70027     70029
     70028     70029     70030     70031     70030     70032     70031     70032
     70033     70034     70033     70035     70034     70035     70036     70037
     70036     70038     70037     70038     70039     70040     70039     70041
     70040     70041     70042     70043     70042     70044     70043     70044
     70045     70046     70045     70047     70046     70047     70048     70049
     70048     70050     70049     70050     70051     70052     70051     70053
     70052     70053     70054     70055     70054     70056     70055     70056
     70057     70058     70057     70059     70058     70059     70060     70061
     70060     70062     70061     70062     70063     70064     70063     70065
     70064     70065     70066     70067     70066     70068     70067     70068
     70069     70070     70069     70071     70070     70071     70072     70073
     70072     70074     70073     70074     70075     70076     70075     70077
     70076     70077     70078     70079     70078     70080     70079     70080
     70081     70082     70081     70083     70082     70083     70084     70085
     70084     70086     70085     70086     70087     70088     70087     70089
     70088     70089     70090     70091     70090     70092     70091     70092
     70093     70094     70093     70095     70094     70095     70096     70097
     70096     70098     70097     70098     70099     70100     70099     70101
     70100     70101     70102     70103     70102     70104     70103     70104
     70105     70106     70105     70107     70106     70107     70108     70109
     70108     70110     70109     70110     70111     70112     70111     70113
     70112     70113     70114     70115     70114     70116     70115     70116
     70117     70118     70117     70119     70118     70119     70120     70121
     70120     70122     70121     70122     70123     70124     70123     70125
     70124     70125     70126     70127     70126     70128     70127     70128
     70129     70130     70129     70131     70130     70131     70132     70133
     70132     70134     70133     70134     70135     70136     70135     70137
     70136     70137     70138     70139     70138     70140     70139     70140
     70141     70142     70141     70143     70142     70143     70144     70145
     70144     70146     70145     70146     70147     70148     70147     70149
     70148     70149     70150     70151     70150     70152     70151     70152
     70153     70154     70153     70155     70154     70155     70156     70157
     70156     70158     70157     70158     70159     70160     70159     70161
     70160     70161     70162     70163     70162     70164     70163     70164
     70165     70166     70165     70167     70166     70167     70168     70169
     70168     70170     70169     70170     70171     70172     70171     70173
     70172     70173     70174     70175     70174     70176     70175     70176
     70177     70178     70177     70179     70178     70179     70180     70181
     70180     70182     70181     70182     70183     70184     70183     70185
     70184     70185     70186     70187     70186     70188     70187     70188
     70189     70190     70189     70191     70190     70191     70192     70193
     70192     70194     70193     70194     70195     70196     70195     70197
     70196     70197     70198     70199     70198     70200     70199     70200
     70201     70202     70201     70203     70202     70203     70204     70205
     70204     70206     70205     70206     70207     70208     70207     70209
     70208     70209     70210     70211     70210     70212     70211     70212
     70213     70214     70213     70215     70214     70215     70216     70217
     70216     70218     70217     70218     70219     70220     70219     70221
     70220     70221     70222     70223     70222     70224     70223     70224
     70225     70226     70225     70227     70226     70227     70228     70229
     70228     70230     70229     70230     70231     70232     70231     70233
     70232     70233     70234     70235     70234     70236     70235     70236
     70237     70238     70237     70239     70238     70239     70240     70241
     70240     70242     70241     70242     70243     70244     70243     70245
     70244     70245     70246     70247     70246     70248     70247     70248
     70249     70250     70249     70251     70250     70251     70252     70253
     70252     70254     70253     70254     70255     70256     70255     70257
     70256     70257     70258     70259     70258     70260     70259     70260
     70261     70262     70261     70263     70262     70263     70264     70265
     70264     70266     70265     70266     70267     70268     70267     70269
     70268     70269     70270     70271     70270     70272     70271     70272
     70273     70274     70273     70275     70274     70275     70276     70277
     70276     70278     70277     70278     70279     70280     70279     70281
     70280     70281     70282     70283     70282     70284     70283     70284
     70285     70286     70285     70287     70286     70287     70288     70289
     70288     70290     70289     70290     70291     70292     70291     70293
     70292     70293     70294     70295     70294     70296     70295     70296
     70297     70298     70297     70299     70298     70299     70300     70301
     70300     70302     70301     70302     70303     70304     70303     70305
     70304     70305     70306     70307     70306     70308     70307     70308
     70309     70310     70309     70311     70310     70311     70312     70313
     70312     70314     70313     70314     70315     70316     70315     70317
     70316     70317     70318     70319     70318     70320     70319     70320
     70321     70322     70321     70323     70322     70323     70324     70325
     70324     70326     70325     70326     70327     70328     70327     70329
     70328     70329     70330     70331     70330     70332     70331     70332
     70333     70334     70333     70335     70334     70335     70336     70337
     70336     70338     70337     70338     70339     70340     70339     70341
     70340     70341     70342     70343     70342     70344     70343     70344
     70345     70346     70345     70347     70346     70347     70348     70349
     70348     70350     70349     70350     70351     70352     70351     70353
     70352     70353     70354     70355     70354     70356     70355     70356
     70357     70358     70357     70359     70358     70359     70360     70361
     70360     70362     70361     70362     70363     70364     70363     70365
     70364     70365     70366     70367     70366     70368     70367     70368
     70369     70370     70369     70371     70370     70371     70372     70373
     70372     70374     70373     70374     70375     70376     70375     70377
     70376     70377     70378     70379     70378     70380     70379     70380
     70381     70382     70381     70383     70382     70383     70384     70385
     70384     70386     70385     70386     70387     70388     70387     70389
     70388     70389     70390     70391     70390     70392     70391     70392
     70393     70394     70393     70395     70394     70395     70396     70397
     70396     70398     70397     70398     70399     70400     70399     70401
     70400     70401     70402     70403     70402     70404     70403     70404
     70405     70406     70405     70407     70406     70407     70408     70409
     70408     70410     70409     70410     70411     70412     70411     70413
     70412     70413     70414     70415     70414     70416     70415     70416
     70417     70418     70417     70419     70418     70419     70420     70421
     70420     70422     70421     70422     70423     70424     70423     70425
     70424     70425     70426     70427     70426     70428     70427     70428
     70429     70430     70429     70431     70430     70431     70432     70433
     70432     70434     70433     70434     70435     70436     70435     70437
     70436     70437     70438     70439     70438     70440     70439     70440
     70441     70442     70441     70443     70442     70443     70444     70445
     70444     70446     70445     70446     70447     70448     70447     70449
     70448     70449     70450     70451     70450     70452     70451     70452
     70453     70454     70453     70455     70454     70455     70456     70457
     70456     70458     70457     70458     70459     70460     70459     70461
     70460     70461     70462     70463     70462     70464     70463     70464
     70465     70466     70465     70467     70466     70467     70468     70469
     70468     70470     70469     70470     70471     70472     70471     70473
     70472     70473     70474     70475     70474     70476     70475     70476
     70477     70478     70477     70479     70478     70479     70480     70481
     70480     70482     70481     70482     70483     70484     70483     70485
     70484     70485     70486     70487     70486     70488     70487     70488
     70489     70490     70489     70491     70490     70491     70492     70493
     70492     70494     70493     70494     70495     70496     70495     70497
     70496     70497     70498     70499     70498     70500     70499     70500
     70501     70502     70501     70503     70502     70503     70504     70505
     70504     70506     70505     70506     70507     70508     70507     70509
     70508     70509     70510     70511     70510     70512     70511     70512
     70513     70514     70513     70515     70514     70515     70516     70517
     70516     70518     70517     70518     70519     70520     70519     70521
     70520     70521     70522     70523     70522     70524     70523     70524
     70525     70526     70525     70527     70526     70527     70528     70529
     70528     70530     70529     70530     70531     70532     70531     70533
     70532     70533     70534     70535     70534     70536     70535     70536
     70537     70538     70537     70539     70538     70539     70540     70541
     70540     70542     70541     70542     70543     70544     70543     70545
     70544     70545     70546     70547     70546     70548     70547     70548
     70549     70550     70549     70551     70550     70551     70552     70553
     70552     70554     70553     70554     70555     70556     70555     70557
     70556     70557     70558     70559     70558     70560     70559     70560
     70561     70562     70561     70563     70562     70563     70564     70565
     70564     70566     70565     70566     70567     70568     70567     70569
     70568     70569     70570     70571     70570     70572     70571     70572
     70573     70574     70573     70575     70574     70575     70576     70577
     70576     70578     70577     70578     70579     70580     70579     70581
     70580     70581     70582     70583     70582     70584     70583     70584
     70585     70586     70585     70587     70586     70587     70588     70589
     70588     70590     70589     70590     70591     70592     70591     70593
     70592     70593     70594     70595     70594     70596     70595     70596
     70597     70598     70597     70599     70598     70599     70600     70601
     70600     70602     70601     70602     70603     70604     70603     70605
     70604     70605     70606     70607     70606     70608     70607     70608
     70609     70610     70609     70611     70610     70611     70612     70613
     70612     70614     70613     70614     70615     70616     70615     70617
     70616     70617     70618     70619     70618     70620     70619     70620
     70621     70622     70621     70623     70622     70623     70624     70625
     70624     70626     70625     70626     70627     70628     70627     70629
     70628     70629     70630     70631     70630     70632     70631     70632
     70633     70634     70633     70635     70634     70635     70636     70637
     70636     70638     70637     70638     70639     70640     70639     70641
     70640     70641     70642     70643     70642     70644     70643     70644
     70645     70646     70645     70647     70646     70647     70648     70649
     70648     70650     70649     70650     70651     70652     70651     70653
     70652     70653     70654     70655     70654     70656     70655     70656
     70657     70658     70657     70659     70658     70659     70660     70661
     70660     70662     70661     70662     70663     70664     70663     70665
     70664     70665     70666     70667     70666     70668     70667     70668
     70669     70670     70669     70671     70670     70671     70672     70673
     70672     70674     70673     70674     70675     70676     70675     70677
     70676     70677     70678     70679     70678     70680     70679     70680
     70681     70682     70681     70683     70682     70683     70684     70685
     70684     70686     70685     70686     70687     70688     70687     70689
     70688     70689     70690     70691     70690     70692     70691     70692
     70693     70694     70693     70695     70694     70695     70696     70697
     70696     70698     70697     70698     70699     70700     70699     70701
     70700     70701     70702     70703     70702     70704     70703     70704
     70705     70706     70705     70707     70706     70707     70708     70709
     70708     70710     70709     70710     70711     70712     70711     70713
     70712     70713     70714     70715     70714     70716     70715     70716
     70717     70718     70717     70719     70718     70719     70720     70721
     70720     70722     70721     70722     70723     70724     70723     70725
     70724     70725     70726     70727     70726     70728     70727     70728
     70729     70730     70729     70731     70730     70731     70732     70733
     70732     70734     70733     70734     70735     70736     70735     70737
     70736     70737     70738     70739     70738     70740     70739     70740
     70741     70742     70741     70743     70742     70743     70744     70745
     70744     70746     70745     70746     70747     70748     70747     70749
     70748     70749     70750     70751     70750     70752     70751     70752
     70753     70754     70753     70755     70754     70755     70756     70757
     70756     70758     70757     70758     70759     70760     70759     70761
     70760     70761     70762     70763     70762     70764     70763     70764
     70765     70766     70765     70767     70766     70767     70768     70769
     70768     70770     70769     70770     70771     70772     70771     70773
     70772     70773     70774     70775     70774     70776     70775     70776
     70777     70778     70777     70779     70778     70779     70780     70781
     70780     70782     70781     70782     70783     70784     70783     70785
     70784     70785     70786     70787     70786     70788     70787     70788
     70789     70790     70789     70791     70790     70791     70792     70793
     70792     70794     70793     70794     70795     70796     70795     70797
     70796     70797     70798     70799     70798     70800     70799     70800
     70801     70802     70801     70803     70802     70803     70804     70805
     70804     70806     70805     70806     70807     70808     70807     70809
     70808     70809     70810     70811     70810     70812     70811     70812
     70813     70814     70813     70815     70814     70815     70816     70817
     70816     70818     70817     70818     70819     70820     70819     70821
     70820     70821     70822     70823     70822     70824     70823     70824
     70825     70826     70825     70827     70826     70827     70828     70829
     70828     70830     70829     70830     70831     70832     70831     70833
     70832     70833     70834     70835     70834     70836     70835     70836
     70837     70838     70837     70839     70838     70839     70840     70841
     70840     70842     70841     70842     70843     70844     70843     70845
     70844     70845     70846     70847     70846     70848     70847     70848
     70849     70850     70849     70851     70850     70851     70852     70853
     70852     70854     70853     70854     70855     70856     70855     70857
     70856     70857     70858     70859     70858     70860     70859     70860
     70861     70862     70861     70863     70862     70863     70864     70865
     70864     70866     70865     70866     70867     70868     70867     70869
     70868     70869     70870     70871     70870     70872     70871     70872
     70873     70874     70873     70875     70874     70875     70876     70877
     70876     70878     70877     70878     70879     70880     70879     70881
     70880     70881     70882     70883     70882     70884     70883     70884
     70885     70886     70885     70887     70886     70887     70888     70889
     70888     70890     70889     70890     70891     70892     70891     70893
     70892     70893     70894     70895     70894     70896     70895     70896
     70897     70898     70897     70899     70898     70899     70900     70901
     70900     70902     70901     70902     70903     70904     70903     70905
     70904     70905     70906     70907     70906     70908     70907     70908
     70909     70910     70909     70911     70910     70911     70912     70913
     70912     70914     70913     70914     70915     70916     70915     70917
     70916     70917     70918     70919     70918     70920     70919     70920
     70921     70922     70921     70923     70922     70923     70924     70925
     70924     70926     70925     70926     70927     70928     70927     70929
     70928     70929     70930     70931     70930     70932     70931     70932
     70933     70934     70933     70935     70934     70935     70936     70937
     70936     70938     70937     70938     70939     70940     70939     70941
     70940     70941     70942     70943     70942     70944     70943     70944
     70945     70946     70945     70947     70946     70947     70948     70949
     70948     70950     70949     70950     70951     70952     70951     70953
     70952     70953     70954     70955     70954     70956     70955     70956
     70957     70958     70957     70959     70958     70959     70960     70961
     70960     70962     70961     70962     70963     70964     70963     70965
     70964     70965     70966     70967     70966     70968     70967     70968
     70969     70970     70969     70971     70970     70971     70972     70973
     70972     70974     70973     70974     70975     70976     70975     70977
     70976     70977     70978     70979     70978     70980     70979     70980
     70981     70982     70981     70983     70982     70983     70984     70985
     70984     70986     70985     70986     70987     70988     70987     70989
     70988     70989     70990     70991     70990     70992     70991     70992
     70993     70994     70993     70995     70994     70995     70996     70997
     70996     70998     70997     70998     70999     71000     70999     71001
     71000     71001     71002     71003     71002     71004     71003     71004
     71005     71006     71005     71007     71006     71007     71008     71009
     71008     71010     71009     71010     71011     71012     71011     71013
     71012     71013     71014     71015     71014     71016     71015     71016
     71017     71018     71017     71019     71018     71019     71020     71021
     71020     71022     71021     71022     71023     71024     71023     71025
     71024     71025     71026     71027     71026     71028     71027     71028
     71029     71030     71029     71031     71030     71031     71032     71033
     71032     71034     71033     71034     71035     71036     71035     71037
     71036     71037     71038     71039     71038     71040     71039     71040
     71041     71042     71041     71043     71042     71043     71044     71045
     71044     71046     71045     71046     71047     71048     71047     71049
     71048     71049     71050     71051     71050     71052     71051     71052
     71053     71054     71053     71055     71054     71055     71056     71057
     71056     71058     71057     71058     71059     71060     71059     71061
     71060     71061     71062     71063     71062     71064     71063     71064
     71065     71066     71065     71067     71066     71067     71068     71069
     71068     71070     71069     71070     71071     71072     71071     71073
     71072     71073     71074     71075     71074     71076     71075     71076
     71077     71078     71077     71079     71078     71079     71080     71081
     71080     71082     71081     71082     71083     71084     71083     71085
     71084     71085     71086     71087     71086     71088     71087     71088
     71089     71090     71089     71091     71090     71091     71092     71093
     71092     71094     71093     71094     71095     71096     71095     71097
     71096     71097     71098     71099     71098     71100     71099     71100
     71101     71102     71101     71103     71102     71103     71104     71105
     71104     71106     71105     71106     71107     71108     71107     71109
     71108     71109     71110     71111     71110     71112     71111     71112
     71113     71114     71113     71115     71114     71115     71116     71117
     71116     71118     71117     71118     71119     71120     71119     71121
     71120     71121     71122     71123     71122     71124     71123     71124
     71125     71126     71125     71127     71126     71127     71128     71129
     71128     71130     71129     71130     71131     71132     71131     71133
     71132     71133     71134     71135     71134     71136     71135     71136
     71137     71138     71137     71139     71138     71139     71140     71141
     71140     71142     71141     71142     71143     71144     71143     71145
     71144     71145     71146     71147     71146     71148     71147     71148
     71149     71150     71149     71151     71150     71151     71152     71153
     71152     71154     71153     71154     71155     71156     71155     71157
     71156     71157     71158     71159     71158     71160     71159     71160
     71161     71162     71161     71163     71162     71163     71164     71165
     71164     71166     71165     71166     71167     71168     71167     71169
     71168     71169     71170     71171     71170     71172     71171     71172
     71173     71174     71173     71175     71174     71175     71176     71177
     71176     71178     71177     71178     71179     71180     71179     71181
     71180     71181     71182     71183     71182     71184     71183     71184
     71185     71186     71185     71187     71186     71187     71188     71189
     71188     71190     71189     71190     71191     71192     71191     71193
     71192     71193     71194     71195     71194     71196     71195     71196
     71197     71198     71197     71199     71198     71199     71200     71201
     71200     71202     71201     71202     71203     71204     71203     71205
     71204     71205     71206     71207     71206     71208     71207     71208
     71209     71210     71209     71211     71210     71211     71212     71213
     71212     71214     71213     71214     71215     71216     71215     71217
     71216     71217     71218     71219     71218     71220     71219     71220
     71221     71222     71221     71223     71222     71223     71224     71225
     71224     71226     71225     71226     71227     71228     71227     71229
     71228     71229     71230     71231     71230     71232     71231     71232
     71233     71234     71233     71235     71234     71235     71236     71237
     71236     71238     71237     71238     71239     71240     71239     71241
     71240     71241     71242     71243     71242     71244     71243     71244
     71245     71246     71245     71247     71246     71247     71248     71249
     71248     71250     71249     71250     71251     71252     71251     71253
     71252     71253     71254     71255     71254     71256     71255     71256
     71257     71258     71257     71259     71258     71259     71260     71261
     71260     71262     71261     71262     71263     71264     71263     71265
     71264     71265     71266     71267     71266     71268     71267     71268
     71269     71270     71269     71271     71270     71271     71272     71273
     71272     71274     71273     71274     71275     71276     71275     71277
     71276     71277     71278     71279     71278     71280     71279     71280
     71281     71282     71281     71283     71282     71283     71284     71285
     71284     71286     71285     71286     71287     71288     71287     71289
     71288     71289     71290     71291     71290     71292     71291     71292
     71293     71294     71293     71295     71294     71295     71296     71297
     71296     71298     71297     71298     71299     71300     71299     71301
     71300     71301     71302     71303     71302     71304     71303     71304
     71305     71306     71305     71307     71306     71307     71308     71309
     71308     71310     71309     71310     71311     71312     71311     71313
     71312     71313     71314     71315     71314     71316     71315     71316
     71317     71318     71317     71319     71318     71319     71320     71321
     71320     71322     71321     71322     71323     71324     71323     71325
     71324     71325     71326     71327     71326     71328     71327     71328
     71329     71330     71329     71331     71330     71331     71332     71333
     71332     71334     71333     71334     71335     71336     71335     71337
     71336     71337     71338     71339     71338     71340     71339     71340
     71341     71342     71341     71343     71342     71343     71344     71345
     71344     71346     71345     71346     71347     71348     71347     71349
     71348     71349     71350     71351     71350     71352     71351     71352
     71353     71354     71353     71355     71354     71355     71356     71357
     71356     71358     71357     71358     71359     71360     71359     71361
     71360     71361     71362     71363     71362     71364     71363     71364
     71365     71366     71365     71367     71366     71367     71368     71369
     71368     71370     71369     71370     71371     71372     71371     71373
     71372     71373     71374     71375     71374     71376     71375     71376
     71377     71378     71377     71379     71378     71379     71380     71381
     71380     71382     71381     71382     71383     71384     71383     71385
     71384     71385     71386     71387     71386     71388     71387     71388
     71389     71390     71389     71391     71390     71391     71392     71393
     71392     71394     71393     71394     71395     71396     71395     71397
     71396     71397     71398     71399     71398     71400     71399     71400
     71401     71402     71401     71403     71402     71403     71404     71405
     71404     71406     71405     71406     71407     71408     71407     71409
     71408     71409     71410     71411     71410     71412     71411     71412
     71413     71414     71413     71415     71414     71415     71416     71417
     71416     71418     71417     71418     71419     71420     71419     71421
     71420     71421     71422     71423     71422     71424     71423     71424
     71425     71426     71425     71427     71426     71427     71428     71429
     71428     71430     71429     71430     71431     71432     71431     71433
     71432     71433     71434     71435     71434     71436     71435     71436
     71437     71438     71437     71439     71438     71439     71440     71441
     71440     71442     71441     71442     71443     71444     71443     71445
     71444     71445     71446     71447     71446     71448     71447     71448
     71449     71450     71449     71451     71450     71451     71452     71453
     71452     71454     71453     71454     71455     71456     71455     71457
     71456     71457     71458     71459     71458     71460     71459     71460
     71461     71462     71461     71463     71462     71463     71464     71465
     71464     71466     71465     71466     71467     71468     71467     71469
     71468     71469     71470     71471     71470     71472     71471     71472
     71473     71474     71473     71475     71474     71475     71476     71477
     71476     71478     71477     71478     71479     71480     71479     71481
     71480     71481     71482     71483     71482     71484     71483     71484
     71485     71486     71485     71487     71486     71487     71488     71489
     71488     71490     71489     71490     71491     71492     71491     71493
     71492     71493     71494     71495     71494     71496     71495     71496
     71497     71498     71497     71499     71498     71499     71500     71501
     71500     71502     71501     71502     71503     71504     71503     71505
     71504     71505     71506     71507     71506     71508     71507     71508
     71509     71510     71509     71511     71510     71511     71512     71513
     71512     71514     71513     71514     71515     71516     71515     71517
     71516     71517     71518     71519     71518     71520     71519     71520
     71521     71522     71521     71523     71522     71523     71524     71525
     71524     71526     71525     71526     71527     71528     71527     71529
     71528     71529     71530     71531     71530     71532     71531     71532
     71533     71534     71533     71535     71534     71535     71536     71537
     71536     71538     71537     71538     71539     71540     71539     71541
     71540     71541     71542     71543     71542     71544     71543     71544
     71545     71546     71545     71547     71546     71547     71548     71549
     71548     71550     71549     71550     71551     71552     71551     71553
     71552     71553     71554     71555     71554     71556     71555     71556
     71557     71558     71557     71559     71558     71559     71560     71561
     71560     71562     71561     71562     71563     71564     71563     71565
     71564     71565     71566     71567     71566     71568     71567     71568
     71569     71570     71569     71571     71570     71571     71572     71573
     71572     71574     71573     71574     71575     71576     71575     71577
     71576     71577     71578     71579     71578     71580     71579     71580
     71581     71582     71581     71583     71582     71583     71584     71585
     71584     71586     71585     71586     71587     71588     71587     71589
     71588     71589     71590     71591     71590     71592     71591     71592
     71593     71594     71593     71595     71594     71595     71596     71597
     71596     71598     71597     71598     71599     71600     71599     71601
     71600     71601     71602     71603     71602     71604     71603     71604
     71605     71606     71605     71607     71606     71607     71608     71609
     71608     71610     71609     71610     71611     71612     71611     71613
     71612     71613     71614     71615     71614     71616     71615     71616
     71617     71618     71617     71619     71618     71619     71620     71621
     71620     71622     71621     71622     71623     71624     71623     71625
     71624     71625     71626     71627     71626     71628     71627     71628
     71629     71630     71629     71631     71630     71631     71632     71633
     71632     71634     71633     71634     71635     71636     71635     71637
     71636     71637     71638     71639     71638     71640     71639     71640
     71641     71642     71641     71643     71642     71643     71644     71645
     71644     71646     71645     71646     71647     71648     71647     71649
     71648     71649     71650     71651     71650     71652     71651     71652
     71653     71654     71653     71655     71654     71655     71656     71657
     71656     71658     71657     71658     71659     71660     71659     71661
     71660     71661     71662     71663     71662     71664     71663     71664
     71665     71666     71665     71667     71666     71667     71668     71669
     71668     71670     71669     71670     71671     71672     71671     71673
     71672     71673     71674     71675     71674     71676     71675     71676
     71677     71678     71677     71679     71678     71679     71680     71681
     71680     71682     71681     71682     71683     71684     71683     71685
     71684     71685     71686     71687     71686     71688     71687     71688
     71689     71690     71689     71691     71690     71691     71692     71693
     71692     71694     71693     71694     71695     71696     71695     71697
     71696     71697     71698     71699     71698     71700     71699     71700
     71701     71702     71701     71703     71702     71703     71704     71705
     71704     71706     71705     71706     71707     71708     71707     71709
     71708     71709     71710     71711     71710     71712     71711     71712
     71713     71714     71713     71715     71714     71715     71716     71717
     71716     71718     71717     71718     71719     71720     71719     71721
     71720     71721     71722     71723     71722     71724     71723     71724
     71725     71726     71725     71727     71726     71727     71728     71729
     71728     71730     71729     71730     71731     71732     71731     71733
     71732     71733     71734     71735     71734     71736     71735     71736
     71737     71738     71737     71739     71738     71739     71740     71741
     71740     71742     71741     71742     71743     71744     71743     71745
     71744     71745     71746     71747     71746     71748     71747     71748
     71749     71750     71749     71751     71750     71751     71752     71753
     71752     71754     71753     71754     71755     71756     71755     71757
     71756     71757     71758     71759     71758     71760     71759     71760
     71761     71762     71761     71763     71762     71763     71764     71765
     71764     71766     71765     71766     71767     71768     71767     71769
     71768     71769     71770     71771     71770     71772     71771     71772
     71773     71774     71773     71775     71774     71775     71776     71777
     71776     71778     71777     71778     71779     71780     71779     71781
     71780     71781     71782     71783     71782     71784     71783     71784
     71785     71786     71785     71787     71786     71787     71788     71789
     71788     71790     71789     71790     71791     71792     71791     71793
     71792     71793     71794     71795     71794     71796     71795     71796
     71797     71798     71797     71799     71798     71799     71800     71801
     71800     71802     71801     71802     71803     71804     71803     71805
     71804     71805     71806     71807     71806     71808     71807     71808
     71809     71810     71809     71811     71810     71811     71812     71813
     71812     71814     71813     71814     71815     71816     71815     71817
     71816     71817     71818     71819     71818     71820     71819     71820
     71821     71822     71821     71823     71822     71823     71824     71825
     71824     71826     71825     71826     71827     71828     71827     71829
     71828     71829     71830     71831     71830     71832     71831     71832
     71833     71834     71833     71835     71834     71835     71836     71837
     71836     71838     71837     71838     71839     71840     71839     71841
     71840     71841     71842     71843     71842     71844     71843     71844
     71845     71846     71845     71847     71846     71847     71848     71849
     71848     71850     71849     71850     71851     71852     71851     71853
     71852     71853     71854     71855     71854     71856     71855     71856
     71857     71858     71857     71859     71858     71859     71860     71861
     71860     71862     71861     71862     71863     71864     71863     71865
     71864     71865     71866     71867     71866     71868     71867     71868
     71869     71870     71869     71871     71870     71871     71872     71873
     71872     71874     71873     71874     71875     71876     71875     71877
     71876     71877     71878     71879     71878     71880     71879     71880
     71881     71882     71881     71883     71882     71883     71884     71885
     71884     71886     71885     71886     71887     71888     71887     71889
     71888     71889     71890     71891     71890     71892     71891     71892
     71893     71894     71893     71895     71894     71895     71896     71897
     71896     71898     71897     71898     71899     71900     71899     71901
     71900     71901     71902     71903     71902     71904     71903     71904
     71905     71906     71905     71907     71906     71907     71908     71909
     71908     71910     71909     71910     71911     71912     71911     71913
     71912     71913     71914     71915     71914     71916     71915     71916
     71917     71918     71917     71919     71918     71919     71920     71921
     71920     71922     71921     71922     71923     71924     71923     71925
     71924     71925     71926     71927     71926     71928     71927     71928
     71929     71930     71929     71931     71930     71931     71932     71933
     71932     71934     71933     71934     71935     71936     71935     71937
     71936     71937     71938     71939     71938     71940     71939     71940
     71941     71942     71941     71943     71942     71943     71944     71945
     71944     71946     71945     71946     71947     71948     71947     71949
     71948     71949     71950     71951     71950     71952     71951     71952
     71953     71954     71953     71955     71954     71955     71956     71957
     71956     71958     71957     71958     71959     71960     71959     71961
     71960     71961     71962     71963     71962     71964     71963     71964
     71965     71966     71965     71967     71966     71967     71968     71969
     71968     71970     71969     71970     71971     71972     71971     71973
     71972     71973     71974     71975     71974     71976     71975     71976
     71977     71978     71977     71979     71978     71979     71980     71981
     71980     71982     71981     71982     71983     71984     71983     71985
     71984     71985     71986     71987     71986     71988     71987     71988
     71989     71990     71989     71991     71990     71991     71992     71993
     71992     71994     71993     71994     71995     71996     71995     71997
     71996     71997     71998     71999     71998     72000     71999     72000
     72001     72002     72001     72003     72002     72003     72004     72005
     72004     72006     72005     72006     72007     72008     72007     72009
     72008     72009     72010     72011     72010     72012     72011     72012
     72013     72014     72013     72015     72014     72015     72016     72017
     72016     72018     72017     72018     72019     72020     72019     72021
     72020     72021     72022     72023     72022     72024     72023     72024
     72025     72026     72025     72027     72026     72027     72028     72029
     72028     72030     72029     72030     72031     72032     72031     72033
     72032     72033     72034     72035     72034     72036     72035     72036
     72037     72038     72037     72039     72038     72039     72040     72041
     72040     72042     72041     72042     72043     72044     72043     72045
     72044     72045     72046     72047     72046     72048     72047     72048
     72049     72050     72049     72051     72050     72051     72052     72053
     72052     72054     72053     72054     72055     72056     72055     72057
     72056     72057     72058     72059     72058     72060     72059     72060
     72061     72062     72061     72063     72062     72063     72064     72065
     72064     72066     72065     72066     72067     72068     72067     72069
     72068     72069     72070     72071     72070     72072     72071     72072
     72073     72074     72073     72075     72074     72075     72076     72077
     72076     72078     72077     72078     72079     72080     72079     72081
     72080     72081     72082     72083     72082     72084     72083     72084
     72085     72086     72085     72087     72086     72087     72088     72089
     72088     72090     72089     72090     72091     72092     72091     72093
     72092     72093     72094     72095     72094     72096     72095     72096
     72097     72098     72097     72099     72098     72099     72100     72101
     72100     72102     72101     72102     72103     72104     72103     72105
     72104     72105     72106     72107     72106     72108     72107     72108
     72109     72110     72109     72111     72110     72111     72112     72113
     72112     72114     72113     72114     72115     72116     72115     72117
     72116     72117     72118     72119     72118     72120     72119     72120
     72121     72122     72121     72123     72122     72123     72124     72125
     72124     72126     72125     72126     72127     72128     72127     72129
     72128     72129     72130     72131     72130     72132     72131     72132
     72133     72134     72133     72135     72134     72135     72136     72137
     72136     72138     72137     72138     72139     72140     72139     72141
     72140     72141     72142     72143     72142     72144     72143     72144
     72145     72146     72145     72147     72146     72147     72148     72149
     72148     72150     72149     72150     72151     72152     72151     72153
     72152     72153     72154     72155     72154     72156     72155     72156
     72157     72158     72157     72159     72158     72159     72160     72161
     72160     72162     72161     72162     72163     72164     72163     72165
     72164     72165     72166     72167     72166     72168     72167     72168
     72169     72170     72169     72171     72170     72171     72172     72173
     72172     72174     72173     72174     72175     72176     72175     72177
     72176     72177     72178     72179     72178     72180     72179     72180
     72181     72182     72181     72183     72182     72183     72184     72185
     72184     72186     72185     72186     72187     72188     72187     72189
     72188     72189     72190     72191     72190     72192     72191     72192
     72193     72194     72193     72195     72194     72195     72196     72197
     72196     72198     72197     72198     72199     72200     72199     72201
     72200     72201     72202     72203     72202     72204     72203     72204
     72205     72206     72205     72207     72206     72207     72208     72209
     72208     72210     72209     72210     72211     72212     72211     72213
     72212     72213     72214     72215     72214     72216     72215     72216
     72217     72218     72217     72219     72218     72219     72220     72221
     72220     72222     72221     72222     72223     72224     72223     72225
     72224     72225     72226     72227     72226     72228     72227     72228
     72229     72230     72229     72231     72230     72231     72232     72233
     72232     72234     72233     72234     72235     72236     72235     72237
     72236     72237     72238     72239     72238     72240     72239     72240
     72241     72242     72241     72243     72242     72243     72244     72245
     72244     72246     72245     72246     72247     72248     72247     72249
     72248     72249     72250     72251     72250     72252     72251     72252
     72253     72254     72253     72255     72254     72255     72256     72257
     72256     72258     72257     72258     72259     72260     72259     72261
     72260     72261     72262     72263     72262     72264     72263     72264
     72265     72266     72265     72267     72266     72267     72268     72269
     72268     72270     72269     72270     72271     72272     72271     72273
     72272     72273     72274     72275     72274     72276     72275     72276
     72277     72278     72277     72279     72278     72279     72280     72281
     72280     72282     72281     72282     72283     72284     72283     72285
     72284     72285     72286     72287     72286     72288     72287     72288
     72289     72290     72289     72291     72290     72291     72292     72293
     72292     72294     72293     72294     72295     72296     72295     72297
     72296     72297     72298     72299     72298     72300     72299     72300
     72301     72302     72301     72303     72302     72303     72304     72305
     72304     72306     72305     72306     72307     72308     72307     72309
     72308     72309     72310     72311     72310     72312     72311     72312
     72313     72314     72313     72315     72314     72315     72316     72317
     72316     72318     72317     72318     72319     72320     72319     72321
     72320     72321     72322     72323     72322     72324     72323     72324
     72325     72326     72325     72327     72326     72327     72328     72329
     72328     72330     72329     72330     72331     72332     72331     72333
     72332     72333     72334     72335     72334     72336     72335     72336
     72337     72338     72337     72339     72338     72339     72340     72341
     72340     72342     72341     72342     72343     72344     72343     72345
     72344     72345     72346     72347     72346     72348     72347     72348
     72349     72350     72349     72351     72350     72351     72352     72353
     72352     72354     72353     72354     72355     72356     72355     72357
     72356     72357     72358     72359     72358     72360     72359     72360
     72361     72362     72361     72363     72362     72363     72364     72365
     72364     72366     72365     72366     72367     72368     72367     72369
     72368     72369     72370     72371     72370     72372     72371     72372
     72373     72374     72373     72375     72374     72375     72376     72377
     72376     72378     72377     72378     72379     72380     72379     72381
     72380     72381     72382     72383     72382     72384     72383     72384
     72385     72386     72385     72387     72386     72387     72388     72389
     72388     72390     72389     72390     72391     72392     72391     72393
     72392     72393     72394     72395     72394     72396     72395     72396
     72397     72398     72397     72399     72398     72399     72400     72401
     72400     72402     72401     72402     72403     72404     72403     72405
     72404     72405     72406     72407     72406     72408     72407     72408
     72409     72410     72409     72411     72410     72411     72412     72413
     72412     72414     72413     72414     72415     72416     72415     72417
     72416     72417     72418     72419     72418     72420     72419     72420
     72421     72422     72421     72423     72422     72423     72424     72425
     72424     72426     72425     72426     72427     72428     72427     72429
     72428     72429     72430     72431     72430     72432     72431     72432
     72433     72434     72433     72435     72434     72435     72436     72437
     72436     72438     72437     72438     72439     72440     72439     72441
     72440     72441     72442     72443     72442     72444     72443     72444
     72445     72446     72445     72447     72446     72447     72448     72449
     72448     72450     72449     72450     72451     72452     72451     72453
     72452     72453     72454     72455     72454     72456     72455     72456
     72457     72458     72457     72459     72458     72459     72460     72461
     72460     72462     72461     72462     72463     72464     72463     72465
     72464     72465     72466     72467     72466     72468     72467     72468
     72469     72470     72469     72471     72470     72471     72472     72473
     72472     72474     72473     72474     72475     72476     72475     72477
     72476     72477     72478     72479     72478     72480     72479     72480
     72481     72482     72481     72483     72482     72483     72484     72485
     72484     72486     72485     72486     72487     72488     72487     72489
     72488     72489     72490     72491     72490     72492     72491     72492
     72493     72494     72493     72495     72494     72495     72496     72497
     72496     72498     72497     72498     72499     72500     72499     72501
     72500     72501     72502     72503     72502     72504     72503     72504
     72505     72506     72505     72507     72506     72507     72508     72509
     72508     72510     72509     72510     72511     72512     72511     72513
     72512     72513     72514     72515     72514     72516     72515     72516
     72517     72518     72517     72519     72518     72519     72520     72521
     72520     72522     72521     72522     72523     72524     72523     72525
     72524     72525     72526     72527     72526     72528     72527     72528
     72529     72530     72529     72531     72530     72531     72532     72533
     72532     72534     72533     72534     72535     72536     72535     72537
     72536     72537     72538     72539     72538     72540     72539     72540
     72541     72542     72541     72543     72542     72543     72544     72545
     72544     72546     72545     72546     72547     72548     72547     72549
     72548     72549     72550     72551     72550     72552     72551     72552
     72553     72554     72553     72555     72554     72555     72556     72557
     72556     72558     72557     72558     72559     72560     72559     72561
     72560     72561     72562     72563     72562     72564     72563     72564
     72565     72566     72565     72567     72566     72567     72568     72569
     72568     72570     72569     72570     72571     72572     72571     72573
     72572     72573     72574     72575     72574     72576     72575     72576
     72577     72578     72577     72579     72578     72579     72580     72581
     72580     72582     72581     72582     72583     72584     72583     72585
     72584     72585     72586     72587     72586     72588     72587     72588
     72589     72590     72589     72591     72590     72591     72592     72593
     72592     72594     72593     72594     72595     72596     72595     72597
     72596     72597     72598     72599     72598     72600     72599     72600
     72601     72602     72601     72603     72602     72603     72604     72605
     72604     72606     72605     72606     72607     72608     72607     72609
     72608     72609     72610     72611     72610     72612     72611     72612
     72613     72614     72613     72615     72614     72615     72616     72617
     72616     72618     72617     72618     72619     72620     72619     72621
     72620     72621     72622     72623     72622     72624     72623     72624
     72625     72626     72625     72627     72626     72627     72628     72629
     72628     72630     72629     72630     72631     72632     72631     72633
     72632     72633     72634     72635     72634     72636     72635     72636
     72637     72638     72637     72639     72638     72639     72640     72641
     72640     72642     72641     72642     72643     72644     72643     72645
     72644     72645     72646     72647     72646     72648     72647     72648
     72649     72650     72649     72651     72650     72651     72652     72653
     72652     72654     72653     72654     72655     72656     72655     72657
     72656     72657     72658     72659     72658     72660     72659     72660
     72661     72662     72661     72663     72662     72663     72664     72665
     72664     72666     72665     72666     72667     72668     72667     72669
     72668     72669     72670     72671     72670     72672     72671     72672
     72673     72674     72673     72675     72674     72675     72676     72677
     72676     72678     72677     72678     72679     72680     72679     72681
     72680     72681     72682     72683     72682     72684     72683     72684
     72685     72686     72685     72687     72686     72687     72688     72689
     72688     72690     72689     72690     72691     72692     72691     72693
     72692     72693     72694     72695     72694     72696     72695     72696
     72697     72698     72697     72699     72698     72699     72700     72701
     72700     72702     72701     72702     72703     72704     72703     72705
     72704     72705     72706     72707     72706     72708     72707     72708
     72709     72710     72709     72711     72710     72711     72712     72713
     72712     72714     72713     72714     72715     72716     72715     72717
     72716     72717     72718     72719     72718     72720     72719     72720
     72721     72722     72721     72723     72722     72723     72724     72725
     72724     72726     72725     72726     72727     72728     72727     72729
     72728     72729     72730     72731     72730     72732     72731     72732
     72733     72734     72733     72735     72734     72735     72736     72737
     72736     72738     72737     72738     72739     72740     72739     72741
     72740     72741     72742     72743     72742     72744     72743     72744
     72745     72746     72745     72747     72746     72747     72748     72749
     72748     72750     72749     72750     72751     72752     72751     72753
     72752     72753     72754     72755     72754     72756     72755     72756
     72757     72758     72757     72759     72758     72759     72760     72761
     72760     72762     72761     72762     72763     72764     72763     72765
     72764     72765     72766     72767     72766     72768     72767     72768
     72769     72770     72769     72771     72770     72771     72772     72773
     72772     72774     72773     72774     72775     72776     72775     72777
     72776     72777     72778     72779     72778     72780     72779     72780
     72781     72782     72781     72783     72782     72783     72784     72785
     72784     72786     72785     72786     72787     72788     72787     72789
     72788     72789     72790     72791     72790     72792     72791     72792
     72793     72794     72793     72795     72794     72795     72796     72797
     72796     72798     72797     72798     72799     72800     72799     72801
     72800     72801     72802     72803     72802     72804     72803     72804
     72805     72806     72805     72807     72806     72807     72808     72809
     72808     72810     72809     72810     72811     72812     72811     72813
     72812     72813     72814     72815     72814     72816     72815     72816
     72817     72818     72817     72819     72818     72819     72820     72821
     72820     72822     72821     72822     72823     72824     72823     72825
     72824     72825     72826     72827     72826     72828     72827     72828
     72829     72830     72829     72831     72830     72831     72832     72833
     72832     72834     72833     72834     72835     72836     72835     72837
     72836     72837     72838     72839     72838     72840     72839     72840
     72841     72842     72841     72843     72842     72843     72844     72845
     72844     72846     72845     72846     72847     72848     72847     72849
     72848     72849     72850     72851     72850     72852     72851     72852
     72853     72854     72853     72855     72854     72855     72856     72857
     72856     72858     72857     72858     72859     72860     72859     72861
     72860     72861     72862     72863     72862     72864     72863     72864
     72865     72866     72865     72867     72866     72867     72868     72869
     72868     72870     72869     72870     72871     72872     72871     72873
     72872     72873     72874     72875     72874     72876     72875     72876
     72877     72878     72877     72879     72878     72879     72880     72881
     72880     72882     72881     72882     72883     72884     72883     72885
     72884     72885     72886     72887     72886     72888     72887     72888
     72889     72890     72889     72891     72890     72891     72892     72893
     72892     72894     72893     72894     72895     72896     72895     72897
     72896     72897     72898     72899     72898     72900     72899     72900
     72901     72902     72901     72903     72902     72903     72904     72905
     72904     72906     72905     72906     72907     72908     72907     72909
     72908     72909     72910     72911     72910     72912     72911     72912
     72913     72914     72913     72915     72914     72915     72916     72917
     72916     72918     72917     72918     72919     72920     72919     72921
     72920     72921     72922     72923     72922     72924     72923     72924
     72925     72926     72925     72927     72926     72927     72928     72929
     72928     72930     72929     72930     72931     72932     72931     72933
     72932     72933     72934     72935     72934     72936     72935     72936
     72937     72938     72937     72939     72938     72939     72940     72941
     72940     72942     72941     72942     72943     72944     72943     72945
     72944     72945     72946     72947     72946     72948     72947     72948
     72949     72950     72949     72951     72950     72951     72952     72953
     72952     72954     72953     72954     72955     72956     72955     72957
     72956     72957     72958     72959     72958     72960     72959     72960
     72961     72962     72961     72963     72962     72963     72964     72965
     72964     72966     72965     72966     72967     72968     72967     72969
     72968     72969     72970     72971     72970     72972     72971     72972
     72973     72974     72973     72975     72974     72975     72976     72977
     72976     72978     72977     72978     72979     72980     72979     72981
     72980     72981     72982     72983     72982     72984     72983     72984
     72985     72986     72985     72987     72986     72987     72988     72989
     72988     72990     72989     72990     72991     72992     72991     72993
     72992     72993     72994     72995     72994     72996     72995     72996
     72997     72998     72997     72999     72998     72999     73000     73001
     73000     73002     73001     73002     73003     73004     73003     73005
     73004     73005     73006     73007     73006     73008     73007     73008
     73009     73010     73009     73011     73010     73011     73012     73013
     73012     73014     73013     73014     73015     73016     73015     73017
     73016     73017     73018     73019     73018     73020     73019     73020
     73021     73022     73021     73023     73022     73023     73024     73025
     73024     73026     73025     73026     73027     73028     73027     73029
     73028     73029     73030     73031     73030     73032     73031     73032
     73033     73034     73033     73035     73034     73035     73036     73037
     73036     73038     73037     73038     73039     73040     73039     73041
     73040     73041     73042     73043     73042     73044     73043     73044
     73045     73046     73045     73047     73046     73047     73048     73049
     73048     73050     73049     73050     73051     73052     73051     73053
     73052     73053     73054     73055     73054     73056     73055     73056
     73057     73058     73057     73059     73058     73059     73060     73061
     73060     73062     73061     73062     73063     73064     73063     73065
     73064     73065     73066     73067     73066     73068     73067     73068
     73069     73070     73069     73071     73070     73071     73072     73073
     73072     73074     73073     73074     73075     73076     73075     73077
     73076     73077     73078     73079     73078     73080     73079     73080
     73081     73082     73081     73083     73082     73083     73084     73085
     73084     73086     73085     73086     73087     73088     73087     73089
     73088     73089     73090     73091     73090     73092     73091     73092
     73093     73094     73093     73095     73094     73095     73096     73097
     73096     73098     73097     73098     73099     73100     73099     73101
     73100     73101     73102     73103     73102     73104     73103     73104
     73105     73106     73105     73107     73106     73107     73108     73109
     73108     73110     73109     73110     73111     73112     73111     73113
     73112     73113     73114     73115     73114     73116     73115     73116
     73117     73118     73117     73119     73118     73119     73120     73121
     73120     73122     73121     73122     73123     73124     73123     73125
     73124     73125     73126     73127     73126     73128     73127     73128
     73129     73130     73129     73131     73130     73131     73132     73133
     73132     73134     73133     73134     73135     73136     73135     73137
     73136     73137     73138     73139     73138     73140     73139     73140
     73141     73142     73141     73143     73142     73143     73144     73145
     73144     73146     73145     73146     73147     73148     73147     73149
     73148     73149     73150     73151     73150     73152     73151     73152
     73153     73154     73153     73155     73154     73155     73156     73157
     73156     73158     73157     73158     73159     73160     73159     73161
     73160     73161     73162     73163     73162     73164     73163     73164
     73165     73166     73165     73167     73166     73167     73168     73169
     73168     73170     73169     73170     73171     73172     73171     73173
     73172     73173     73174     73175     73174     73176     73175     73176
     73177     73178     73177     73179     73178     73179     73180     73181
     73180     73182     73181     73182     73183     73184     73183     73185
     73184     73185     73186     73187     73186     73188     73187     73188
     73189     73190     73189     73191     73190     73191     73192     73193
     73192     73194     73193     73194     73195     73196     73195     73197
     73196     73197     73198     73199     73198     73200     73199     73200
     73201     73202     73201     73203     73202     73203     73204     73205
     73204     73206     73205     73206     73207     73208     73207     73209
     73208     73209     73210     73211     73210     73212     73211     73212
     73213     73214     73213     73215     73214     73215     73216     73217
     73216     73218     73217     73218     73219     73220     73219     73221
     73220     73221     73222     73223     73222     73224     73223     73224
     73225     73226     73225     73227     73226     73227     73228     73229
     73228     73230     73229     73230     73231     73232     73231     73233
     73232     73233     73234     73235     73234     73236     73235     73236
     73237     73238     73237     73239     73238     73239     73240     73241
     73240     73242     73241     73242     73243     73244     73243     73245
     73244     73245     73246     73247     73246     73248     73247     73248
     73249     73250     73249     73251     73250     73251     73252     73253
     73252     73254     73253     73254     73255     73256     73255     73257
     73256     73257     73258     73259     73258     73260     73259     73260
     73261     73262     73261     73263     73262     73263     73264     73265
     73264     73266     73265     73266     73267     73268     73267     73269
     73268     73269     73270     73271     73270     73272     73271     73272
     73273     73274     73273     73275     73274     73275     73276     73277
     73276     73278     73277     73278     73279     73280     73279     73281
     73280     73281     73282     73283     73282     73284     73283     73284
     73285     73286     73285     73287     73286     73287     73288     73289
     73288     73290     73289     73290     73291     73292     73291     73293
     73292     73293     73294     73295     73294     73296     73295     73296
     73297     73298     73297     73299     73298     73299     73300     73301
     73300     73302     73301     73302     73303     73304     73303     73305
     73304     73305     73306     73307     73306     73308     73307     73308
     73309     73310     73309     73311     73310     73311     73312     73313
     73312     73314     73313     73314     73315     73316     73315     73317
     73316     73317     73318     73319     73318     73320     73319     73320
     73321     73322     73321     73323     73322     73323     73324     73325
     73324     73326     73325     73326     73327     73328     73327     73329
     73328     73329     73330     73331     73330     73332     73331     73332
     73333     73334     73333     73335     73334     73335     73336     73337
     73336     73338     73337     73338     73339     73340     73339     73341
     73340     73341     73342     73343     73342     73344     73343     73344
     73345     73346     73345     73347     73346     73347     73348     73349
     73348     73350     73349     73350     73351     73352     73351     73353
     73352     73353     73354     73355     73354     73356     73355     73356
     73357     73358     73357     73359     73358     73359     73360     73361
     73360     73362     73361     73362     73363     73364     73363     73365
     73364     73365     73366     73367     73366     73368     73367     73368
     73369     73370     73369     73371     73370     73371     73372     73373
     73372     73374     73373     73374     73375     73376     73375     73377
     73376     73377     73378     73379     73378     73380     73379     73380
     73381     73382     73381     73383     73382     73383     73384     73385
     73384     73386     73385     73386     73387     73388     73387     73389
     73388     73389     73390     73391     73390     73392     73391     73392
     73393     73394     73393     73395     73394     73395     73396     73397
     73396     73398     73397     73398     73399     73400     73399     73401
     73400     73401     73402     73403     73402     73404     73403     73404
     73405     73406     73405     73407     73406     73407     73408     73409
     73408     73410     73409     73410     73411     73412     73411     73413
     73412     73413     73414     73415     73414     73416     73415     73416
     73417     73418     73417     73419     73418     73419     73420     73421
     73420     73422     73421     73422     73423     73424     73423     73425
     73424     73425     73426     73427     73426     73428     73427     73428
     73429     73430     73429     73431     73430     73431     73432     73433
     73432     73434     73433     73434     73435     73436     73435     73437
     73436     73437     73438     73439     73438     73440     73439     73440
     73441     73442     73441     73443     73442     73443     73444     73445
     73444     73446     73445     73446     73447     73448     73447     73449
     73448     73449     73450     73451     73450     73452     73451     73452
     73453     73454     73453     73455     73454     73455     73456     73457
     73456     73458     73457     73458     73459     73460     73459     73461
     73460     73461     73462     73463     73462     73464     73463     73464
     73465     73466     73465     73467     73466     73467     73468     73469
     73468     73470     73469     73470     73471     73472     73471     73473
     73472     73473     73474     73475     73474     73476     73475     73476
     73477     73478     73477     73479     73478     73479     73480     73481
     73480     73482     73481     73482     73483     73484     73483     73485
     73484     73485     73486     73487     73486     73488     73487     73488
     73489     73490     73489     73491     73490     73491     73492     73493
     73492     73494     73493     73494     73495     73496     73495     73497
     73496     73497     73498     73499     73498     73500     73499     73500
     73501     73502     73501     73503     73502     73503     73504     73505
     73504     73506     73505     73506     73507     73508     73507     73509
     73508     73509     73510     73511     73510     73512     73511     73512
     73513     73514     73513     73515     73514     73515     73516     73517
     73516     73518     73517     73518     73519     73520     73519     73521
     73520     73521     73522     73523     73522     73524     73523     73524
     73525     73526     73525     73527     73526     73527     73528     73529
     73528     73530     73529     73530     73531     73532     73531     73533
     73532     73533     73534     73535     73534     73536     73535     73536
     73537     73538     73537     73539     73538     73539     73540     73541
     73540     73542     73541     73542     73543     73544     73543     73545
     73544     73545     73546     73547     73546     73548     73547     73548
     73549     73550     73549     73551     73550     73551     73552     73553
     73552     73554     73553     73554     73555     73556     73555     73557
     73556     73557     73558     73559     73558     73560     73559     73560
     73561     73562     73561     73563     73562     73563     73564     73565
     73564     73566     73565     73566     73567     73568     73567     73569
     73568     73569     73570     73571     73570     73572     73571     73572
     73573     73574     73573     73575     73574     73575     73576     73577
     73576     73578     73577     73578     73579     73580     73579     73581
     73580     73581     73582     73583     73582     73584     73583     73584
     73585     73586     73585     73587     73586     73587     73588     73589
     73588     73590     73589     73590     73591     73592     73591     73593
     73592     73593     73594     73595     73594     73596     73595     73596
     73597     73598     73597     73599     73598     73599     73600     73601
     73600     73602     73601     73602     73603     73604     73603     73605
     73604     73605     73606     73607     73606     73608     73607     73608
     73609     73610     73609     73611     73610     73611     73612     73613
     73612     73614     73613     73614     73615     73616     73615     73617
     73616     73617     73618     73619     73618     73620     73619     73620
     73621     73622     73621     73623     73622     73623     73624     73625
     73624     73626     73625     73626     73627     73628     73627     73629
     73628     73629     73630     73631     73630     73632     73631     73632
     73633     73634     73633     73635     73634     73635     73636     73637
     73636     73638     73637     73638     73639     73640     73639     73641
     73640     73641     73642     73643     73642     73644     73643     73644
     73645     73646     73645     73647     73646     73647     73648     73649
     73648     73650     73649     73650     73651     73652     73651     73653
     73652     73653     73654     73655     73654     73656     73655     73656
     73657     73658     73657     73659     73658     73659     73660     73661
     73660     73662     73661     73662     73663     73664     73663     73665
     73664     73665     73666     73667     73666     73668     73667     73668
     73669     73670     73669     73671     73670     73671     73672     73673
     73672     73674     73673     73674     73675     73676     73675     73677
     73676     73677     73678     73679     73678     73680     73679     73680
     73681     73682     73681     73683     73682     73683     73684     73685
     73684     73686     73685     73686     73687     73688     73687     73689
     73688     73689     73690     73691     73690     73692     73691     73692
     73693     73694     73693     73695     73694     73695     73696     73697
     73696     73698     73697     73698     73699     73700     73699     73701
     73700     73701     73702     73703     73702     73704     73703     73704
     73705     73706     73705     73707     73706     73707     73708     73709
     73708     73710     73709     73710     73711     73712     73711     73713
     73712     73713     73714     73715     73714     73716     73715     73716
     73717     73718     73717     73719     73718     73719     73720     73721
     73720     73722     73721     73722     73723     73724     73723     73725
     73724     73725     73726     73727     73726     73728     73727     73728
     73729     73730     73729     73731     73730     73731     73732     73733
     73732     73734     73733     73734     73735     73736     73735     73737
     73736     73737     73738     73739     73738     73740     73739     73740
     73741     73742     73741     73743     73742     73743     73744     73745
     73744     73746     73745     73746     73747     73748     73747     73749
     73748     73749     73750     73751     73750     73752     73751     73752
     73753     73754     73753     73755     73754     73755     73756     73757
     73756     73758     73757     73758     73759     73760     73759     73761
     73760     73761     73762     73763     73762     73764     73763     73764
     73765     73766     73765     73767     73766     73767     73768     73769
     73768     73770     73769     73770     73771     73772     73771     73773
     73772     73773     73774     73775     73774     73776     73775     73776
     73777     73778     73777     73779     73778     73779     73780     73781
     73780     73782     73781     73782     73783     73784     73783     73785
     73784     73785     73786     73787     73786     73788     73787     73788
     73789     73790     73789     73791     73790     73791     73792     73793
     73792     73794     73793     73794     73795     73796     73795     73797
     73796     73797     73798     73799     73798     73800     73799     73800
     73801     73802     73801     73803     73802     73803     73804     73805
     73804     73806     73805     73806     73807     73808     73807     73809
     73808     73809     73810     73811     73810     73812     73811     73812
     73813     73814     73813     73815     73814     73815     73816     73817
     73816     73818     73817     73818     73819     73820     73819     73821
     73820     73821     73822     73823     73822     73824     73823     73824
     73825     73826     73825     73827     73826     73827     73828     73829
     73828     73830     73829     73830     73831     73832     73831     73833
     73832     73833     73834     73835     73834     73836     73835     73836
     73837     73838     73837     73839     73838     73839     73840     73841
     73840     73842     73841     73842     73843     73844     73843     73845
     73844     73845     73846     73847     73846     73848     73847     73848
     73849     73850     73849     73851     73850     73851     73852     73853
     73852     73854     73853     73854     73855     73856     73855     73857
     73856     73857     73858     73859     73858     73860     73859     73860
     73861     73862     73861     73863     73862     73863     73864     73865
     73864     73866     73865     73866     73867     73868     73867     73869
     73868     73869     73870     73871     73870     73872     73871     73872
     73873     73874     73873     73875     73874     73875     73876     73877
     73876     73878     73877     73878     73879     73880     73879     73881
     73880     73881     73882     73883     73882     73884     73883     73884
     73885     73886     73885     73887     73886     73887     73888     73889
     73888     73890     73889     73890     73891     73892     73891     73893
     73892     73893     73894     73895     73894     73896     73895     73896
     73897     73898     73897     73899     73898     73899     73900     73901
     73900     73902     73901     73902     73903     73904     73903     73905
     73904     73905     73906     73907     73906     73908     73907     73908
     73909     73910     73909     73911     73910     73911     73912     73913
     73912     73914     73913     73914     73915     73916     73915     73917
     73916     73917     73918     73919     73918     73920     73919     73920
     73921     73922     73921     73923     73922     73923     73924     73925
     73924     73926     73925     73926     73927     73928     73927     73929
     73928     73929     73930     73931     73930     73932     73931     73932
     73933     73934     73933     73935     73934     73935     73936     73937
     73936     73938     73937     73938     73939     73940     73939     73941
     73940     73941     73942     73943     73942     73944     73943     73944
     73945     73946     73945     73947     73946     73947     73948     73949
     73948     73950     73949     73950     73951     73952     73951     73953
     73952     73953     73954     73955     73954     73956     73955     73956
     73957     73958     73957     73959     73958     73959     73960     73961
     73960     73962     73961     73962     73963     73964     73963     73965
     73964     73965     73966     73967     73966     73968     73967     73968
     73969     73970     73969     73971     73970     73971     73972     73973
     73972     73974     73973     73974     73975     73976     73975     73977
     73976     73977     73978     73979     73978     73980     73979     73980
     73981     73982     73981     73983     73982     73983     73984     73985
     73984     73986     73985     73986     73987     73988     73987     73989
     73988     73989     73990     73991     73990     73992     73991     73992
     73993     73994     73993     73995     73994     73995     73996     73997
     73996     73998     73997     73998     73999     74000     73999     74001
     74000     74001     74002     74003     74002     74004     74003     74004
     74005     74006     74005     74007     74006     74007     74008     74009
     74008     74010     74009     74010     74011     74012     74011     74013
     74012     74013     74014     74015     74014     74016     74015     74016
     74017     74018     74017     74019     74018     74019     74020     74021
     74020     74022     74021     74022     74023     74024     74023     74025
     74024     74025     74026     74027     74026     74028     74027     74028
     74029     74030     74029     74031     74030     74031     74032     74033
     74032     74034     74033     74034     74035     74036     74035     74037
     74036     74037     74038     74039     74038     74040     74039     74040
     74041     74042     74041     74043     74042     74043     74044     74045
     74044     74046     74045     74046     74047     74048     74047     74049
     74048     74049     74050     74051     74050     74052     74051     74052
     74053     74054     74053     74055     74054     74055     74056     74057
     74056     74058     74057     74058     74059     74060     74059     74061
     74060     74061     74062     74063     74062     74064     74063     74064
     74065     74066     74065     74067     74066     74067     74068     74069
     74068     74070     74069     74070     74071     74072     74071     74073
     74072     74073     74074     74075     74074     74076     74075     74076
     74077     74078     74077     74079     74078     74079     74080     74081
     74080     74082     74081     74082     74083     74084     74083     74085
     74084     74085     74086     74087     74086     74088     74087     74088
     74089     74090     74089     74091     74090     74091     74092     74093
     74092     74094     74093     74094     74095     74096     74095     74097
     74096     74097     74098     74099     74098     74100     74099     74100
     74101     74102     74101     74103     74102     74103     74104     74105
     74104     74106     74105     74106     74107     74108     74107     74109
     74108     74109     74110     74111     74110     74112     74111     74112
     74113     74114     74113     74115     74114     74115     74116     74117
     74116     74118     74117     74118     74119     74120     74119     74121
     74120     74121     74122     74123     74122     74124     74123     74124
     74125     74126     74125     74127     74126     74127     74128     74129
     74128     74130     74129     74130     74131     74132     74131     74133
     74132     74133     74134     74135     74134     74136     74135     74136
     74137     74138     74137     74139     74138     74139     74140     74141
     74140     74142     74141     74142     74143     74144     74143     74145
     74144     74145     74146     74147     74146     74148     74147     74148
     74149     74150     74149     74151     74150     74151     74152     74153
     74152     74154     74153     74154     74155     74156     74155     74157
     74156     74157     74158     74159     74158     74160     74159     74160
     74161     74162     74161     74163     74162     74163     74164     74165
     74164     74166     74165     74166     74167     74168     74167     74169
     74168     74169     74170     74171     74170     74172     74171     74172
     74173     74174     74173     74175     74174     74175     74176     74177
     74176     74178     74177     74178     74179     74180     74179     74181
     74180     74181     74182     74183     74182     74184     74183     74184
     74185     74186     74185     74187     74186     74187     74188     74189
     74188     74190     74189     74190     74191     74192     74191     74193
     74192     74193     74194     74195     74194     74196     74195     74196
     74197     74198     74197     74199     74198     74199     74200     74201
     74200     74202     74201     74202     74203     74204     74203     74205
     74204     74205     74206     74207     74206     74208     74207     74208
     74209     74210     74209     74211     74210     74211     74212     74213
     74212     74214     74213     74214     74215     74216     74215     74217
     74216     74217     74218     74219     74218     74220     74219     74220
     74221     74222     74221     74223     74222     74223     74224     74225
     74224     74226     74225     74226     74227     74228     74227     74229
     74228     74229     74230     74231     74230     74232     74231     74232
     74233     74234     74233     74235     74234     74235     74236     74237
     74236     74238     74237     74238     74239     74240     74239     74241
     74240     74241     74242     74243     74242     74244     74243     74244
     74245     74246     74245     74247     74246     74247     74248     74249
     74248     74250     74249     74250     74251     74252     74251     74253
     74252     74253     74254     74255     74254     74256     74255     74256
     74257     74258     74257     74259     74258     74259     74260     74261
     74260     74262     74261     74262     74263     74264     74263     74265
     74264     74265     74266     74267     74266     74268     74267     74268
     74269     74270     74269     74271     74270     74271     74272     74273
     74272     74274     74273     74274     74275     74276     74275     74277
     74276     74277     74278     74279     74278     74280     74279     74280
     74281     74282     74281     74283     74282     74283     74284     74285
     74284     74286     74285     74286     74287     74288     74287     74289
     74288     74289     74290     74291     74290     74292     74291     74292
     74293     74294     74293     74295     74294     74295     74296     74297
     74296     74298     74297     74298     74299     74300     74299     74301
     74300     74301     74302     74303     74302     74304     74303     74304
     74305     74306     74305     74307     74306     74307     74308     74309
     74308     74310     74309     74310     74311     74312     74311     74313
     74312     74313     74314     74315     74314     74316     74315     74316
     74317     74318     74317     74319     74318     74319     74320     74321
     74320     74322     74321     74322     74323     74324     74323     74325
     74324     74325     74326     74327     74326     74328     74327     74328
     74329     74330     74329     74331     74330     74331     74332     74333
     74332     74334     74333     74334     74335     74336     74335     74337
     74336     74337     74338     74339     74338     74340     74339     74340
     74341     74342     74341     74343     74342     74343     74344     74345
     74344     74346     74345     74346     74347     74348     74347     74349
     74348     74349     74350     74351     74350     74352     74351     74352
     74353     74354     74353     74355     74354     74355     74356     74357
     74356     74358     74357     74358     74359     74360     74359     74361
     74360     74361     74362     74363     74362     74364     74363     74364
     74365     74366     74365     74367     74366     74367     74368     74369
     74368     74370     74369     74370     74371     74372     74371     74373
     74372     74373     74374     74375     74374     74376     74375     74376
     74377     74378     74377     74379     74378     74379     74380     74381
     74380     74382     74381     74382     74383     74384     74383     74385
     74384     74385     74386     74387     74386     74388     74387     74388
     74389     74390     74389     74391     74390     74391     74392     74393
     74392     74394     74393     74394     74395     74396     74395     74397
     74396     74397     74398     74399     74398     74400     74399     74400
     74401     74402     74401     74403     74402     74403     74404     74405
     74404     74406     74405     74406     74407     74408     74407     74409
     74408     74409     74410     74411     74410     74412     74411     74412
     74413     74414     74413     74415     74414     74415     74416     74417
     74416     74418     74417     74418     74419     74420     74419     74421
     74420     74421     74422     74423     74422     74424     74423     74424
     74425     74426     74425     74427     74426     74427     74428     74429
     74428     74430     74429     74430     74431     74432     74431     74433
     74432     74433     74434     74435     74434     74436     74435     74436
     74437     74438     74437     74439     74438     74439     74440     74441
     74440     74442     74441     74442     74443     74444     74443     74445
     74444     74445     74446     74447     74446     74448     74447     74448
     74449     74450     74449     74451     74450     74451     74452     74453
     74452     74454     74453     74454     74455     74456     74455     74457
     74456     74457     74458     74459     74458     74460     74459     74460
     74461     74462     74461     74463     74462     74463     74464     74465
     74464     74466     74465     74466     74467     74468     74467     74469
     74468     74469     74470     74471     74470     74472     74471     74472
     74473     74474     74473     74475     74474     74475     74476     74477
     74476     74478     74477     74478     74479     74480     74479     74481
     74480     74481     74482     74483     74482     74484     74483     74484
     74485     74486     74485     74487     74486     74487     74488     74489
     74488     74490     74489     74490     74491     74492     74491     74493
     74492     74493     74494     74495     74494     74496     74495     74496
     74497     74498     74497     74499     74498     74499     74500     74501
     74500     74502     74501     74502     74503     74504     74503     74505
     74504     74505     74506     74507     74506     74508     74507     74508
     74509     74510     74509     74511     74510     74511     74512     74513
     74512     74514     74513     74514     74515     74516     74515     74517
     74516     74517     74518     74519     74518     74520     74519     74520
     74521     74522     74521     74523     74522     74523     74524     74525
     74524     74526     74525     74526     74527     74528     74527     74529
     74528     74529     74530     74531     74530     74532     74531     74532
     74533     74534     74533     74535     74534     74535     74536     74537
     74536     74538     74537     74538     74539     74540     74539     74541
     74540     74541     74542     74543     74542     74544     74543     74544
     74545     74546     74545     74547     74546     74547     74548     74549
     74548     74550     74549     74550     74551     74552     74551     74553
     74552     74553     74554     74555     74554     74556     74555     74556
     74557     74558     74557     74559     74558     74559     74560     74561
     74560     74562     74561     74562     74563     74564     74563     74565
     74564     74565     74566     74567     74566     74568     74567     74568
     74569     74570     74569     74571     74570     74571     74572     74573
     74572     74574     74573     74574     74575     74576     74575     74577
     74576     74577     74578     74579     74578     74580     74579     74580
     74581     74582     74581     74583     74582     74583     74584     74585
     74584     74586     74585     74586     74587     74588     74587     74589
     74588     74589     74590     74591     74590     74592     74591     74592
     74593     74594     74593     74595     74594     74595     74596     74597
     74596     74598     74597     74598     74599     74600     74599     74601
     74600     74601     74602     74603     74602     74604     74603     74604
     74605     74606     74605     74607     74606     74607     74608     74609
     74608     74610     74609     74610     74611     74612     74611     74613
     74612     74613     74614     74615     74614     74616     74615     74616
     74617     74618     74617     74619     74618     74619     74620     74621
     74620     74622     74621     74622     74623     74624     74623     74625
     74624     74625     74626     74627     74626     74628     74627     74628
     74629     74630     74629     74631     74630     74631     74632     74633
     74632     74634     74633     74634     74635     74636     74635     74637
     74636     74637     74638     74639     74638     74640     74639     74640
     74641     74642     74641     74643     74642     74643     74644     74645
     74644     74646     74645     74646     74647     74648     74647     74649
     74648     74649     74650     74651     74650     74652     74651     74652
     74653     74654     74653     74655     74654     74655     74656     74657
     74656     74658     74657     74658     74659     74660     74659     74661
     74660     74661     74662     74663     74662     74664     74663     74664
     74665     74666     74665     74667     74666     74667     74668     74669
     74668     74670     74669     74670     74671     74672     74671     74673
     74672     74673     74674     74675     74674     74676     74675     74676
     74677     74678     74677     74679     74678     74679     74680     74681
     74680     74682     74681     74682     74683     74684     74683     74685
     74684     74685     74686     74687     74686     74688     74687     74688
     74689     74690     74689     74691     74690     74691     74692     74693
     74692     74694     74693     74694     74695     74696     74695     74697
     74696     74697     74698     74699     74698     74700     74699     74700
     74701     74702     74701     74703     74702     74703     74704     74705
     74704     74706     74705     74706     74707     74708     74707     74709
     74708     74709     74710     74711     74710     74712     74711     74712
     74713     74714     74713     74715     74714     74715     74716     74717
     74716     74718     74717     74718     74719     74720     74719     74721
     74720     74721     74722     74723     74722     74724     74723     74724
     74725     74726     74725     74727     74726     74727     74728     74729
     74728     74730     74729     74730     74731     74732     74731     74733
     74732     74733     74734     74735     74734     74736     74735     74736
     74737     74738     74737     74739     74738     74739     74740     74741
     74740     74742     74741     74742     74743     74744     74743     74745
     74744     74745     74746     74747     74746     74748     74747     74748
     74749     74750     74749     74751     74750     74751     74752     74753
     74752     74754     74753     74754     74755     74756     74755     74757
     74756     74757     74758     74759     74758     74760     74759     74760
     74761     74762     74761     74763     74762     74763     74764     74765
     74764     74766     74765     74766     74767     74768     74767     74769
     74768     74769     74770     74771     74770     74772     74771     74772
     74773     74774     74773     74775     74774     74775     74776     74777
     74776     74778     74777     74778     74779     74780     74779     74781
     74780     74781     74782     74783     74782     74784     74783     74784
     74785     74786     74785     74787     74786     74787     74788     74789
     74788     74790     74789     74790     74791     74792     74791     74793
     74792     74793     74794     74795     74794     74796     74795     74796
     74797     74798     74797     74799     74798     74799     74800     74801
     74800     74802     74801     74802     74803     74804     74803     74805
     74804     74805     74806     74807     74806     74808     74807     74808
     74809     74810     74809     74811     74810     74811     74812     74813
     74812     74814     74813     74814     74815     74816     74815     74817
     74816     74817     74818     74819     74818     74820     74819     74820
     74821     74822     74821     74823     74822     74823     74824     74825
     74824     74826     74825     74826     74827     74828     74827     74829
     74828     74829     74830     74831     74830     74832     74831     74832
     74833     74834     74833     74835     74834     74835     74836     74837
     74836     74838     74837     74838     74839     74840     74839     74841
     74840     74841     74842     74843     74842     74844     74843     74844
     74845     74846     74845     74847     74846     74847     74848     74849
     74848     74850     74849     74850     74851     74852     74851     74853
     74852     74853     74854     74855     74854     74856     74855     74856
     74857     74858     74857     74859     74858     74859     74860     74861
     74860     74862     74861     74862     74863     74864     74863     74865
     74864     74865     74866     74867     74866     74868     74867     74868
     74869     74870     74869     74871     74870     74871     74872     74873
     74872     74874     74873     74874     74875     74876     74875     74877
     74876     74877     74878     74879     74878     74880     74879     74880
     74881     74882     74881     74883     74882     74883     74884     74885
     74884     74886     74885     74886     74887     74888     74887     74889
     74888     74889     74890     74891     74890     74892     74891     74892
     74893     74894     74893     74895     74894     74895     74896     74897
     74896     74898     74897     74898     74899     74900     74899     74901
     74900     74901     74902     74903     74902     74904     74903     74904
     74905     74906     74905     74907     74906     74907     74908     74909
     74908     74910     74909     74910     74911     74912     74911     74913
     74912     74913     74914     74915     74914     74916     74915     74916
     74917     74918     74917     74919     74918     74919     74920     74921
     74920     74922     74921     74922     74923     74924     74923     74925
     74924     74925     74926     74927     74926     74928     74927     74928
     74929     74930     74929     74931     74930     74931     74932     74933
     74932     74934     74933     74934     74935     74936     74935     74937
     74936     74937     74938     74939     74938     74940     74939     74940
     74941     74942     74941     74943     74942     74943     74944     74945
     74944     74946     74945     74946     74947     74948     74947     74949
     74948     74949     74950     74951     74950     74952     74951     74952
     74953     74954     74953     74955     74954     74955     74956     74957
     74956     74958     74957     74958     74959     74960     74959     74961
     74960     74961     74962     74963     74962     74964     74963     74964
     74965     74966     74965     74967     74966     74967     74968     74969
     74968     74970     74969     74970     74971     74972     74971     74973
     74972     74973     74974     74975     74974     74976     74975     74976
     74977     74978     74977     74979     74978     74979     74980     74981
     74980     74982     74981     74982     74983     74984     74983     74985
     74984     74985     74986     74987     74986     74988     74987     74988
     74989     74990     74989     74991     74990     74991     74992     74993
     74992     74994     74993     74994     74995     74996     74995     74997
     74996     74997     74998     74999     74998     75000     74999     75000
     75001     75002     75001     75003     75002     75003     75004     75005
     75004     75006     75005     75006     75007     75008     75007     75009
     75008     75009     75010     75011     75010     75012     75011     75012
     75013     75014     75013     75015     75014     75015     75016     75017
     75016     75018     75017     75018     75019     75020     75019     75021
     75020     75021     75022     75023     75022     75024     75023     75024
     75025     75026     75025     75027     75026     75027     75028     75029
     75028     75030     75029     75030     75031     75032     75031     75033
     75032     75033     75034     75035     75034     75036     75035     75036
     75037     75038     75037     75039     75038     75039     75040     75041
     75040     75042     75041     75042     75043     75044     75043     75045
     75044     75045     75046     75047     75046     75048     75047     75048
     75049     75050     75049     75051     75050     75051     75052     75053
     75052     75054     75053     75054     75055     75056     75055     75057
     75056     75057     75058     75059     75058     75060     75059     75060
     75061     75062     75061     75063     75062     75063     75064     75065
     75064     75066     75065     75066     75067     75068     75067     75069
     75068     75069     75070     75071     75070     75072     75071     75072
     75073     75074     75073     75075     75074     75075     75076     75077
     75076     75078     75077     75078     75079     75080     75079     75081
     75080     75081     75082     75083     75082     75084     75083     75084
     75085     75086     75085     75087     75086     75087     75088     75089
     75088     75090     75089     75090     75091     75092     75091     75093
     75092     75093     75094     75095     75094     75096     75095     75096
     75097     75098     75097     75099     75098     75099     75100     75101
     75100     75102     75101     75102     75103     75104     75103     75105
     75104     75105     75106     75107     75106     75108     75107     75108
     75109     75110     75109     75111     75110     75111     75112     75113
     75112     75114     75113     75114     75115     75116     75115     75117
     75116     75117     75118     75119     75118     75120     75119     75120
     75121     75122     75121     75123     75122     75123     75124     75125
     75124     75126     75125     75126     75127     75128     75127     75129
     75128     75129     75130     75131     75130     75132     75131     75132
     75133     75134     75133     75135     75134     75135     75136     75137
     75136     75138     75137     75138     75139     75140     75139     75141
     75140     75141     75142     75143     75142     75144     75143     75144
     75145     75146     75145     75147     75146     75147     75148     75149
     75148     75150     75149     75150     75151     75152     75151     75153
     75152     75153     75154     75155     75154     75156     75155     75156
     75157     75158     75157     75159     75158     75159     75160     75161
     75160     75162     75161     75162     75163     75164     75163     75165
     75164     75165     75166     75167     75166     75168     75167     75168
     75169     75170     75169     75171     75170     75171     75172     75173
     75172     75174     75173     75174     75175     75176     75175     75177
     75176     75177     75178     75179     75178     75180     75179     75180
     75181     75182     75181     75183     75182     75183     75184     75185
     75184     75186     75185     75186     75187     75188     75187     75189
     75188     75189     75190     75191     75190     75192     75191     75192
     75193     75194     75193     75195     75194     75195     75196     75197
     75196     75198     75197     75198     75199     75200     75199     75201
     75200     75201     75202     75203     75202     75204     75203     75204
     75205     75206     75205     75207     75206     75207     75208     75209
     75208     75210     75209     75210     75211     75212     75211     75213
     75212     75213     75214     75215     75214     75216     75215     75216
     75217     75218     75217     75219     75218     75219     75220     75221
     75220     75222     75221     75222     75223     75224     75223     75225
     75224     75225     75226     75227     75226     75228     75227     75228
     75229     75230     75229     75231     75230     75231     75232     75233
     75232     75234     75233     75234     75235     75236     75235     75237
     75236     75237     75238     75239     75238     75240     75239     75240
     75241     75242     75241     75243     75242     75243     75244     75245
     75244     75246     75245     75246     75247     75248     75247     75249
     75248     75249     75250     75251     75250     75252     75251     75252
     75253     75254     75253     75255     75254     75255     75256     75257
     75256     75258     75257     75258     75259     75260     75259     75261
     75260     75261     75262     75263     75262     75264     75263     75264
     75265     75266     75265     75267     75266     75267     75268     75269
     75268     75270     75269     75270     75271     75272     75271     75273
     75272     75273     75274     75275     75274     75276     75275     75276
     75277     75278     75277     75279     75278     75279     75280     75281
     75280     75282     75281     75282     75283     75284     75283     75285
     75284     75285     75286     75287     75286     75288     75287     75288
     75289     75290     75289     75291     75290     75291     75292     75293
     75292     75294     75293     75294     75295     75296     75295     75297
     75296     75297     75298     75299     75298     75300     75299     75300
     75301     75302     75301     75303     75302     75303     75304     75305
     75304     75306     75305     75306     75307     75308     75307     75309
     75308     75309     75310     75311     75310     75312     75311     75312
     75313     75314     75313     75315     75314     75315     75316     75317
     75316     75318     75317     75318     75319     75320     75319     75321
     75320     75321     75322     75323     75322     75324     75323     75324
     75325     75326     75325     75327     75326     75327     75328     75329
     75328     75330     75329     75330     75331     75332     75331     75333
     75332     75333     75334     75335     75334     75336     75335     75336
     75337     75338     75337     75339     75338     75339     75340     75341
     75340     75342     75341     75342     75343     75344     75343     75345
     75344     75345     75346     75347     75346     75348     75347     75348
     75349     75350     75349     75351     75350     75351     75352     75353
     75352     75354     75353     75354     75355     75356     75355     75357
     75356     75357     75358     75359     75358     75360     75359     75360
     75361     75362     75361     75363     75362     75363     75364     75365
     75364     75366     75365     75366     75367     75368     75367     75369
     75368     75369     75370     75371     75370     75372     75371     75372
     75373     75374     75373     75375     75374     75375     75376     75377
     75376     75378     75377     75378     75379     75380     75379     75381
     75380     75381     75382     75383     75382     75384     75383     75384
     75385     75386     75385     75387     75386     75387     75388     75389
     75388     75390     75389     75390     75391     75392     75391     75393
     75392     75393     75394     75395     75394     75396     75395     75396
     75397     75398     75397     75399     75398     75399     75400     75401
     75400     75402     75401     75402     75403     75404     75403     75405
     75404     75405     75406     75407     75406     75408     75407     75408
     75409     75410     75409     75411     75410     75411     75412     75413
     75412     75414     75413     75414     75415     75416     75415     75417
     75416     75417     75418     75419     75418     75420     75419     75420
     75421     75422     75421     75423     75422     75423     75424     75425
     75424     75426     75425     75426     75427     75428     75427     75429
     75428     75429     75430     75431     75430     75432     75431     75432
     75433     75434     75433     75435     75434     75435     75436     75437
     75436     75438     75437     75438     75439     75440     75439     75441
     75440     75441     75442     75443     75442     75444     75443     75444
     75445     75446     75445     75447     75446     75447     75448     75449
     75448     75450     75449     75450     75451     75452     75451     75453
     75452     75453     75454     75455     75454     75456     75455     75456
     75457     75458     75457     75459     75458     75459     75460     75461
     75460     75462     75461     75462     75463     75464     75463     75465
     75464     75465     75466     75467     75466     75468     75467     75468
     75469     75470     75469     75471     75470     75471     75472     75473
     75472     75474     75473     75474     75475     75476     75475     75477
     75476     75477     75478     75479     75478     75480     75479     75480
     75481     75482     75481     75483     75482     75483     75484     75485
     75484     75486     75485     75486     75487     75488     75487     75489
     75488     75489     75490     75491     75490     75492     75491     75492
     75493     75494     75493     75495     75494     75495     75496     75497
     75496     75498     75497     75498     75499     75500     75499     75501
     75500     75501     75502     75503     75502     75504     75503     75504
     75505     75506     75505     75507     75506     75507     75508     75509
     75508     75510     75509     75510     75511     75512     75511     75513
     75512     75513     75514     75515     75514     75516     75515     75516
     75517     75518     75517     75519     75518     75519     75520     75521
     75520     75522     75521     75522     75523     75524     75523     75525
     75524     75525     75526     75527     75526     75528     75527     75528
     75529     75530     75529     75531     75530     75531     75532     75533
     75532     75534     75533     75534     75535     75536     75535     75537
     75536     75537     75538     75539     75538     75540     75539     75540
     75541     75542     75541     75543     75542     75543     75544     75545
     75544     75546     75545     75546     75547     75548     75547     75549
     75548     75549     75550     75551     75550     75552     75551     75552
     75553     75554     75553     75555     75554     75555     75556     75557
     75556     75558     75557     75558     75559     75560     75559     75561
     75560     75561     75562     75563     75562     75564     75563     75564
     75565     75566     75565     75567     75566     75567     75568     75569
     75568     75570     75569     75570     75571     75572     75571     75573
     75572     75573     75574     75575     75574     75576     75575     75576
     75577     75578     75577     75579     75578     75579     75580     75581
     75580     75582     75581     75582     75583     75584     75583     75585
     75584     75585     75586     75587     75586     75588     75587     75588
     75589     75590     75589     75591     75590     75591     75592     75593
     75592     75594     75593     75594     75595     75596     75595     75597
     75596     75597     75598     75599     75598     75600     75599     75600
     75601     75602     75601     75603     75602     75603     75604     75605
     75604     75606     75605     75606     75607     75608     75607     75609
     75608     75609     75610     75611     75610     75612     75611     75612
     75613     75614     75613     75615     75614     75615     75616     75617
     75616     75618     75617     75618     75619     75620     75619     75621
     75620     75621     75622     75623     75622     75624     75623     75624
     75625     75626     75625     75627     75626     75627     75628     75629
     75628     75630     75629     75630     75631     75632     75631     75633
     75632     75633     75634     75635     75634     75636     75635     75636
     75637     75638     75637     75639     75638     75639     75640     75641
     75640     75642     75641     75642     75643     75644     75643     75645
     75644     75645     75646     75647     75646     75648     75647     75648
     75649     75650     75649     75651     75650     75651     75652     75653
     75652     75654     75653     75654     75655     75656     75655     75657
     75656     75657     75658     75659     75658     75660     75659     75660
     75661     75662     75661     75663     75662     75663     75664     75665
     75664     75666     75665     75666     75667     75668     75667     75669
     75668     75669     75670     75671     75670     75672     75671     75672
     75673     75674     75673     75675     75674     75675     75676     75677
     75676     75678     75677     75678     75679     75680     75679     75681
     75680     75681     75682     75683     75682     75684     75683     75684
     75685     75686     75685     75687     75686     75687     75688     75689
     75688     75690     75689     75690     75691     75692     75691     75693
     75692     75693     75694     75695     75694     75696     75695     75696
     75697     75698     75697     75699     75698     75699     75700     75701
     75700     75702     75701     75702     75703     75704     75703     75705
     75704     75705     75706     75707     75706     75708     75707     75708
     75709     75710     75709     75711     75710     75711     75712     75713
     75712     75714     75713     75714     75715     75716     75715     75717
     75716     75717     75718     75719     75718     75720     75719     75720
     75721     75722     75721     75723     75722     75723     75724     75725
     75724     75726     75725     75726     75727     75728     75727     75729
     75728     75729     75730     75731     75730     75732     75731     75732
     75733     75734     75733     75735     75734     75735     75736     75737
     75736     75738     75737     75738     75739     75740     75739     75741
     75740     75741     75742     75743     75742     75744     75743     75744
     75745     75746     75745     75747     75746     75747     75748     75749
     75748     75750     75749     75750     75751     75752     75751     75753
     75752     75753     75754     75755     75754     75756     75755     75756
     75757     75758     75757     75759     75758     75759     75760     75761
     75760     75762     75761     75762     75763     75764     75763     75765
     75764     75765     75766     75767     75766     75768     75767     75768
     75769     75770     75769     75771     75770     75771     75772     75773
     75772     75774     75773     75774     75775     75776     75775     75777
     75776     75777     75778     75779     75778     75780     75779     75780
     75781     75782     75781     75783     75782     75783     75784     75785
     75784     75786     75785     75786     75787     75788     75787     75789
     75788     75789     75790     75791     75790     75792     75791     75792
     75793     75794     75793     75795     75794     75795     75796     75797
     75796     75798     75797     75798     75799     75800     75799     75801
     75800     75801     75802     75803     75802     75804     75803     75804
     75805     75806     75805     75807     75806     75807     75808     75809
     75808     75810     75809     75810     75811     75812     75811     75813
     75812     75813     75814     75815     75814     75816     75815     75816
     75817     75818     75817     75819     75818     75819     75820     75821
     75820     75822     75821     75822     75823     75824     75823     75825
     75824     75825     75826     75827     75826     75828     75827     75828
     75829     75830     75829     75831     75830     75831     75832     75833
     75832     75834     75833     75834     75835     75836     75835     75837
     75836     75837     75838     75839     75838     75840     75839     75840
     75841     75842     75841     75843     75842     75843     75844     75845
     75844     75846     75845     75846     75847     75848     75847     75849
     75848     75849     75850     75851     75850     75852     75851     75852
     75853     75854     75853     75855     75854     75855     75856     75857
     75856     75858     75857     75858     75859     75860     75859     75861
     75860     75861     75862     75863     75862     75864     75863     75864
     75865     75866     75865     75867     75866     75867     75868     75869
     75868     75870     75869     75870     75871     75872     75871     75873
     75872     75873     75874     75875     75874     75876     75875     75876
     75877     75878     75877     75879     75878     75879     75880     75881
     75880     75882     75881     75882     75883     75884     75883     75885
     75884     75885     75886     75887     75886     75888     75887     75888
     75889     75890     75889     75891     75890     75891     75892     75893
     75892     75894     75893     75894     75895     75896     75895     75897
     75896     75897     75898     75899     75898     75900     75899     75900
     75901     75902     75901     75903     75902     75903     75904     75905
     75904     75906     75905     75906     75907     75908     75907     75909
     75908     75909     75910     75911     75910     75912     75911     75912
     75913     75914     75913     75915     75914     75915     75916     75917
     75916     75918     75917     75918     75919     75920     75919     75921
     75920     75921     75922     75923     75922     75924     75923     75924
     75925     75926     75925     75927     75926     75927     75928     75929
     75928     75930     75929     75930     75931     75932     75931     75933
     75932     75933     75934     75935     75934     75936     75935     75936
     75937     75938     75937     75939     75938     75939     75940     75941
     75940     75942     75941     75942     75943     75944     75943     75945
     75944     75945     75946     75947     75946     75948     75947     75948
     75949     75950     75949     75951     75950     75951     75952     75953
     75952     75954     75953     75954     75955     75956     75955     75957
     75956     75957     75958     75959     75958     75960     75959     75960
     75961     75962     75961     75963     75962     75963     75964     75965
     75964     75966     75965     75966     75967     75968     75967     75969
     75968     75969     75970     75971     75970     75972     75971     75972
     75973     75974     75973     75975     75974     75975     75976     75977
     75976     75978     75977     75978     75979     75980     75979     75981
     75980     75981     75982     75983     75982     75984     75983     75984
     75985     75986     75985     75987     75986     75987     75988     75989
     75988     75990     75989     75990     75991     75992     75991     75993
     75992     75993     75994     75995     75994     75996     75995     75996
     75997     75998     75997     75999     75998     75999     76000     76001
     76000     76002     76001     76002     76003     76004     76003     76005
     76004     76005     76006     76007     76006     76008     76007     76008
     76009     76010     76009     76011     76010     76011     76012     76013
     76012     76014     76013     76014     76015     76016     76015     76017
     76016     76017     76018     76019     76018     76020     76019     76020
     76021     76022     76021     76023     76022     76023     76024     76025
     76024     76026     76025     76026     76027     76028     76027     76029
     76028     76029     76030     76031     76030     76032     76031     76032
     76033     76034     76033     76035     76034     76035     76036     76037
     76036     76038     76037     76038     76039     76040     76039     76041
     76040     76041     76042     76043     76042     76044     76043     76044
     76045     76046     76045     76047     76046     76047     76048     76049
     76048     76050     76049     76050     76051     76052     76051     76053
     76052     76053     76054     76055     76054     76056     76055     76056
     76057     76058     76057     76059     76058     76059     76060     76061
     76060     76062     76061     76062     76063     76064     76063     76065
     76064     76065     76066     76067     76066     76068     76067     76068
     76069     76070     76069     76071     76070     76071     76072     76073
     76072     76074     76073     76074     76075     76076     76075     76077
     76076     76077     76078     76079     76078     76080     76079     76080
     76081     76082     76081     76083     76082     76083     76084     76085
     76084     76086     76085     76086     76087     76088     76087     76089
     76088     76089     76090     76091     76090     76092     76091     76092
     76093     76094     76093     76095     76094     76095     76096     76097
     76096     76098     76097     76098     76099     76100     76099     76101
     76100     76101     76102     76103     76102     76104     76103     76104
     76105     76106     76105     76107     76106     76107     76108     76109
     76108     76110     76109     76110     76111     76112     76111     76113
     76112     76113     76114     76115     76114     76116     76115     76116
     76117     76118     76117     76119     76118     76119     76120     76121
     76120     76122     76121     76122     76123     76124     76123     76125
     76124     76125     76126     76127     76126     76128     76127     76128
     76129     76130     76129     76131     76130     76131     76132     76133
     76132     76134     76133     76134     76135     76136     76135     76137
     76136     76137     76138     76139     76138     76140     76139     76140
     76141     76142     76141     76143     76142     76143     76144     76145
     76144     76146     76145     76146     76147     76148     76147     76149
     76148     76149     76150     76151     76150     76152     76151     76152
     76153     76154     76153     76155     76154     76155     76156     76157
     76156     76158     76157     76158     76159     76160     76159     76161
     76160     76161     76162     76163     76162     76164     76163     76164
     76165     76166     76165     76167     76166     76167     76168     76169
     76168     76170     76169     76170     76171     76172     76171     76173
     76172     76173     76174     76175     76174     76176     76175     76176
     76177     76178     76177     76179     76178     76179     76180     76181
     76180     76182     76181     76182     76183     76184     76183     76185
     76184     76185     76186     76187     76186     76188     76187     76188
     76189     76190     76189     76191     76190     76191     76192     76193
     76192     76194     76193     76194     76195     76196     76195     76197
     76196     76197     76198     76199     76198     76200     76199     76200
     76201     76202     76201     76203     76202     76203     76204     76205
     76204     76206     76205     76206     76207     76208     76207     76209
     76208     76209     76210     76211     76210     76212     76211     76212
     76213     76214     76213     76215     76214     76215     76216     76217
     76216     76218     76217     76218     76219     76220     76219     76221
     76220     76221     76222     76223     76222     76224     76223     76224
     76225     76226     76225     76227     76226     76227     76228     76229
     76228     76230     76229     76230     76231     76232     76231     76233
     76232     76233     76234     76235     76234     76236     76235     76236
     76237     76238     76237     76239     76238     76239     76240     76241
     76240     76242     76241     76242     76243     76244     76243     76245
     76244     76245     76246     76247     76246     76248     76247     76248
     76249     76250     76249     76251     76250     76251     76252     76253
     76252     76254     76253     76254     76255     76256     76255     76257
     76256     76257     76258     76259     76258     76260     76259     76260
     76261     76262     76261     76263     76262     76263     76264     76265
     76264     76266     76265     76266     76267     76268     76267     76269
     76268     76269     76270     76271     76270     76272     76271     76272
     76273     76274     76273     76275     76274     76275     76276     76277
     76276     76278     76277     76278     76279     76280     76279     76281
     76280     76281     76282     76283     76282     76284     76283     76284
     76285     76286     76285     76287     76286     76287     76288     76289
     76288     76290     76289     76290     76291     76292     76291     76293
     76292     76293     76294     76295     76294     76296     76295     76296
     76297     76298     76297     76299     76298     76299     76300     76301
     76300     76302     76301     76302     76303     76304     76303     76305
     76304     76305     76306     76307     76306     76308     76307     76308
     76309     76310     76309     76311     76310     76311     76312     76313
     76312     76314     76313     76314     76315     76316     76315     76317
     76316     76317     76318     76319     76318     76320     76319     76320
     76321     76322     76321     76323     76322     76323     76324     76325
     76324     76326     76325     76326     76327     76328     76327     76329
     76328     76329     76330     76331     76330     76332     76331     76332
     76333     76334     76333     76335     76334     76335     76336     76337
     76336     76338     76337     76338     76339     76340     76339     76341
     76340     76341     76342     76343     76342     76344     76343     76344
     76345     76346     76345     76347     76346     76347     76348     76349
     76348     76350     76349     76350     76351     76352     76351     76353
     76352     76353     76354     76355     76354     76356     76355     76356
     76357     76358     76357     76359     76358     76359     76360     76361
     76360     76362     76361     76362     76363     76364     76363     76365
     76364     76365     76366     76367     76366     76368     76367     76368
     76369     76370     76369     76371     76370     76371     76372     76373
     76372     76374     76373     76374     76375     76376     76375     76377
     76376     76377     76378     76379     76378     76380     76379     76380
     76381     76382     76381     76383     76382     76383     76384     76385
     76384     76386     76385     76386     76387     76388     76387     76389
     76388     76389     76390     76391     76390     76392     76391     76392
     76393     76394     76393     76395     76394     76395     76396     76397
     76396     76398     76397     76398     76399     76400     76399     76401
     76400     76401     76402     76403     76402     76404     76403     76404
     76405     76406     76405     76407     76406     76407     76408     76409
     76408     76410     76409     76410     76411     76412     76411     76413
     76412     76413     76414     76415     76414     76416     76415     76416
     76417     76418     76417     76419     76418     76419     76420     76421
     76420     76422     76421     76422     76423     76424     76423     76425
     76424     76425     76426     76427     76426     76428     76427     76428
     76429     76430     76429     76431     76430     76431     76432     76433
     76432     76434     76433     76434     76435     76436     76435     76437
     76436     76437     76438     76439     76438     76440     76439     76440
     76441     76442     76441     76443     76442     76443     76444     76445
     76444     76446     76445     76446     76447     76448     76447     76449
     76448     76449     76450     76451     76450     76452     76451     76452
     76453     76454     76453     76455     76454     76455     76456     76457
     76456     76458     76457     76458     76459     76460     76459     76461
     76460     76461     76462     76463     76462     76464     76463     76464
     76465     76466     76465     76467     76466     76467     76468     76469
     76468     76470     76469     76470     76471     76472     76471     76473
     76472     76473     76474     76475     76474     76476     76475     76476
     76477     76478     76477     76479     76478     76479     76480     76481
     76480     76482     76481     76482     76483     76484     76483     76485
     76484     76485     76486     76487     76486     76488     76487     76488
     76489     76490     76489     76491     76490     76491     76492     76493
     76492     76494     76493     76494     76495     76496     76495     76497
     76496     76497     76498     76499     76498     76500     76499     76500
     76501     76502     76501     76503     76502     76503     76504     76505
     76504     76506     76505     76506     76507     76508     76507     76509
     76508     76509     76510     76511     76510     76512     76511     76512
     76513     76514     76513     76515     76514     76515     76516     76517
     76516     76518     76517     76518     76519     76520     76519     76521
     76520     76521     76522     76523     76522     76524     76523     76524
     76525     76526     76525     76527     76526     76527     76528     76529
     76528     76530     76529     76530     76531     76532     76531     76533
     76532     76533     76534     76535     76534     76536     76535     76536
     76537     76538     76537     76539     76538     76539     76540     76541
     76540     76542     76541     76542     76543     76544     76543     76545
     76544     76545     76546     76547     76546     76548     76547     76548
     76549     76550     76549     76551     76550     76551     76552     76553
     76552     76554     76553     76554     76555     76556     76555     76557
     76556     76557     76558     76559     76558     76560     76559     76560
     76561     76562     76561     76563     76562     76563     76564     76565
     76564     76566     76565     76566     76567     76568     76567     76569
     76568     76569     76570     76571     76570     76572     76571     76572
     76573     76574     76573     76575     76574     76575     76576     76577
     76576     76578     76577     76578     76579     76580     76579     76581
     76580     76581     76582     76583     76582     76584     76583     76584
     76585     76586     76585     76587     76586     76587     76588     76589
     76588     76590     76589     76590     76591     76592     76591     76593
     76592     76593     76594     76595     76594     76596     76595     76596
     76597     76598     76597     76599     76598     76599     76600     76601
     76600     76602     76601     76602     76603     76604     76603     76605
     76604     76605     76606     76607     76606     76608     76607     76608
     76609     76610     76609     76611     76610     76611     76612     76613
     76612     76614     76613     76614     76615     76616     76615     76617
     76616     76617     76618     76619     76618     76620     76619     76620
     76621     76622     76621     76623     76622     76623     76624     76625
     76624     76626     76625     76626     76627     76628     76627     76629
     76628     76629     76630     76631     76630     76632     76631     76632
     76633     76634     76633     76635     76634     76635     76636     76637
     76636     76638     76637     76638     76639     76640     76639     76641
     76640     76641     76642     76643     76642     76644     76643     76644
     76645     76646     76645     76647     76646     76647     76648     76649
     76648     76650     76649     76650     76651     76652     76651     76653
     76652     76653     76654     76655     76654     76656     76655     76656
     76657     76658     76657     76659     76658     76659     76660     76661
     76660     76662     76661     76662     76663     76664     76663     76665
     76664     76665     76666     76667     76666     76668     76667     76668
     76669     76670     76669     76671     76670     76671     76672     76673
     76672     76674     76673     76674     76675     76676     76675     76677
     76676     76677     76678     76679     76678     76680     76679     76680
     76681     76682     76681     76683     76682     76683     76684     76685
     76684     76686     76685     76686     76687     76688     76687     76689
     76688     76689     76690     76691     76690     76692     76691     76692
     76693     76694     76693     76695     76694     76695     76696     76697
     76696     76698     76697     76698     76699     76700     76699     76701
     76700     76701     76702     76703     76702     76704     76703     76704
     76705     76706     76705     76707     76706     76707     76708     76709
     76708     76710     76709     76710     76711     76712     76711     76713
     76712     76713     76714     76715     76714     76716     76715     76716
     76717     76718     76717     76719     76718     76719     76720     76721
     76720     76722     76721     76722     76723     76724     76723     76725
     76724     76725     76726     76727     76726     76728     76727     76728
     76729     76730     76729     76731     76730     76731     76732     76733
     76732     76734     76733     76734     76735     76736     76735     76737
     76736     76737     76738     76739     76738     76740     76739     76740
     76741     76742     76741     76743     76742     76743     76744     76745
     76744     76746     76745     76746     76747     76748     76747     76749
     76748     76749     76750     76751     76750     76752     76751     76752
     76753     76754     76753     76755     76754     76755     76756     76757
     76756     76758     76757     76758     76759     76760     76759     76761
     76760     76761     76762     76763     76762     76764     76763     76764
     76765     76766     76765     76767     76766     76767     76768     76769
     76768     76770     76769     76770     76771     76772     76771     76773
     76772     76773     76774     76775     76774     76776     76775     76776
     76777     76778     76777     76779     76778     76779     76780     76781
     76780     76782     76781     76782     76783     76784     76783     76785
     76784     76785     76786     76787     76786     76788     76787     76788
     76789     76790     76789     76791     76790     76791     76792     76793
     76792     76794     76793     76794     76795     76796     76795     76797
     76796     76797     76798     76799     76798     76800     76799     76800
     76801     76802     76801     76803     76802     76803     76804     76805
     76804     76806     76805     76806     76807     76808     76807     76809
     76808     76809     76810     76811     76810     76812     76811     76812
     76813     76814     76813     76815     76814     76815     76816     76817
     76816     76818     76817     76818     76819     76820     76819     76821
     76820     76821     76822     76823     76822     76824     76823     76824
     76825     76826     76825     76827     76826     76827     76828     76829
     76828     76830     76829     76830     76831     76832     76831     76833
     76832     76833     76834     76835     76834     76836     76835     76836
     76837     76838     76837     76839     76838     76839     76840     76841
     76840     76842     76841     76842     76843     76844     76843     76845
     76844     76845     76846     76847     76846     76848     76847     76848
     76849     76850     76849     76851     76850     76851     76852     76853
     76852     76854     76853     76854     76855     76856     76855     76857
     76856     76857     76858     76859     76858     76860     76859     76860
     76861     76862     76861     76863     76862     76863     76864     76865
     76864     76866     76865     76866     76867     76868     76867     76869
     76868     76869     76870     76871     76870     76872     76871     76872
     76873     76874     76873     76875     76874     76875     76876     76877
     76876     76878     76877     76878     76879     76880     76879     76881
     76880     76881     76882     76883     76882     76884     76883     76884
     76885     76886     76885     76887     76886     76887     76888     76889
     76888     76890     76889     76890     76891     76892     76891     76893
     76892     76893     76894     76895     76894     76896     76895     76896
     76897     76898     76897     76899     76898     76899     76900     76901
     76900     76902     76901     76902     76903     76904     76903     76905
     76904     76905     76906     76907     76906     76908     76907     76908
     76909     76910     76909     76911     76910     76911     76912     76913
     76912     76914     76913     76914     76915     76916     76915     76917
     76916     76917     76918     76919     76918     76920     76919     76920
     76921     76922     76921     76923     76922     76923     76924     76925
     76924     76926     76925     76926     76927     76928     76927     76929
     76928     76929     76930     76931     76930     76932     76931     76932
     76933     76934     76933     76935     76934     76935     76936     76937
     76936     76938     76937     76938     76939     76940     76939     76941
     76940     76941     76942     76943     76942     76944     76943     76944
     76945     76946     76945     76947     76946     76947     76948     76949
     76948     76950     76949     76950     76951     76952     76951     76953
     76952     76953     76954     76955     76954     76956     76955     76956
     76957     76958     76957     76959     76958     76959     76960     76961
     76960     76962     76961     76962     76963     76964     76963     76965
     76964     76965     76966     76967     76966     76968     76967     76968
     76969     76970     76969     76971     76970     76971     76972     76973
     76972     76974     76973     76974     76975     76976     76975     76977
     76976     76977     76978     76979     76978     76980     76979     76980
     76981     76982     76981     76983     76982     76983     76984     76985
     76984     76986     76985     76986     76987     76988     76987     76989
     76988     76989     76990     76991     76990     76992     76991     76992
     76993     76994     76993     76995     76994     76995     76996     76997
     76996     76998     76997     76998     76999     77000     76999     77001
     77000     77001     77002     77003     77002     77004     77003     77004
     77005     77006     77005     77007     77006     77007     77008     77009
     77008     77010     77009     77010     77011     77012     77011     77013
     77012     77013     77014     77015     77014     77016     77015     77016
     77017     77018     77017     77019     77018     77019     77020     77021
     77020     77022     77021     77022     77023     77024     77023     77025
     77024     77025     77026     77027     77026     77028     77027     77028
     77029     77030     77029     77031     77030     77031     77032     77033
     77032     77034     77033     77034     77035     77036     77035     77037
     77036     77037     77038     77039     77038     77040     77039     77040
     77041     77042     77041     77043     77042     77043     77044     77045
     77044     77046     77045     77046     77047     77048     77047     77049
     77048     77049     77050     77051     77050     77052     77051     77052
     77053     77054     77053     77055     77054     77055     77056     77057
     77056     77058     77057     77058     77059     77060     77059     77061
     77060     77061     77062     77063     77062     77064     77063     77064
     77065     77066     77065     77067     77066     77067     77068     77069
     77068     77070     77069     77070     77071     77072     77071     77073
     77072     77073     77074     77075     77074     77076     77075     77076
     77077     77078     77077     77079     77078     77079     77080     77081
     77080     77082     77081     77082     77083     77084     77083     77085
     77084     77085     77086     77087     77086     77088     77087     77088
     77089     77090     77089     77091     77090     77091     77092     77093
     77092     77094     77093     77094     77095     77096     77095     77097
     77096     77097     77098     77099     77098     77100     77099     77100
     77101     77102     77101     77103     77102     77103     77104     77105
     77104     77106     77105     77106     77107     77108     77107     77109
     77108     77109     77110     77111     77110     77112     77111     77112
     77113     77114     77113     77115     77114     77115     77116     77117
     77116     77118     77117     77118     77119     77120     77119     77121
     77120     77121     77122     77123     77122     77124     77123     77124
     77125     77126     77125     77127     77126     77127     77128     77129
     77128     77130     77129     77130     77131     77132     77131     77133
     77132     77133     77134     77135     77134     77136     77135     77136
     77137     77138     77137     77139     77138     77139     77140     77141
     77140     77142     77141     77142     77143     77144     77143     77145
     77144     77145     77146     77147     77146     77148     77147     77148
     77149     77150     77149     77151     77150     77151     77152     77153
     77152     77154     77153     77154     77155     77156     77155     77157
     77156     77157     77158     77159     77158     77160     77159     77160
     77161     77162     77161     77163     77162     77163     77164     77165
     77164     77166     77165     77166     77167     77168     77167     77169
     77168     77169     77170     77171     77170     77172     77171     77172
     77173     77174     77173     77175     77174     77175     77176     77177
     77176     77178     77177     77178     77179     77180     77179     77181
     77180     77181     77182     77183     77182     77184     77183     77184
     77185     77186     77185     77187     77186     77187     77188     77189
     77188     77190     77189     77190     77191     77192     77191     77193
     77192     77193     77194     77195     77194     77196     77195     77196
     77197     77198     77197     77199     77198     77199     77200     77201
     77200     77202     77201     77202     77203     77204     77203     77205
     77204     77205     77206     77207     77206     77208     77207     77208
     77209     77210     77209     77211     77210     77211     77212     77213
     77212     77214     77213     77214     77215     77216     77215     77217
     77216     77217     77218     77219     77218     77220     77219     77220
     77221     77222     77221     77223     77222     77223     77224     77225
     77224     77226     77225     77226     77227     77228     77227     77229
     77228     77229     77230     77231     77230     77232     77231     77232
     77233     77234     77233     77235     77234     77235     77236     77237
     77236     77238     77237     77238     77239     77240     77239     77241
     77240     77241     77242     77243     77242     77244     77243     77244
     77245     77246     77245     77247     77246     77247     77248     77249
     77248     77250     77249     77250     77251     77252     77251     77253
     77252     77253     77254     77255     77254     77256     77255     77256
     77257     77258     77257     77259     77258     77259     77260     77261
     77260     77262     77261     77262     77263     77264     77263     77265
     77264     77265     77266     77267     77266     77268     77267     77268
     77269     77270     77269     77271     77270     77271     77272     77273
     77272     77274     77273     77274     77275     77276     77275     77277
     77276     77277     77278     77279     77278     77280     77279     77280
     77281     77282     77281     77283     77282     77283     77284     77285
     77284     77286     77285     77286     77287     77288     77287     77289
     77288     77289     77290     77291     77290     77292     77291     77292
     77293     77294     77293     77295     77294     77295     77296     77297
     77296     77298     77297     77298     77299     77300     77299     77301
     77300     77301     77302     77303     77302     77304     77303     77304
     77305     77306     77305     77307     77306     77307     77308     77309
     77308     77310     77309     77310     77311     77312     77311     77313
     77312     77313     77314     77315     77314     77316     77315     77316
     77317     77318     77317     77319     77318     77319     77320     77321
     77320     77322     77321     77322     77323     77324     77323     77325
     77324     77325     77326     77327     77326     77328     77327     77328
     77329     77330     77329     77331     77330     77331     77332     77333
     77332     77334     77333     77334     77335     77336     77335     77337
     77336     77337     77338     77339     77338     77340     77339     77340
     77341     77342     77341     77343     77342     77343     77344     77345
     77344     77346     77345     77346     77347     77348     77347     77349
     77348     77349     77350     77351     77350     77352     77351     77352
     77353     77354     77353     77355     77354     77355     77356     77357
     77356     77358     77357     77358     77359     77360     77359     77361
     77360     77361     77362     77363     77362     77364     77363     77364
     77365     77366     77365     77367     77366     77367     77368     77369
     77368     77370     77369     77370     77371     77372     77371     77373
     77372     77373     77374     77375     77374     77376     77375     77376
     77377     77378     77377     77379     77378     77379     77380     77381
     77380     77382     77381     77382     77383     77384     77383     77385
     77384     77385     77386     77387     77386     77388     77387     77388
     77389     77390     77389     77391     77390     77391     77392     77393
     77392     77394     77393     77394     77395     77396     77395     77397
     77396     77397     77398     77399     77398     77400     77399     77400
     77401     77402     77401     77403     77402     77403     77404     77405
     77404     77406     77405     77406     77407     77408     77407     77409
     77408     77409     77410     77411     77410     77412     77411     77412
     77413     77414     77413     77415     77414     77415     77416     77417
     77416     77418     77417     77418     77419     77420     77419     77421
     77420     77421     77422     77423     77422     77424     77423     77424
     77425     77426     77425     77427     77426     77427     77428     77429
     77428     77430     77429     77430     77431     77432     77431     77433
     77432     77433     77434     77435     77434     77436     77435     77436
     77437     77438     77437     77439     77438     77439     77440     77441
     77440     77442     77441     77442     77443     77444     77443     77445
     77444     77445     77446     77447     77446     77448     77447     77448
     77449     77450     77449     77451     77450     77451     77452     77453
     77452     77454     77453     77454     77455     77456     77455     77457
     77456     77457     77458     77459     77458     77460     77459     77460
     77461     77462     77461     77463     77462     77463     77464     77465
     77464     77466     77465     77466     77467     77468     77467     77469
     77468     77469     77470     77471     77470     77472     77471     77472
     77473     77474     77473     77475     77474     77475     77476     77477
     77476     77478     77477     77478     77479     77480     77479     77481
     77480     77481     77482     77483     77482     77484     77483     77484
     77485     77486     77485     77487     77486     77487     77488     77489
     77488     77490     77489     77490     77491     77492     77491     77493
     77492     77493     77494     77495     77494     77496     77495     77496
     77497     77498     77497     77499     77498     77499     77500     77501
     77500     77502     77501     77502     77503     77504     77503     77505
     77504     77505     77506     77507     77506     77508     77507     77508
     77509     77510     77509     77511     77510     77511     77512     77513
     77512     77514     77513     77514     77515     77516     77515     77517
     77516     77517     77518     77519     77518     77520     77519     77520
     77521     77522     77521     77523     77522     77523     77524     77525
     77524     77526     77525     77526     77527     77528     77527     77529
     77528     77529     77530     77531     77530     77532     77531     77532
     77533     77534     77533     77535     77534     77535     77536     77537
     77536     77538     77537     77538     77539     77540     77539     77541
     77540     77541     77542     77543     77542     77544     77543     77544
     77545     77546     77545     77547     77546     77547     77548     77549
     77548     77550     77549     77550     77551     77552     77551     77553
     77552     77553     77554     77555     77554     77556     77555     77556
     77557     77558     77557     77559     77558     77559     77560     77561
     77560     77562     77561     77562     77563     77564     77563     77565
     77564     77565     77566     77567     77566     77568     77567     77568
     77569     77570     77569     77571     77570     77571     77572     77573
     77572     77574     77573     77574     77575     77576     77575     77577
     77576     77577     77578     77579     77578     77580     77579     77580
     77581     77582     77581     77583     77582     77583     77584     77585
     77584     77586     77585     77586     77587     77588     77587     77589
     77588     77589     77590     77591     77590     77592     77591     77592
     77593     77594     77593     77595     77594     77595     77596     77597
     77596     77598     77597     77598     77599     77600     77599     77601
     77600     77601     77602     77603     77602     77604     77603     77604
     77605     77606     77605     77607     77606     77607     77608     77609
     77608     77610     77609     77610     77611     77612     77611     77613
     77612     77613     77614     77615     77614     77616     77615     77616
     77617     77618     77617     77619     77618     77619     77620     77621
     77620     77622     77621     77622     77623     77624     77623     77625
     77624     77625     77626     77627     77626     77628     77627     77628
     77629     77630     77629     77631     77630     77631     77632     77633
     77632     77634     77633     77634     77635     77636     77635     77637
     77636     77637     77638     77639     77638     77640     77639     77640
     77641     77642     77641     77643     77642     77643     77644     77645
     77644     77646     77645     77646     77647     77648     77647     77649
     77648     77649     77650     77651     77650     77652     77651     77652
     77653     77654     77653     77655     77654     77655     77656     77657
     77656     77658     77657     77658     77659     77660     77659     77661
     77660     77661     77662     77663     77662     77664     77663     77664
     77665     77666     77665     77667     77666     77667     77668     77669
     77668     77670     77669     77670     77671     77672     77671     77673
     77672     77673     77674     77675     77674     77676     77675     77676
     77677     77678     77677     77679     77678     77679     77680     77681
     77680     77682     77681     77682     77683     77684     77683     77685
     77684     77685     77686     77687     77686     77688     77687     77688
     77689     77690     77689     77691     77690     77691     77692     77693
     77692     77694     77693     77694     77695     77696     77695     77697
     77696     77697     77698     77699     77698     77700     77699     77700
     77701     77702     77701     77703     77702     77703     77704     77705
     77704     77706     77705     77706     77707     77708     77707     77709
     77708     77709     77710     77711     77710     77712     77711     77712
     77713     77714     77713     77715     77714     77715     77716     77717
     77716     77718     77717     77718     77719     77720     77719     77721
     77720     77721     77722     77723     77722     77724     77723     77724
     77725     77726     77725     77727     77726     77727     77728     77729
     77728     77730     77729     77730     77731     77732     77731     77733
     77732     77733     77734     77735     77734     77736     77735     77736
     77737     77738     77737     77739     77738     77739     77740     77741
     77740     77742     77741     77742     77743     77744     77743     77745
     77744     77745     77746     77747     77746     77748     77747     77748
     77749     77750     77749     77751     77750     77751     77752     77753
     77752     77754     77753     77754     77755     77756     77755     77757
     77756     77757     77758     77759     77758     77760     77759     77760
     77761     77762     77761     77763     77762     77763     77764     77765
     77764     77766     77765     77766     77767     77768     77767     77769
     77768     77769     77770     77771     77770     77772     77771     77772
     77773     77774     77773     77775     77774     77775     77776     77777
     77776     77778     77777     77778     77779     77780     77779     77781
     77780     77781     77782     77783     77782     77784     77783     77784
     77785     77786     77785     77787     77786     77787     77788     77789
     77788     77790     77789     77790     77791     77792     77791     77793
     77792     77793     77794     77795     77794     77796     77795     77796
     77797     77798     77797     77799     77798     77799     77800     77801
     77800     77802     77801     77802     77803     77804     77803     77805
     77804     77805     77806     77807     77806     77808     77807     77808
     77809     77810     77809     77811     77810     77811     77812     77813
     77812     77814     77813     77814     77815     77816     77815     77817
     77816     77817     77818     77819     77818     77820     77819     77820
     77821     77822     77821     77823     77822     77823     77824     77825
     77824     77826     77825     77826     77827     77828     77827     77829
     77828     77829     77830     77831     77830     77832     77831     77832
     77833     77834     77833     77835     77834     77835     77836     77837
     77836     77838     77837     77838     77839     77840     77839     77841
     77840     77841     77842     77843     77842     77844     77843     77844
     77845     77846     77845     77847     77846     77847     77848     77849
     77848     77850     77849     77850     77851     77852     77851     77853
     77852     77853     77854     77855     77854     77856     77855     77856
     77857     77858     77857     77859     77858     77859     77860     77861
     77860     77862     77861     77862     77863     77864     77863     77865
     77864     77865     77866     77867     77866     77868     77867     77868
     77869     77870     77869     77871     77870     77871     77872     77873
     77872     77874     77873     77874     77875     77876     77875     77877
     77876     77877     77878     77879     77878     77880     77879     77880
     77881     77882     77881     77883     77882     77883     77884     77885
     77884     77886     77885     77886     77887     77888     77887     77889
     77888     77889     77890     77891     77890     77892     77891     77892
     77893     77894     77893     77895     77894     77895     77896     77897
     77896     77898     77897     77898     77899     77900     77899     77901
     77900     77901     77902     77903     77902     77904     77903     77904
     77905     77906     77905     77907     77906     77907     77908     77909
     77908     77910     77909     77910     77911     77912     77911     77913
     77912     77913     77914     77915     77914     77916     77915     77916
     77917     77918     77917     77919     77918     77919     77920     77921
     77920     77922     77921     77922     77923     77924     77923     77925
     77924     77925     77926     77927     77926     77928     77927     77928
     77929     77930     77929     77931     77930     77931     77932     77933
     77932     77934     77933     77934     77935     77936     77935     77937
     77936     77937     77938     77939     77938     77940     77939     77940
     77941     77942     77941     77943     77942     77943     77944     77945
     77944     77946     77945     77946     77947     77948     77947     77949
     77948     77949     77950     77951     77950     77952     77951     77952
     77953     77954     77953     77955     77954     77955     77956     77957
     77956     77958     77957     77958     77959     77960     77959     77961
     77960     77961     77962     77963     77962     77964     77963     77964
     77965     77966     77965     77967     77966     77967     77968     77969
     77968     77970     77969     77970     77971     77972     77971     77973
     77972     77973     77974     77975     77974     77976     77975     77976
     77977     77978     77977     77979     77978     77979     77980     77981
     77980     77982     77981     77982     77983     77984     77983     77985
     77984     77985     77986     77987     77986     77988     77987     77988
     77989     77990     77989     77991     77990     77991     77992     77993
     77992     77994     77993     77994     77995     77996     77995     77997
     77996     77997     77998     77999     77998     78000     77999     78000
     78001     78002     78001     78003     78002     78003     78004     78005
     78004     78006     78005     78006     78007     78008     78007     78009
     78008     78009     78010     78011     78010     78012     78011     78012
     78013     78014     78013     78015     78014     78015     78016     78017
     78016     78018     78017     78018     78019     78020     78019     78021
     78020     78021     78022     78023     78022     78024     78023     78024
     78025     78026     78025     78027     78026     78027     78028     78029
     78028     78030     78029     78030     78031     78032     78031     78033
     78032     78033     78034     78035     78034     78036     78035     78036
     78037     78038     78037     78039     78038     78039     78040     78041
     78040     78042     78041     78042     78043     78044     78043     78045
     78044     78045     78046     78047     78046     78048     78047     78048
     78049     78050     78049     78051     78050     78051     78052     78053
     78052     78054     78053     78054     78055     78056     78055     78057
     78056     78057     78058     78059     78058     78060     78059     78060
     78061     78062     78061     78063     78062     78063     78064     78065
     78064     78066     78065     78066     78067     78068     78067     78069
     78068     78069     78070     78071     78070     78072     78071     78072
     78073     78074     78073     78075     78074     78075     78076     78077
     78076     78078     78077     78078     78079     78080     78079     78081
     78080     78081     78082     78083     78082     78084     78083     78084
     78085     78086     78085     78087     78086     78087     78088     78089
     78088     78090     78089     78090     78091     78092     78091     78093
     78092     78093     78094     78095     78094     78096     78095     78096
     78097     78098     78097     78099     78098     78099     78100     78101
     78100     78102     78101     78102     78103     78104     78103     78105
     78104     78105     78106     78107     78106     78108     78107     78108
     78109     78110     78109     78111     78110     78111     78112     78113
     78112     78114     78113     78114     78115     78116     78115     78117
     78116     78117     78118     78119     78118     78120     78119     78120
     78121     78122     78121     78123     78122     78123     78124     78125
     78124     78126     78125     78126     78127     78128     78127     78129
     78128     78129     78130     78131     78130     78132     78131     78132
     78133     78134     78133     78135     78134     78135     78136     78137
     78136     78138     78137     78138     78139     78140     78139     78141
     78140     78141     78142     78143     78142     78144     78143     78144
     78145     78146     78145     78147     78146     78147     78148     78149
     78148     78150     78149     78150     78151     78152     78151     78153
     78152     78153     78154     78155     78154     78156     78155     78156
     78157     78158     78157     78159     78158     78159     78160     78161
     78160     78162     78161     78162     78163     78164     78163     78165
     78164     78165     78166     78167     78166     78168     78167     78168
     78169     78170     78169     78171     78170     78171     78172     78173
     78172     78174     78173     78174     78175     78176     78175     78177
     78176     78177     78178     78179     78178     78180     78179     78180
     78181     78182     78181     78183     78182     78183     78184     78185
     78184     78186     78185     78186     78187     78188     78187     78189
     78188     78189     78190     78191     78190     78192     78191     78192
     78193     78194     78193     78195     78194     78195     78196     78197
     78196     78198     78197     78198     78199     78200     78199     78201
     78200     78201     78202     78203     78202     78204     78203     78204
     78205     78206     78205     78207     78206     78207     78208     78209
     78208     78210     78209     78210     78211     78212     78211     78213
     78212     78213     78214     78215     78214     78216     78215     78216
     78217     78218     78217     78219     78218     78219     78220     78221
     78220     78222     78221     78222     78223     78224     78223     78225
     78224     78225     78226     78227     78226     78228     78227     78228
     78229     78230     78229     78231     78230     78231     78232     78233
     78232     78234     78233     78234     78235     78236     78235     78237
     78236     78237     78238     78239     78238     78240     78239     78240
     78241     78242     78241     78243     78242     78243     78244     78245
     78244     78246     78245     78246     78247     78248     78247     78249
     78248     78249     78250     78251     78250     78252     78251     78252
     78253     78254     78253     78255     78254     78255     78256     78257
     78256     78258     78257     78258     78259     78260     78259     78261
     78260     78261     78262     78263     78262     78264     78263     78264
     78265     78266     78265     78267     78266     78267     78268     78269
     78268     78270     78269     78270     78271     78272     78271     78273
     78272     78273     78274     78275     78274     78276     78275     78276
     78277     78278     78277     78279     78278     78279     78280     78281
     78280     78282     78281     78282     78283     78284     78283     78285
     78284     78285     78286     78287     78286     78288     78287     78288
     78289     78290     78289     78291     78290     78291     78292     78293
     78292     78294     78293     78294     78295     78296     78295     78297
     78296     78297     78298     78299     78298     78300     78299     78300
     78301     78302     78301     78303     78302     78303     78304     78305
     78304     78306     78305     78306     78307     78308     78307     78309
     78308     78309     78310     78311     78310     78312     78311     78312
     78313     78314     78313     78315     78314     78315     78316     78317
     78316     78318     78317     78318     78319     78320     78319     78321
     78320     78321     78322     78323     78322     78324     78323     78324
     78325     78326     78325     78327     78326     78327     78328     78329
     78328     78330     78329     78330     78331     78332     78331     78333
     78332     78333     78334     78335     78334     78336     78335     78336
     78337     78338     78337     78339     78338     78339     78340     78341
     78340     78342     78341     78342     78343     78344     78343     78345
     78344     78345     78346     78347     78346     78348     78347     78348
     78349     78350     78349     78351     78350     78351     78352     78353
     78352     78354     78353     78354     78355     78356     78355     78357
     78356     78357     78358     78359     78358     78360     78359     78360
     78361     78362     78361     78363     78362     78363     78364     78365
     78364     78366     78365     78366     78367     78368     78367     78369
     78368     78369     78370     78371     78370     78372     78371     78372
     78373     78374     78373     78375     78374     78375     78376     78377
     78376     78378     78377     78378     78379     78380     78379     78381
     78380     78381     78382     78383     78382     78384     78383     78384
     78385     78386     78385     78387     78386     78387     78388     78389
     78388     78390     78389     78390     78391     78392     78391     78393
     78392     78393     78394     78395     78394     78396     78395     78396
     78397     78398     78397     78399     78398     78399     78400     78401
     78400     78402     78401     78402     78403     78404     78403     78405
     78404     78405     78406     78407     78406     78408     78407     78408
     78409     78410     78409     78411     78410     78411     78412     78413
     78412     78414     78413     78414     78415     78416     78415     78417
     78416     78417     78418     78419     78418     78420     78419     78420
     78421     78422     78421     78423     78422     78423     78424     78425
     78424     78426     78425     78426     78427     78428     78427     78429
     78428     78429     78430     78431     78430     78432     78431     78432
     78433     78434     78433     78435     78434     78435     78436     78437
     78436     78438     78437     78438     78439     78440     78439     78441
     78440     78441     78442     78443     78442     78444     78443     78444
     78445     78446     78445     78447     78446     78447     78448     78449
     78448     78450     78449     78450     78451     78452     78451     78453
     78452     78453     78454     78455     78454     78456     78455     78456
     78457     78458     78457     78459     78458     78459     78460     78461
     78460     78462     78461     78462     78463     78464     78463     78465
     78464     78465     78466     78467     78466     78468     78467     78468
     78469     78470     78469     78471     78470     78471     78472     78473
     78472     78474     78473     78474     78475     78476     78475     78477
     78476     78477     78478     78479     78478     78480     78479     78480
     78481     78482     78481     78483     78482     78483     78484     78485
     78484     78486     78485     78486     78487     78488     78487     78489
     78488     78489     78490     78491     78490     78492     78491     78492
     78493     78494     78493     78495     78494     78495     78496     78497
     78496     78498     78497     78498     78499     78500     78499     78501
     78500     78501     78502     78503     78502     78504     78503     78504
     78505     78506     78505     78507     78506     78507     78508     78509
     78508     78510     78509     78510     78511     78512     78511     78513
     78512     78513     78514     78515     78514     78516     78515     78516
     78517     78518     78517     78519     78518     78519     78520     78521
     78520     78522     78521     78522     78523     78524     78523     78525
     78524     78525     78526     78527     78526     78528     78527     78528
     78529     78530     78529     78531     78530     78531     78532     78533
     78532     78534     78533     78534     78535     78536     78535     78537
     78536     78537     78538     78539     78538     78540     78539     78540
     78541     78542     78541     78543     78542     78543     78544     78545
     78544     78546     78545     78546     78547     78548     78547     78549
     78548     78549     78550     78551     78550     78552     78551     78552
     78553     78554     78553     78555     78554     78555     78556     78557
     78556     78558     78557     78558     78559     78560     78559     78561
     78560     78561     78562     78563     78562     78564     78563     78564
     78565     78566     78565     78567     78566     78567     78568     78569
     78568     78570     78569     78570     78571     78572     78571     78573
     78572     78573     78574     78575     78574     78576     78575     78576
     78577     78578     78577     78579     78578     78579     78580     78581
     78580     78582     78581     78582     78583     78584     78583     78585
     78584     78585     78586     78587     78586     78588     78587     78588
     78589     78590     78589     78591     78590     78591     78592     78593
     78592     78594     78593     78594     78595     78596     78595     78597
     78596     78597     78598     78599     78598     78600     78599     78600
     78601     78602     78601     78603     78602     78603     78604     78605
     78604     78606     78605     78606     78607     78608     78607     78609
     78608     78609     78610     78611     78610     78612     78611     78612
     78613     78614     78613     78615     78614     78615     78616     78617
     78616     78618     78617     78618     78619     78620     78619     78621
     78620     78621     78622     78623     78622     78624     78623     78624
     78625     78626     78625     78627     78626     78627     78628     78629
     78628     78630     78629     78630     78631     78632     78631     78633
     78632     78633     78634     78635     78634     78636     78635     78636
     78637     78638     78637     78639     78638     78639     78640     78641
     78640     78642     78641     78642     78643     78644     78643     78645
     78644     78645     78646     78647     78646     78648     78647     78648
     78649     78650     78649     78651     78650     78651     78652     78653
     78652     78654     78653     78654     78655     78656     78655     78657
     78656     78657     78658     78659     78658     78660     78659     78660
     78661     78662     78661     78663     78662     78663     78664     78665
     78664     78666     78665     78666     78667     78668     78667     78669
     78668     78669     78670     78671     78670     78672     78671     78672
     78673     78674     78673     78675     78674     78675     78676     78677
     78676     78678     78677     78678     78679     78680     78679     78681
     78680     78681     78682     78683     78682     78684     78683     78684
     78685     78686     78685     78687     78686     78687     78688     78689
     78688     78690     78689     78690     78691     78692     78691     78693
     78692     78693     78694     78695     78694     78696     78695     78696
     78697     78698     78697     78699     78698     78699     78700     78701
     78700     78702     78701     78702     78703     78704     78703     78705
     78704     78705     78706     78707     78706     78708     78707     78708
     78709     78710     78709     78711     78710     78711     78712     78713
     78712     78714     78713     78714     78715     78716     78715     78717
     78716     78717     78718     78719     78718     78720     78719     78720
     78721     78722     78721     78723     78722     78723     78724     78725
     78724     78726     78725     78726     78727     78728     78727     78729
     78728     78729     78730     78731     78730     78732     78731     78732
     78733     78734     78733     78735     78734     78735     78736     78737
     78736     78738     78737     78738     78739     78740     78739     78741
     78740     78741     78742     78743     78742     78744     78743     78744
     78745     78746     78745     78747     78746     78747     78748     78749
     78748     78750     78749     78750     78751     78752     78751     78753
     78752     78753     78754     78755     78754     78756     78755     78756
     78757     78758     78757     78759     78758     78759     78760     78761
     78760     78762     78761     78762     78763     78764     78763     78765
     78764     78765     78766     78767     78766     78768     78767     78768
     78769     78770     78769     78771     78770     78771     78772     78773
     78772     78774     78773     78774     78775     78776     78775     78777
     78776     78777     78778     78779     78778     78780     78779     78780
     78781     78782     78781     78783     78782     78783     78784     78785
     78784     78786     78785     78786     78787     78788     78787     78789
     78788     78789     78790     78791     78790     78792     78791     78792
     78793     78794     78793     78795     78794     78795     78796     78797
     78796     78798     78797     78798     78799     78800     78799     78801
     78800     78801     78802     78803     78802     78804     78803     78804
     78805     78806     78805     78807     78806     78807     78808     78809
     78808     78810     78809     78810     78811     78812     78811     78813
     78812     78813     78814     78815     78814     78816     78815     78816
     78817     78818     78817     78819     78818     78819     78820     78821
     78820     78822     78821     78822     78823     78824     78823     78825
     78824     78825     78826     78827     78826     78828     78827     78828
     78829     78830     78829     78831     78830     78831     78832     78833
     78832     78834     78833     78834     78835     78836     78835     78837
     78836     78837     78838     78839     78838     78840     78839     78840
     78841     78842     78841     78843     78842     78843     78844     78845
     78844     78846     78845     78846     78847     78848     78847     78849
     78848     78849     78850     78851     78850     78852     78851     78852
     78853     78854     78853     78855     78854     78855     78856     78857
     78856     78858     78857     78858     78859     78860     78859     78861
     78860     78861     78862     78863     78862     78864     78863     78864
     78865     78866     78865     78867     78866     78867     78868     78869
     78868     78870     78869     78870     78871     78872     78871     78873
     78872     78873     78874     78875     78874     78876     78875     78876
     78877     78878     78877     78879     78878     78879     78880     78881
     78880     78882     78881     78882     78883     78884     78883     78885
     78884     78885     78886     78887     78886     78888     78887     78888
     78889     78890     78889     78891     78890     78891     78892     78893
     78892     78894     78893     78894     78895     78896     78895     78897
     78896     78897     78898     78899     78898     78900     78899     78900
     78901     78902     78901     78903     78902     78903     78904     78905
     78904     78906     78905     78906     78907     78908     78907     78909
     78908     78909     78910     78911     78910     78912     78911     78912
     78913     78914     78913     78915     78914     78915     78916     78917
     78916     78918     78917     78918     78919     78920     78919     78921
     78920     78921     78922     78923     78922     78924     78923     78924
     78925     78926     78925     78927     78926     78927     78928     78929
     78928     78930     78929     78930     78931     78932     78931     78933
     78932     78933     78934     78935     78934     78936     78935     78936
     78937     78938     78937     78939     78938     78939     78940     78941
     78940     78942     78941     78942     78943     78944     78943     78945
     78944     78945     78946     78947     78946     78948     78947     78948
     78949     78950     78949     78951     78950     78951     78952     78953
     78952     78954     78953     78954     78955     78956     78955     78957
     78956     78957     78958     78959     78958     78960     78959     78960
     78961     78962     78961     78963     78962     78963     78964     78965
     78964     78966     78965     78966     78967     78968     78967     78969
     78968     78969     78970     78971     78970     78972     78971     78972
     78973     78974     78973     78975     78974     78975     78976     78977
     78976     78978     78977     78978     78979     78980     78979     78981
     78980     78981     78982     78983     78982     78984     78983     78984
     78985     78986     78985     78987     78986     78987     78988     78989
     78988     78990     78989     78990     78991     78992     78991     78993
     78992     78993     78994     78995     78994     78996     78995     78996
     78997     78998     78997     78999     78998     78999     79000     79001
     79000     79002     79001     79002     79003     79004     79003     79005
     79004     79005     79006     79007     79006     79008     79007     79008
     79009     79010     79009     79011     79010     79011     79012     79013
     79012     79014     79013     79014     79015     79016     79015     79017
     79016     79017     79018     79019     79018     79020     79019     79020
     79021     79022     79021     79023     79022     79023     79024     79025
     79024     79026     79025     79026     79027     79028     79027     79029
     79028     79029     79030     79031     79030     79032     79031     79032
     79033     79034     79033     79035     79034     79035     79036     79037
     79036     79038     79037     79038     79039     79040     79039     79041
     79040     79041     79042     79043     79042     79044     79043     79044
     79045     79046     79045     79047     79046     79047     79048     79049
     79048     79050     79049     79050     79051     79052     79051     79053
     79052     79053     79054     79055     79054     79056     79055     79056
     79057     79058     79057     79059     79058     79059     79060     79061
     79060     79062     79061     79062     79063     79064     79063     79065
     79064     79065     79066     79067     79066     79068     79067     79068
     79069     79070     79069     79071     79070     79071     79072     79073
     79072     79074     79073     79074     79075     79076     79075     79077
     79076     79077     79078     79079     79078     79080     79079     79080
     79081     79082     79081     79083     79082     79083     79084     79085
     79084     79086     79085     79086     79087     79088     79087     79089
     79088     79089     79090     79091     79090     79092     79091     79092
     79093     79094     79093     79095     79094     79095     79096     79097
     79096     79098     79097     79098     79099     79100     79099     79101
     79100     79101     79102     79103     79102     79104     79103     79104
     79105     79106     79105     79107     79106     79107     79108     79109
     79108     79110     79109     79110     79111     79112     79111     79113
     79112     79113     79114     79115     79114     79116     79115     79116
     79117     79118     79117     79119     79118     79119     79120     79121
     79120     79122     79121     79122     79123     79124     79123     79125
     79124     79125     79126     79127     79126     79128     79127     79128
     79129     79130     79129     79131     79130     79131     79132     79133
     79132     79134     79133     79134     79135     79136     79135     79137
     79136     79137     79138     79139     79138     79140     79139     79140
     79141     79142     79141     79143     79142     79143     79144     79145
     79144     79146     79145     79146     79147     79148     79147     79149
     79148     79149     79150     79151     79150     79152     79151     79152
     79153     79154     79153     79155     79154     79155     79156     79157
     79156     79158     79157     79158     79159     79160     79159     79161
     79160     79161     79162     79163     79162     79164     79163     79164
     79165     79166     79165     79167     79166     79167     79168     79169
     79168     79170     79169     79170     79171     79172     79171     79173
     79172     79173     79174     79175     79174     79176     79175     79176
     79177     79178     79177     79179     79178     79179     79180     79181
     79180     79182     79181     79182     79183     79184     79183     79185
     79184     79185     79186     79187     79186     79188     79187     79188
     79189     79190     79189     79191     79190     79191     79192     79193
     79192     79194     79193     79194     79195     79196     79195     79197
     79196     79197     79198     79199     79198     79200     79199     79200
     79201     79202     79201     79203     79202     79203     79204     79205
     79204     79206     79205     79206     79207     79208     79207     79209
     79208     79209     79210     79211     79210     79212     79211     79212
     79213     79214     79213     79215     79214     79215     79216     79217
     79216     79218     79217     79218     79219     79220     79219     79221
     79220     79221     79222     79223     79222     79224     79223     79224
     79225     79226     79225     79227     79226     79227     79228     79229
     79228     79230     79229     79230     79231     79232     79231     79233
     79232     79233     79234     79235     79234     79236     79235     79236
     79237     79238     79237     79239     79238     79239     79240     79241
     79240     79242     79241     79242     79243     79244     79243     79245
     79244     79245     79246     79247     79246     79248     79247     79248
     79249     79250     79249     79251     79250     79251     79252     79253
     79252     79254     79253     79254     79255     79256     79255     79257
     79256     79257     79258     79259     79258     79260     79259     79260
     79261     79262     79261     79263     79262     79263     79264     79265
     79264     79266     79265     79266     79267     79268     79267     79269
     79268     79269     79270     79271     79270     79272     79271     79272
     79273     79274     79273     79275     79274     79275     79276     79277
     79276     79278     79277     79278     79279     79280     79279     79281
     79280     79281     79282     79283     79282     79284     79283     79284
     79285     79286     79285     79287     79286     79287     79288     79289
     79288     79290     79289     79290     79291     79292     79291     79293
     79292     79293     79294     79295     79294     79296     79295     79296
     79297     79298     79297     79299     79298     79299     79300     79301
     79300     79302     79301     79302     79303     79304     79303     79305
     79304     79305     79306     79307     79306     79308     79307     79308
     79309     79310     79309     79311     79310     79311     79312     79313
     79312     79314     79313     79314     79315     79316     79315     79317
     79316     79317     79318     79319     79318     79320     79319     79320
     79321     79322     79321     79323     79322     79323     79324     79325
     79324     79326     79325     79326     79327     79328     79327     79329
     79328     79329     79330     79331     79330     79332     79331     79332
     79333     79334     79333     79335     79334     79335     79336     79337
     79336     79338     79337     79338     79339     79340     79339     79341
     79340     79341     79342     79343     79342     79344     79343     79344
     79345     79346     79345     79347     79346     79347     79348     79349
     79348     79350     79349     79350     79351     79352     79351     79353
     79352     79353     79354     79355     79354     79356     79355     79356
     79357     79358     79357     79359     79358     79359     79360     79361
     79360     79362     79361     79362     79363     79364     79363     79365
     79364     79365     79366     79367     79366     79368     79367     79368
     79369     79370     79369     79371     79370     79371     79372     79373
     79372     79374     79373     79374     79375     79376     79375     79377
     79376     79377     79378     79379     79378     79380     79379     79380
     79381     79382     79381     79383     79382     79383     79384     79385
     79384     79386     79385     79386     79387     79388     79387     79389
     79388     79389     79390     79391     79390     79392     79391     79392
     79393     79394     79393     79395     79394     79395     79396     79397
     79396     79398     79397     79398     79399     79400     79399     79401
     79400     79401     79402     79403     79402     79404     79403     79404
     79405     79406     79405     79407     79406     79407     79408     79409
     79408     79410     79409     79410     79411     79412     79411     79413
     79412     79413     79414     79415     79414     79416     79415     79416
     79417     79418     79417     79419     79418     79419     79420     79421
     79420     79422     79421     79422     79423     79424     79423     79425
     79424     79425     79426     79427     79426     79428     79427     79428
     79429     79430     79429     79431     79430     79431     79432     79433
     79432     79434     79433     79434     79435     79436     79435     79437
     79436     79437     79438     79439     79438     79440     79439     79440
     79441     79442     79441     79443     79442     79443     79444     79445
     79444     79446     79445     79446     79447     79448     79447     79449
     79448     79449     79450     79451     79450     79452     79451     79452
     79453     79454     79453     79455     79454     79455     79456     79457
     79456     79458     79457     79458     79459     79460     79459     79461
     79460     79461     79462     79463     79462     79464     79463     79464
     79465     79466     79465     79467     79466     79467     79468     79469
     79468     79470     79469     79470     79471     79472     79471     79473
     79472     79473     79474     79475     79474     79476     79475     79476
     79477     79478     79477     79479     79478     79479     79480     79481
     79480     79482     79481     79482     79483     79484     79483     79485
     79484     79485     79486     79487     79486     79488     79487     79488
     79489     79490     79489     79491     79490     79491     79492     79493
     79492     79494     79493     79494     79495     79496     79495     79497
     79496     79497     79498     79499     79498     79500     79499     79500
     79501     79502     79501     79503     79502     79503     79504     79505
     79504     79506     79505     79506     79507     79508     79507     79509
     79508     79509     79510     79511     79510     79512     79511     79512
     79513     79514     79513     79515     79514     79515     79516     79517
     79516     79518     79517     79518     79519     79520     79519     79521
     79520     79521     79522     79523     79522     79524     79523     79524
     79525     79526     79525     79527     79526     79527     79528     79529
     79528     79530     79529     79530     79531     79532     79531     79533
     79532     79533     79534     79535     79534     79536     79535     79536
     79537     79538     79537     79539     79538     79539     79540     79541
     79540     79542     79541     79542     79543     79544     79543     79545
     79544     79545     79546     79547     79546     79548     79547     79548
     79549     79550     79549     79551     79550     79551     79552     79553
     79552     79554     79553     79554     79555     79556     79555     79557
     79556     79557     79558     79559     79558     79560     79559     79560
     79561     79562     79561     79563     79562     79563     79564     79565
     79564     79566     79565     79566     79567     79568     79567     79569
     79568     79569     79570     79571     79570     79572     79571     79572
     79573     79574     79573     79575     79574     79575     79576     79577
     79576     79578     79577     79578     79579     79580     79579     79581
     79580     79581     79582     79583     79582     79584     79583     79584
     79585     79586     79585     79587     79586     79587     79588     79589
     79588     79590     79589     79590     79591     79592     79591     79593
     79592     79593     79594     79595     79594     79596     79595     79596
     79597     79598     79597     79599     79598     79599     79600     79601
     79600     79602     79601     79602     79603     79604     79603     79605
     79604     79605     79606     79607     79606     79608     79607     79608
     79609     79610     79609     79611     79610     79611     79612     79613
     79612     79614     79613     79614     79615     79616     79615     79617
     79616     79617     79618     79619     79618     79620     79619     79620
     79621     79622     79621     79623     79622     79623     79624     79625
     79624     79626     79625     79626     79627     79628     79627     79629
     79628     79629     79630     79631     79630     79632     79631     79632
     79633     79634     79633     79635     79634     79635     79636     79637
     79636     79638     79637     79638     79639     79640     79639     79641
     79640     79641     79642     79643     79642     79644     79643     79644
     79645     79646     79645     79647     79646     79647     79648     79649
     79648     79650     79649     79650     79651     79652     79651     79653
     79652     79653     79654     79655     79654     79656     79655     79656
     79657     79658     79657     79659     79658     79659     79660     79661
     79660     79662     79661     79662     79663     79664     79663     79665
     79664     79665     79666     79667     79666     79668     79667     79668
     79669     79670     79669     79671     79670     79671     79672     79673
     79672     79674     79673     79674     79675     79676     79675     79677
     79676     79677     79678     79679     79678     79680     79679     79680
     79681     79682     79681     79683     79682     79683     79684     79685
     79684     79686     79685     79686     79687     79688     79687     79689
     79688     79689     79690     79691     79690     79692     79691     79692
     79693     79694     79693     79695     79694     79695     79696     79697
     79696     79698     79697     79698     79699     79700     79699     79701
     79700     79701     79702     79703     79702     79704     79703     79704
     79705     79706     79705     79707     79706     79707     79708     79709
     79708     79710     79709     79710     79711     79712     79711     79713
     79712     79713     79714     79715     79714     79716     79715     79716
     79717     79718     79717     79719     79718     79719     79720     79721
     79720     79722     79721     79722     79723     79724     79723     79725
     79724     79725     79726     79727     79726     79728     79727     79728
     79729     79730     79729     79731     79730     79731     79732     79733
     79732     79734     79733     79734     79735     79736     79735     79737
     79736     79737     79738     79739     79738     79740     79739     79740
     79741     79742     79741     79743     79742     79743     79744     79745
     79744     79746     79745     79746     79747     79748     79747     79749
     79748     79749     79750     79751     79750     79752     79751     79752
     79753     79754     79753     79755     79754     79755     79756     79757
     79756     79758     79757     79758     79759     79760     79759     79761
     79760     79761     79762     79763     79762     79764     79763     79764
     79765     79766     79765     79767     79766     79767     79768     79769
     79768     79770     79769     79770     79771     79772     79771     79773
     79772     79773     79774     79775     79774     79776     79775     79776
     79777     79778     79777     79779     79778     79779     79780     79781
     79780     79782     79781     79782     79783     79784     79783     79785
     79784     79785     79786     79787     79786     79788     79787     79788
     79789     79790     79789     79791     79790     79791     79792     79793
     79792     79794     79793     79794     79795     79796     79795     79797
     79796     79797     79798     79799     79798     79800     79799     79800
     79801     79802     79801     79803     79802     79803     79804     79805
     79804     79806     79805     79806     79807     79808     79807     79809
     79808     79809     79810     79811     79810     79812     79811     79812
     79813     79814     79813     79815     79814     79815     79816     79817
     79816     79818     79817     79818     79819     79820     79819     79821
     79820     79821     79822     79823     79822     79824     79823     79824
     79825     79826     79825     79827     79826     79827     79828     79829
     79828     79830     79829     79830     79831     79832     79831     79833
     79832     79833     79834     79835     79834     79836     79835     79836
     79837     79838     79837     79839     79838     79839     79840     79841
     79840     79842     79841     79842     79843     79844     79843     79845
     79844     79845     79846     79847     79846     79848     79847     79848
     79849     79850     79849     79851     79850     79851     79852     79853
     79852     79854     79853     79854     79855     79856     79855     79857
     79856     79857     79858     79859     79858     79860     79859     79860
     79861     79862     79861     79863     79862     79863     79864     79865
     79864     79866     79865     79866     79867     79868     79867     79869
     79868     79869     79870     79871     79870     79872     79871     79872
     79873     79874     79873     79875     79874     79875     79876     79877
     79876     79878     79877     79878     79879     79880     79879     79881
     79880     79881     79882     79883     79882     79884     79883     79884
     79885     79886     79885     79887     79886     79887     79888     79889
     79888     79890     79889     79890     79891     79892     79891     79893
     79892     79893     79894     79895     79894     79896     79895     79896
     79897     79898     79897     79899     79898     79899     79900     79901
     79900     79902     79901     79902     79903     79904     79903     79905
     79904     79905     79906     79907     79906     79908     79907     79908
     79909     79910     79909     79911     79910     79911     79912     79913
     79912     79914     79913     79914     79915     79916     79915     79917
     79916     79917     79918     79919     79918     79920     79919     79920
     79921     79922     79921     79923     79922     79923     79924     79925
     79924     79926     79925     79926     79927     79928     79927     79929
     79928     79929     79930     79931     79930     79932     79931     79932
     79933     79934     79933     79935     79934     79935     79936     79937
     79936     79938     79937     79938     79939     79940     79939     79941
     79940     79941     79942     79943     79942     79944     79943     79944
     79945     79946     79945     79947     79946     79947     79948     79949
     79948     79950     79949     79950     79951     79952     79951     79953
     79952     79953     79954     79955     79954     79956     79955     79956
     79957     79958     79957     79959     79958     79959     79960     79961
     79960     79962     79961     79962     79963     79964     79963     79965
     79964     79965     79966     79967     79966     79968     79967     79968
     79969     79970     79969     79971     79970     79971     79972     79973
     79972     79974     79973     79974     79975     79976     79975     79977
     79976     79977     79978     79979     79978     79980     79979     79980
     79981     79982     79981     79983     79982     79983     79984     79985
     79984     79986     79985     79986     79987     79988     79987     79989
     79988     79989     79990     79991     79990     79992     79991     79992
     79993     79994     79993     79995     79994     79995     79996     79997
     79996     79998     79997     79998     79999     80000     79999     80001
     80000     80001     80002     80003     80002     80004     80003     80004
     80005     80006     80005     80007     80006     80007     80008     80009
     80008     80010     80009     80010     80011     80012     80011     80013
     80012     80013     80014     80015     80014     80016     80015     80016
     80017     80018     80017     80019     80018     80019     80020     80021
     80020     80022     80021     80022     80023     80024     80023     80025
     80024     80025     80026     80027     80026     80028     80027     80028
     80029     80030     80029     80031     80030     80031     80032     80033
     80032     80034     80033     80034     80035     80036     80035     80037
     80036     80037     80038     80039     80038     80040     80039     80040
     80041     80042     80041     80043     80042     80043     80044     80045
     80044     80046     80045     80046     80047     80048     80047     80049
     80048     80049     80050     80051     80050     80052     80051     80052
     80053     80054     80053     80055     80054     80055     80056     80057
     80056     80058     80057     80058     80059     80060     80059     80061
     80060     80061     80062     80063     80062     80064     80063     80064
     80065     80066     80065     80067     80066     80067     80068     80069
     80068     80070     80069     80070     80071     80072     80071     80073
     80072     80073     80074     80075     80074     80076     80075     80076
     80077     80078     80077     80079     80078     80079     80080     80081
     80080     80082     80081     80082     80083     80084     80083     80085
     80084     80085     80086     80087     80086     80088     80087     80088
     80089     80090     80089     80091     80090     80091     80092     80093
     80092     80094     80093     80094     80095     80096     80095     80097
     80096     80097     80098     80099     80098     80100     80099     80100
     80101     80102     80101     80103     80102     80103     80104     80105
     80104     80106     80105     80106     80107     80108     80107     80109
     80108     80109     80110     80111     80110     80112     80111     80112
     80113     80114     80113     80115     80114     80115     80116     80117
     80116     80118     80117     80118     80119     80120     80119     80121
     80120     80121     80122     80123     80122     80124     80123     80124
     80125     80126     80125     80127     80126     80127     80128     80129
     80128     80130     80129     80130     80131     80132     80131     80133
     80132     80133     80134     80135     80134     80136     80135     80136
     80137     80138     80137     80139     80138     80139     80140     80141
     80140     80142     80141     80142     80143     80144     80143     80145
     80144     80145     80146     80147     80146     80148     80147     80148
     80149     80150     80149     80151     80150     80151     80152     80153
     80152     80154     80153     80154     80155     80156     80155     80157
     80156     80157     80158     80159     80158     80160     80159     80160
     80161     80162     80161     80163     80162     80163     80164     80165
     80164     80166     80165     80166     80167     80168     80167     80169
     80168     80169     80170     80171     80170     80172     80171     80172
     80173     80174     80173     80175     80174     80175     80176     80177
     80176     80178     80177     80178     80179     80180     80179     80181
     80180     80181     80182     80183     80182     80184     80183     80184
     80185     80186     80185     80187     80186     80187     80188     80189
     80188     80190     80189     80190     80191     80192     80191     80193
     80192     80193     80194     80195     80194     80196     80195     80196
     80197     80198     80197     80199     80198     80199     80200     80201
     80200     80202     80201     80202     80203     80204     80203     80205
     80204     80205     80206     80207     80206     80208     80207     80208
     80209     80210     80209     80211     80210     80211     80212     80213
     80212     80214     80213     80214     80215     80216     80215     80217
     80216     80217     80218     80219     80218     80220     80219     80220
     80221     80222     80221     80223     80222     80223     80224     80225
     80224     80226     80225     80226     80227     80228     80227     80229
     80228     80229     80230     80231     80230     80232     80231     80232
     80233     80234     80233     80235     80234     80235     80236     80237
     80236     80238     80237     80238     80239     80240     80239     80241
     80240     80241     80242     80243     80242     80244     80243     80244
     80245     80246     80245     80247     80246     80247     80248     80249
     80248     80250     80249     80250     80251     80252     80251     80253
     80252     80253     80254     80255     80254     80256     80255     80256
     80257     80258     80257     80259     80258     80259     80260     80261
     80260     80262     80261     80262     80263     80264     80263     80265
     80264     80265     80266     80267     80266     80268     80267     80268
     80269     80270     80269     80271     80270     80271     80272     80273
     80272     80274     80273     80274     80275     80276     80275     80277
     80276     80277     80278     80279     80278     80280     80279     80280
     80281     80282     80281     80283     80282     80283     80284     80285
     80284     80286     80285     80286     80287     80288     80287     80289
     80288     80289     80290     80291     80290     80292     80291     80292
     80293     80294     80293     80295     80294     80295     80296     80297
     80296     80298     80297     80298     80299     80300     80299     80301
     80300     80301     80302     80303     80302     80304     80303     80304
     80305     80306     80305     80307     80306     80307     80308     80309
     80308     80310     80309     80310     80311     80312     80311     80313
     80312     80313     80314     80315     80314     80316     80315     80316
     80317     80318     80317     80319     80318     80319     80320     80321
     80320     80322     80321     80322     80323     80324     80323     80325
     80324     80325     80326     80327     80326     80328     80327     80328
     80329     80330     80329     80331     80330     80331     80332     80333
     80332     80334     80333     80334     80335     80336     80335     80337
     80336     80337     80338     80339     80338     80340     80339     80340
     80341     80342     80341     80343     80342     80343     80344     80345
     80344     80346     80345     80346     80347     80348     80347     80349
     80348     80349     80350     80351     80350     80352     80351     80352
     80353     80354     80353     80355     80354     80355     80356     80357
     80356     80358     80357     80358     80359     80360     80359     80361
     80360     80361     80362     80363     80362     80364     80363     80364
     80365     80366     80365     80367     80366     80367     80368     80369
     80368     80370     80369     80370     80371     80372     80371     80373
     80372     80373     80374     80375     80374     80376     80375     80376
     80377     80378     80377     80379     80378     80379     80380     80381
     80380     80382     80381     80382     80383     80384     80383     80385
     80384     80385     80386     80387     80386     80388     80387     80388
     80389     80390     80389     80391     80390     80391     80392     80393
     80392     80394     80393     80394     80395     80396     80395     80397
     80396     80397     80398     80399     80398     80400     80399     80400
     80401     80402     80401     80403     80402     80403     80404     80405
     80404     80406     80405     80406     80407     80408     80407     80409
     80408     80409     80410     80411     80410     80412     80411     80412
     80413     80414     80413     80415     80414     80415     80416     80417
     80416     80418     80417     80418     80419     80420     80419     80421
     80420     80421     80422     80423     80422     80424     80423     80424
     80425     80426     80425     80427     80426     80427     80428     80429
     80428     80430     80429     80430     80431     80432     80431     80433
     80432     80433     80434     80435     80434     80436     80435     80436
     80437     80438     80437     80439     80438     80439     80440     80441
     80440     80442     80441     80442     80443     80444     80443     80445
     80444     80445     80446     80447     80446     80448     80447     80448
     80449     80450     80449     80451     80450     80451     80452     80453
     80452     80454     80453     80454     80455     80456     80455     80457
     80456     80457     80458     80459     80458     80460     80459     80460
     80461     80462     80461     80463     80462     80463     80464     80465
     80464     80466     80465     80466     80467     80468     80467     80469
     80468     80469     80470     80471     80470     80472     80471     80472
     80473     80474     80473     80475     80474     80475     80476     80477
     80476     80478     80477     80478     80479     80480     80479     80481
     80480     80481     80482     80483     80482     80484     80483     80484
     80485     80486     80485     80487     80486     80487     80488     80489
     80488     80490     80489     80490     80491     80492     80491     80493
     80492     80493     80494     80495     80494     80496     80495     80496
     80497     80498     80497     80499     80498     80499     80500     80501
     80500     80502     80501     80502     80503     80504     80503     80505
     80504     80505     80506     80507     80506     80508     80507     80508
     80509     80510     80509     80511     80510     80511     80512     80513
     80512     80514     80513     80514     80515     80516     80515     80517
     80516     80517     80518     80519     80518     80520     80519     80520
     80521     80522     80521     80523     80522     80523     80524     80525
     80524     80526     80525     80526     80527     80528     80527     80529
     80528     80529     80530     80531     80530     80532     80531     80532
     80533     80534     80533     80535     80534     80535     80536     80537
     80536     80538     80537     80538     80539     80540     80539     80541
     80540     80541     80542     80543     80542     80544     80543     80544
     80545     80546     80545     80547     80546     80547     80548     80549
     80548     80550     80549     80550     80551     80552     80551     80553
     80552     80553     80554     80555     80554     80556     80555     80556
     80557     80558     80557     80559     80558     80559     80560     80561
     80560     80562     80561     80562     80563     80564     80563     80565
     80564     80565     80566     80567     80566     80568     80567     80568
     80569     80570     80569     80571     80570     80571     80572     80573
     80572     80574     80573     80574     80575     80576     80575     80577
     80576     80577     80578     80579     80578     80580     80579     80580
     80581     80582     80581     80583     80582     80583     80584     80585
     80584     80586     80585     80586     80587     80588     80587     80589
     80588     80589     80590     80591     80590     80592     80591     80592
     80593     80594     80593     80595     80594     80595     80596     80597
     80596     80598     80597     80598     80599     80600     80599     80601
     80600     80601     80602     80603     80602     80604     80603     80604
     80605     80606     80605     80607     80606     80607     80608     80609
     80608     80610     80609     80610     80611     80612     80611     80613
     80612     80613     80614     80615     80614     80616     80615     80616
     80617     80618     80617     80619     80618     80619     80620     80621
     80620     80622     80621     80622     80623     80624     80623     80625
     80624     80625     80626     80627     80626     80628     80627     80628
     80629     80630     80629     80631     80630     80631     80632     80633
     80632     80634     80633     80634     80635     80636     80635     80637
     80636     80637     80638     80639     80638     80640     80639     80640
     80641     80642     80641     80643     80642     80643     80644     80645
     80644     80646     80645     80646     80647     80648     80647     80649
     80648     80649     80650     80651     80650     80652     80651     80652
     80653     80654     80653     80655     80654     80655     80656     80657
     80656     80658     80657     80658     80659     80660     80659     80661
     80660     80661     80662     80663     80662     80664     80663     80664
     80665     80666     80665     80667     80666     80667     80668     80669
     80668     80670     80669     80670     80671     80672     80671     80673
     80672     80673     80674     80675     80674     80676     80675     80676
     80677     80678     80677     80679     80678     80679     80680     80681
     80680     80682     80681     80682     80683     80684     80683     80685
     80684     80685     80686     80687     80686     80688     80687     80688
     80689     80690     80689     80691     80690     80691     80692     80693
     80692     80694     80693     80694     80695     80696     80695     80697
     80696     80697     80698     80699     80698     80700     80699     80700
     80701     80702     80701     80703     80702     80703     80704     80705
     80704     80706     80705     80706     80707     80708     80707     80709
     80708     80709     80710     80711     80710     80712     80711     80712
     80713     80714     80713     80715     80714     80715     80716     80717
     80716     80718     80717     80718     80719     80720     80719     80721
     80720     80721     80722     80723     80722     80724     80723     80724
     80725     80726     80725     80727     80726     80727     80728     80729
     80728     80730     80729     80730     80731     80732     80731     80733
     80732     80733     80734     80735     80734     80736     80735     80736
     80737     80738     80737     80739     80738     80739     80740     80741
     80740     80742     80741     80742     80743     80744     80743     80745
     80744     80745     80746     80747     80746     80748     80747     80748
     80749     80750     80749     80751     80750     80751     80752     80753
     80752     80754     80753     80754     80755     80756     80755     80757
     80756     80757     80758     80759     80758     80760     80759     80760
     80761     80762     80761     80763     80762     80763     80764     80765
     80764     80766     80765     80766     80767     80768     80767     80769
     80768     80769     80770     80771     80770     80772     80771     80772
     80773     80774     80773     80775     80774     80775     80776     80777
     80776     80778     80777     80778     80779     80780     80779     80781
     80780     80781     80782     80783     80782     80784     80783     80784
     80785     80786     80785     80787     80786     80787     80788     80789
     80788     80790     80789     80790     80791     80792     80791     80793
     80792     80793     80794     80795     80794     80796     80795     80796
     80797     80798     80797     80799     80798     80799     80800     80801
     80800     80802     80801     80802     80803     80804     80803     80805
     80804     80805     80806     80807     80806     80808     80807     80808
     80809     80810     80809     80811     80810     80811     80812     80813
     80812     80814     80813     80814     80815     80816     80815     80817
     80816     80817     80818     80819     80818     80820     80819     80820
     80821     80822     80821     80823     80822     80823     80824     80825
     80824     80826     80825     80826     80827     80828     80827     80829
     80828     80829     80830     80831     80830     80832     80831     80832
     80833     80834     80833     80835     80834     80835     80836     80837
     80836     80838     80837     80838     80839     80840     80839     80841
     80840     80841     80842     80843     80842     80844     80843     80844
     80845     80846     80845     80847     80846     80847     80848     80849
     80848     80850     80849     80850     80851     80852     80851     80853
     80852     80853     80854     80855     80854     80856     80855     80856
     80857     80858     80857     80859     80858     80859     80860     80861
     80860     80862     80861     80862     80863     80864     80863     80865
     80864     80865     80866     80867     80866     80868     80867     80868
     80869     80870     80869     80871     80870     80871     80872     80873
     80872     80874     80873     80874     80875     80876     80875     80877
     80876     80877     80878     80879     80878     80880     80879     80880
     80881     80882     80881     80883     80882     80883

     26961 !NTHETA: angles
         2         1         3         5         4         6         8         7         9
        11        10        12        14        13        15        17        16        18
        20        19        21        23        22        24        26        25        27
        29        28        30        32        31        33        35        34        36
        38        37        39        41        40        42        44        43        45
        47        46        48        50        49        51        53        52        54
        56        55        57        59        58        60        62        61        63
        65        64        66        68        67        69        71        70        72
        74        73        75        77        76        78        80        79        81
        83        82        84        86        85        87        89        88        90
        92        91        93        95        94        96        98        97        99
       101       100       102       104       103       105       107       106       108
       110       109       111       113       112       114       116       115       117
       119       118       120       122       121       123       125       124       126
       128       127       129       131       130       132       134       133       135
       137       136       138       140       139       141       143       142       144
       146       145       147       149       148       150       152       151       153
       155       154       156       158       157       159       161       160       162
       164       163       165       167       166       168       170       169       171
       173       172       174       176       175       177       179       178       180
       182       181       183       185       184       186       188       187       189
       191       190       192       194       193       195       197       196       198
       200       199       201       203       202       204       206       205       207
       209       208       210       212       211       213       215       214       216
       218       217       219       221       220       222       224       223       225
       227       226       228       230       229       231       233       232       234
       236       235       237       239       238       240       242       241       243
       245       244       246       248       247       249       251       250       252
       254       253       255       257       256       258       260       259       261
       263       262       264       266       265       267       269       268       270
       272       271       273       275       274       276       278       277       279
       281       280       282       284       283       285       287       286       288
       290       289       291       293       292       294       296       295       297
       299       298       300       302       301       303       305       304       306
       308       307       309       311       310       312       314       313       315
       317       316       318       320       319       321       323       322       324
       326       325       327       329       328       330       332       331       333
       335       334       336       338       337       339       341       340       342
       344       343       345       347       346       348       350       349       351
       353       352       354       356       355       357       359       358       360
       362       361       363       365       364       366       368       367       369
       371       370       372       374       373       375       377       376       378
       380       379       381       383       382       384       386       385       387
       389       388       390       392       391       393       395       394       396
       398       397       399       401       400       402       404       403       405
       407       406       408       410       409       411       413       412       414
       416       415       417       419       418       420       422       421       423
       425       424       426       428       427       429       431       430       432
       434       433       435       437       436       438       440       439       441
       443       442       444       446       445       447       449       448       450
       452       451       453       455       454       456       458       457       459
       461       460       462       464       463       465       467       466       468
       470       469       471       473       472       474       476       475       477
       479       478       480       482       481       483       485       484       486
       488       487       489       491       490       492       494       493       495
       497       496       498       500       499       501       503       502       504
       506       505       507       509       508       510       512       511       513
       515       514       516       518       517       519       521       520       522
       524       523       525       527       526       528       530       529       531
       533       532       534       536       535       537       539       538       540
       542       541       543       545       544       546       548       547       549
       551       550       552       554       553       555       557       556       558
       560       559       561       563       562       564       566       565       567
       569       568       570       572       571       573       575       574       576
       578       577       579       581       580       582       584       583       585
       587       586       588       590       589       591       593       592       594
       596       595       597       599       598       600       602       601       603
       605       604       606       608       607       609       611       610       612
       614       613       615       617       616       618       620       619       621
       623       622       624       626       625       627       629       628       630
       632       631       633       635       634       636       638       637       639
       641       640       642       644       643       645       647       646       648
       650       649       651       653       652       654       656       655       657
       659       658       660       662       661       663       665       664       666
       668       667       669       671       670       672       674       673       675
       677       676       678       680       679       681       683       682       684
       686       685       687       689       688       690       692       691       693
       695       694       696       698       697       699       701       700       702
       704       703       705       707       706       708       710       709       711
       713       712       714       716       715       717       719       718       720
       722       721       723       725       724       726       728       727       729
       731       730       732       734       733       735       737       736       738
       740       739       741       743       742       744       746       745       747
       749       748       750       752       751       753       755       754       756
       758       757       759       761       760       762       764       763       765
       767       766       768       770       769       771       773       772       774
       776       775       777       779       778       780       782       781       783
       785       784       786       788       787       789       791       790       792
       794       793       795       797       796       798       800       799       801
       803       802       804       806       805       807       809       808       810
       812       811       813       815       814       816       818       817       819
       821       820       822       824       823       825       827       826       828
       830       829       831       833       832       834       836       835       837
       839       838       840       842       841       843       845       844       846
       848       847       849       851       850       852       854       853       855
       857       856       858       860       859       861       863       862       864
       866       865       867       869       868       870       872       871       873
       875       874       876       878       877       879       881       880       882
       884       883       885       887       886       888       890       889       891
       893       892       894       896       895       897       899       898       900
       902       901       903       905       904       906       908       907       909
       911       910       912       914       913       915       917       916       918
       920       919       921       923       922       924       926       925       927
       929       928       930       932       931       933       935       934       936
       938       937       939       941       940       942       944       943       945
       947       946       948       950       949       951       953       952       954
       956       955       957       959       958       960       962       961       963
       965       964       966       968       967       969       971       970       972
       974       973       975       977       976       978       980       979       981
       983       982       984       986       985       987       989       988       990
       992       991       993       995       994       996       998       997       999
      1001      1000      1002      1004      1003      1005      1007      1006      1008
      1010      1009      1011      1013      1012      1014      1016      1015      1017
      1019      1018      1020      1022      1021      1023      1025      1024      1026
      1028      1027      1029      1031      1030      1032      1034      1033      1035
      1037      1036      1038      1040      1039      1041      1043      1042      1044
      1046      1045      1047      1049      1048      1050      1052      1051      1053
      1055      1054      1056      1058      1057      1059      1061      1060      1062
      1064      1063      1065      1067      1066      1068      1070      1069      1071
      1073      1072      1074      1076      1075      1077      1079      1078      1080
      1082      1081      1083      1085      1084      1086      1088      1087      1089
      1091      1090      1092      1094      1093      1095      1097      1096      1098
      1100      1099      1101      1103      1102      1104      1106      1105      1107
      1109      1108      1110      1112      1111      1113      1115      1114      1116
      1118      1117      1119      1121      1120      1122      1124      1123      1125
      1127      1126      1128      1130      1129      1131      1133      1132      1134
      1136      1135      1137      1139      1138      1140      1142      1141      1143
      1145      1144      1146      1148      1147      1149      1151      1150      1152
      1154      1153      1155      1157      1156      1158      1160      1159      1161
      1163      1162      1164      1166      1165      1167      1169      1168      1170
      1172      1171      1173      1175      1174      1176      1178      1177      1179
      1181      1180      1182      1184      1183      1185      1187      1186      1188
      1190      1189      1191      1193      1192      1194      1196      1195      1197
      1199      1198      1200      1202      1201      1203      1205      1204      1206
      1208      1207      1209      1211      1210      1212      1214      1213      1215
      1217      1216      1218      1220      1219      1221      1223      1222      1224
      1226      1225      1227      1229      1228      1230      1232      1231      1233
      1235      1234      1236      1238      1237      1239      1241      1240      1242
      1244      1243      1245      1247      1246      1248      1250      1249      1251
      1253      1252      1254      1256      1255      1257      1259      1258      1260
      1262      1261      1263      1265      1264      1266      1268      1267      1269
      1271      1270      1272      1274      1273      1275      1277      1276      1278
      1280      1279      1281      1283      1282      1284      1286      1285      1287
      1289      1288      1290      1292      1291      1293      1295      1294      1296
      1298      1297      1299      1301      1300      1302      1304      1303      1305
      1307      1306      1308      1310      1309      1311      1313      1312      1314
      1316      1315      1317      1319      1318      1320      1322      1321      1323
      1325      1324      1326      1328      1327      1329      1331      1330      1332
      1334      1333      1335      1337      1336      1338      1340      1339      1341
      1343      1342      1344      1346      1345      1347      1349      1348      1350
      1352      1351      1353      1355      1354      1356      1358      1357      1359
      1361      1360      1362      1364      1363      1365      1367      1366      1368
      1370      1369      1371      1373      1372      1374      1376      1375      1377
      1379      1378      1380      1382      1381      1383      1385      1384      1386
      1388      1387      1389      1391      1390      1392      1394      1393      1395
      1397      1396      1398      1400      1399      1401      1403      1402      1404
      1406      1405      1407      1409      1408      1410      1412      1411      1413
      1415      1414      1416      1418      1417      1419      1421      1420      1422
      1424      1423      1425      1427      1426      1428      1430      1429      1431
      1433      1432      1434      1436      1435      1437      1439      1438      1440
      1442      1441      1443      1445      1444      1446      1448      1447      1449
      1451      1450      1452      1454      1453      1455      1457      1456      1458
      1460      1459      1461      1463      1462      1464      1466      1465      1467
      1469      1468      1470      1472      1471      1473      1475      1474      1476
      1478      1477      1479      1481      1480      1482      1484      1483      1485
      1487      1486      1488      1490      1489      1491      1493      1492      1494
      1496      1495      1497      1499      1498      1500      1502      1501      1503
      1505      1504      1506      1508      1507      1509      1511      1510      1512
      1514      1513      1515      1517      1516      1518      1520      1519      1521
      1523      1522      1524      1526      1525      1527      1529      1528      1530
      1532      1531      1533      1535      1534      1536      1538      1537      1539
      1541      1540      1542      1544      1543      1545      1547      1546      1548
      1550      1549      1551      1553      1552      1554      1556      1555      1557
      1559      1558      1560      1562      1561      1563      1565      1564      1566
      1568      1567      1569      1571      1570      1572      1574      1573      1575
      1577      1576      1578      1580      1579      1581      1583      1582      1584
      1586      1585      1587      1589      1588      1590      1592      1591      1593
      1595      1594      1596      1598      1597      1599      1601      1600      1602
      1604      1603      1605      1607      1606      1608      1610      1609      1611
      1613      1612      1614      1616      1615      1617      1619      1618      1620
      1622      1621      1623      1625      1624      1626      1628      1627      1629
      1631      1630      1632      1634      1633      1635      1637      1636      1638
      1640      1639      1641      1643      1642      1644      1646      1645      1647
      1649      1648      1650      1652      1651      1653      1655      1654      1656
      1658      1657      1659      1661      1660      1662      1664      1663      1665
      1667      1666      1668      1670      1669      1671      1673      1672      1674
      1676      1675      1677      1679      1678      1680      1682      1681      1683
      1685      1684      1686      1688      1687      1689      1691      1690      1692
      1694      1693      1695      1697      1696      1698      1700      1699      1701
      1703      1702      1704      1706      1705      1707      1709      1708      1710
      1712      1711      1713      1715      1714      1716      1718      1717      1719
      1721      1720      1722      1724      1723      1725      1727      1726      1728
      1730      1729      1731      1733      1732      1734      1736      1735      1737
      1739      1738      1740      1742      1741      1743      1745      1744      1746
      1748      1747      1749      1751      1750      1752      1754      1753      1755
      1757      1756      1758      1760      1759      1761      1763      1762      1764
      1766      1765      1767      1769      1768      1770      1772      1771      1773
      1775      1774      1776      1778      1777      1779      1781      1780      1782
      1784      1783      1785      1787      1786      1788      1790      1789      1791
      1793      1792      1794      1796      1795      1797      1799      1798      1800
      1802      1801      1803      1805      1804      1806      1808      1807      1809
      1811      1810      1812      1814      1813      1815      1817      1816      1818
      1820      1819      1821      1823      1822      1824      1826      1825      1827
      1829      1828      1830      1832      1831      1833      1835      1834      1836
      1838      1837      1839      1841      1840      1842      1844      1843      1845
      1847      1846      1848      1850      1849      1851      1853      1852      1854
      1856      1855      1857      1859      1858      1860      1862      1861      1863
      1865      1864      1866      1868      1867      1869      1871      1870      1872
      1874      1873      1875      1877      1876      1878      1880      1879      1881
      1883      1882      1884      1886      1885      1887      1889      1888      1890
      1892      1891      1893      1895      1894      1896      1898      1897      1899
      1901      1900      1902      1904      1903      1905      1907      1906      1908
      1910      1909      1911      1913      1912      1914      1916      1915      1917
      1919      1918      1920      1922      1921      1923      1925      1924      1926
      1928      1927      1929      1931      1930      1932      1934      1933      1935
      1937      1936      1938      1940      1939      1941      1943      1942      1944
      1946      1945      1947      1949      1948      1950      1952      1951      1953
      1955      1954      1956      1958      1957      1959      1961      1960      1962
      1964      1963      1965      1967      1966      1968      1970      1969      1971
      1973      1972      1974      1976      1975      1977      1979      1978      1980
      1982      1981      1983      1985      1984      1986      1988      1987      1989
      1991      1990      1992      1994      1993      1995      1997      1996      1998
      2000      1999      2001      2003      2002      2004      2006      2005      2007
      2009      2008      2010      2012      2011      2013      2015      2014      2016
      2018      2017      2019      2021      2020      2022      2024      2023      2025
      2027      2026      2028      2030      2029      2031      2033      2032      2034
      2036      2035      2037      2039      2038      2040      2042      2041      2043
      2045      2044      2046      2048      2047      2049      2051      2050      2052
      2054      2053      2055      2057      2056      2058      2060      2059      2061
      2063      2062      2064      2066      2065      2067      2069      2068      2070
      2072      2071      2073      2075      2074      2076      2078      2077      2079
      2081      2080      2082      2084      2083      2085      2087      2086      2088
      2090      2089      2091      2093      2092      2094      2096      2095      2097
      2099      2098      2100      2102      2101      2103      2105      2104      2106
      2108      2107      2109      2111      2110      2112      2114      2113      2115
      2117      2116      2118      2120      2119      2121      2123      2122      2124
      2126      2125      2127      2129      2128      2130      2132      2131      2133
      2135      2134      2136      2138      2137      2139      2141      2140      2142
      2144      2143      2145      2147      2146      2148      2150      2149      2151
      2153      2152      2154      2156      2155      2157      2159      2158      2160
      2162      2161      2163      2165      2164      2166      2168      2167      2169
      2171      2170      2172      2174      2173      2175      2177      2176      2178
      2180      2179      2181      2183      2182      2184      2186      2185      2187
      2189      2188      2190      2192      2191      2193      2195      2194      2196
      2198      2197      2199      2201      2200      2202      2204      2203      2205
      2207      2206      2208      2210      2209      2211      2213      2212      2214
      2216      2215      2217      2219      2218      2220      2222      2221      2223
      2225      2224      2226      2228      2227      2229      2231      2230      2232
      2234      2233      2235      2237      2236      2238      2240      2239      2241
      2243      2242      2244      2246      2245      2247      2249      2248      2250
      2252      2251      2253      2255      2254      2256      2258      2257      2259
      2261      2260      2262      2264      2263      2265      2267      2266      2268
      2270      2269      2271      2273      2272      2274      2276      2275      2277
      2279      2278      2280      2282      2281      2283      2285      2284      2286
      2288      2287      2289      2291      2290      2292      2294      2293      2295
      2297      2296      2298      2300      2299      2301      2303      2302      2304
      2306      2305      2307      2309      2308      2310      2312      2311      2313
      2315      2314      2316      2318      2317      2319      2321      2320      2322
      2324      2323      2325      2327      2326      2328      2330      2329      2331
      2333      2332      2334      2336      2335      2337      2339      2338      2340
      2342      2341      2343      2345      2344      2346      2348      2347      2349
      2351      2350      2352      2354      2353      2355      2357      2356      2358
      2360      2359      2361      2363      2362      2364      2366      2365      2367
      2369      2368      2370      2372      2371      2373      2375      2374      2376
      2378      2377      2379      2381      2380      2382      2384      2383      2385
      2387      2386      2388      2390      2389      2391      2393      2392      2394
      2396      2395      2397      2399      2398      2400      2402      2401      2403
      2405      2404      2406      2408      2407      2409      2411      2410      2412
      2414      2413      2415      2417      2416      2418      2420      2419      2421
      2423      2422      2424      2426      2425      2427      2429      2428      2430
      2432      2431      2433      2435      2434      2436      2438      2437      2439
      2441      2440      2442      2444      2443      2445      2447      2446      2448
      2450      2449      2451      2453      2452      2454      2456      2455      2457
      2459      2458      2460      2462      2461      2463      2465      2464      2466
      2468      2467      2469      2471      2470      2472      2474      2473      2475
      2477      2476      2478      2480      2479      2481      2483      2482      2484
      2486      2485      2487      2489      2488      2490      2492      2491      2493
      2495      2494      2496      2498      2497      2499      2501      2500      2502
      2504      2503      2505      2507      2506      2508      2510      2509      2511
      2513      2512      2514      2516      2515      2517      2519      2518      2520
      2522      2521      2523      2525      2524      2526      2528      2527      2529
      2531      2530      2532      2534      2533      2535      2537      2536      2538
      2540      2539      2541      2543      2542      2544      2546      2545      2547
      2549      2548      2550      2552      2551      2553      2555      2554      2556
      2558      2557      2559      2561      2560      2562      2564      2563      2565
      2567      2566      2568      2570      2569      2571      2573      2572      2574
      2576      2575      2577      2579      2578      2580      2582      2581      2583
      2585      2584      2586      2588      2587      2589      2591      2590      2592
      2594      2593      2595      2597      2596      2598      2600      2599      2601
      2603      2602      2604      2606      2605      2607      2609      2608      2610
      2612      2611      2613      2615      2614      2616      2618      2617      2619
      2621      2620      2622      2624      2623      2625      2627      2626      2628
      2630      2629      2631      2633      2632      2634      2636      2635      2637
      2639      2638      2640      2642      2641      2643      2645      2644      2646
      2648      2647      2649      2651      2650      2652      2654      2653      2655
      2657      2656      2658      2660      2659      2661      2663      2662      2664
      2666      2665      2667      2669      2668      2670      2672      2671      2673
      2675      2674      2676      2678      2677      2679      2681      2680      2682
      2684      2683      2685      2687      2686      2688      2690      2689      2691
      2693      2692      2694      2696      2695      2697      2699      2698      2700
      2702      2701      2703      2705      2704      2706      2708      2707      2709
      2711      2710      2712      2714      2713      2715      2717      2716      2718
      2720      2719      2721      2723      2722      2724      2726      2725      2727
      2729      2728      2730      2732      2731      2733      2735      2734      2736
      2738      2737      2739      2741      2740      2742      2744      2743      2745
      2747      2746      2748      2750      2749      2751      2753      2752      2754
      2756      2755      2757      2759      2758      2760      2762      2761      2763
      2765      2764      2766      2768      2767      2769      2771      2770      2772
      2774      2773      2775      2777      2776      2778      2780      2779      2781
      2783      2782      2784      2786      2785      2787      2789      2788      2790
      2792      2791      2793      2795      2794      2796      2798      2797      2799
      2801      2800      2802      2804      2803      2805      2807      2806      2808
      2810      2809      2811      2813      2812      2814      2816      2815      2817
      2819      2818      2820      2822      2821      2823      2825      2824      2826
      2828      2827      2829      2831      2830      2832      2834      2833      2835
      2837      2836      2838      2840      2839      2841      2843      2842      2844
      2846      2845      2847      2849      2848      2850      2852      2851      2853
      2855      2854      2856      2858      2857      2859      2861      2860      2862
      2864      2863      2865      2867      2866      2868      2870      2869      2871
      2873      2872      2874      2876      2875      2877      2879      2878      2880
      2882      2881      2883      2885      2884      2886      2888      2887      2889
      2891      2890      2892      2894      2893      2895      2897      2896      2898
      2900      2899      2901      2903      2902      2904      2906      2905      2907
      2909      2908      2910      2912      2911      2913      2915      2914      2916
      2918      2917      2919      2921      2920      2922      2924      2923      2925
      2927      2926      2928      2930      2929      2931      2933      2932      2934
      2936      2935      2937      2939      2938      2940      2942      2941      2943
      2945      2944      2946      2948      2947      2949      2951      2950      2952
      2954      2953      2955      2957      2956      2958      2960      2959      2961
      2963      2962      2964      2966      2965      2967      2969      2968      2970
      2972      2971      2973      2975      2974      2976      2978      2977      2979
      2981      2980      2982      2984      2983      2985      2987      2986      2988
      2990      2989      2991      2993      2992      2994      2996      2995      2997
      2999      2998      3000      3002      3001      3003      3005      3004      3006
      3008      3007      3009      3011      3010      3012      3014      3013      3015
      3017      3016      3018      3020      3019      3021      3023      3022      3024
      3026      3025      3027      3029      3028      3030      3032      3031      3033
      3035      3034      3036      3038      3037      3039      3041      3040      3042
      3044      3043      3045      3047      3046      3048      3050      3049      3051
      3053      3052      3054      3056      3055      3057      3059      3058      3060
      3062      3061      3063      3065      3064      3066      3068      3067      3069
      3071      3070      3072      3074      3073      3075      3077      3076      3078
      3080      3079      3081      3083      3082      3084      3086      3085      3087
      3089      3088      3090      3092      3091      3093      3095      3094      3096
      3098      3097      3099      3101      3100      3102      3104      3103      3105
      3107      3106      3108      3110      3109      3111      3113      3112      3114
      3116      3115      3117      3119      3118      3120      3122      3121      3123
      3125      3124      3126      3128      3127      3129      3131      3130      3132
      3134      3133      3135      3137      3136      3138      3140      3139      3141
      3143      3142      3144      3146      3145      3147      3149      3148      3150
      3152      3151      3153      3155      3154      3156      3158      3157      3159
      3161      3160      3162      3164      3163      3165      3167      3166      3168
      3170      3169      3171      3173      3172      3174      3176      3175      3177
      3179      3178      3180      3182      3181      3183      3185      3184      3186
      3188      3187      3189      3191      3190      3192      3194      3193      3195
      3197      3196      3198      3200      3199      3201      3203      3202      3204
      3206      3205      3207      3209      3208      3210      3212      3211      3213
      3215      3214      3216      3218      3217      3219      3221      3220      3222
      3224      3223      3225      3227      3226      3228      3230      3229      3231
      3233      3232      3234      3236      3235      3237      3239      3238      3240
      3242      3241      3243      3245      3244      3246      3248      3247      3249
      3251      3250      3252      3254      3253      3255      3257      3256      3258
      3260      3259      3261      3263      3262      3264      3266      3265      3267
      3269      3268      3270      3272      3271      3273      3275      3274      3276
      3278      3277      3279      3281      3280      3282      3284      3283      3285
      3287      3286      3288      3290      3289      3291      3293      3292      3294
      3296      3295      3297      3299      3298      3300      3302      3301      3303
      3305      3304      3306      3308      3307      3309      3311      3310      3312
      3314      3313      3315      3317      3316      3318      3320      3319      3321
      3323      3322      3324      3326      3325      3327      3329      3328      3330
      3332      3331      3333      3335      3334      3336      3338      3337      3339
      3341      3340      3342      3344      3343      3345      3347      3346      3348
      3350      3349      3351      3353      3352      3354      3356      3355      3357
      3359      3358      3360      3362      3361      3363      3365      3364      3366
      3368      3367      3369      3371      3370      3372      3374      3373      3375
      3377      3376      3378      3380      3379      3381      3383      3382      3384
      3386      3385      3387      3389      3388      3390      3392      3391      3393
      3395      3394      3396      3398      3397      3399      3401      3400      3402
      3404      3403      3405      3407      3406      3408      3410      3409      3411
      3413      3412      3414      3416      3415      3417      3419      3418      3420
      3422      3421      3423      3425      3424      3426      3428      3427      3429
      3431      3430      3432      3434      3433      3435      3437      3436      3438
      3440      3439      3441      3443      3442      3444      3446      3445      3447
      3449      3448      3450      3452      3451      3453      3455      3454      3456
      3458      3457      3459      3461      3460      3462      3464      3463      3465
      3467      3466      3468      3470      3469      3471      3473      3472      3474
      3476      3475      3477      3479      3478      3480      3482      3481      3483
      3485      3484      3486      3488      3487      3489      3491      3490      3492
      3494      3493      3495      3497      3496      3498      3500      3499      3501
      3503      3502      3504      3506      3505      3507      3509      3508      3510
      3512      3511      3513      3515      3514      3516      3518      3517      3519
      3521      3520      3522      3524      3523      3525      3527      3526      3528
      3530      3529      3531      3533      3532      3534      3536      3535      3537
      3539      3538      3540      3542      3541      3543      3545      3544      3546
      3548      3547      3549      3551      3550      3552      3554      3553      3555
      3557      3556      3558      3560      3559      3561      3563      3562      3564
      3566      3565      3567      3569      3568      3570      3572      3571      3573
      3575      3574      3576      3578      3577      3579      3581      3580      3582
      3584      3583      3585      3587      3586      3588      3590      3589      3591
      3593      3592      3594      3596      3595      3597      3599      3598      3600
      3602      3601      3603      3605      3604      3606      3608      3607      3609
      3611      3610      3612      3614      3613      3615      3617      3616      3618
      3620      3619      3621      3623      3622      3624      3626      3625      3627
      3629      3628      3630      3632      3631      3633      3635      3634      3636
      3638      3637      3639      3641      3640      3642      3644      3643      3645
      3647      3646      3648      3650      3649      3651      3653      3652      3654
      3656      3655      3657      3659      3658      3660      3662      3661      3663
      3665      3664      3666      3668      3667      3669      3671      3670      3672
      3674      3673      3675      3677      3676      3678      3680      3679      3681
      3683      3682      3684      3686      3685      3687      3689      3688      3690
      3692      3691      3693      3695      3694      3696      3698      3697      3699
      3701      3700      3702      3704      3703      3705      3707      3706      3708
      3710      3709      3711      3713      3712      3714      3716      3715      3717
      3719      3718      3720      3722      3721      3723      3725      3724      3726
      3728      3727      3729      3731      3730      3732      3734      3733      3735
      3737      3736      3738      3740      3739      3741      3743      3742      3744
      3746      3745      3747      3749      3748      3750      3752      3751      3753
      3755      3754      3756      3758      3757      3759      3761      3760      3762
      3764      3763      3765      3767      3766      3768      3770      3769      3771
      3773      3772      3774      3776      3775      3777      3779      3778      3780
      3782      3781      3783      3785      3784      3786      3788      3787      3789
      3791      3790      3792      3794      3793      3795      3797      3796      3798
      3800      3799      3801      3803      3802      3804      3806      3805      3807
      3809      3808      3810      3812      3811      3813      3815      3814      3816
      3818      3817      3819      3821      3820      3822      3824      3823      3825
      3827      3826      3828      3830      3829      3831      3833      3832      3834
      3836      3835      3837      3839      3838      3840      3842      3841      3843
      3845      3844      3846      3848      3847      3849      3851      3850      3852
      3854      3853      3855      3857      3856      3858      3860      3859      3861
      3863      3862      3864      3866      3865      3867      3869      3868      3870
      3872      3871      3873      3875      3874      3876      3878      3877      3879
      3881      3880      3882      3884      3883      3885      3887      3886      3888
      3890      3889      3891      3893      3892      3894      3896      3895      3897
      3899      3898      3900      3902      3901      3903      3905      3904      3906
      3908      3907      3909      3911      3910      3912      3914      3913      3915
      3917      3916      3918      3920      3919      3921      3923      3922      3924
      3926      3925      3927      3929      3928      3930      3932      3931      3933
      3935      3934      3936      3938      3937      3939      3941      3940      3942
      3944      3943      3945      3947      3946      3948      3950      3949      3951
      3953      3952      3954      3956      3955      3957      3959      3958      3960
      3962      3961      3963      3965      3964      3966      3968      3967      3969
      3971      3970      3972      3974      3973      3975      3977      3976      3978
      3980      3979      3981      3983      3982      3984      3986      3985      3987
      3989      3988      3990      3992      3991      3993      3995      3994      3996
      3998      3997      3999      4001      4000      4002      4004      4003      4005
      4007      4006      4008      4010      4009      4011      4013      4012      4014
      4016      4015      4017      4019      4018      4020      4022      4021      4023
      4025      4024      4026      4028      4027      4029      4031      4030      4032
      4034      4033      4035      4037      4036      4038      4040      4039      4041
      4043      4042      4044      4046      4045      4047      4049      4048      4050
      4052      4051      4053      4055      4054      4056      4058      4057      4059
      4061      4060      4062      4064      4063      4065      4067      4066      4068
      4070      4069      4071      4073      4072      4074      4076      4075      4077
      4079      4078      4080      4082      4081      4083      4085      4084      4086
      4088      4087      4089      4091      4090      4092      4094      4093      4095
      4097      4096      4098      4100      4099      4101      4103      4102      4104
      4106      4105      4107      4109      4108      4110      4112      4111      4113
      4115      4114      4116      4118      4117      4119      4121      4120      4122
      4124      4123      4125      4127      4126      4128      4130      4129      4131
      4133      4132      4134      4136      4135      4137      4139      4138      4140
      4142      4141      4143      4145      4144      4146      4148      4147      4149
      4151      4150      4152      4154      4153      4155      4157      4156      4158
      4160      4159      4161      4163      4162      4164      4166      4165      4167
      4169      4168      4170      4172      4171      4173      4175      4174      4176
      4178      4177      4179      4181      4180      4182      4184      4183      4185
      4187      4186      4188      4190      4189      4191      4193      4192      4194
      4196      4195      4197      4199      4198      4200      4202      4201      4203
      4205      4204      4206      4208      4207      4209      4211      4210      4212
      4214      4213      4215      4217      4216      4218      4220      4219      4221
      4223      4222      4224      4226      4225      4227      4229      4228      4230
      4232      4231      4233      4235      4234      4236      4238      4237      4239
      4241      4240      4242      4244      4243      4245      4247      4246      4248
      4250      4249      4251      4253      4252      4254      4256      4255      4257
      4259      4258      4260      4262      4261      4263      4265      4264      4266
      4268      4267      4269      4271      4270      4272      4274      4273      4275
      4277      4276      4278      4280      4279      4281      4283      4282      4284
      4286      4285      4287      4289      4288      4290      4292      4291      4293
      4295      4294      4296      4298      4297      4299      4301      4300      4302
      4304      4303      4305      4307      4306      4308      4310      4309      4311
      4313      4312      4314      4316      4315      4317      4319      4318      4320
      4322      4321      4323      4325      4324      4326      4328      4327      4329
      4331      4330      4332      4334      4333      4335      4337      4336      4338
      4340      4339      4341      4343      4342      4344      4346      4345      4347
      4349      4348      4350      4352      4351      4353      4355      4354      4356
      4358      4357      4359      4361      4360      4362      4364      4363      4365
      4367      4366      4368      4370      4369      4371      4373      4372      4374
      4376      4375      4377      4379      4378      4380      4382      4381      4383
      4385      4384      4386      4388      4387      4389      4391      4390      4392
      4394      4393      4395      4397      4396      4398      4400      4399      4401
      4403      4402      4404      4406      4405      4407      4409      4408      4410
      4412      4411      4413      4415      4414      4416      4418      4417      4419
      4421      4420      4422      4424      4423      4425      4427      4426      4428
      4430      4429      4431      4433      4432      4434      4436      4435      4437
      4439      4438      4440      4442      4441      4443      4445      4444      4446
      4448      4447      4449      4451      4450      4452      4454      4453      4455
      4457      4456      4458      4460      4459      4461      4463      4462      4464
      4466      4465      4467      4469      4468      4470      4472      4471      4473
      4475      4474      4476      4478      4477      4479      4481      4480      4482
      4484      4483      4485      4487      4486      4488      4490      4489      4491
      4493      4492      4494      4496      4495      4497      4499      4498      4500
      4502      4501      4503      4505      4504      4506      4508      4507      4509
      4511      4510      4512      4514      4513      4515      4517      4516      4518
      4520      4519      4521      4523      4522      4524      4526      4525      4527
      4529      4528      4530      4532      4531      4533      4535      4534      4536
      4538      4537      4539      4541      4540      4542      4544      4543      4545
      4547      4546      4548      4550      4549      4551      4553      4552      4554
      4556      4555      4557      4559      4558      4560      4562      4561      4563
      4565      4564      4566      4568      4567      4569      4571      4570      4572
      4574      4573      4575      4577      4576      4578      4580      4579      4581
      4583      4582      4584      4586      4585      4587      4589      4588      4590
      4592      4591      4593      4595      4594      4596      4598      4597      4599
      4601      4600      4602      4604      4603      4605      4607      4606      4608
      4610      4609      4611      4613      4612      4614      4616      4615      4617
      4619      4618      4620      4622      4621      4623      4625      4624      4626
      4628      4627      4629      4631      4630      4632      4634      4633      4635
      4637      4636      4638      4640      4639      4641      4643      4642      4644
      4646      4645      4647      4649      4648      4650      4652      4651      4653
      4655      4654      4656      4658      4657      4659      4661      4660      4662
      4664      4663      4665      4667      4666      4668      4670      4669      4671
      4673      4672      4674      4676      4675      4677      4679      4678      4680
      4682      4681      4683      4685      4684      4686      4688      4687      4689
      4691      4690      4692      4694      4693      4695      4697      4696      4698
      4700      4699      4701      4703      4702      4704      4706      4705      4707
      4709      4708      4710      4712      4711      4713      4715      4714      4716
      4718      4717      4719      4721      4720      4722      4724      4723      4725
      4727      4726      4728      4730      4729      4731      4733      4732      4734
      4736      4735      4737      4739      4738      4740      4742      4741      4743
      4745      4744      4746      4748      4747      4749      4751      4750      4752
      4754      4753      4755      4757      4756      4758      4760      4759      4761
      4763      4762      4764      4766      4765      4767      4769      4768      4770
      4772      4771      4773      4775      4774      4776      4778      4777      4779
      4781      4780      4782      4784      4783      4785      4787      4786      4788
      4790      4789      4791      4793      4792      4794      4796      4795      4797
      4799      4798      4800      4802      4801      4803      4805      4804      4806
      4808      4807      4809      4811      4810      4812      4814      4813      4815
      4817      4816      4818      4820      4819      4821      4823      4822      4824
      4826      4825      4827      4829      4828      4830      4832      4831      4833
      4835      4834      4836      4838      4837      4839      4841      4840      4842
      4844      4843      4845      4847      4846      4848      4850      4849      4851
      4853      4852      4854      4856      4855      4857      4859      4858      4860
      4862      4861      4863      4865      4864      4866      4868      4867      4869
      4871      4870      4872      4874      4873      4875      4877      4876      4878
      4880      4879      4881      4883      4882      4884      4886      4885      4887
      4889      4888      4890      4892      4891      4893      4895      4894      4896
      4898      4897      4899      4901      4900      4902      4904      4903      4905
      4907      4906      4908      4910      4909      4911      4913      4912      4914
      4916      4915      4917      4919      4918      4920      4922      4921      4923
      4925      4924      4926      4928      4927      4929      4931      4930      4932
      4934      4933      4935      4937      4936      4938      4940      4939      4941
      4943      4942      4944      4946      4945      4947      4949      4948      4950
      4952      4951      4953      4955      4954      4956      4958      4957      4959
      4961      4960      4962      4964      4963      4965      4967      4966      4968
      4970      4969      4971      4973      4972      4974      4976      4975      4977
      4979      4978      4980      4982      4981      4983      4985      4984      4986
      4988      4987      4989      4991      4990      4992      4994      4993      4995
      4997      4996      4998      5000      4999      5001      5003      5002      5004
      5006      5005      5007      5009      5008      5010      5012      5011      5013
      5015      5014      5016      5018      5017      5019      5021      5020      5022
      5024      5023      5025      5027      5026      5028      5030      5029      5031
      5033      5032      5034      5036      5035      5037      5039      5038      5040
      5042      5041      5043      5045      5044      5046      5048      5047      5049
      5051      5050      5052      5054      5053      5055      5057      5056      5058
      5060      5059      5061      5063      5062      5064      5066      5065      5067
      5069      5068      5070      5072      5071      5073      5075      5074      5076
      5078      5077      5079      5081      5080      5082      5084      5083      5085
      5087      5086      5088      5090      5089      5091      5093      5092      5094
      5096      5095      5097      5099      5098      5100      5102      5101      5103
      5105      5104      5106      5108      5107      5109      5111      5110      5112
      5114      5113      5115      5117      5116      5118      5120      5119      5121
      5123      5122      5124      5126      5125      5127      5129      5128      5130
      5132      5131      5133      5135      5134      5136      5138      5137      5139
      5141      5140      5142      5144      5143      5145      5147      5146      5148
      5150      5149      5151      5153      5152      5154      5156      5155      5157
      5159      5158      5160      5162      5161      5163      5165      5164      5166
      5168      5167      5169      5171      5170      5172      5174      5173      5175
      5177      5176      5178      5180      5179      5181      5183      5182      5184
      5186      5185      5187      5189      5188      5190      5192      5191      5193
      5195      5194      5196      5198      5197      5199      5201      5200      5202
      5204      5203      5205      5207      5206      5208      5210      5209      5211
      5213      5212      5214      5216      5215      5217      5219      5218      5220
      5222      5221      5223      5225      5224      5226      5228      5227      5229
      5231      5230      5232      5234      5233      5235      5237      5236      5238
      5240      5239      5241      5243      5242      5244      5246      5245      5247
      5249      5248      5250      5252      5251      5253      5255      5254      5256
      5258      5257      5259      5261      5260      5262      5264      5263      5265
      5267      5266      5268      5270      5269      5271      5273      5272      5274
      5276      5275      5277      5279      5278      5280      5282      5281      5283
      5285      5284      5286      5288      5287      5289      5291      5290      5292
      5294      5293      5295      5297      5296      5298      5300      5299      5301
      5303      5302      5304      5306      5305      5307      5309      5308      5310
      5312      5311      5313      5315      5314      5316      5318      5317      5319
      5321      5320      5322      5324      5323      5325      5327      5326      5328
      5330      5329      5331      5333      5332      5334      5336      5335      5337
      5339      5338      5340      5342      5341      5343      5345      5344      5346
      5348      5347      5349      5351      5350      5352      5354      5353      5355
      5357      5356      5358      5360      5359      5361      5363      5362      5364
      5366      5365      5367      5369      5368      5370      5372      5371      5373
      5375      5374      5376      5378      5377      5379      5381      5380      5382
      5384      5383      5385      5387      5386      5388      5390      5389      5391
      5393      5392      5394      5396      5395      5397      5399      5398      5400
      5402      5401      5403      5405      5404      5406      5408      5407      5409
      5411      5410      5412      5414      5413      5415      5417      5416      5418
      5420      5419      5421      5423      5422      5424      5426      5425      5427
      5429      5428      5430      5432      5431      5433      5435      5434      5436
      5438      5437      5439      5441      5440      5442      5444      5443      5445
      5447      5446      5448      5450      5449      5451      5453      5452      5454
      5456      5455      5457      5459      5458      5460      5462      5461      5463
      5465      5464      5466      5468      5467      5469      5471      5470      5472
      5474      5473      5475      5477      5476      5478      5480      5479      5481
      5483      5482      5484      5486      5485      5487      5489      5488      5490
      5492      5491      5493      5495      5494      5496      5498      5497      5499
      5501      5500      5502      5504      5503      5505      5507      5506      5508
      5510      5509      5511      5513      5512      5514      5516      5515      5517
      5519      5518      5520      5522      5521      5523      5525      5524      5526
      5528      5527      5529      5531      5530      5532      5534      5533      5535
      5537      5536      5538      5540      5539      5541      5543      5542      5544
      5546      5545      5547      5549      5548      5550      5552      5551      5553
      5555      5554      5556      5558      5557      5559      5561      5560      5562
      5564      5563      5565      5567      5566      5568      5570      5569      5571
      5573      5572      5574      5576      5575      5577      5579      5578      5580
      5582      5581      5583      5585      5584      5586      5588      5587      5589
      5591      5590      5592      5594      5593      5595      5597      5596      5598
      5600      5599      5601      5603      5602      5604      5606      5605      5607
      5609      5608      5610      5612      5611      5613      5615      5614      5616
      5618      5617      5619      5621      5620      5622      5624      5623      5625
      5627      5626      5628      5630      5629      5631      5633      5632      5634
      5636      5635      5637      5639      5638      5640      5642      5641      5643
      5645      5644      5646      5648      5647      5649      5651      5650      5652
      5654      5653      5655      5657      5656      5658      5660      5659      5661
      5663      5662      5664      5666      5665      5667      5669      5668      5670
      5672      5671      5673      5675      5674      5676      5678      5677      5679
      5681      5680      5682      5684      5683      5685      5687      5686      5688
      5690      5689      5691      5693      5692      5694      5696      5695      5697
      5699      5698      5700      5702      5701      5703      5705      5704      5706
      5708      5707      5709      5711      5710      5712      5714      5713      5715
      5717      5716      5718      5720      5719      5721      5723      5722      5724
      5726      5725      5727      5729      5728      5730      5732      5731      5733
      5735      5734      5736      5738      5737      5739      5741      5740      5742
      5744      5743      5745      5747      5746      5748      5750      5749      5751
      5753      5752      5754      5756      5755      5757      5759      5758      5760
      5762      5761      5763      5765      5764      5766      5768      5767      5769
      5771      5770      5772      5774      5773      5775      5777      5776      5778
      5780      5779      5781      5783      5782      5784      5786      5785      5787
      5789      5788      5790      5792      5791      5793      5795      5794      5796
      5798      5797      5799      5801      5800      5802      5804      5803      5805
      5807      5806      5808      5810      5809      5811      5813      5812      5814
      5816      5815      5817      5819      5818      5820      5822      5821      5823
      5825      5824      5826      5828      5827      5829      5831      5830      5832
      5834      5833      5835      5837      5836      5838      5840      5839      5841
      5843      5842      5844      5846      5845      5847      5849      5848      5850
      5852      5851      5853      5855      5854      5856      5858      5857      5859
      5861      5860      5862      5864      5863      5865      5867      5866      5868
      5870      5869      5871      5873      5872      5874      5876      5875      5877
      5879      5878      5880      5882      5881      5883      5885      5884      5886
      5888      5887      5889      5891      5890      5892      5894      5893      5895
      5897      5896      5898      5900      5899      5901      5903      5902      5904
      5906      5905      5907      5909      5908      5910      5912      5911      5913
      5915      5914      5916      5918      5917      5919      5921      5920      5922
      5924      5923      5925      5927      5926      5928      5930      5929      5931
      5933      5932      5934      5936      5935      5937      5939      5938      5940
      5942      5941      5943      5945      5944      5946      5948      5947      5949
      5951      5950      5952      5954      5953      5955      5957      5956      5958
      5960      5959      5961      5963      5962      5964      5966      5965      5967
      5969      5968      5970      5972      5971      5973      5975      5974      5976
      5978      5977      5979      5981      5980      5982      5984      5983      5985
      5987      5986      5988      5990      5989      5991      5993      5992      5994
      5996      5995      5997      5999      5998      6000      6002      6001      6003
      6005      6004      6006      6008      6007      6009      6011      6010      6012
      6014      6013      6015      6017      6016      6018      6020      6019      6021
      6023      6022      6024      6026      6025      6027      6029      6028      6030
      6032      6031      6033      6035      6034      6036      6038      6037      6039
      6041      6040      6042      6044      6043      6045      6047      6046      6048
      6050      6049      6051      6053      6052      6054      6056      6055      6057
      6059      6058      6060      6062      6061      6063      6065      6064      6066
      6068      6067      6069      6071      6070      6072      6074      6073      6075
      6077      6076      6078      6080      6079      6081      6083      6082      6084
      6086      6085      6087      6089      6088      6090      6092      6091      6093
      6095      6094      6096      6098      6097      6099      6101      6100      6102
      6104      6103      6105      6107      6106      6108      6110      6109      6111
      6113      6112      6114      6116      6115      6117      6119      6118      6120
      6122      6121      6123      6125      6124      6126      6128      6127      6129
      6131      6130      6132      6134      6133      6135      6137      6136      6138
      6140      6139      6141      6143      6142      6144      6146      6145      6147
      6149      6148      6150      6152      6151      6153      6155      6154      6156
      6158      6157      6159      6161      6160      6162      6164      6163      6165
      6167      6166      6168      6170      6169      6171      6173      6172      6174
      6176      6175      6177      6179      6178      6180      6182      6181      6183
      6185      6184      6186      6188      6187      6189      6191      6190      6192
      6194      6193      6195      6197      6196      6198      6200      6199      6201
      6203      6202      6204      6206      6205      6207      6209      6208      6210
      6212      6211      6213      6215      6214      6216      6218      6217      6219
      6221      6220      6222      6224      6223      6225      6227      6226      6228
      6230      6229      6231      6233      6232      6234      6236      6235      6237
      6239      6238      6240      6242      6241      6243      6245      6244      6246
      6248      6247      6249      6251      6250      6252      6254      6253      6255
      6257      6256      6258      6260      6259      6261      6263      6262      6264
      6266      6265      6267      6269      6268      6270      6272      6271      6273
      6275      6274      6276      6278      6277      6279      6281      6280      6282
      6284      6283      6285      6287      6286      6288      6290      6289      6291
      6293      6292      6294      6296      6295      6297      6299      6298      6300
      6302      6301      6303      6305      6304      6306      6308      6307      6309
      6311      6310      6312      6314      6313      6315      6317      6316      6318
      6320      6319      6321      6323      6322      6324      6326      6325      6327
      6329      6328      6330      6332      6331      6333      6335      6334      6336
      6338      6337      6339      6341      6340      6342      6344      6343      6345
      6347      6346      6348      6350      6349      6351      6353      6352      6354
      6356      6355      6357      6359      6358      6360      6362      6361      6363
      6365      6364      6366      6368      6367      6369      6371      6370      6372
      6374      6373      6375      6377      6376      6378      6380      6379      6381
      6383      6382      6384      6386      6385      6387      6389      6388      6390
      6392      6391      6393      6395      6394      6396      6398      6397      6399
      6401      6400      6402      6404      6403      6405      6407      6406      6408
      6410      6409      6411      6413      6412      6414      6416      6415      6417
      6419      6418      6420      6422      6421      6423      6425      6424      6426
      6428      6427      6429      6431      6430      6432      6434      6433      6435
      6437      6436      6438      6440      6439      6441      6443      6442      6444
      6446      6445      6447      6449      6448      6450      6452      6451      6453
      6455      6454      6456      6458      6457      6459      6461      6460      6462
      6464      6463      6465      6467      6466      6468      6470      6469      6471
      6473      6472      6474      6476      6475      6477      6479      6478      6480
      6482      6481      6483      6485      6484      6486      6488      6487      6489
      6491      6490      6492      6494      6493      6495      6497      6496      6498
      6500      6499      6501      6503      6502      6504      6506      6505      6507
      6509      6508      6510      6512      6511      6513      6515      6514      6516
      6518      6517      6519      6521      6520      6522      6524      6523      6525
      6527      6526      6528      6530      6529      6531      6533      6532      6534
      6536      6535      6537      6539      6538      6540      6542      6541      6543
      6545      6544      6546      6548      6547      6549      6551      6550      6552
      6554      6553      6555      6557      6556      6558      6560      6559      6561
      6563      6562      6564      6566      6565      6567      6569      6568      6570
      6572      6571      6573      6575      6574      6576      6578      6577      6579
      6581      6580      6582      6584      6583      6585      6587      6586      6588
      6590      6589      6591      6593      6592      6594      6596      6595      6597
      6599      6598      6600      6602      6601      6603      6605      6604      6606
      6608      6607      6609      6611      6610      6612      6614      6613      6615
      6617      6616      6618      6620      6619      6621      6623      6622      6624
      6626      6625      6627      6629      6628      6630      6632      6631      6633
      6635      6634      6636      6638      6637      6639      6641      6640      6642
      6644      6643      6645      6647      6646      6648      6650      6649      6651
      6653      6652      6654      6656      6655      6657      6659      6658      6660
      6662      6661      6663      6665      6664      6666      6668      6667      6669
      6671      6670      6672      6674      6673      6675      6677      6676      6678
      6680      6679      6681      6683      6682      6684      6686      6685      6687
      6689      6688      6690      6692      6691      6693      6695      6694      6696
      6698      6697      6699      6701      6700      6702      6704      6703      6705
      6707      6706      6708      6710      6709      6711      6713      6712      6714
      6716      6715      6717      6719      6718      6720      6722      6721      6723
      6725      6724      6726      6728      6727      6729      6731      6730      6732
      6734      6733      6735      6737      6736      6738      6740      6739      6741
      6743      6742      6744      6746      6745      6747      6749      6748      6750
      6752      6751      6753      6755      6754      6756      6758      6757      6759
      6761      6760      6762      6764      6763      6765      6767      6766      6768
      6770      6769      6771      6773      6772      6774      6776      6775      6777
      6779      6778      6780      6782      6781      6783      6785      6784      6786
      6788      6787      6789      6791      6790      6792      6794      6793      6795
      6797      6796      6798      6800      6799      6801      6803      6802      6804
      6806      6805      6807      6809      6808      6810      6812      6811      6813
      6815      6814      6816      6818      6817      6819      6821      6820      6822
      6824      6823      6825      6827      6826      6828      6830      6829      6831
      6833      6832      6834      6836      6835      6837      6839      6838      6840
      6842      6841      6843      6845      6844      6846      6848      6847      6849
      6851      6850      6852      6854      6853      6855      6857      6856      6858
      6860      6859      6861      6863      6862      6864      6866      6865      6867
      6869      6868      6870      6872      6871      6873      6875      6874      6876
      6878      6877      6879      6881      6880      6882      6884      6883      6885
      6887      6886      6888      6890      6889      6891      6893      6892      6894
      6896      6895      6897      6899      6898      6900      6902      6901      6903
      6905      6904      6906      6908      6907      6909      6911      6910      6912
      6914      6913      6915      6917      6916      6918      6920      6919      6921
      6923      6922      6924      6926      6925      6927      6929      6928      6930
      6932      6931      6933      6935      6934      6936      6938      6937      6939
      6941      6940      6942      6944      6943      6945      6947      6946      6948
      6950      6949      6951      6953      6952      6954      6956      6955      6957
      6959      6958      6960      6962      6961      6963      6965      6964      6966
      6968      6967      6969      6971      6970      6972      6974      6973      6975
      6977      6976      6978      6980      6979      6981      6983      6982      6984
      6986      6985      6987      6989      6988      6990      6992      6991      6993
      6995      6994      6996      6998      6997      6999      7001      7000      7002
      7004      7003      7005      7007      7006      7008      7010      7009      7011
      7013      7012      7014      7016      7015      7017      7019      7018      7020
      7022      7021      7023      7025      7024      7026      7028      7027      7029
      7031      7030      7032      7034      7033      7035      7037      7036      7038
      7040      7039      7041      7043      7042      7044      7046      7045      7047
      7049      7048      7050      7052      7051      7053      7055      7054      7056
      7058      7057      7059      7061      7060      7062      7064      7063      7065
      7067      7066      7068      7070      7069      7071      7073      7072      7074
      7076      7075      7077      7079      7078      7080      7082      7081      7083
      7085      7084      7086      7088      7087      7089      7091      7090      7092
      7094      7093      7095      7097      7096      7098      7100      7099      7101
      7103      7102      7104      7106      7105      7107      7109      7108      7110
      7112      7111      7113      7115      7114      7116      7118      7117      7119
      7121      7120      7122      7124      7123      7125      7127      7126      7128
      7130      7129      7131      7133      7132      7134      7136      7135      7137
      7139      7138      7140      7142      7141      7143      7145      7144      7146
      7148      7147      7149      7151      7150      7152      7154      7153      7155
      7157      7156      7158      7160      7159      7161      7163      7162      7164
      7166      7165      7167      7169      7168      7170      7172      7171      7173
      7175      7174      7176      7178      7177      7179      7181      7180      7182
      7184      7183      7185      7187      7186      7188      7190      7189      7191
      7193      7192      7194      7196      7195      7197      7199      7198      7200
      7202      7201      7203      7205      7204      7206      7208      7207      7209
      7211      7210      7212      7214      7213      7215      7217      7216      7218
      7220      7219      7221      7223      7222      7224      7226      7225      7227
      7229      7228      7230      7232      7231      7233      7235      7234      7236
      7238      7237      7239      7241      7240      7242      7244      7243      7245
      7247      7246      7248      7250      7249      7251      7253      7252      7254
      7256      7255      7257      7259      7258      7260      7262      7261      7263
      7265      7264      7266      7268      7267      7269      7271      7270      7272
      7274      7273      7275      7277      7276      7278      7280      7279      7281
      7283      7282      7284      7286      7285      7287      7289      7288      7290
      7292      7291      7293      7295      7294      7296      7298      7297      7299
      7301      7300      7302      7304      7303      7305      7307      7306      7308
      7310      7309      7311      7313      7312      7314      7316      7315      7317
      7319      7318      7320      7322      7321      7323      7325      7324      7326
      7328      7327      7329      7331      7330      7332      7334      7333      7335
      7337      7336      7338      7340      7339      7341      7343      7342      7344
      7346      7345      7347      7349      7348      7350      7352      7351      7353
      7355      7354      7356      7358      7357      7359      7361      7360      7362
      7364      7363      7365      7367      7366      7368      7370      7369      7371
      7373      7372      7374      7376      7375      7377      7379      7378      7380
      7382      7381      7383      7385      7384      7386      7388      7387      7389
      7391      7390      7392      7394      7393      7395      7397      7396      7398
      7400      7399      7401      7403      7402      7404      7406      7405      7407
      7409      7408      7410      7412      7411      7413      7415      7414      7416
      7418      7417      7419      7421      7420      7422      7424      7423      7425
      7427      7426      7428      7430      7429      7431      7433      7432      7434
      7436      7435      7437      7439      7438      7440      7442      7441      7443
      7445      7444      7446      7448      7447      7449      7451      7450      7452
      7454      7453      7455      7457      7456      7458      7460      7459      7461
      7463      7462      7464      7466      7465      7467      7469      7468      7470
      7472      7471      7473      7475      7474      7476      7478      7477      7479
      7481      7480      7482      7484      7483      7485      7487      7486      7488
      7490      7489      7491      7493      7492      7494      7496      7495      7497
      7499      7498      7500      7502      7501      7503      7505      7504      7506
      7508      7507      7509      7511      7510      7512      7514      7513      7515
      7517      7516      7518      7520      7519      7521      7523      7522      7524
      7526      7525      7527      7529      7528      7530      7532      7531      7533
      7535      7534      7536      7538      7537      7539      7541      7540      7542
      7544      7543      7545      7547      7546      7548      7550      7549      7551
      7553      7552      7554      7556      7555      7557      7559      7558      7560
      7562      7561      7563      7565      7564      7566      7568      7567      7569
      7571      7570      7572      7574      7573      7575      7577      7576      7578
      7580      7579      7581      7583      7582      7584      7586      7585      7587
      7589      7588      7590      7592      7591      7593      7595      7594      7596
      7598      7597      7599      7601      7600      7602      7604      7603      7605
      7607      7606      7608      7610      7609      7611      7613      7612      7614
      7616      7615      7617      7619      7618      7620      7622      7621      7623
      7625      7624      7626      7628      7627      7629      7631      7630      7632
      7634      7633      7635      7637      7636      7638      7640      7639      7641
      7643      7642      7644      7646      7645      7647      7649      7648      7650
      7652      7651      7653      7655      7654      7656      7658      7657      7659
      7661      7660      7662      7664      7663      7665      7667      7666      7668
      7670      7669      7671      7673      7672      7674      7676      7675      7677
      7679      7678      7680      7682      7681      7683      7685      7684      7686
      7688      7687      7689      7691      7690      7692      7694      7693      7695
      7697      7696      7698      7700      7699      7701      7703      7702      7704
      7706      7705      7707      7709      7708      7710      7712      7711      7713
      7715      7714      7716      7718      7717      7719      7721      7720      7722
      7724      7723      7725      7727      7726      7728      7730      7729      7731
      7733      7732      7734      7736      7735      7737      7739      7738      7740
      7742      7741      7743      7745      7744      7746      7748      7747      7749
      7751      7750      7752      7754      7753      7755      7757      7756      7758
      7760      7759      7761      7763      7762      7764      7766      7765      7767
      7769      7768      7770      7772      7771      7773      7775      7774      7776
      7778      7777      7779      7781      7780      7782      7784      7783      7785
      7787      7786      7788      7790      7789      7791      7793      7792      7794
      7796      7795      7797      7799      7798      7800      7802      7801      7803
      7805      7804      7806      7808      7807      7809      7811      7810      7812
      7814      7813      7815      7817      7816      7818      7820      7819      7821
      7823      7822      7824      7826      7825      7827      7829      7828      7830
      7832      7831      7833      7835      7834      7836      7838      7837      7839
      7841      7840      7842      7844      7843      7845      7847      7846      7848
      7850      7849      7851      7853      7852      7854      7856      7855      7857
      7859      7858      7860      7862      7861      7863      7865      7864      7866
      7868      7867      7869      7871      7870      7872      7874      7873      7875
      7877      7876      7878      7880      7879      7881      7883      7882      7884
      7886      7885      7887      7889      7888      7890      7892      7891      7893
      7895      7894      7896      7898      7897      7899      7901      7900      7902
      7904      7903      7905      7907      7906      7908      7910      7909      7911
      7913      7912      7914      7916      7915      7917      7919      7918      7920
      7922      7921      7923      7925      7924      7926      7928      7927      7929
      7931      7930      7932      7934      7933      7935      7937      7936      7938
      7940      7939      7941      7943      7942      7944      7946      7945      7947
      7949      7948      7950      7952      7951      7953      7955      7954      7956
      7958      7957      7959      7961      7960      7962      7964      7963      7965
      7967      7966      7968      7970      7969      7971      7973      7972      7974
      7976      7975      7977      7979      7978      7980      7982      7981      7983
      7985      7984      7986      7988      7987      7989      7991      7990      7992
      7994      7993      7995      7997      7996      7998      8000      7999      8001
      8003      8002      8004      8006      8005      8007      8009      8008      8010
      8012      8011      8013      8015      8014      8016      8018      8017      8019
      8021      8020      8022      8024      8023      8025      8027      8026      8028
      8030      8029      8031      8033      8032      8034      8036      8035      8037
      8039      8038      8040      8042      8041      8043      8045      8044      8046
      8048      8047      8049      8051      8050      8052      8054      8053      8055
      8057      8056      8058      8060      8059      8061      8063      8062      8064
      8066      8065      8067      8069      8068      8070      8072      8071      8073
      8075      8074      8076      8078      8077      8079      8081      8080      8082
      8084      8083      8085      8087      8086      8088      8090      8089      8091
      8093      8092      8094      8096      8095      8097      8099      8098      8100
      8102      8101      8103      8105      8104      8106      8108      8107      8109
      8111      8110      8112      8114      8113      8115      8117      8116      8118
      8120      8119      8121      8123      8122      8124      8126      8125      8127
      8129      8128      8130      8132      8131      8133      8135      8134      8136
      8138      8137      8139      8141      8140      8142      8144      8143      8145
      8147      8146      8148      8150      8149      8151      8153      8152      8154
      8156      8155      8157      8159      8158      8160      8162      8161      8163
      8165      8164      8166      8168      8167      8169      8171      8170      8172
      8174      8173      8175      8177      8176      8178      8180      8179      8181
      8183      8182      8184      8186      8185      8187      8189      8188      8190
      8192      8191      8193      8195      8194      8196      8198      8197      8199
      8201      8200      8202      8204      8203      8205      8207      8206      8208
      8210      8209      8211      8213      8212      8214      8216      8215      8217
      8219      8218      8220      8222      8221      8223      8225      8224      8226
      8228      8227      8229      8231      8230      8232      8234      8233      8235
      8237      8236      8238      8240      8239      8241      8243      8242      8244
      8246      8245      8247      8249      8248      8250      8252      8251      8253
      8255      8254      8256      8258      8257      8259      8261      8260      8262
      8264      8263      8265      8267      8266      8268      8270      8269      8271
      8273      8272      8274      8276      8275      8277      8279      8278      8280
      8282      8281      8283      8285      8284      8286      8288      8287      8289
      8291      8290      8292      8294      8293      8295      8297      8296      8298
      8300      8299      8301      8303      8302      8304      8306      8305      8307
      8309      8308      8310      8312      8311      8313      8315      8314      8316
      8318      8317      8319      8321      8320      8322      8324      8323      8325
      8327      8326      8328      8330      8329      8331      8333      8332      8334
      8336      8335      8337      8339      8338      8340      8342      8341      8343
      8345      8344      8346      8348      8347      8349      8351      8350      8352
      8354      8353      8355      8357      8356      8358      8360      8359      8361
      8363      8362      8364      8366      8365      8367      8369      8368      8370
      8372      8371      8373      8375      8374      8376      8378      8377      8379
      8381      8380      8382      8384      8383      8385      8387      8386      8388
      8390      8389      8391      8393      8392      8394      8396      8395      8397
      8399      8398      8400      8402      8401      8403      8405      8404      8406
      8408      8407      8409      8411      8410      8412      8414      8413      8415
      8417      8416      8418      8420      8419      8421      8423      8422      8424
      8426      8425      8427      8429      8428      8430      8432      8431      8433
      8435      8434      8436      8438      8437      8439      8441      8440      8442
      8444      8443      8445      8447      8446      8448      8450      8449      8451
      8453      8452      8454      8456      8455      8457      8459      8458      8460
      8462      8461      8463      8465      8464      8466      8468      8467      8469
      8471      8470      8472      8474      8473      8475      8477      8476      8478
      8480      8479      8481      8483      8482      8484      8486      8485      8487
      8489      8488      8490      8492      8491      8493      8495      8494      8496
      8498      8497      8499      8501      8500      8502      8504      8503      8505
      8507      8506      8508      8510      8509      8511      8513      8512      8514
      8516      8515      8517      8519      8518      8520      8522      8521      8523
      8525      8524      8526      8528      8527      8529      8531      8530      8532
      8534      8533      8535      8537      8536      8538      8540      8539      8541
      8543      8542      8544      8546      8545      8547      8549      8548      8550
      8552      8551      8553      8555      8554      8556      8558      8557      8559
      8561      8560      8562      8564      8563      8565      8567      8566      8568
      8570      8569      8571      8573      8572      8574      8576      8575      8577
      8579      8578      8580      8582      8581      8583      8585      8584      8586
      8588      8587      8589      8591      8590      8592      8594      8593      8595
      8597      8596      8598      8600      8599      8601      8603      8602      8604
      8606      8605      8607      8609      8608      8610      8612      8611      8613
      8615      8614      8616      8618      8617      8619      8621      8620      8622
      8624      8623      8625      8627      8626      8628      8630      8629      8631
      8633      8632      8634      8636      8635      8637      8639      8638      8640
      8642      8641      8643      8645      8644      8646      8648      8647      8649
      8651      8650      8652      8654      8653      8655      8657      8656      8658
      8660      8659      8661      8663      8662      8664      8666      8665      8667
      8669      8668      8670      8672      8671      8673      8675      8674      8676
      8678      8677      8679      8681      8680      8682      8684      8683      8685
      8687      8686      8688      8690      8689      8691      8693      8692      8694
      8696      8695      8697      8699      8698      8700      8702      8701      8703
      8705      8704      8706      8708      8707      8709      8711      8710      8712
      8714      8713      8715      8717      8716      8718      8720      8719      8721
      8723      8722      8724      8726      8725      8727      8729      8728      8730
      8732      8731      8733      8735      8734      8736      8738      8737      8739
      8741      8740      8742      8744      8743      8745      8747      8746      8748
      8750      8749      8751      8753      8752      8754      8756      8755      8757
      8759      8758      8760      8762      8761      8763      8765      8764      8766
      8768      8767      8769      8771      8770      8772      8774      8773      8775
      8777      8776      8778      8780      8779      8781      8783      8782      8784
      8786      8785      8787      8789      8788      8790      8792      8791      8793
      8795      8794      8796      8798      8797      8799      8801      8800      8802
      8804      8803      8805      8807      8806      8808      8810      8809      8811
      8813      8812      8814      8816      8815      8817      8819      8818      8820
      8822      8821      8823      8825      8824      8826      8828      8827      8829
      8831      8830      8832      8834      8833      8835      8837      8836      8838
      8840      8839      8841      8843      8842      8844      8846      8845      8847
      8849      8848      8850      8852      8851      8853      8855      8854      8856
      8858      8857      8859      8861      8860      8862      8864      8863      8865
      8867      8866      8868      8870      8869      8871      8873      8872      8874
      8876      8875      8877      8879      8878      8880      8882      8881      8883
      8885      8884      8886      8888      8887      8889      8891      8890      8892
      8894      8893      8895      8897      8896      8898      8900      8899      8901
      8903      8902      8904      8906      8905      8907      8909      8908      8910
      8912      8911      8913      8915      8914      8916      8918      8917      8919
      8921      8920      8922      8924      8923      8925      8927      8926      8928
      8930      8929      8931      8933      8932      8934      8936      8935      8937
      8939      8938      8940      8942      8941      8943      8945      8944      8946
      8948      8947      8949      8951      8950      8952      8954      8953      8955
      8957      8956      8958      8960      8959      8961      8963      8962      8964
      8966      8965      8967      8969      8968      8970      8972      8971      8973
      8975      8974      8976      8978      8977      8979      8981      8980      8982
      8984      8983      8985      8987      8986      8988      8990      8989      8991
      8993      8992      8994      8996      8995      8997      8999      8998      9000
      9002      9001      9003      9005      9004      9006      9008      9007      9009
      9011      9010      9012      9014      9013      9015      9017      9016      9018
      9020      9019      9021      9023      9022      9024      9026      9025      9027
      9029      9028      9030      9032      9031      9033      9035      9034      9036
      9038      9037      9039      9041      9040      9042      9044      9043      9045
      9047      9046      9048      9050      9049      9051      9053      9052      9054
      9056      9055      9057      9059      9058      9060      9062      9061      9063
      9065      9064      9066      9068      9067      9069      9071      9070      9072
      9074      9073      9075      9077      9076      9078      9080      9079      9081
      9083      9082      9084      9086      9085      9087      9089      9088      9090
      9092      9091      9093      9095      9094      9096      9098      9097      9099
      9101      9100      9102      9104      9103      9105      9107      9106      9108
      9110      9109      9111      9113      9112      9114      9116      9115      9117
      9119      9118      9120      9122      9121      9123      9125      9124      9126
      9128      9127      9129      9131      9130      9132      9134      9133      9135
      9137      9136      9138      9140      9139      9141      9143      9142      9144
      9146      9145      9147      9149      9148      9150      9152      9151      9153
      9155      9154      9156      9158      9157      9159      9161      9160      9162
      9164      9163      9165      9167      9166      9168      9170      9169      9171
      9173      9172      9174      9176      9175      9177      9179      9178      9180
      9182      9181      9183      9185      9184      9186      9188      9187      9189
      9191      9190      9192      9194      9193      9195      9197      9196      9198
      9200      9199      9201      9203      9202      9204      9206      9205      9207
      9209      9208      9210      9212      9211      9213      9215      9214      9216
      9218      9217      9219      9221      9220      9222      9224      9223      9225
      9227      9226      9228      9230      9229      9231      9233      9232      9234
      9236      9235      9237      9239      9238      9240      9242      9241      9243
      9245      9244      9246      9248      9247      9249      9251      9250      9252
      9254      9253      9255      9257      9256      9258      9260      9259      9261
      9263      9262      9264      9266      9265      9267      9269      9268      9270
      9272      9271      9273      9275      9274      9276      9278      9277      9279
      9281      9280      9282      9284      9283      9285      9287      9286      9288
      9290      9289      9291      9293      9292      9294      9296      9295      9297
      9299      9298      9300      9302      9301      9303      9305      9304      9306
      9308      9307      9309      9311      9310      9312      9314      9313      9315
      9317      9316      9318      9320      9319      9321      9323      9322      9324
      9326      9325      9327      9329      9328      9330      9332      9331      9333
      9335      9334      9336      9338      9337      9339      9341      9340      9342
      9344      9343      9345      9347      9346      9348      9350      9349      9351
      9353      9352      9354      9356      9355      9357      9359      9358      9360
      9362      9361      9363      9365      9364      9366      9368      9367      9369
      9371      9370      9372      9374      9373      9375      9377      9376      9378
      9380      9379      9381      9383      9382      9384      9386      9385      9387
      9389      9388      9390      9392      9391      9393      9395      9394      9396
      9398      9397      9399      9401      9400      9402      9404      9403      9405
      9407      9406      9408      9410      9409      9411      9413      9412      9414
      9416      9415      9417      9419      9418      9420      9422      9421      9423
      9425      9424      9426      9428      9427      9429      9431      9430      9432
      9434      9433      9435      9437      9436      9438      9440      9439      9441
      9443      9442      9444      9446      9445      9447      9449      9448      9450
      9452      9451      9453      9455      9454      9456      9458      9457      9459
      9461      9460      9462      9464      9463      9465      9467      9466      9468
      9470      9469      9471      9473      9472      9474      9476      9475      9477
      9479      9478      9480      9482      9481      9483      9485      9484      9486
      9488      9487      9489      9491      9490      9492      9494      9493      9495
      9497      9496      9498      9500      9499      9501      9503      9502      9504
      9506      9505      9507      9509      9508      9510      9512      9511      9513
      9515      9514      9516      9518      9517      9519      9521      9520      9522
      9524      9523      9525      9527      9526      9528      9530      9529      9531
      9533      9532      9534      9536      9535      9537      9539      9538      9540
      9542      9541      9543      9545      9544      9546      9548      9547      9549
      9551      9550      9552      9554      9553      9555      9557      9556      9558
      9560      9559      9561      9563      9562      9564      9566      9565      9567
      9569      9568      9570      9572      9571      9573      9575      9574      9576
      9578      9577      9579      9581      9580      9582      9584      9583      9585
      9587      9586      9588      9590      9589      9591      9593      9592      9594
      9596      9595      9597      9599      9598      9600      9602      9601      9603
      9605      9604      9606      9608      9607      9609      9611      9610      9612
      9614      9613      9615      9617      9616      9618      9620      9619      9621
      9623      9622      9624      9626      9625      9627      9629      9628      9630
      9632      9631      9633      9635      9634      9636      9638      9637      9639
      9641      9640      9642      9644      9643      9645      9647      9646      9648
      9650      9649      9651      9653      9652      9654      9656      9655      9657
      9659      9658      9660      9662      9661      9663      9665      9664      9666
      9668      9667      9669      9671      9670      9672      9674      9673      9675
      9677      9676      9678      9680      9679      9681      9683      9682      9684
      9686      9685      9687      9689      9688      9690      9692      9691      9693
      9695      9694      9696      9698      9697      9699      9701      9700      9702
      9704      9703      9705      9707      9706      9708      9710      9709      9711
      9713      9712      9714      9716      9715      9717      9719      9718      9720
      9722      9721      9723      9725      9724      9726      9728      9727      9729
      9731      9730      9732      9734      9733      9735      9737      9736      9738
      9740      9739      9741      9743      9742      9744      9746      9745      9747
      9749      9748      9750      9752      9751      9753      9755      9754      9756
      9758      9757      9759      9761      9760      9762      9764      9763      9765
      9767      9766      9768      9770      9769      9771      9773      9772      9774
      9776      9775      9777      9779      9778      9780      9782      9781      9783
      9785      9784      9786      9788      9787      9789      9791      9790      9792
      9794      9793      9795      9797      9796      9798      9800      9799      9801
      9803      9802      9804      9806      9805      9807      9809      9808      9810
      9812      9811      9813      9815      9814      9816      9818      9817      9819
      9821      9820      9822      9824      9823      9825      9827      9826      9828
      9830      9829      9831      9833      9832      9834      9836      9835      9837
      9839      9838      9840      9842      9841      9843      9845      9844      9846
      9848      9847      9849      9851      9850      9852      9854      9853      9855
      9857      9856      9858      9860      9859      9861      9863      9862      9864
      9866      9865      9867      9869      9868      9870      9872      9871      9873
      9875      9874      9876      9878      9877      9879      9881      9880      9882
      9884      9883      9885      9887      9886      9888      9890      9889      9891
      9893      9892      9894      9896      9895      9897      9899      9898      9900
      9902      9901      9903      9905      9904      9906      9908      9907      9909
      9911      9910      9912      9914      9913      9915      9917      9916      9918
      9920      9919      9921      9923      9922      9924      9926      9925      9927
      9929      9928      9930      9932      9931      9933      9935      9934      9936
      9938      9937      9939      9941      9940      9942      9944      9943      9945
      9947      9946      9948      9950      9949      9951      9953      9952      9954
      9956      9955      9957      9959      9958      9960      9962      9961      9963
      9965      9964      9966      9968      9967      9969      9971      9970      9972
      9974      9973      9975      9977      9976      9978      9980      9979      9981
      9983      9982      9984      9986      9985      9987      9989      9988      9990
      9992      9991      9993      9995      9994      9996      9998      9997      9999
     10001     10000     10002     10004     10003     10005     10007     10006     10008
     10010     10009     10011     10013     10012     10014     10016     10015     10017
     10019     10018     10020     10022     10021     10023     10025     10024     10026
     10028     10027     10029     10031     10030     10032     10034     10033     10035
     10037     10036     10038     10040     10039     10041     10043     10042     10044
     10046     10045     10047     10049     10048     10050     10052     10051     10053
     10055     10054     10056     10058     10057     10059     10061     10060     10062
     10064     10063     10065     10067     10066     10068     10070     10069     10071
     10073     10072     10074     10076     10075     10077     10079     10078     10080
     10082     10081     10083     10085     10084     10086     10088     10087     10089
     10091     10090     10092     10094     10093     10095     10097     10096     10098
     10100     10099     10101     10103     10102     10104     10106     10105     10107
     10109     10108     10110     10112     10111     10113     10115     10114     10116
     10118     10117     10119     10121     10120     10122     10124     10123     10125
     10127     10126     10128     10130     10129     10131     10133     10132     10134
     10136     10135     10137     10139     10138     10140     10142     10141     10143
     10145     10144     10146     10148     10147     10149     10151     10150     10152
     10154     10153     10155     10157     10156     10158     10160     10159     10161
     10163     10162     10164     10166     10165     10167     10169     10168     10170
     10172     10171     10173     10175     10174     10176     10178     10177     10179
     10181     10180     10182     10184     10183     10185     10187     10186     10188
     10190     10189     10191     10193     10192     10194     10196     10195     10197
     10199     10198     10200     10202     10201     10203     10205     10204     10206
     10208     10207     10209     10211     10210     10212     10214     10213     10215
     10217     10216     10218     10220     10219     10221     10223     10222     10224
     10226     10225     10227     10229     10228     10230     10232     10231     10233
     10235     10234     10236     10238     10237     10239     10241     10240     10242
     10244     10243     10245     10247     10246     10248     10250     10249     10251
     10253     10252     10254     10256     10255     10257     10259     10258     10260
     10262     10261     10263     10265     10264     10266     10268     10267     10269
     10271     10270     10272     10274     10273     10275     10277     10276     10278
     10280     10279     10281     10283     10282     10284     10286     10285     10287
     10289     10288     10290     10292     10291     10293     10295     10294     10296
     10298     10297     10299     10301     10300     10302     10304     10303     10305
     10307     10306     10308     10310     10309     10311     10313     10312     10314
     10316     10315     10317     10319     10318     10320     10322     10321     10323
     10325     10324     10326     10328     10327     10329     10331     10330     10332
     10334     10333     10335     10337     10336     10338     10340     10339     10341
     10343     10342     10344     10346     10345     10347     10349     10348     10350
     10352     10351     10353     10355     10354     10356     10358     10357     10359
     10361     10360     10362     10364     10363     10365     10367     10366     10368
     10370     10369     10371     10373     10372     10374     10376     10375     10377
     10379     10378     10380     10382     10381     10383     10385     10384     10386
     10388     10387     10389     10391     10390     10392     10394     10393     10395
     10397     10396     10398     10400     10399     10401     10403     10402     10404
     10406     10405     10407     10409     10408     10410     10412     10411     10413
     10415     10414     10416     10418     10417     10419     10421     10420     10422
     10424     10423     10425     10427     10426     10428     10430     10429     10431
     10433     10432     10434     10436     10435     10437     10439     10438     10440
     10442     10441     10443     10445     10444     10446     10448     10447     10449
     10451     10450     10452     10454     10453     10455     10457     10456     10458
     10460     10459     10461     10463     10462     10464     10466     10465     10467
     10469     10468     10470     10472     10471     10473     10475     10474     10476
     10478     10477     10479     10481     10480     10482     10484     10483     10485
     10487     10486     10488     10490     10489     10491     10493     10492     10494
     10496     10495     10497     10499     10498     10500     10502     10501     10503
     10505     10504     10506     10508     10507     10509     10511     10510     10512
     10514     10513     10515     10517     10516     10518     10520     10519     10521
     10523     10522     10524     10526     10525     10527     10529     10528     10530
     10532     10531     10533     10535     10534     10536     10538     10537     10539
     10541     10540     10542     10544     10543     10545     10547     10546     10548
     10550     10549     10551     10553     10552     10554     10556     10555     10557
     10559     10558     10560     10562     10561     10563     10565     10564     10566
     10568     10567     10569     10571     10570     10572     10574     10573     10575
     10577     10576     10578     10580     10579     10581     10583     10582     10584
     10586     10585     10587     10589     10588     10590     10592     10591     10593
     10595     10594     10596     10598     10597     10599     10601     10600     10602
     10604     10603     10605     10607     10606     10608     10610     10609     10611
     10613     10612     10614     10616     10615     10617     10619     10618     10620
     10622     10621     10623     10625     10624     10626     10628     10627     10629
     10631     10630     10632     10634     10633     10635     10637     10636     10638
     10640     10639     10641     10643     10642     10644     10646     10645     10647
     10649     10648     10650     10652     10651     10653     10655     10654     10656
     10658     10657     10659     10661     10660     10662     10664     10663     10665
     10667     10666     10668     10670     10669     10671     10673     10672     10674
     10676     10675     10677     10679     10678     10680     10682     10681     10683
     10685     10684     10686     10688     10687     10689     10691     10690     10692
     10694     10693     10695     10697     10696     10698     10700     10699     10701
     10703     10702     10704     10706     10705     10707     10709     10708     10710
     10712     10711     10713     10715     10714     10716     10718     10717     10719
     10721     10720     10722     10724     10723     10725     10727     10726     10728
     10730     10729     10731     10733     10732     10734     10736     10735     10737
     10739     10738     10740     10742     10741     10743     10745     10744     10746
     10748     10747     10749     10751     10750     10752     10754     10753     10755
     10757     10756     10758     10760     10759     10761     10763     10762     10764
     10766     10765     10767     10769     10768     10770     10772     10771     10773
     10775     10774     10776     10778     10777     10779     10781     10780     10782
     10784     10783     10785     10787     10786     10788     10790     10789     10791
     10793     10792     10794     10796     10795     10797     10799     10798     10800
     10802     10801     10803     10805     10804     10806     10808     10807     10809
     10811     10810     10812     10814     10813     10815     10817     10816     10818
     10820     10819     10821     10823     10822     10824     10826     10825     10827
     10829     10828     10830     10832     10831     10833     10835     10834     10836
     10838     10837     10839     10841     10840     10842     10844     10843     10845
     10847     10846     10848     10850     10849     10851     10853     10852     10854
     10856     10855     10857     10859     10858     10860     10862     10861     10863
     10865     10864     10866     10868     10867     10869     10871     10870     10872
     10874     10873     10875     10877     10876     10878     10880     10879     10881
     10883     10882     10884     10886     10885     10887     10889     10888     10890
     10892     10891     10893     10895     10894     10896     10898     10897     10899
     10901     10900     10902     10904     10903     10905     10907     10906     10908
     10910     10909     10911     10913     10912     10914     10916     10915     10917
     10919     10918     10920     10922     10921     10923     10925     10924     10926
     10928     10927     10929     10931     10930     10932     10934     10933     10935
     10937     10936     10938     10940     10939     10941     10943     10942     10944
     10946     10945     10947     10949     10948     10950     10952     10951     10953
     10955     10954     10956     10958     10957     10959     10961     10960     10962
     10964     10963     10965     10967     10966     10968     10970     10969     10971
     10973     10972     10974     10976     10975     10977     10979     10978     10980
     10982     10981     10983     10985     10984     10986     10988     10987     10989
     10991     10990     10992     10994     10993     10995     10997     10996     10998
     11000     10999     11001     11003     11002     11004     11006     11005     11007
     11009     11008     11010     11012     11011     11013     11015     11014     11016
     11018     11017     11019     11021     11020     11022     11024     11023     11025
     11027     11026     11028     11030     11029     11031     11033     11032     11034
     11036     11035     11037     11039     11038     11040     11042     11041     11043
     11045     11044     11046     11048     11047     11049     11051     11050     11052
     11054     11053     11055     11057     11056     11058     11060     11059     11061
     11063     11062     11064     11066     11065     11067     11069     11068     11070
     11072     11071     11073     11075     11074     11076     11078     11077     11079
     11081     11080     11082     11084     11083     11085     11087     11086     11088
     11090     11089     11091     11093     11092     11094     11096     11095     11097
     11099     11098     11100     11102     11101     11103     11105     11104     11106
     11108     11107     11109     11111     11110     11112     11114     11113     11115
     11117     11116     11118     11120     11119     11121     11123     11122     11124
     11126     11125     11127     11129     11128     11130     11132     11131     11133
     11135     11134     11136     11138     11137     11139     11141     11140     11142
     11144     11143     11145     11147     11146     11148     11150     11149     11151
     11153     11152     11154     11156     11155     11157     11159     11158     11160
     11162     11161     11163     11165     11164     11166     11168     11167     11169
     11171     11170     11172     11174     11173     11175     11177     11176     11178
     11180     11179     11181     11183     11182     11184     11186     11185     11187
     11189     11188     11190     11192     11191     11193     11195     11194     11196
     11198     11197     11199     11201     11200     11202     11204     11203     11205
     11207     11206     11208     11210     11209     11211     11213     11212     11214
     11216     11215     11217     11219     11218     11220     11222     11221     11223
     11225     11224     11226     11228     11227     11229     11231     11230     11232
     11234     11233     11235     11237     11236     11238     11240     11239     11241
     11243     11242     11244     11246     11245     11247     11249     11248     11250
     11252     11251     11253     11255     11254     11256     11258     11257     11259
     11261     11260     11262     11264     11263     11265     11267     11266     11268
     11270     11269     11271     11273     11272     11274     11276     11275     11277
     11279     11278     11280     11282     11281     11283     11285     11284     11286
     11288     11287     11289     11291     11290     11292     11294     11293     11295
     11297     11296     11298     11300     11299     11301     11303     11302     11304
     11306     11305     11307     11309     11308     11310     11312     11311     11313
     11315     11314     11316     11318     11317     11319     11321     11320     11322
     11324     11323     11325     11327     11326     11328     11330     11329     11331
     11333     11332     11334     11336     11335     11337     11339     11338     11340
     11342     11341     11343     11345     11344     11346     11348     11347     11349
     11351     11350     11352     11354     11353     11355     11357     11356     11358
     11360     11359     11361     11363     11362     11364     11366     11365     11367
     11369     11368     11370     11372     11371     11373     11375     11374     11376
     11378     11377     11379     11381     11380     11382     11384     11383     11385
     11387     11386     11388     11390     11389     11391     11393     11392     11394
     11396     11395     11397     11399     11398     11400     11402     11401     11403
     11405     11404     11406     11408     11407     11409     11411     11410     11412
     11414     11413     11415     11417     11416     11418     11420     11419     11421
     11423     11422     11424     11426     11425     11427     11429     11428     11430
     11432     11431     11433     11435     11434     11436     11438     11437     11439
     11441     11440     11442     11444     11443     11445     11447     11446     11448
     11450     11449     11451     11453     11452     11454     11456     11455     11457
     11459     11458     11460     11462     11461     11463     11465     11464     11466
     11468     11467     11469     11471     11470     11472     11474     11473     11475
     11477     11476     11478     11480     11479     11481     11483     11482     11484
     11486     11485     11487     11489     11488     11490     11492     11491     11493
     11495     11494     11496     11498     11497     11499     11501     11500     11502
     11504     11503     11505     11507     11506     11508     11510     11509     11511
     11513     11512     11514     11516     11515     11517     11519     11518     11520
     11522     11521     11523     11525     11524     11526     11528     11527     11529
     11531     11530     11532     11534     11533     11535     11537     11536     11538
     11540     11539     11541     11543     11542     11544     11546     11545     11547
     11549     11548     11550     11552     11551     11553     11555     11554     11556
     11558     11557     11559     11561     11560     11562     11564     11563     11565
     11567     11566     11568     11570     11569     11571     11573     11572     11574
     11576     11575     11577     11579     11578     11580     11582     11581     11583
     11585     11584     11586     11588     11587     11589     11591     11590     11592
     11594     11593     11595     11597     11596     11598     11600     11599     11601
     11603     11602     11604     11606     11605     11607     11609     11608     11610
     11612     11611     11613     11615     11614     11616     11618     11617     11619
     11621     11620     11622     11624     11623     11625     11627     11626     11628
     11630     11629     11631     11633     11632     11634     11636     11635     11637
     11639     11638     11640     11642     11641     11643     11645     11644     11646
     11648     11647     11649     11651     11650     11652     11654     11653     11655
     11657     11656     11658     11660     11659     11661     11663     11662     11664
     11666     11665     11667     11669     11668     11670     11672     11671     11673
     11675     11674     11676     11678     11677     11679     11681     11680     11682
     11684     11683     11685     11687     11686     11688     11690     11689     11691
     11693     11692     11694     11696     11695     11697     11699     11698     11700
     11702     11701     11703     11705     11704     11706     11708     11707     11709
     11711     11710     11712     11714     11713     11715     11717     11716     11718
     11720     11719     11721     11723     11722     11724     11726     11725     11727
     11729     11728     11730     11732     11731     11733     11735     11734     11736
     11738     11737     11739     11741     11740     11742     11744     11743     11745
     11747     11746     11748     11750     11749     11751     11753     11752     11754
     11756     11755     11757     11759     11758     11760     11762     11761     11763
     11765     11764     11766     11768     11767     11769     11771     11770     11772
     11774     11773     11775     11777     11776     11778     11780     11779     11781
     11783     11782     11784     11786     11785     11787     11789     11788     11790
     11792     11791     11793     11795     11794     11796     11798     11797     11799
     11801     11800     11802     11804     11803     11805     11807     11806     11808
     11810     11809     11811     11813     11812     11814     11816     11815     11817
     11819     11818     11820     11822     11821     11823     11825     11824     11826
     11828     11827     11829     11831     11830     11832     11834     11833     11835
     11837     11836     11838     11840     11839     11841     11843     11842     11844
     11846     11845     11847     11849     11848     11850     11852     11851     11853
     11855     11854     11856     11858     11857     11859     11861     11860     11862
     11864     11863     11865     11867     11866     11868     11870     11869     11871
     11873     11872     11874     11876     11875     11877     11879     11878     11880
     11882     11881     11883     11885     11884     11886     11888     11887     11889
     11891     11890     11892     11894     11893     11895     11897     11896     11898
     11900     11899     11901     11903     11902     11904     11906     11905     11907
     11909     11908     11910     11912     11911     11913     11915     11914     11916
     11918     11917     11919     11921     11920     11922     11924     11923     11925
     11927     11926     11928     11930     11929     11931     11933     11932     11934
     11936     11935     11937     11939     11938     11940     11942     11941     11943
     11945     11944     11946     11948     11947     11949     11951     11950     11952
     11954     11953     11955     11957     11956     11958     11960     11959     11961
     11963     11962     11964     11966     11965     11967     11969     11968     11970
     11972     11971     11973     11975     11974     11976     11978     11977     11979
     11981     11980     11982     11984     11983     11985     11987     11986     11988
     11990     11989     11991     11993     11992     11994     11996     11995     11997
     11999     11998     12000     12002     12001     12003     12005     12004     12006
     12008     12007     12009     12011     12010     12012     12014     12013     12015
     12017     12016     12018     12020     12019     12021     12023     12022     12024
     12026     12025     12027     12029     12028     12030     12032     12031     12033
     12035     12034     12036     12038     12037     12039     12041     12040     12042
     12044     12043     12045     12047     12046     12048     12050     12049     12051
     12053     12052     12054     12056     12055     12057     12059     12058     12060
     12062     12061     12063     12065     12064     12066     12068     12067     12069
     12071     12070     12072     12074     12073     12075     12077     12076     12078
     12080     12079     12081     12083     12082     12084     12086     12085     12087
     12089     12088     12090     12092     12091     12093     12095     12094     12096
     12098     12097     12099     12101     12100     12102     12104     12103     12105
     12107     12106     12108     12110     12109     12111     12113     12112     12114
     12116     12115     12117     12119     12118     12120     12122     12121     12123
     12125     12124     12126     12128     12127     12129     12131     12130     12132
     12134     12133     12135     12137     12136     12138     12140     12139     12141
     12143     12142     12144     12146     12145     12147     12149     12148     12150
     12152     12151     12153     12155     12154     12156     12158     12157     12159
     12161     12160     12162     12164     12163     12165     12167     12166     12168
     12170     12169     12171     12173     12172     12174     12176     12175     12177
     12179     12178     12180     12182     12181     12183     12185     12184     12186
     12188     12187     12189     12191     12190     12192     12194     12193     12195
     12197     12196     12198     12200     12199     12201     12203     12202     12204
     12206     12205     12207     12209     12208     12210     12212     12211     12213
     12215     12214     12216     12218     12217     12219     12221     12220     12222
     12224     12223     12225     12227     12226     12228     12230     12229     12231
     12233     12232     12234     12236     12235     12237     12239     12238     12240
     12242     12241     12243     12245     12244     12246     12248     12247     12249
     12251     12250     12252     12254     12253     12255     12257     12256     12258
     12260     12259     12261     12263     12262     12264     12266     12265     12267
     12269     12268     12270     12272     12271     12273     12275     12274     12276
     12278     12277     12279     12281     12280     12282     12284     12283     12285
     12287     12286     12288     12290     12289     12291     12293     12292     12294
     12296     12295     12297     12299     12298     12300     12302     12301     12303
     12305     12304     12306     12308     12307     12309     12311     12310     12312
     12314     12313     12315     12317     12316     12318     12320     12319     12321
     12323     12322     12324     12326     12325     12327     12329     12328     12330
     12332     12331     12333     12335     12334     12336     12338     12337     12339
     12341     12340     12342     12344     12343     12345     12347     12346     12348
     12350     12349     12351     12353     12352     12354     12356     12355     12357
     12359     12358     12360     12362     12361     12363     12365     12364     12366
     12368     12367     12369     12371     12370     12372     12374     12373     12375
     12377     12376     12378     12380     12379     12381     12383     12382     12384
     12386     12385     12387     12389     12388     12390     12392     12391     12393
     12395     12394     12396     12398     12397     12399     12401     12400     12402
     12404     12403     12405     12407     12406     12408     12410     12409     12411
     12413     12412     12414     12416     12415     12417     12419     12418     12420
     12422     12421     12423     12425     12424     12426     12428     12427     12429
     12431     12430     12432     12434     12433     12435     12437     12436     12438
     12440     12439     12441     12443     12442     12444     12446     12445     12447
     12449     12448     12450     12452     12451     12453     12455     12454     12456
     12458     12457     12459     12461     12460     12462     12464     12463     12465
     12467     12466     12468     12470     12469     12471     12473     12472     12474
     12476     12475     12477     12479     12478     12480     12482     12481     12483
     12485     12484     12486     12488     12487     12489     12491     12490     12492
     12494     12493     12495     12497     12496     12498     12500     12499     12501
     12503     12502     12504     12506     12505     12507     12509     12508     12510
     12512     12511     12513     12515     12514     12516     12518     12517     12519
     12521     12520     12522     12524     12523     12525     12527     12526     12528
     12530     12529     12531     12533     12532     12534     12536     12535     12537
     12539     12538     12540     12542     12541     12543     12545     12544     12546
     12548     12547     12549     12551     12550     12552     12554     12553     12555
     12557     12556     12558     12560     12559     12561     12563     12562     12564
     12566     12565     12567     12569     12568     12570     12572     12571     12573
     12575     12574     12576     12578     12577     12579     12581     12580     12582
     12584     12583     12585     12587     12586     12588     12590     12589     12591
     12593     12592     12594     12596     12595     12597     12599     12598     12600
     12602     12601     12603     12605     12604     12606     12608     12607     12609
     12611     12610     12612     12614     12613     12615     12617     12616     12618
     12620     12619     12621     12623     12622     12624     12626     12625     12627
     12629     12628     12630     12632     12631     12633     12635     12634     12636
     12638     12637     12639     12641     12640     12642     12644     12643     12645
     12647     12646     12648     12650     12649     12651     12653     12652     12654
     12656     12655     12657     12659     12658     12660     12662     12661     12663
     12665     12664     12666     12668     12667     12669     12671     12670     12672
     12674     12673     12675     12677     12676     12678     12680     12679     12681
     12683     12682     12684     12686     12685     12687     12689     12688     12690
     12692     12691     12693     12695     12694     12696     12698     12697     12699
     12701     12700     12702     12704     12703     12705     12707     12706     12708
     12710     12709     12711     12713     12712     12714     12716     12715     12717
     12719     12718     12720     12722     12721     12723     12725     12724     12726
     12728     12727     12729     12731     12730     12732     12734     12733     12735
     12737     12736     12738     12740     12739     12741     12743     12742     12744
     12746     12745     12747     12749     12748     12750     12752     12751     12753
     12755     12754     12756     12758     12757     12759     12761     12760     12762
     12764     12763     12765     12767     12766     12768     12770     12769     12771
     12773     12772     12774     12776     12775     12777     12779     12778     12780
     12782     12781     12783     12785     12784     12786     12788     12787     12789
     12791     12790     12792     12794     12793     12795     12797     12796     12798
     12800     12799     12801     12803     12802     12804     12806     12805     12807
     12809     12808     12810     12812     12811     12813     12815     12814     12816
     12818     12817     12819     12821     12820     12822     12824     12823     12825
     12827     12826     12828     12830     12829     12831     12833     12832     12834
     12836     12835     12837     12839     12838     12840     12842     12841     12843
     12845     12844     12846     12848     12847     12849     12851     12850     12852
     12854     12853     12855     12857     12856     12858     12860     12859     12861
     12863     12862     12864     12866     12865     12867     12869     12868     12870
     12872     12871     12873     12875     12874     12876     12878     12877     12879
     12881     12880     12882     12884     12883     12885     12887     12886     12888
     12890     12889     12891     12893     12892     12894     12896     12895     12897
     12899     12898     12900     12902     12901     12903     12905     12904     12906
     12908     12907     12909     12911     12910     12912     12914     12913     12915
     12917     12916     12918     12920     12919     12921     12923     12922     12924
     12926     12925     12927     12929     12928     12930     12932     12931     12933
     12935     12934     12936     12938     12937     12939     12941     12940     12942
     12944     12943     12945     12947     12946     12948     12950     12949     12951
     12953     12952     12954     12956     12955     12957     12959     12958     12960
     12962     12961     12963     12965     12964     12966     12968     12967     12969
     12971     12970     12972     12974     12973     12975     12977     12976     12978
     12980     12979     12981     12983     12982     12984     12986     12985     12987
     12989     12988     12990     12992     12991     12993     12995     12994     12996
     12998     12997     12999     13001     13000     13002     13004     13003     13005
     13007     13006     13008     13010     13009     13011     13013     13012     13014
     13016     13015     13017     13019     13018     13020     13022     13021     13023
     13025     13024     13026     13028     13027     13029     13031     13030     13032
     13034     13033     13035     13037     13036     13038     13040     13039     13041
     13043     13042     13044     13046     13045     13047     13049     13048     13050
     13052     13051     13053     13055     13054     13056     13058     13057     13059
     13061     13060     13062     13064     13063     13065     13067     13066     13068
     13070     13069     13071     13073     13072     13074     13076     13075     13077
     13079     13078     13080     13082     13081     13083     13085     13084     13086
     13088     13087     13089     13091     13090     13092     13094     13093     13095
     13097     13096     13098     13100     13099     13101     13103     13102     13104
     13106     13105     13107     13109     13108     13110     13112     13111     13113
     13115     13114     13116     13118     13117     13119     13121     13120     13122
     13124     13123     13125     13127     13126     13128     13130     13129     13131
     13133     13132     13134     13136     13135     13137     13139     13138     13140
     13142     13141     13143     13145     13144     13146     13148     13147     13149
     13151     13150     13152     13154     13153     13155     13157     13156     13158
     13160     13159     13161     13163     13162     13164     13166     13165     13167
     13169     13168     13170     13172     13171     13173     13175     13174     13176
     13178     13177     13179     13181     13180     13182     13184     13183     13185
     13187     13186     13188     13190     13189     13191     13193     13192     13194
     13196     13195     13197     13199     13198     13200     13202     13201     13203
     13205     13204     13206     13208     13207     13209     13211     13210     13212
     13214     13213     13215     13217     13216     13218     13220     13219     13221
     13223     13222     13224     13226     13225     13227     13229     13228     13230
     13232     13231     13233     13235     13234     13236     13238     13237     13239
     13241     13240     13242     13244     13243     13245     13247     13246     13248
     13250     13249     13251     13253     13252     13254     13256     13255     13257
     13259     13258     13260     13262     13261     13263     13265     13264     13266
     13268     13267     13269     13271     13270     13272     13274     13273     13275
     13277     13276     13278     13280     13279     13281     13283     13282     13284
     13286     13285     13287     13289     13288     13290     13292     13291     13293
     13295     13294     13296     13298     13297     13299     13301     13300     13302
     13304     13303     13305     13307     13306     13308     13310     13309     13311
     13313     13312     13314     13316     13315     13317     13319     13318     13320
     13322     13321     13323     13325     13324     13326     13328     13327     13329
     13331     13330     13332     13334     13333     13335     13337     13336     13338
     13340     13339     13341     13343     13342     13344     13346     13345     13347
     13349     13348     13350     13352     13351     13353     13355     13354     13356
     13358     13357     13359     13361     13360     13362     13364     13363     13365
     13367     13366     13368     13370     13369     13371     13373     13372     13374
     13376     13375     13377     13379     13378     13380     13382     13381     13383
     13385     13384     13386     13388     13387     13389     13391     13390     13392
     13394     13393     13395     13397     13396     13398     13400     13399     13401
     13403     13402     13404     13406     13405     13407     13409     13408     13410
     13412     13411     13413     13415     13414     13416     13418     13417     13419
     13421     13420     13422     13424     13423     13425     13427     13426     13428
     13430     13429     13431     13433     13432     13434     13436     13435     13437
     13439     13438     13440     13442     13441     13443     13445     13444     13446
     13448     13447     13449     13451     13450     13452     13454     13453     13455
     13457     13456     13458     13460     13459     13461     13463     13462     13464
     13466     13465     13467     13469     13468     13470     13472     13471     13473
     13475     13474     13476     13478     13477     13479     13481     13480     13482
     13484     13483     13485     13487     13486     13488     13490     13489     13491
     13493     13492     13494     13496     13495     13497     13499     13498     13500
     13502     13501     13503     13505     13504     13506     13508     13507     13509
     13511     13510     13512     13514     13513     13515     13517     13516     13518
     13520     13519     13521     13523     13522     13524     13526     13525     13527
     13529     13528     13530     13532     13531     13533     13535     13534     13536
     13538     13537     13539     13541     13540     13542     13544     13543     13545
     13547     13546     13548     13550     13549     13551     13553     13552     13554
     13556     13555     13557     13559     13558     13560     13562     13561     13563
     13565     13564     13566     13568     13567     13569     13571     13570     13572
     13574     13573     13575     13577     13576     13578     13580     13579     13581
     13583     13582     13584     13586     13585     13587     13589     13588     13590
     13592     13591     13593     13595     13594     13596     13598     13597     13599
     13601     13600     13602     13604     13603     13605     13607     13606     13608
     13610     13609     13611     13613     13612     13614     13616     13615     13617
     13619     13618     13620     13622     13621     13623     13625     13624     13626
     13628     13627     13629     13631     13630     13632     13634     13633     13635
     13637     13636     13638     13640     13639     13641     13643     13642     13644
     13646     13645     13647     13649     13648     13650     13652     13651     13653
     13655     13654     13656     13658     13657     13659     13661     13660     13662
     13664     13663     13665     13667     13666     13668     13670     13669     13671
     13673     13672     13674     13676     13675     13677     13679     13678     13680
     13682     13681     13683     13685     13684     13686     13688     13687     13689
     13691     13690     13692     13694     13693     13695     13697     13696     13698
     13700     13699     13701     13703     13702     13704     13706     13705     13707
     13709     13708     13710     13712     13711     13713     13715     13714     13716
     13718     13717     13719     13721     13720     13722     13724     13723     13725
     13727     13726     13728     13730     13729     13731     13733     13732     13734
     13736     13735     13737     13739     13738     13740     13742     13741     13743
     13745     13744     13746     13748     13747     13749     13751     13750     13752
     13754     13753     13755     13757     13756     13758     13760     13759     13761
     13763     13762     13764     13766     13765     13767     13769     13768     13770
     13772     13771     13773     13775     13774     13776     13778     13777     13779
     13781     13780     13782     13784     13783     13785     13787     13786     13788
     13790     13789     13791     13793     13792     13794     13796     13795     13797
     13799     13798     13800     13802     13801     13803     13805     13804     13806
     13808     13807     13809     13811     13810     13812     13814     13813     13815
     13817     13816     13818     13820     13819     13821     13823     13822     13824
     13826     13825     13827     13829     13828     13830     13832     13831     13833
     13835     13834     13836     13838     13837     13839     13841     13840     13842
     13844     13843     13845     13847     13846     13848     13850     13849     13851
     13853     13852     13854     13856     13855     13857     13859     13858     13860
     13862     13861     13863     13865     13864     13866     13868     13867     13869
     13871     13870     13872     13874     13873     13875     13877     13876     13878
     13880     13879     13881     13883     13882     13884     13886     13885     13887
     13889     13888     13890     13892     13891     13893     13895     13894     13896
     13898     13897     13899     13901     13900     13902     13904     13903     13905
     13907     13906     13908     13910     13909     13911     13913     13912     13914
     13916     13915     13917     13919     13918     13920     13922     13921     13923
     13925     13924     13926     13928     13927     13929     13931     13930     13932
     13934     13933     13935     13937     13936     13938     13940     13939     13941
     13943     13942     13944     13946     13945     13947     13949     13948     13950
     13952     13951     13953     13955     13954     13956     13958     13957     13959
     13961     13960     13962     13964     13963     13965     13967     13966     13968
     13970     13969     13971     13973     13972     13974     13976     13975     13977
     13979     13978     13980     13982     13981     13983     13985     13984     13986
     13988     13987     13989     13991     13990     13992     13994     13993     13995
     13997     13996     13998     14000     13999     14001     14003     14002     14004
     14006     14005     14007     14009     14008     14010     14012     14011     14013
     14015     14014     14016     14018     14017     14019     14021     14020     14022
     14024     14023     14025     14027     14026     14028     14030     14029     14031
     14033     14032     14034     14036     14035     14037     14039     14038     14040
     14042     14041     14043     14045     14044     14046     14048     14047     14049
     14051     14050     14052     14054     14053     14055     14057     14056     14058
     14060     14059     14061     14063     14062     14064     14066     14065     14067
     14069     14068     14070     14072     14071     14073     14075     14074     14076
     14078     14077     14079     14081     14080     14082     14084     14083     14085
     14087     14086     14088     14090     14089     14091     14093     14092     14094
     14096     14095     14097     14099     14098     14100     14102     14101     14103
     14105     14104     14106     14108     14107     14109     14111     14110     14112
     14114     14113     14115     14117     14116     14118     14120     14119     14121
     14123     14122     14124     14126     14125     14127     14129     14128     14130
     14132     14131     14133     14135     14134     14136     14138     14137     14139
     14141     14140     14142     14144     14143     14145     14147     14146     14148
     14150     14149     14151     14153     14152     14154     14156     14155     14157
     14159     14158     14160     14162     14161     14163     14165     14164     14166
     14168     14167     14169     14171     14170     14172     14174     14173     14175
     14177     14176     14178     14180     14179     14181     14183     14182     14184
     14186     14185     14187     14189     14188     14190     14192     14191     14193
     14195     14194     14196     14198     14197     14199     14201     14200     14202
     14204     14203     14205     14207     14206     14208     14210     14209     14211
     14213     14212     14214     14216     14215     14217     14219     14218     14220
     14222     14221     14223     14225     14224     14226     14228     14227     14229
     14231     14230     14232     14234     14233     14235     14237     14236     14238
     14240     14239     14241     14243     14242     14244     14246     14245     14247
     14249     14248     14250     14252     14251     14253     14255     14254     14256
     14258     14257     14259     14261     14260     14262     14264     14263     14265
     14267     14266     14268     14270     14269     14271     14273     14272     14274
     14276     14275     14277     14279     14278     14280     14282     14281     14283
     14285     14284     14286     14288     14287     14289     14291     14290     14292
     14294     14293     14295     14297     14296     14298     14300     14299     14301
     14303     14302     14304     14306     14305     14307     14309     14308     14310
     14312     14311     14313     14315     14314     14316     14318     14317     14319
     14321     14320     14322     14324     14323     14325     14327     14326     14328
     14330     14329     14331     14333     14332     14334     14336     14335     14337
     14339     14338     14340     14342     14341     14343     14345     14344     14346
     14348     14347     14349     14351     14350     14352     14354     14353     14355
     14357     14356     14358     14360     14359     14361     14363     14362     14364
     14366     14365     14367     14369     14368     14370     14372     14371     14373
     14375     14374     14376     14378     14377     14379     14381     14380     14382
     14384     14383     14385     14387     14386     14388     14390     14389     14391
     14393     14392     14394     14396     14395     14397     14399     14398     14400
     14402     14401     14403     14405     14404     14406     14408     14407     14409
     14411     14410     14412     14414     14413     14415     14417     14416     14418
     14420     14419     14421     14423     14422     14424     14426     14425     14427
     14429     14428     14430     14432     14431     14433     14435     14434     14436
     14438     14437     14439     14441     14440     14442     14444     14443     14445
     14447     14446     14448     14450     14449     14451     14453     14452     14454
     14456     14455     14457     14459     14458     14460     14462     14461     14463
     14465     14464     14466     14468     14467     14469     14471     14470     14472
     14474     14473     14475     14477     14476     14478     14480     14479     14481
     14483     14482     14484     14486     14485     14487     14489     14488     14490
     14492     14491     14493     14495     14494     14496     14498     14497     14499
     14501     14500     14502     14504     14503     14505     14507     14506     14508
     14510     14509     14511     14513     14512     14514     14516     14515     14517
     14519     14518     14520     14522     14521     14523     14525     14524     14526
     14528     14527     14529     14531     14530     14532     14534     14533     14535
     14537     14536     14538     14540     14539     14541     14543     14542     14544
     14546     14545     14547     14549     14548     14550     14552     14551     14553
     14555     14554     14556     14558     14557     14559     14561     14560     14562
     14564     14563     14565     14567     14566     14568     14570     14569     14571
     14573     14572     14574     14576     14575     14577     14579     14578     14580
     14582     14581     14583     14585     14584     14586     14588     14587     14589
     14591     14590     14592     14594     14593     14595     14597     14596     14598
     14600     14599     14601     14603     14602     14604     14606     14605     14607
     14609     14608     14610     14612     14611     14613     14615     14614     14616
     14618     14617     14619     14621     14620     14622     14624     14623     14625
     14627     14626     14628     14630     14629     14631     14633     14632     14634
     14636     14635     14637     14639     14638     14640     14642     14641     14643
     14645     14644     14646     14648     14647     14649     14651     14650     14652
     14654     14653     14655     14657     14656     14658     14660     14659     14661
     14663     14662     14664     14666     14665     14667     14669     14668     14670
     14672     14671     14673     14675     14674     14676     14678     14677     14679
     14681     14680     14682     14684     14683     14685     14687     14686     14688
     14690     14689     14691     14693     14692     14694     14696     14695     14697
     14699     14698     14700     14702     14701     14703     14705     14704     14706
     14708     14707     14709     14711     14710     14712     14714     14713     14715
     14717     14716     14718     14720     14719     14721     14723     14722     14724
     14726     14725     14727     14729     14728     14730     14732     14731     14733
     14735     14734     14736     14738     14737     14739     14741     14740     14742
     14744     14743     14745     14747     14746     14748     14750     14749     14751
     14753     14752     14754     14756     14755     14757     14759     14758     14760
     14762     14761     14763     14765     14764     14766     14768     14767     14769
     14771     14770     14772     14774     14773     14775     14777     14776     14778
     14780     14779     14781     14783     14782     14784     14786     14785     14787
     14789     14788     14790     14792     14791     14793     14795     14794     14796
     14798     14797     14799     14801     14800     14802     14804     14803     14805
     14807     14806     14808     14810     14809     14811     14813     14812     14814
     14816     14815     14817     14819     14818     14820     14822     14821     14823
     14825     14824     14826     14828     14827     14829     14831     14830     14832
     14834     14833     14835     14837     14836     14838     14840     14839     14841
     14843     14842     14844     14846     14845     14847     14849     14848     14850
     14852     14851     14853     14855     14854     14856     14858     14857     14859
     14861     14860     14862     14864     14863     14865     14867     14866     14868
     14870     14869     14871     14873     14872     14874     14876     14875     14877
     14879     14878     14880     14882     14881     14883     14885     14884     14886
     14888     14887     14889     14891     14890     14892     14894     14893     14895
     14897     14896     14898     14900     14899     14901     14903     14902     14904
     14906     14905     14907     14909     14908     14910     14912     14911     14913
     14915     14914     14916     14918     14917     14919     14921     14920     14922
     14924     14923     14925     14927     14926     14928     14930     14929     14931
     14933     14932     14934     14936     14935     14937     14939     14938     14940
     14942     14941     14943     14945     14944     14946     14948     14947     14949
     14951     14950     14952     14954     14953     14955     14957     14956     14958
     14960     14959     14961     14963     14962     14964     14966     14965     14967
     14969     14968     14970     14972     14971     14973     14975     14974     14976
     14978     14977     14979     14981     14980     14982     14984     14983     14985
     14987     14986     14988     14990     14989     14991     14993     14992     14994
     14996     14995     14997     14999     14998     15000     15002     15001     15003
     15005     15004     15006     15008     15007     15009     15011     15010     15012
     15014     15013     15015     15017     15016     15018     15020     15019     15021
     15023     15022     15024     15026     15025     15027     15029     15028     15030
     15032     15031     15033     15035     15034     15036     15038     15037     15039
     15041     15040     15042     15044     15043     15045     15047     15046     15048
     15050     15049     15051     15053     15052     15054     15056     15055     15057
     15059     15058     15060     15062     15061     15063     15065     15064     15066
     15068     15067     15069     15071     15070     15072     15074     15073     15075
     15077     15076     15078     15080     15079     15081     15083     15082     15084
     15086     15085     15087     15089     15088     15090     15092     15091     15093
     15095     15094     15096     15098     15097     15099     15101     15100     15102
     15104     15103     15105     15107     15106     15108     15110     15109     15111
     15113     15112     15114     15116     15115     15117     15119     15118     15120
     15122     15121     15123     15125     15124     15126     15128     15127     15129
     15131     15130     15132     15134     15133     15135     15137     15136     15138
     15140     15139     15141     15143     15142     15144     15146     15145     15147
     15149     15148     15150     15152     15151     15153     15155     15154     15156
     15158     15157     15159     15161     15160     15162     15164     15163     15165
     15167     15166     15168     15170     15169     15171     15173     15172     15174
     15176     15175     15177     15179     15178     15180     15182     15181     15183
     15185     15184     15186     15188     15187     15189     15191     15190     15192
     15194     15193     15195     15197     15196     15198     15200     15199     15201
     15203     15202     15204     15206     15205     15207     15209     15208     15210
     15212     15211     15213     15215     15214     15216     15218     15217     15219
     15221     15220     15222     15224     15223     15225     15227     15226     15228
     15230     15229     15231     15233     15232     15234     15236     15235     15237
     15239     15238     15240     15242     15241     15243     15245     15244     15246
     15248     15247     15249     15251     15250     15252     15254     15253     15255
     15257     15256     15258     15260     15259     15261     15263     15262     15264
     15266     15265     15267     15269     15268     15270     15272     15271     15273
     15275     15274     15276     15278     15277     15279     15281     15280     15282
     15284     15283     15285     15287     15286     15288     15290     15289     15291
     15293     15292     15294     15296     15295     15297     15299     15298     15300
     15302     15301     15303     15305     15304     15306     15308     15307     15309
     15311     15310     15312     15314     15313     15315     15317     15316     15318
     15320     15319     15321     15323     15322     15324     15326     15325     15327
     15329     15328     15330     15332     15331     15333     15335     15334     15336
     15338     15337     15339     15341     15340     15342     15344     15343     15345
     15347     15346     15348     15350     15349     15351     15353     15352     15354
     15356     15355     15357     15359     15358     15360     15362     15361     15363
     15365     15364     15366     15368     15367     15369     15371     15370     15372
     15374     15373     15375     15377     15376     15378     15380     15379     15381
     15383     15382     15384     15386     15385     15387     15389     15388     15390
     15392     15391     15393     15395     15394     15396     15398     15397     15399
     15401     15400     15402     15404     15403     15405     15407     15406     15408
     15410     15409     15411     15413     15412     15414     15416     15415     15417
     15419     15418     15420     15422     15421     15423     15425     15424     15426
     15428     15427     15429     15431     15430     15432     15434     15433     15435
     15437     15436     15438     15440     15439     15441     15443     15442     15444
     15446     15445     15447     15449     15448     15450     15452     15451     15453
     15455     15454     15456     15458     15457     15459     15461     15460     15462
     15464     15463     15465     15467     15466     15468     15470     15469     15471
     15473     15472     15474     15476     15475     15477     15479     15478     15480
     15482     15481     15483     15485     15484     15486     15488     15487     15489
     15491     15490     15492     15494     15493     15495     15497     15496     15498
     15500     15499     15501     15503     15502     15504     15506     15505     15507
     15509     15508     15510     15512     15511     15513     15515     15514     15516
     15518     15517     15519     15521     15520     15522     15524     15523     15525
     15527     15526     15528     15530     15529     15531     15533     15532     15534
     15536     15535     15537     15539     15538     15540     15542     15541     15543
     15545     15544     15546     15548     15547     15549     15551     15550     15552
     15554     15553     15555     15557     15556     15558     15560     15559     15561
     15563     15562     15564     15566     15565     15567     15569     15568     15570
     15572     15571     15573     15575     15574     15576     15578     15577     15579
     15581     15580     15582     15584     15583     15585     15587     15586     15588
     15590     15589     15591     15593     15592     15594     15596     15595     15597
     15599     15598     15600     15602     15601     15603     15605     15604     15606
     15608     15607     15609     15611     15610     15612     15614     15613     15615
     15617     15616     15618     15620     15619     15621     15623     15622     15624
     15626     15625     15627     15629     15628     15630     15632     15631     15633
     15635     15634     15636     15638     15637     15639     15641     15640     15642
     15644     15643     15645     15647     15646     15648     15650     15649     15651
     15653     15652     15654     15656     15655     15657     15659     15658     15660
     15662     15661     15663     15665     15664     15666     15668     15667     15669
     15671     15670     15672     15674     15673     15675     15677     15676     15678
     15680     15679     15681     15683     15682     15684     15686     15685     15687
     15689     15688     15690     15692     15691     15693     15695     15694     15696
     15698     15697     15699     15701     15700     15702     15704     15703     15705
     15707     15706     15708     15710     15709     15711     15713     15712     15714
     15716     15715     15717     15719     15718     15720     15722     15721     15723
     15725     15724     15726     15728     15727     15729     15731     15730     15732
     15734     15733     15735     15737     15736     15738     15740     15739     15741
     15743     15742     15744     15746     15745     15747     15749     15748     15750
     15752     15751     15753     15755     15754     15756     15758     15757     15759
     15761     15760     15762     15764     15763     15765     15767     15766     15768
     15770     15769     15771     15773     15772     15774     15776     15775     15777
     15779     15778     15780     15782     15781     15783     15785     15784     15786
     15788     15787     15789     15791     15790     15792     15794     15793     15795
     15797     15796     15798     15800     15799     15801     15803     15802     15804
     15806     15805     15807     15809     15808     15810     15812     15811     15813
     15815     15814     15816     15818     15817     15819     15821     15820     15822
     15824     15823     15825     15827     15826     15828     15830     15829     15831
     15833     15832     15834     15836     15835     15837     15839     15838     15840
     15842     15841     15843     15845     15844     15846     15848     15847     15849
     15851     15850     15852     15854     15853     15855     15857     15856     15858
     15860     15859     15861     15863     15862     15864     15866     15865     15867
     15869     15868     15870     15872     15871     15873     15875     15874     15876
     15878     15877     15879     15881     15880     15882     15884     15883     15885
     15887     15886     15888     15890     15889     15891     15893     15892     15894
     15896     15895     15897     15899     15898     15900     15902     15901     15903
     15905     15904     15906     15908     15907     15909     15911     15910     15912
     15914     15913     15915     15917     15916     15918     15920     15919     15921
     15923     15922     15924     15926     15925     15927     15929     15928     15930
     15932     15931     15933     15935     15934     15936     15938     15937     15939
     15941     15940     15942     15944     15943     15945     15947     15946     15948
     15950     15949     15951     15953     15952     15954     15956     15955     15957
     15959     15958     15960     15962     15961     15963     15965     15964     15966
     15968     15967     15969     15971     15970     15972     15974     15973     15975
     15977     15976     15978     15980     15979     15981     15983     15982     15984
     15986     15985     15987     15989     15988     15990     15992     15991     15993
     15995     15994     15996     15998     15997     15999     16001     16000     16002
     16004     16003     16005     16007     16006     16008     16010     16009     16011
     16013     16012     16014     16016     16015     16017     16019     16018     16020
     16022     16021     16023     16025     16024     16026     16028     16027     16029
     16031     16030     16032     16034     16033     16035     16037     16036     16038
     16040     16039     16041     16043     16042     16044     16046     16045     16047
     16049     16048     16050     16052     16051     16053     16055     16054     16056
     16058     16057     16059     16061     16060     16062     16064     16063     16065
     16067     16066     16068     16070     16069     16071     16073     16072     16074
     16076     16075     16077     16079     16078     16080     16082     16081     16083
     16085     16084     16086     16088     16087     16089     16091     16090     16092
     16094     16093     16095     16097     16096     16098     16100     16099     16101
     16103     16102     16104     16106     16105     16107     16109     16108     16110
     16112     16111     16113     16115     16114     16116     16118     16117     16119
     16121     16120     16122     16124     16123     16125     16127     16126     16128
     16130     16129     16131     16133     16132     16134     16136     16135     16137
     16139     16138     16140     16142     16141     16143     16145     16144     16146
     16148     16147     16149     16151     16150     16152     16154     16153     16155
     16157     16156     16158     16160     16159     16161     16163     16162     16164
     16166     16165     16167     16169     16168     16170     16172     16171     16173
     16175     16174     16176     16178     16177     16179     16181     16180     16182
     16184     16183     16185     16187     16186     16188     16190     16189     16191
     16193     16192     16194     16196     16195     16197     16199     16198     16200
     16202     16201     16203     16205     16204     16206     16208     16207     16209
     16211     16210     16212     16214     16213     16215     16217     16216     16218
     16220     16219     16221     16223     16222     16224     16226     16225     16227
     16229     16228     16230     16232     16231     16233     16235     16234     16236
     16238     16237     16239     16241     16240     16242     16244     16243     16245
     16247     16246     16248     16250     16249     16251     16253     16252     16254
     16256     16255     16257     16259     16258     16260     16262     16261     16263
     16265     16264     16266     16268     16267     16269     16271     16270     16272
     16274     16273     16275     16277     16276     16278     16280     16279     16281
     16283     16282     16284     16286     16285     16287     16289     16288     16290
     16292     16291     16293     16295     16294     16296     16298     16297     16299
     16301     16300     16302     16304     16303     16305     16307     16306     16308
     16310     16309     16311     16313     16312     16314     16316     16315     16317
     16319     16318     16320     16322     16321     16323     16325     16324     16326
     16328     16327     16329     16331     16330     16332     16334     16333     16335
     16337     16336     16338     16340     16339     16341     16343     16342     16344
     16346     16345     16347     16349     16348     16350     16352     16351     16353
     16355     16354     16356     16358     16357     16359     16361     16360     16362
     16364     16363     16365     16367     16366     16368     16370     16369     16371
     16373     16372     16374     16376     16375     16377     16379     16378     16380
     16382     16381     16383     16385     16384     16386     16388     16387     16389
     16391     16390     16392     16394     16393     16395     16397     16396     16398
     16400     16399     16401     16403     16402     16404     16406     16405     16407
     16409     16408     16410     16412     16411     16413     16415     16414     16416
     16418     16417     16419     16421     16420     16422     16424     16423     16425
     16427     16426     16428     16430     16429     16431     16433     16432     16434
     16436     16435     16437     16439     16438     16440     16442     16441     16443
     16445     16444     16446     16448     16447     16449     16451     16450     16452
     16454     16453     16455     16457     16456     16458     16460     16459     16461
     16463     16462     16464     16466     16465     16467     16469     16468     16470
     16472     16471     16473     16475     16474     16476     16478     16477     16479
     16481     16480     16482     16484     16483     16485     16487     16486     16488
     16490     16489     16491     16493     16492     16494     16496     16495     16497
     16499     16498     16500     16502     16501     16503     16505     16504     16506
     16508     16507     16509     16511     16510     16512     16514     16513     16515
     16517     16516     16518     16520     16519     16521     16523     16522     16524
     16526     16525     16527     16529     16528     16530     16532     16531     16533
     16535     16534     16536     16538     16537     16539     16541     16540     16542
     16544     16543     16545     16547     16546     16548     16550     16549     16551
     16553     16552     16554     16556     16555     16557     16559     16558     16560
     16562     16561     16563     16565     16564     16566     16568     16567     16569
     16571     16570     16572     16574     16573     16575     16577     16576     16578
     16580     16579     16581     16583     16582     16584     16586     16585     16587
     16589     16588     16590     16592     16591     16593     16595     16594     16596
     16598     16597     16599     16601     16600     16602     16604     16603     16605
     16607     16606     16608     16610     16609     16611     16613     16612     16614
     16616     16615     16617     16619     16618     16620     16622     16621     16623
     16625     16624     16626     16628     16627     16629     16631     16630     16632
     16634     16633     16635     16637     16636     16638     16640     16639     16641
     16643     16642     16644     16646     16645     16647     16649     16648     16650
     16652     16651     16653     16655     16654     16656     16658     16657     16659
     16661     16660     16662     16664     16663     16665     16667     16666     16668
     16670     16669     16671     16673     16672     16674     16676     16675     16677
     16679     16678     16680     16682     16681     16683     16685     16684     16686
     16688     16687     16689     16691     16690     16692     16694     16693     16695
     16697     16696     16698     16700     16699     16701     16703     16702     16704
     16706     16705     16707     16709     16708     16710     16712     16711     16713
     16715     16714     16716     16718     16717     16719     16721     16720     16722
     16724     16723     16725     16727     16726     16728     16730     16729     16731
     16733     16732     16734     16736     16735     16737     16739     16738     16740
     16742     16741     16743     16745     16744     16746     16748     16747     16749
     16751     16750     16752     16754     16753     16755     16757     16756     16758
     16760     16759     16761     16763     16762     16764     16766     16765     16767
     16769     16768     16770     16772     16771     16773     16775     16774     16776
     16778     16777     16779     16781     16780     16782     16784     16783     16785
     16787     16786     16788     16790     16789     16791     16793     16792     16794
     16796     16795     16797     16799     16798     16800     16802     16801     16803
     16805     16804     16806     16808     16807     16809     16811     16810     16812
     16814     16813     16815     16817     16816     16818     16820     16819     16821
     16823     16822     16824     16826     16825     16827     16829     16828     16830
     16832     16831     16833     16835     16834     16836     16838     16837     16839
     16841     16840     16842     16844     16843     16845     16847     16846     16848
     16850     16849     16851     16853     16852     16854     16856     16855     16857
     16859     16858     16860     16862     16861     16863     16865     16864     16866
     16868     16867     16869     16871     16870     16872     16874     16873     16875
     16877     16876     16878     16880     16879     16881     16883     16882     16884
     16886     16885     16887     16889     16888     16890     16892     16891     16893
     16895     16894     16896     16898     16897     16899     16901     16900     16902
     16904     16903     16905     16907     16906     16908     16910     16909     16911
     16913     16912     16914     16916     16915     16917     16919     16918     16920
     16922     16921     16923     16925     16924     16926     16928     16927     16929
     16931     16930     16932     16934     16933     16935     16937     16936     16938
     16940     16939     16941     16943     16942     16944     16946     16945     16947
     16949     16948     16950     16952     16951     16953     16955     16954     16956
     16958     16957     16959     16961     16960     16962     16964     16963     16965
     16967     16966     16968     16970     16969     16971     16973     16972     16974
     16976     16975     16977     16979     16978     16980     16982     16981     16983
     16985     16984     16986     16988     16987     16989     16991     16990     16992
     16994     16993     16995     16997     16996     16998     17000     16999     17001
     17003     17002     17004     17006     17005     17007     17009     17008     17010
     17012     17011     17013     17015     17014     17016     17018     17017     17019
     17021     17020     17022     17024     17023     17025     17027     17026     17028
     17030     17029     17031     17033     17032     17034     17036     17035     17037
     17039     17038     17040     17042     17041     17043     17045     17044     17046
     17048     17047     17049     17051     17050     17052     17054     17053     17055
     17057     17056     17058     17060     17059     17061     17063     17062     17064
     17066     17065     17067     17069     17068     17070     17072     17071     17073
     17075     17074     17076     17078     17077     17079     17081     17080     17082
     17084     17083     17085     17087     17086     17088     17090     17089     17091
     17093     17092     17094     17096     17095     17097     17099     17098     17100
     17102     17101     17103     17105     17104     17106     17108     17107     17109
     17111     17110     17112     17114     17113     17115     17117     17116     17118
     17120     17119     17121     17123     17122     17124     17126     17125     17127
     17129     17128     17130     17132     17131     17133     17135     17134     17136
     17138     17137     17139     17141     17140     17142     17144     17143     17145
     17147     17146     17148     17150     17149     17151     17153     17152     17154
     17156     17155     17157     17159     17158     17160     17162     17161     17163
     17165     17164     17166     17168     17167     17169     17171     17170     17172
     17174     17173     17175     17177     17176     17178     17180     17179     17181
     17183     17182     17184     17186     17185     17187     17189     17188     17190
     17192     17191     17193     17195     17194     17196     17198     17197     17199
     17201     17200     17202     17204     17203     17205     17207     17206     17208
     17210     17209     17211     17213     17212     17214     17216     17215     17217
     17219     17218     17220     17222     17221     17223     17225     17224     17226
     17228     17227     17229     17231     17230     17232     17234     17233     17235
     17237     17236     17238     17240     17239     17241     17243     17242     17244
     17246     17245     17247     17249     17248     17250     17252     17251     17253
     17255     17254     17256     17258     17257     17259     17261     17260     17262
     17264     17263     17265     17267     17266     17268     17270     17269     17271
     17273     17272     17274     17276     17275     17277     17279     17278     17280
     17282     17281     17283     17285     17284     17286     17288     17287     17289
     17291     17290     17292     17294     17293     17295     17297     17296     17298
     17300     17299     17301     17303     17302     17304     17306     17305     17307
     17309     17308     17310     17312     17311     17313     17315     17314     17316
     17318     17317     17319     17321     17320     17322     17324     17323     17325
     17327     17326     17328     17330     17329     17331     17333     17332     17334
     17336     17335     17337     17339     17338     17340     17342     17341     17343
     17345     17344     17346     17348     17347     17349     17351     17350     17352
     17354     17353     17355     17357     17356     17358     17360     17359     17361
     17363     17362     17364     17366     17365     17367     17369     17368     17370
     17372     17371     17373     17375     17374     17376     17378     17377     17379
     17381     17380     17382     17384     17383     17385     17387     17386     17388
     17390     17389     17391     17393     17392     17394     17396     17395     17397
     17399     17398     17400     17402     17401     17403     17405     17404     17406
     17408     17407     17409     17411     17410     17412     17414     17413     17415
     17417     17416     17418     17420     17419     17421     17423     17422     17424
     17426     17425     17427     17429     17428     17430     17432     17431     17433
     17435     17434     17436     17438     17437     17439     17441     17440     17442
     17444     17443     17445     17447     17446     17448     17450     17449     17451
     17453     17452     17454     17456     17455     17457     17459     17458     17460
     17462     17461     17463     17465     17464     17466     17468     17467     17469
     17471     17470     17472     17474     17473     17475     17477     17476     17478
     17480     17479     17481     17483     17482     17484     17486     17485     17487
     17489     17488     17490     17492     17491     17493     17495     17494     17496
     17498     17497     17499     17501     17500     17502     17504     17503     17505
     17507     17506     17508     17510     17509     17511     17513     17512     17514
     17516     17515     17517     17519     17518     17520     17522     17521     17523
     17525     17524     17526     17528     17527     17529     17531     17530     17532
     17534     17533     17535     17537     17536     17538     17540     17539     17541
     17543     17542     17544     17546     17545     17547     17549     17548     17550
     17552     17551     17553     17555     17554     17556     17558     17557     17559
     17561     17560     17562     17564     17563     17565     17567     17566     17568
     17570     17569     17571     17573     17572     17574     17576     17575     17577
     17579     17578     17580     17582     17581     17583     17585     17584     17586
     17588     17587     17589     17591     17590     17592     17594     17593     17595
     17597     17596     17598     17600     17599     17601     17603     17602     17604
     17606     17605     17607     17609     17608     17610     17612     17611     17613
     17615     17614     17616     17618     17617     17619     17621     17620     17622
     17624     17623     17625     17627     17626     17628     17630     17629     17631
     17633     17632     17634     17636     17635     17637     17639     17638     17640
     17642     17641     17643     17645     17644     17646     17648     17647     17649
     17651     17650     17652     17654     17653     17655     17657     17656     17658
     17660     17659     17661     17663     17662     17664     17666     17665     17667
     17669     17668     17670     17672     17671     17673     17675     17674     17676
     17678     17677     17679     17681     17680     17682     17684     17683     17685
     17687     17686     17688     17690     17689     17691     17693     17692     17694
     17696     17695     17697     17699     17698     17700     17702     17701     17703
     17705     17704     17706     17708     17707     17709     17711     17710     17712
     17714     17713     17715     17717     17716     17718     17720     17719     17721
     17723     17722     17724     17726     17725     17727     17729     17728     17730
     17732     17731     17733     17735     17734     17736     17738     17737     17739
     17741     17740     17742     17744     17743     17745     17747     17746     17748
     17750     17749     17751     17753     17752     17754     17756     17755     17757
     17759     17758     17760     17762     17761     17763     17765     17764     17766
     17768     17767     17769     17771     17770     17772     17774     17773     17775
     17777     17776     17778     17780     17779     17781     17783     17782     17784
     17786     17785     17787     17789     17788     17790     17792     17791     17793
     17795     17794     17796     17798     17797     17799     17801     17800     17802
     17804     17803     17805     17807     17806     17808     17810     17809     17811
     17813     17812     17814     17816     17815     17817     17819     17818     17820
     17822     17821     17823     17825     17824     17826     17828     17827     17829
     17831     17830     17832     17834     17833     17835     17837     17836     17838
     17840     17839     17841     17843     17842     17844     17846     17845     17847
     17849     17848     17850     17852     17851     17853     17855     17854     17856
     17858     17857     17859     17861     17860     17862     17864     17863     17865
     17867     17866     17868     17870     17869     17871     17873     17872     17874
     17876     17875     17877     17879     17878     17880     17882     17881     17883
     17885     17884     17886     17888     17887     17889     17891     17890     17892
     17894     17893     17895     17897     17896     17898     17900     17899     17901
     17903     17902     17904     17906     17905     17907     17909     17908     17910
     17912     17911     17913     17915     17914     17916     17918     17917     17919
     17921     17920     17922     17924     17923     17925     17927     17926     17928
     17930     17929     17931     17933     17932     17934     17936     17935     17937
     17939     17938     17940     17942     17941     17943     17945     17944     17946
     17948     17947     17949     17951     17950     17952     17954     17953     17955
     17957     17956     17958     17960     17959     17961     17963     17962     17964
     17966     17965     17967     17969     17968     17970     17972     17971     17973
     17975     17974     17976     17978     17977     17979     17981     17980     17982
     17984     17983     17985     17987     17986     17988     17990     17989     17991
     17993     17992     17994     17996     17995     17997     17999     17998     18000
     18002     18001     18003     18005     18004     18006     18008     18007     18009
     18011     18010     18012     18014     18013     18015     18017     18016     18018
     18020     18019     18021     18023     18022     18024     18026     18025     18027
     18029     18028     18030     18032     18031     18033     18035     18034     18036
     18038     18037     18039     18041     18040     18042     18044     18043     18045
     18047     18046     18048     18050     18049     18051     18053     18052     18054
     18056     18055     18057     18059     18058     18060     18062     18061     18063
     18065     18064     18066     18068     18067     18069     18071     18070     18072
     18074     18073     18075     18077     18076     18078     18080     18079     18081
     18083     18082     18084     18086     18085     18087     18089     18088     18090
     18092     18091     18093     18095     18094     18096     18098     18097     18099
     18101     18100     18102     18104     18103     18105     18107     18106     18108
     18110     18109     18111     18113     18112     18114     18116     18115     18117
     18119     18118     18120     18122     18121     18123     18125     18124     18126
     18128     18127     18129     18131     18130     18132     18134     18133     18135
     18137     18136     18138     18140     18139     18141     18143     18142     18144
     18146     18145     18147     18149     18148     18150     18152     18151     18153
     18155     18154     18156     18158     18157     18159     18161     18160     18162
     18164     18163     18165     18167     18166     18168     18170     18169     18171
     18173     18172     18174     18176     18175     18177     18179     18178     18180
     18182     18181     18183     18185     18184     18186     18188     18187     18189
     18191     18190     18192     18194     18193     18195     18197     18196     18198
     18200     18199     18201     18203     18202     18204     18206     18205     18207
     18209     18208     18210     18212     18211     18213     18215     18214     18216
     18218     18217     18219     18221     18220     18222     18224     18223     18225
     18227     18226     18228     18230     18229     18231     18233     18232     18234
     18236     18235     18237     18239     18238     18240     18242     18241     18243
     18245     18244     18246     18248     18247     18249     18251     18250     18252
     18254     18253     18255     18257     18256     18258     18260     18259     18261
     18263     18262     18264     18266     18265     18267     18269     18268     18270
     18272     18271     18273     18275     18274     18276     18278     18277     18279
     18281     18280     18282     18284     18283     18285     18287     18286     18288
     18290     18289     18291     18293     18292     18294     18296     18295     18297
     18299     18298     18300     18302     18301     18303     18305     18304     18306
     18308     18307     18309     18311     18310     18312     18314     18313     18315
     18317     18316     18318     18320     18319     18321     18323     18322     18324
     18326     18325     18327     18329     18328     18330     18332     18331     18333
     18335     18334     18336     18338     18337     18339     18341     18340     18342
     18344     18343     18345     18347     18346     18348     18350     18349     18351
     18353     18352     18354     18356     18355     18357     18359     18358     18360
     18362     18361     18363     18365     18364     18366     18368     18367     18369
     18371     18370     18372     18374     18373     18375     18377     18376     18378
     18380     18379     18381     18383     18382     18384     18386     18385     18387
     18389     18388     18390     18392     18391     18393     18395     18394     18396
     18398     18397     18399     18401     18400     18402     18404     18403     18405
     18407     18406     18408     18410     18409     18411     18413     18412     18414
     18416     18415     18417     18419     18418     18420     18422     18421     18423
     18425     18424     18426     18428     18427     18429     18431     18430     18432
     18434     18433     18435     18437     18436     18438     18440     18439     18441
     18443     18442     18444     18446     18445     18447     18449     18448     18450
     18452     18451     18453     18455     18454     18456     18458     18457     18459
     18461     18460     18462     18464     18463     18465     18467     18466     18468
     18470     18469     18471     18473     18472     18474     18476     18475     18477
     18479     18478     18480     18482     18481     18483     18485     18484     18486
     18488     18487     18489     18491     18490     18492     18494     18493     18495
     18497     18496     18498     18500     18499     18501     18503     18502     18504
     18506     18505     18507     18509     18508     18510     18512     18511     18513
     18515     18514     18516     18518     18517     18519     18521     18520     18522
     18524     18523     18525     18527     18526     18528     18530     18529     18531
     18533     18532     18534     18536     18535     18537     18539     18538     18540
     18542     18541     18543     18545     18544     18546     18548     18547     18549
     18551     18550     18552     18554     18553     18555     18557     18556     18558
     18560     18559     18561     18563     18562     18564     18566     18565     18567
     18569     18568     18570     18572     18571     18573     18575     18574     18576
     18578     18577     18579     18581     18580     18582     18584     18583     18585
     18587     18586     18588     18590     18589     18591     18593     18592     18594
     18596     18595     18597     18599     18598     18600     18602     18601     18603
     18605     18604     18606     18608     18607     18609     18611     18610     18612
     18614     18613     18615     18617     18616     18618     18620     18619     18621
     18623     18622     18624     18626     18625     18627     18629     18628     18630
     18632     18631     18633     18635     18634     18636     18638     18637     18639
     18641     18640     18642     18644     18643     18645     18647     18646     18648
     18650     18649     18651     18653     18652     18654     18656     18655     18657
     18659     18658     18660     18662     18661     18663     18665     18664     18666
     18668     18667     18669     18671     18670     18672     18674     18673     18675
     18677     18676     18678     18680     18679     18681     18683     18682     18684
     18686     18685     18687     18689     18688     18690     18692     18691     18693
     18695     18694     18696     18698     18697     18699     18701     18700     18702
     18704     18703     18705     18707     18706     18708     18710     18709     18711
     18713     18712     18714     18716     18715     18717     18719     18718     18720
     18722     18721     18723     18725     18724     18726     18728     18727     18729
     18731     18730     18732     18734     18733     18735     18737     18736     18738
     18740     18739     18741     18743     18742     18744     18746     18745     18747
     18749     18748     18750     18752     18751     18753     18755     18754     18756
     18758     18757     18759     18761     18760     18762     18764     18763     18765
     18767     18766     18768     18770     18769     18771     18773     18772     18774
     18776     18775     18777     18779     18778     18780     18782     18781     18783
     18785     18784     18786     18788     18787     18789     18791     18790     18792
     18794     18793     18795     18797     18796     18798     18800     18799     18801
     18803     18802     18804     18806     18805     18807     18809     18808     18810
     18812     18811     18813     18815     18814     18816     18818     18817     18819
     18821     18820     18822     18824     18823     18825     18827     18826     18828
     18830     18829     18831     18833     18832     18834     18836     18835     18837
     18839     18838     18840     18842     18841     18843     18845     18844     18846
     18848     18847     18849     18851     18850     18852     18854     18853     18855
     18857     18856     18858     18860     18859     18861     18863     18862     18864
     18866     18865     18867     18869     18868     18870     18872     18871     18873
     18875     18874     18876     18878     18877     18879     18881     18880     18882
     18884     18883     18885     18887     18886     18888     18890     18889     18891
     18893     18892     18894     18896     18895     18897     18899     18898     18900
     18902     18901     18903     18905     18904     18906     18908     18907     18909
     18911     18910     18912     18914     18913     18915     18917     18916     18918
     18920     18919     18921     18923     18922     18924     18926     18925     18927
     18929     18928     18930     18932     18931     18933     18935     18934     18936
     18938     18937     18939     18941     18940     18942     18944     18943     18945
     18947     18946     18948     18950     18949     18951     18953     18952     18954
     18956     18955     18957     18959     18958     18960     18962     18961     18963
     18965     18964     18966     18968     18967     18969     18971     18970     18972
     18974     18973     18975     18977     18976     18978     18980     18979     18981
     18983     18982     18984     18986     18985     18987     18989     18988     18990
     18992     18991     18993     18995     18994     18996     18998     18997     18999
     19001     19000     19002     19004     19003     19005     19007     19006     19008
     19010     19009     19011     19013     19012     19014     19016     19015     19017
     19019     19018     19020     19022     19021     19023     19025     19024     19026
     19028     19027     19029     19031     19030     19032     19034     19033     19035
     19037     19036     19038     19040     19039     19041     19043     19042     19044
     19046     19045     19047     19049     19048     19050     19052     19051     19053
     19055     19054     19056     19058     19057     19059     19061     19060     19062
     19064     19063     19065     19067     19066     19068     19070     19069     19071
     19073     19072     19074     19076     19075     19077     19079     19078     19080
     19082     19081     19083     19085     19084     19086     19088     19087     19089
     19091     19090     19092     19094     19093     19095     19097     19096     19098
     19100     19099     19101     19103     19102     19104     19106     19105     19107
     19109     19108     19110     19112     19111     19113     19115     19114     19116
     19118     19117     19119     19121     19120     19122     19124     19123     19125
     19127     19126     19128     19130     19129     19131     19133     19132     19134
     19136     19135     19137     19139     19138     19140     19142     19141     19143
     19145     19144     19146     19148     19147     19149     19151     19150     19152
     19154     19153     19155     19157     19156     19158     19160     19159     19161
     19163     19162     19164     19166     19165     19167     19169     19168     19170
     19172     19171     19173     19175     19174     19176     19178     19177     19179
     19181     19180     19182     19184     19183     19185     19187     19186     19188
     19190     19189     19191     19193     19192     19194     19196     19195     19197
     19199     19198     19200     19202     19201     19203     19205     19204     19206
     19208     19207     19209     19211     19210     19212     19214     19213     19215
     19217     19216     19218     19220     19219     19221     19223     19222     19224
     19226     19225     19227     19229     19228     19230     19232     19231     19233
     19235     19234     19236     19238     19237     19239     19241     19240     19242
     19244     19243     19245     19247     19246     19248     19250     19249     19251
     19253     19252     19254     19256     19255     19257     19259     19258     19260
     19262     19261     19263     19265     19264     19266     19268     19267     19269
     19271     19270     19272     19274     19273     19275     19277     19276     19278
     19280     19279     19281     19283     19282     19284     19286     19285     19287
     19289     19288     19290     19292     19291     19293     19295     19294     19296
     19298     19297     19299     19301     19300     19302     19304     19303     19305
     19307     19306     19308     19310     19309     19311     19313     19312     19314
     19316     19315     19317     19319     19318     19320     19322     19321     19323
     19325     19324     19326     19328     19327     19329     19331     19330     19332
     19334     19333     19335     19337     19336     19338     19340     19339     19341
     19343     19342     19344     19346     19345     19347     19349     19348     19350
     19352     19351     19353     19355     19354     19356     19358     19357     19359
     19361     19360     19362     19364     19363     19365     19367     19366     19368
     19370     19369     19371     19373     19372     19374     19376     19375     19377
     19379     19378     19380     19382     19381     19383     19385     19384     19386
     19388     19387     19389     19391     19390     19392     19394     19393     19395
     19397     19396     19398     19400     19399     19401     19403     19402     19404
     19406     19405     19407     19409     19408     19410     19412     19411     19413
     19415     19414     19416     19418     19417     19419     19421     19420     19422
     19424     19423     19425     19427     19426     19428     19430     19429     19431
     19433     19432     19434     19436     19435     19437     19439     19438     19440
     19442     19441     19443     19445     19444     19446     19448     19447     19449
     19451     19450     19452     19454     19453     19455     19457     19456     19458
     19460     19459     19461     19463     19462     19464     19466     19465     19467
     19469     19468     19470     19472     19471     19473     19475     19474     19476
     19478     19477     19479     19481     19480     19482     19484     19483     19485
     19487     19486     19488     19490     19489     19491     19493     19492     19494
     19496     19495     19497     19499     19498     19500     19502     19501     19503
     19505     19504     19506     19508     19507     19509     19511     19510     19512
     19514     19513     19515     19517     19516     19518     19520     19519     19521
     19523     19522     19524     19526     19525     19527     19529     19528     19530
     19532     19531     19533     19535     19534     19536     19538     19537     19539
     19541     19540     19542     19544     19543     19545     19547     19546     19548
     19550     19549     19551     19553     19552     19554     19556     19555     19557
     19559     19558     19560     19562     19561     19563     19565     19564     19566
     19568     19567     19569     19571     19570     19572     19574     19573     19575
     19577     19576     19578     19580     19579     19581     19583     19582     19584
     19586     19585     19587     19589     19588     19590     19592     19591     19593
     19595     19594     19596     19598     19597     19599     19601     19600     19602
     19604     19603     19605     19607     19606     19608     19610     19609     19611
     19613     19612     19614     19616     19615     19617     19619     19618     19620
     19622     19621     19623     19625     19624     19626     19628     19627     19629
     19631     19630     19632     19634     19633     19635     19637     19636     19638
     19640     19639     19641     19643     19642     19644     19646     19645     19647
     19649     19648     19650     19652     19651     19653     19655     19654     19656
     19658     19657     19659     19661     19660     19662     19664     19663     19665
     19667     19666     19668     19670     19669     19671     19673     19672     19674
     19676     19675     19677     19679     19678     19680     19682     19681     19683
     19685     19684     19686     19688     19687     19689     19691     19690     19692
     19694     19693     19695     19697     19696     19698     19700     19699     19701
     19703     19702     19704     19706     19705     19707     19709     19708     19710
     19712     19711     19713     19715     19714     19716     19718     19717     19719
     19721     19720     19722     19724     19723     19725     19727     19726     19728
     19730     19729     19731     19733     19732     19734     19736     19735     19737
     19739     19738     19740     19742     19741     19743     19745     19744     19746
     19748     19747     19749     19751     19750     19752     19754     19753     19755
     19757     19756     19758     19760     19759     19761     19763     19762     19764
     19766     19765     19767     19769     19768     19770     19772     19771     19773
     19775     19774     19776     19778     19777     19779     19781     19780     19782
     19784     19783     19785     19787     19786     19788     19790     19789     19791
     19793     19792     19794     19796     19795     19797     19799     19798     19800
     19802     19801     19803     19805     19804     19806     19808     19807     19809
     19811     19810     19812     19814     19813     19815     19817     19816     19818
     19820     19819     19821     19823     19822     19824     19826     19825     19827
     19829     19828     19830     19832     19831     19833     19835     19834     19836
     19838     19837     19839     19841     19840     19842     19844     19843     19845
     19847     19846     19848     19850     19849     19851     19853     19852     19854
     19856     19855     19857     19859     19858     19860     19862     19861     19863
     19865     19864     19866     19868     19867     19869     19871     19870     19872
     19874     19873     19875     19877     19876     19878     19880     19879     19881
     19883     19882     19884     19886     19885     19887     19889     19888     19890
     19892     19891     19893     19895     19894     19896     19898     19897     19899
     19901     19900     19902     19904     19903     19905     19907     19906     19908
     19910     19909     19911     19913     19912     19914     19916     19915     19917
     19919     19918     19920     19922     19921     19923     19925     19924     19926
     19928     19927     19929     19931     19930     19932     19934     19933     19935
     19937     19936     19938     19940     19939     19941     19943     19942     19944
     19946     19945     19947     19949     19948     19950     19952     19951     19953
     19955     19954     19956     19958     19957     19959     19961     19960     19962
     19964     19963     19965     19967     19966     19968     19970     19969     19971
     19973     19972     19974     19976     19975     19977     19979     19978     19980
     19982     19981     19983     19985     19984     19986     19988     19987     19989
     19991     19990     19992     19994     19993     19995     19997     19996     19998
     20000     19999     20001     20003     20002     20004     20006     20005     20007
     20009     20008     20010     20012     20011     20013     20015     20014     20016
     20018     20017     20019     20021     20020     20022     20024     20023     20025
     20027     20026     20028     20030     20029     20031     20033     20032     20034
     20036     20035     20037     20039     20038     20040     20042     20041     20043
     20045     20044     20046     20048     20047     20049     20051     20050     20052
     20054     20053     20055     20057     20056     20058     20060     20059     20061
     20063     20062     20064     20066     20065     20067     20069     20068     20070
     20072     20071     20073     20075     20074     20076     20078     20077     20079
     20081     20080     20082     20084     20083     20085     20087     20086     20088
     20090     20089     20091     20093     20092     20094     20096     20095     20097
     20099     20098     20100     20102     20101     20103     20105     20104     20106
     20108     20107     20109     20111     20110     20112     20114     20113     20115
     20117     20116     20118     20120     20119     20121     20123     20122     20124
     20126     20125     20127     20129     20128     20130     20132     20131     20133
     20135     20134     20136     20138     20137     20139     20141     20140     20142
     20144     20143     20145     20147     20146     20148     20150     20149     20151
     20153     20152     20154     20156     20155     20157     20159     20158     20160
     20162     20161     20163     20165     20164     20166     20168     20167     20169
     20171     20170     20172     20174     20173     20175     20177     20176     20178
     20180     20179     20181     20183     20182     20184     20186     20185     20187
     20189     20188     20190     20192     20191     20193     20195     20194     20196
     20198     20197     20199     20201     20200     20202     20204     20203     20205
     20207     20206     20208     20210     20209     20211     20213     20212     20214
     20216     20215     20217     20219     20218     20220     20222     20221     20223
     20225     20224     20226     20228     20227     20229     20231     20230     20232
     20234     20233     20235     20237     20236     20238     20240     20239     20241
     20243     20242     20244     20246     20245     20247     20249     20248     20250
     20252     20251     20253     20255     20254     20256     20258     20257     20259
     20261     20260     20262     20264     20263     20265     20267     20266     20268
     20270     20269     20271     20273     20272     20274     20276     20275     20277
     20279     20278     20280     20282     20281     20283     20285     20284     20286
     20288     20287     20289     20291     20290     20292     20294     20293     20295
     20297     20296     20298     20300     20299     20301     20303     20302     20304
     20306     20305     20307     20309     20308     20310     20312     20311     20313
     20315     20314     20316     20318     20317     20319     20321     20320     20322
     20324     20323     20325     20327     20326     20328     20330     20329     20331
     20333     20332     20334     20336     20335     20337     20339     20338     20340
     20342     20341     20343     20345     20344     20346     20348     20347     20349
     20351     20350     20352     20354     20353     20355     20357     20356     20358
     20360     20359     20361     20363     20362     20364     20366     20365     20367
     20369     20368     20370     20372     20371     20373     20375     20374     20376
     20378     20377     20379     20381     20380     20382     20384     20383     20385
     20387     20386     20388     20390     20389     20391     20393     20392     20394
     20396     20395     20397     20399     20398     20400     20402     20401     20403
     20405     20404     20406     20408     20407     20409     20411     20410     20412
     20414     20413     20415     20417     20416     20418     20420     20419     20421
     20423     20422     20424     20426     20425     20427     20429     20428     20430
     20432     20431     20433     20435     20434     20436     20438     20437     20439
     20441     20440     20442     20444     20443     20445     20447     20446     20448
     20450     20449     20451     20453     20452     20454     20456     20455     20457
     20459     20458     20460     20462     20461     20463     20465     20464     20466
     20468     20467     20469     20471     20470     20472     20474     20473     20475
     20477     20476     20478     20480     20479     20481     20483     20482     20484
     20486     20485     20487     20489     20488     20490     20492     20491     20493
     20495     20494     20496     20498     20497     20499     20501     20500     20502
     20504     20503     20505     20507     20506     20508     20510     20509     20511
     20513     20512     20514     20516     20515     20517     20519     20518     20520
     20522     20521     20523     20525     20524     20526     20528     20527     20529
     20531     20530     20532     20534     20533     20535     20537     20536     20538
     20540     20539     20541     20543     20542     20544     20546     20545     20547
     20549     20548     20550     20552     20551     20553     20555     20554     20556
     20558     20557     20559     20561     20560     20562     20564     20563     20565
     20567     20566     20568     20570     20569     20571     20573     20572     20574
     20576     20575     20577     20579     20578     20580     20582     20581     20583
     20585     20584     20586     20588     20587     20589     20591     20590     20592
     20594     20593     20595     20597     20596     20598     20600     20599     20601
     20603     20602     20604     20606     20605     20607     20609     20608     20610
     20612     20611     20613     20615     20614     20616     20618     20617     20619
     20621     20620     20622     20624     20623     20625     20627     20626     20628
     20630     20629     20631     20633     20632     20634     20636     20635     20637
     20639     20638     20640     20642     20641     20643     20645     20644     20646
     20648     20647     20649     20651     20650     20652     20654     20653     20655
     20657     20656     20658     20660     20659     20661     20663     20662     20664
     20666     20665     20667     20669     20668     20670     20672     20671     20673
     20675     20674     20676     20678     20677     20679     20681     20680     20682
     20684     20683     20685     20687     20686     20688     20690     20689     20691
     20693     20692     20694     20696     20695     20697     20699     20698     20700
     20702     20701     20703     20705     20704     20706     20708     20707     20709
     20711     20710     20712     20714     20713     20715     20717     20716     20718
     20720     20719     20721     20723     20722     20724     20726     20725     20727
     20729     20728     20730     20732     20731     20733     20735     20734     20736
     20738     20737     20739     20741     20740     20742     20744     20743     20745
     20747     20746     20748     20750     20749     20751     20753     20752     20754
     20756     20755     20757     20759     20758     20760     20762     20761     20763
     20765     20764     20766     20768     20767     20769     20771     20770     20772
     20774     20773     20775     20777     20776     20778     20780     20779     20781
     20783     20782     20784     20786     20785     20787     20789     20788     20790
     20792     20791     20793     20795     20794     20796     20798     20797     20799
     20801     20800     20802     20804     20803     20805     20807     20806     20808
     20810     20809     20811     20813     20812     20814     20816     20815     20817
     20819     20818     20820     20822     20821     20823     20825     20824     20826
     20828     20827     20829     20831     20830     20832     20834     20833     20835
     20837     20836     20838     20840     20839     20841     20843     20842     20844
     20846     20845     20847     20849     20848     20850     20852     20851     20853
     20855     20854     20856     20858     20857     20859     20861     20860     20862
     20864     20863     20865     20867     20866     20868     20870     20869     20871
     20873     20872     20874     20876     20875     20877     20879     20878     20880
     20882     20881     20883     20885     20884     20886     20888     20887     20889
     20891     20890     20892     20894     20893     20895     20897     20896     20898
     20900     20899     20901     20903     20902     20904     20906     20905     20907
     20909     20908     20910     20912     20911     20913     20915     20914     20916
     20918     20917     20919     20921     20920     20922     20924     20923     20925
     20927     20926     20928     20930     20929     20931     20933     20932     20934
     20936     20935     20937     20939     20938     20940     20942     20941     20943
     20945     20944     20946     20948     20947     20949     20951     20950     20952
     20954     20953     20955     20957     20956     20958     20960     20959     20961
     20963     20962     20964     20966     20965     20967     20969     20968     20970
     20972     20971     20973     20975     20974     20976     20978     20977     20979
     20981     20980     20982     20984     20983     20985     20987     20986     20988
     20990     20989     20991     20993     20992     20994     20996     20995     20997
     20999     20998     21000     21002     21001     21003     21005     21004     21006
     21008     21007     21009     21011     21010     21012     21014     21013     21015
     21017     21016     21018     21020     21019     21021     21023     21022     21024
     21026     21025     21027     21029     21028     21030     21032     21031     21033
     21035     21034     21036     21038     21037     21039     21041     21040     21042
     21044     21043     21045     21047     21046     21048     21050     21049     21051
     21053     21052     21054     21056     21055     21057     21059     21058     21060
     21062     21061     21063     21065     21064     21066     21068     21067     21069
     21071     21070     21072     21074     21073     21075     21077     21076     21078
     21080     21079     21081     21083     21082     21084     21086     21085     21087
     21089     21088     21090     21092     21091     21093     21095     21094     21096
     21098     21097     21099     21101     21100     21102     21104     21103     21105
     21107     21106     21108     21110     21109     21111     21113     21112     21114
     21116     21115     21117     21119     21118     21120     21122     21121     21123
     21125     21124     21126     21128     21127     21129     21131     21130     21132
     21134     21133     21135     21137     21136     21138     21140     21139     21141
     21143     21142     21144     21146     21145     21147     21149     21148     21150
     21152     21151     21153     21155     21154     21156     21158     21157     21159
     21161     21160     21162     21164     21163     21165     21167     21166     21168
     21170     21169     21171     21173     21172     21174     21176     21175     21177
     21179     21178     21180     21182     21181     21183     21185     21184     21186
     21188     21187     21189     21191     21190     21192     21194     21193     21195
     21197     21196     21198     21200     21199     21201     21203     21202     21204
     21206     21205     21207     21209     21208     21210     21212     21211     21213
     21215     21214     21216     21218     21217     21219     21221     21220     21222
     21224     21223     21225     21227     21226     21228     21230     21229     21231
     21233     21232     21234     21236     21235     21237     21239     21238     21240
     21242     21241     21243     21245     21244     21246     21248     21247     21249
     21251     21250     21252     21254     21253     21255     21257     21256     21258
     21260     21259     21261     21263     21262     21264     21266     21265     21267
     21269     21268     21270     21272     21271     21273     21275     21274     21276
     21278     21277     21279     21281     21280     21282     21284     21283     21285
     21287     21286     21288     21290     21289     21291     21293     21292     21294
     21296     21295     21297     21299     21298     21300     21302     21301     21303
     21305     21304     21306     21308     21307     21309     21311     21310     21312
     21314     21313     21315     21317     21316     21318     21320     21319     21321
     21323     21322     21324     21326     21325     21327     21329     21328     21330
     21332     21331     21333     21335     21334     21336     21338     21337     21339
     21341     21340     21342     21344     21343     21345     21347     21346     21348
     21350     21349     21351     21353     21352     21354     21356     21355     21357
     21359     21358     21360     21362     21361     21363     21365     21364     21366
     21368     21367     21369     21371     21370     21372     21374     21373     21375
     21377     21376     21378     21380     21379     21381     21383     21382     21384
     21386     21385     21387     21389     21388     21390     21392     21391     21393
     21395     21394     21396     21398     21397     21399     21401     21400     21402
     21404     21403     21405     21407     21406     21408     21410     21409     21411
     21413     21412     21414     21416     21415     21417     21419     21418     21420
     21422     21421     21423     21425     21424     21426     21428     21427     21429
     21431     21430     21432     21434     21433     21435     21437     21436     21438
     21440     21439     21441     21443     21442     21444     21446     21445     21447
     21449     21448     21450     21452     21451     21453     21455     21454     21456
     21458     21457     21459     21461     21460     21462     21464     21463     21465
     21467     21466     21468     21470     21469     21471     21473     21472     21474
     21476     21475     21477     21479     21478     21480     21482     21481     21483
     21485     21484     21486     21488     21487     21489     21491     21490     21492
     21494     21493     21495     21497     21496     21498     21500     21499     21501
     21503     21502     21504     21506     21505     21507     21509     21508     21510
     21512     21511     21513     21515     21514     21516     21518     21517     21519
     21521     21520     21522     21524     21523     21525     21527     21526     21528
     21530     21529     21531     21533     21532     21534     21536     21535     21537
     21539     21538     21540     21542     21541     21543     21545     21544     21546
     21548     21547     21549     21551     21550     21552     21554     21553     21555
     21557     21556     21558     21560     21559     21561     21563     21562     21564
     21566     21565     21567     21569     21568     21570     21572     21571     21573
     21575     21574     21576     21578     21577     21579     21581     21580     21582
     21584     21583     21585     21587     21586     21588     21590     21589     21591
     21593     21592     21594     21596     21595     21597     21599     21598     21600
     21602     21601     21603     21605     21604     21606     21608     21607     21609
     21611     21610     21612     21614     21613     21615     21617     21616     21618
     21620     21619     21621     21623     21622     21624     21626     21625     21627
     21629     21628     21630     21632     21631     21633     21635     21634     21636
     21638     21637     21639     21641     21640     21642     21644     21643     21645
     21647     21646     21648     21650     21649     21651     21653     21652     21654
     21656     21655     21657     21659     21658     21660     21662     21661     21663
     21665     21664     21666     21668     21667     21669     21671     21670     21672
     21674     21673     21675     21677     21676     21678     21680     21679     21681
     21683     21682     21684     21686     21685     21687     21689     21688     21690
     21692     21691     21693     21695     21694     21696     21698     21697     21699
     21701     21700     21702     21704     21703     21705     21707     21706     21708
     21710     21709     21711     21713     21712     21714     21716     21715     21717
     21719     21718     21720     21722     21721     21723     21725     21724     21726
     21728     21727     21729     21731     21730     21732     21734     21733     21735
     21737     21736     21738     21740     21739     21741     21743     21742     21744
     21746     21745     21747     21749     21748     21750     21752     21751     21753
     21755     21754     21756     21758     21757     21759     21761     21760     21762
     21764     21763     21765     21767     21766     21768     21770     21769     21771
     21773     21772     21774     21776     21775     21777     21779     21778     21780
     21782     21781     21783     21785     21784     21786     21788     21787     21789
     21791     21790     21792     21794     21793     21795     21797     21796     21798
     21800     21799     21801     21803     21802     21804     21806     21805     21807
     21809     21808     21810     21812     21811     21813     21815     21814     21816
     21818     21817     21819     21821     21820     21822     21824     21823     21825
     21827     21826     21828     21830     21829     21831     21833     21832     21834
     21836     21835     21837     21839     21838     21840     21842     21841     21843
     21845     21844     21846     21848     21847     21849     21851     21850     21852
     21854     21853     21855     21857     21856     21858     21860     21859     21861
     21863     21862     21864     21866     21865     21867     21869     21868     21870
     21872     21871     21873     21875     21874     21876     21878     21877     21879
     21881     21880     21882     21884     21883     21885     21887     21886     21888
     21890     21889     21891     21893     21892     21894     21896     21895     21897
     21899     21898     21900     21902     21901     21903     21905     21904     21906
     21908     21907     21909     21911     21910     21912     21914     21913     21915
     21917     21916     21918     21920     21919     21921     21923     21922     21924
     21926     21925     21927     21929     21928     21930     21932     21931     21933
     21935     21934     21936     21938     21937     21939     21941     21940     21942
     21944     21943     21945     21947     21946     21948     21950     21949     21951
     21953     21952     21954     21956     21955     21957     21959     21958     21960
     21962     21961     21963     21965     21964     21966     21968     21967     21969
     21971     21970     21972     21974     21973     21975     21977     21976     21978
     21980     21979     21981     21983     21982     21984     21986     21985     21987
     21989     21988     21990     21992     21991     21993     21995     21994     21996
     21998     21997     21999     22001     22000     22002     22004     22003     22005
     22007     22006     22008     22010     22009     22011     22013     22012     22014
     22016     22015     22017     22019     22018     22020     22022     22021     22023
     22025     22024     22026     22028     22027     22029     22031     22030     22032
     22034     22033     22035     22037     22036     22038     22040     22039     22041
     22043     22042     22044     22046     22045     22047     22049     22048     22050
     22052     22051     22053     22055     22054     22056     22058     22057     22059
     22061     22060     22062     22064     22063     22065     22067     22066     22068
     22070     22069     22071     22073     22072     22074     22076     22075     22077
     22079     22078     22080     22082     22081     22083     22085     22084     22086
     22088     22087     22089     22091     22090     22092     22094     22093     22095
     22097     22096     22098     22100     22099     22101     22103     22102     22104
     22106     22105     22107     22109     22108     22110     22112     22111     22113
     22115     22114     22116     22118     22117     22119     22121     22120     22122
     22124     22123     22125     22127     22126     22128     22130     22129     22131
     22133     22132     22134     22136     22135     22137     22139     22138     22140
     22142     22141     22143     22145     22144     22146     22148     22147     22149
     22151     22150     22152     22154     22153     22155     22157     22156     22158
     22160     22159     22161     22163     22162     22164     22166     22165     22167
     22169     22168     22170     22172     22171     22173     22175     22174     22176
     22178     22177     22179     22181     22180     22182     22184     22183     22185
     22187     22186     22188     22190     22189     22191     22193     22192     22194
     22196     22195     22197     22199     22198     22200     22202     22201     22203
     22205     22204     22206     22208     22207     22209     22211     22210     22212
     22214     22213     22215     22217     22216     22218     22220     22219     22221
     22223     22222     22224     22226     22225     22227     22229     22228     22230
     22232     22231     22233     22235     22234     22236     22238     22237     22239
     22241     22240     22242     22244     22243     22245     22247     22246     22248
     22250     22249     22251     22253     22252     22254     22256     22255     22257
     22259     22258     22260     22262     22261     22263     22265     22264     22266
     22268     22267     22269     22271     22270     22272     22274     22273     22275
     22277     22276     22278     22280     22279     22281     22283     22282     22284
     22286     22285     22287     22289     22288     22290     22292     22291     22293
     22295     22294     22296     22298     22297     22299     22301     22300     22302
     22304     22303     22305     22307     22306     22308     22310     22309     22311
     22313     22312     22314     22316     22315     22317     22319     22318     22320
     22322     22321     22323     22325     22324     22326     22328     22327     22329
     22331     22330     22332     22334     22333     22335     22337     22336     22338
     22340     22339     22341     22343     22342     22344     22346     22345     22347
     22349     22348     22350     22352     22351     22353     22355     22354     22356
     22358     22357     22359     22361     22360     22362     22364     22363     22365
     22367     22366     22368     22370     22369     22371     22373     22372     22374
     22376     22375     22377     22379     22378     22380     22382     22381     22383
     22385     22384     22386     22388     22387     22389     22391     22390     22392
     22394     22393     22395     22397     22396     22398     22400     22399     22401
     22403     22402     22404     22406     22405     22407     22409     22408     22410
     22412     22411     22413     22415     22414     22416     22418     22417     22419
     22421     22420     22422     22424     22423     22425     22427     22426     22428
     22430     22429     22431     22433     22432     22434     22436     22435     22437
     22439     22438     22440     22442     22441     22443     22445     22444     22446
     22448     22447     22449     22451     22450     22452     22454     22453     22455
     22457     22456     22458     22460     22459     22461     22463     22462     22464
     22466     22465     22467     22469     22468     22470     22472     22471     22473
     22475     22474     22476     22478     22477     22479     22481     22480     22482
     22484     22483     22485     22487     22486     22488     22490     22489     22491
     22493     22492     22494     22496     22495     22497     22499     22498     22500
     22502     22501     22503     22505     22504     22506     22508     22507     22509
     22511     22510     22512     22514     22513     22515     22517     22516     22518
     22520     22519     22521     22523     22522     22524     22526     22525     22527
     22529     22528     22530     22532     22531     22533     22535     22534     22536
     22538     22537     22539     22541     22540     22542     22544     22543     22545
     22547     22546     22548     22550     22549     22551     22553     22552     22554
     22556     22555     22557     22559     22558     22560     22562     22561     22563
     22565     22564     22566     22568     22567     22569     22571     22570     22572
     22574     22573     22575     22577     22576     22578     22580     22579     22581
     22583     22582     22584     22586     22585     22587     22589     22588     22590
     22592     22591     22593     22595     22594     22596     22598     22597     22599
     22601     22600     22602     22604     22603     22605     22607     22606     22608
     22610     22609     22611     22613     22612     22614     22616     22615     22617
     22619     22618     22620     22622     22621     22623     22625     22624     22626
     22628     22627     22629     22631     22630     22632     22634     22633     22635
     22637     22636     22638     22640     22639     22641     22643     22642     22644
     22646     22645     22647     22649     22648     22650     22652     22651     22653
     22655     22654     22656     22658     22657     22659     22661     22660     22662
     22664     22663     22665     22667     22666     22668     22670     22669     22671
     22673     22672     22674     22676     22675     22677     22679     22678     22680
     22682     22681     22683     22685     22684     22686     22688     22687     22689
     22691     22690     22692     22694     22693     22695     22697     22696     22698
     22700     22699     22701     22703     22702     22704     22706     22705     22707
     22709     22708     22710     22712     22711     22713     22715     22714     22716
     22718     22717     22719     22721     22720     22722     22724     22723     22725
     22727     22726     22728     22730     22729     22731     22733     22732     22734
     22736     22735     22737     22739     22738     22740     22742     22741     22743
     22745     22744     22746     22748     22747     22749     22751     22750     22752
     22754     22753     22755     22757     22756     22758     22760     22759     22761
     22763     22762     22764     22766     22765     22767     22769     22768     22770
     22772     22771     22773     22775     22774     22776     22778     22777     22779
     22781     22780     22782     22784     22783     22785     22787     22786     22788
     22790     22789     22791     22793     22792     22794     22796     22795     22797
     22799     22798     22800     22802     22801     22803     22805     22804     22806
     22808     22807     22809     22811     22810     22812     22814     22813     22815
     22817     22816     22818     22820     22819     22821     22823     22822     22824
     22826     22825     22827     22829     22828     22830     22832     22831     22833
     22835     22834     22836     22838     22837     22839     22841     22840     22842
     22844     22843     22845     22847     22846     22848     22850     22849     22851
     22853     22852     22854     22856     22855     22857     22859     22858     22860
     22862     22861     22863     22865     22864     22866     22868     22867     22869
     22871     22870     22872     22874     22873     22875     22877     22876     22878
     22880     22879     22881     22883     22882     22884     22886     22885     22887
     22889     22888     22890     22892     22891     22893     22895     22894     22896
     22898     22897     22899     22901     22900     22902     22904     22903     22905
     22907     22906     22908     22910     22909     22911     22913     22912     22914
     22916     22915     22917     22919     22918     22920     22922     22921     22923
     22925     22924     22926     22928     22927     22929     22931     22930     22932
     22934     22933     22935     22937     22936     22938     22940     22939     22941
     22943     22942     22944     22946     22945     22947     22949     22948     22950
     22952     22951     22953     22955     22954     22956     22958     22957     22959
     22961     22960     22962     22964     22963     22965     22967     22966     22968
     22970     22969     22971     22973     22972     22974     22976     22975     22977
     22979     22978     22980     22982     22981     22983     22985     22984     22986
     22988     22987     22989     22991     22990     22992     22994     22993     22995
     22997     22996     22998     23000     22999     23001     23003     23002     23004
     23006     23005     23007     23009     23008     23010     23012     23011     23013
     23015     23014     23016     23018     23017     23019     23021     23020     23022
     23024     23023     23025     23027     23026     23028     23030     23029     23031
     23033     23032     23034     23036     23035     23037     23039     23038     23040
     23042     23041     23043     23045     23044     23046     23048     23047     23049
     23051     23050     23052     23054     23053     23055     23057     23056     23058
     23060     23059     23061     23063     23062     23064     23066     23065     23067
     23069     23068     23070     23072     23071     23073     23075     23074     23076
     23078     23077     23079     23081     23080     23082     23084     23083     23085
     23087     23086     23088     23090     23089     23091     23093     23092     23094
     23096     23095     23097     23099     23098     23100     23102     23101     23103
     23105     23104     23106     23108     23107     23109     23111     23110     23112
     23114     23113     23115     23117     23116     23118     23120     23119     23121
     23123     23122     23124     23126     23125     23127     23129     23128     23130
     23132     23131     23133     23135     23134     23136     23138     23137     23139
     23141     23140     23142     23144     23143     23145     23147     23146     23148
     23150     23149     23151     23153     23152     23154     23156     23155     23157
     23159     23158     23160     23162     23161     23163     23165     23164     23166
     23168     23167     23169     23171     23170     23172     23174     23173     23175
     23177     23176     23178     23180     23179     23181     23183     23182     23184
     23186     23185     23187     23189     23188     23190     23192     23191     23193
     23195     23194     23196     23198     23197     23199     23201     23200     23202
     23204     23203     23205     23207     23206     23208     23210     23209     23211
     23213     23212     23214     23216     23215     23217     23219     23218     23220
     23222     23221     23223     23225     23224     23226     23228     23227     23229
     23231     23230     23232     23234     23233     23235     23237     23236     23238
     23240     23239     23241     23243     23242     23244     23246     23245     23247
     23249     23248     23250     23252     23251     23253     23255     23254     23256
     23258     23257     23259     23261     23260     23262     23264     23263     23265
     23267     23266     23268     23270     23269     23271     23273     23272     23274
     23276     23275     23277     23279     23278     23280     23282     23281     23283
     23285     23284     23286     23288     23287     23289     23291     23290     23292
     23294     23293     23295     23297     23296     23298     23300     23299     23301
     23303     23302     23304     23306     23305     23307     23309     23308     23310
     23312     23311     23313     23315     23314     23316     23318     23317     23319
     23321     23320     23322     23324     23323     23325     23327     23326     23328
     23330     23329     23331     23333     23332     23334     23336     23335     23337
     23339     23338     23340     23342     23341     23343     23345     23344     23346
     23348     23347     23349     23351     23350     23352     23354     23353     23355
     23357     23356     23358     23360     23359     23361     23363     23362     23364
     23366     23365     23367     23369     23368     23370     23372     23371     23373
     23375     23374     23376     23378     23377     23379     23381     23380     23382
     23384     23383     23385     23387     23386     23388     23390     23389     23391
     23393     23392     23394     23396     23395     23397     23399     23398     23400
     23402     23401     23403     23405     23404     23406     23408     23407     23409
     23411     23410     23412     23414     23413     23415     23417     23416     23418
     23420     23419     23421     23423     23422     23424     23426     23425     23427
     23429     23428     23430     23432     23431     23433     23435     23434     23436
     23438     23437     23439     23441     23440     23442     23444     23443     23445
     23447     23446     23448     23450     23449     23451     23453     23452     23454
     23456     23455     23457     23459     23458     23460     23462     23461     23463
     23465     23464     23466     23468     23467     23469     23471     23470     23472
     23474     23473     23475     23477     23476     23478     23480     23479     23481
     23483     23482     23484     23486     23485     23487     23489     23488     23490
     23492     23491     23493     23495     23494     23496     23498     23497     23499
     23501     23500     23502     23504     23503     23505     23507     23506     23508
     23510     23509     23511     23513     23512     23514     23516     23515     23517
     23519     23518     23520     23522     23521     23523     23525     23524     23526
     23528     23527     23529     23531     23530     23532     23534     23533     23535
     23537     23536     23538     23540     23539     23541     23543     23542     23544
     23546     23545     23547     23549     23548     23550     23552     23551     23553
     23555     23554     23556     23558     23557     23559     23561     23560     23562
     23564     23563     23565     23567     23566     23568     23570     23569     23571
     23573     23572     23574     23576     23575     23577     23579     23578     23580
     23582     23581     23583     23585     23584     23586     23588     23587     23589
     23591     23590     23592     23594     23593     23595     23597     23596     23598
     23600     23599     23601     23603     23602     23604     23606     23605     23607
     23609     23608     23610     23612     23611     23613     23615     23614     23616
     23618     23617     23619     23621     23620     23622     23624     23623     23625
     23627     23626     23628     23630     23629     23631     23633     23632     23634
     23636     23635     23637     23639     23638     23640     23642     23641     23643
     23645     23644     23646     23648     23647     23649     23651     23650     23652
     23654     23653     23655     23657     23656     23658     23660     23659     23661
     23663     23662     23664     23666     23665     23667     23669     23668     23670
     23672     23671     23673     23675     23674     23676     23678     23677     23679
     23681     23680     23682     23684     23683     23685     23687     23686     23688
     23690     23689     23691     23693     23692     23694     23696     23695     23697
     23699     23698     23700     23702     23701     23703     23705     23704     23706
     23708     23707     23709     23711     23710     23712     23714     23713     23715
     23717     23716     23718     23720     23719     23721     23723     23722     23724
     23726     23725     23727     23729     23728     23730     23732     23731     23733
     23735     23734     23736     23738     23737     23739     23741     23740     23742
     23744     23743     23745     23747     23746     23748     23750     23749     23751
     23753     23752     23754     23756     23755     23757     23759     23758     23760
     23762     23761     23763     23765     23764     23766     23768     23767     23769
     23771     23770     23772     23774     23773     23775     23777     23776     23778
     23780     23779     23781     23783     23782     23784     23786     23785     23787
     23789     23788     23790     23792     23791     23793     23795     23794     23796
     23798     23797     23799     23801     23800     23802     23804     23803     23805
     23807     23806     23808     23810     23809     23811     23813     23812     23814
     23816     23815     23817     23819     23818     23820     23822     23821     23823
     23825     23824     23826     23828     23827     23829     23831     23830     23832
     23834     23833     23835     23837     23836     23838     23840     23839     23841
     23843     23842     23844     23846     23845     23847     23849     23848     23850
     23852     23851     23853     23855     23854     23856     23858     23857     23859
     23861     23860     23862     23864     23863     23865     23867     23866     23868
     23870     23869     23871     23873     23872     23874     23876     23875     23877
     23879     23878     23880     23882     23881     23883     23885     23884     23886
     23888     23887     23889     23891     23890     23892     23894     23893     23895
     23897     23896     23898     23900     23899     23901     23903     23902     23904
     23906     23905     23907     23909     23908     23910     23912     23911     23913
     23915     23914     23916     23918     23917     23919     23921     23920     23922
     23924     23923     23925     23927     23926     23928     23930     23929     23931
     23933     23932     23934     23936     23935     23937     23939     23938     23940
     23942     23941     23943     23945     23944     23946     23948     23947     23949
     23951     23950     23952     23954     23953     23955     23957     23956     23958
     23960     23959     23961     23963     23962     23964     23966     23965     23967
     23969     23968     23970     23972     23971     23973     23975     23974     23976
     23978     23977     23979     23981     23980     23982     23984     23983     23985
     23987     23986     23988     23990     23989     23991     23993     23992     23994
     23996     23995     23997     23999     23998     24000     24002     24001     24003
     24005     24004     24006     24008     24007     24009     24011     24010     24012
     24014     24013     24015     24017     24016     24018     24020     24019     24021
     24023     24022     24024     24026     24025     24027     24029     24028     24030
     24032     24031     24033     24035     24034     24036     24038     24037     24039
     24041     24040     24042     24044     24043     24045     24047     24046     24048
     24050     24049     24051     24053     24052     24054     24056     24055     24057
     24059     24058     24060     24062     24061     24063     24065     24064     24066
     24068     24067     24069     24071     24070     24072     24074     24073     24075
     24077     24076     24078     24080     24079     24081     24083     24082     24084
     24086     24085     24087     24089     24088     24090     24092     24091     24093
     24095     24094     24096     24098     24097     24099     24101     24100     24102
     24104     24103     24105     24107     24106     24108     24110     24109     24111
     24113     24112     24114     24116     24115     24117     24119     24118     24120
     24122     24121     24123     24125     24124     24126     24128     24127     24129
     24131     24130     24132     24134     24133     24135     24137     24136     24138
     24140     24139     24141     24143     24142     24144     24146     24145     24147
     24149     24148     24150     24152     24151     24153     24155     24154     24156
     24158     24157     24159     24161     24160     24162     24164     24163     24165
     24167     24166     24168     24170     24169     24171     24173     24172     24174
     24176     24175     24177     24179     24178     24180     24182     24181     24183
     24185     24184     24186     24188     24187     24189     24191     24190     24192
     24194     24193     24195     24197     24196     24198     24200     24199     24201
     24203     24202     24204     24206     24205     24207     24209     24208     24210
     24212     24211     24213     24215     24214     24216     24218     24217     24219
     24221     24220     24222     24224     24223     24225     24227     24226     24228
     24230     24229     24231     24233     24232     24234     24236     24235     24237
     24239     24238     24240     24242     24241     24243     24245     24244     24246
     24248     24247     24249     24251     24250     24252     24254     24253     24255
     24257     24256     24258     24260     24259     24261     24263     24262     24264
     24266     24265     24267     24269     24268     24270     24272     24271     24273
     24275     24274     24276     24278     24277     24279     24281     24280     24282
     24284     24283     24285     24287     24286     24288     24290     24289     24291
     24293     24292     24294     24296     24295     24297     24299     24298     24300
     24302     24301     24303     24305     24304     24306     24308     24307     24309
     24311     24310     24312     24314     24313     24315     24317     24316     24318
     24320     24319     24321     24323     24322     24324     24326     24325     24327
     24329     24328     24330     24332     24331     24333     24335     24334     24336
     24338     24337     24339     24341     24340     24342     24344     24343     24345
     24347     24346     24348     24350     24349     24351     24353     24352     24354
     24356     24355     24357     24359     24358     24360     24362     24361     24363
     24365     24364     24366     24368     24367     24369     24371     24370     24372
     24374     24373     24375     24377     24376     24378     24380     24379     24381
     24383     24382     24384     24386     24385     24387     24389     24388     24390
     24392     24391     24393     24395     24394     24396     24398     24397     24399
     24401     24400     24402     24404     24403     24405     24407     24406     24408
     24410     24409     24411     24413     24412     24414     24416     24415     24417
     24419     24418     24420     24422     24421     24423     24425     24424     24426
     24428     24427     24429     24431     24430     24432     24434     24433     24435
     24437     24436     24438     24440     24439     24441     24443     24442     24444
     24446     24445     24447     24449     24448     24450     24452     24451     24453
     24455     24454     24456     24458     24457     24459     24461     24460     24462
     24464     24463     24465     24467     24466     24468     24470     24469     24471
     24473     24472     24474     24476     24475     24477     24479     24478     24480
     24482     24481     24483     24485     24484     24486     24488     24487     24489
     24491     24490     24492     24494     24493     24495     24497     24496     24498
     24500     24499     24501     24503     24502     24504     24506     24505     24507
     24509     24508     24510     24512     24511     24513     24515     24514     24516
     24518     24517     24519     24521     24520     24522     24524     24523     24525
     24527     24526     24528     24530     24529     24531     24533     24532     24534
     24536     24535     24537     24539     24538     24540     24542     24541     24543
     24545     24544     24546     24548     24547     24549     24551     24550     24552
     24554     24553     24555     24557     24556     24558     24560     24559     24561
     24563     24562     24564     24566     24565     24567     24569     24568     24570
     24572     24571     24573     24575     24574     24576     24578     24577     24579
     24581     24580     24582     24584     24583     24585     24587     24586     24588
     24590     24589     24591     24593     24592     24594     24596     24595     24597
     24599     24598     24600     24602     24601     24603     24605     24604     24606
     24608     24607     24609     24611     24610     24612     24614     24613     24615
     24617     24616     24618     24620     24619     24621     24623     24622     24624
     24626     24625     24627     24629     24628     24630     24632     24631     24633
     24635     24634     24636     24638     24637     24639     24641     24640     24642
     24644     24643     24645     24647     24646     24648     24650     24649     24651
     24653     24652     24654     24656     24655     24657     24659     24658     24660
     24662     24661     24663     24665     24664     24666     24668     24667     24669
     24671     24670     24672     24674     24673     24675     24677     24676     24678
     24680     24679     24681     24683     24682     24684     24686     24685     24687
     24689     24688     24690     24692     24691     24693     24695     24694     24696
     24698     24697     24699     24701     24700     24702     24704     24703     24705
     24707     24706     24708     24710     24709     24711     24713     24712     24714
     24716     24715     24717     24719     24718     24720     24722     24721     24723
     24725     24724     24726     24728     24727     24729     24731     24730     24732
     24734     24733     24735     24737     24736     24738     24740     24739     24741
     24743     24742     24744     24746     24745     24747     24749     24748     24750
     24752     24751     24753     24755     24754     24756     24758     24757     24759
     24761     24760     24762     24764     24763     24765     24767     24766     24768
     24770     24769     24771     24773     24772     24774     24776     24775     24777
     24779     24778     24780     24782     24781     24783     24785     24784     24786
     24788     24787     24789     24791     24790     24792     24794     24793     24795
     24797     24796     24798     24800     24799     24801     24803     24802     24804
     24806     24805     24807     24809     24808     24810     24812     24811     24813
     24815     24814     24816     24818     24817     24819     24821     24820     24822
     24824     24823     24825     24827     24826     24828     24830     24829     24831
     24833     24832     24834     24836     24835     24837     24839     24838     24840
     24842     24841     24843     24845     24844     24846     24848     24847     24849
     24851     24850     24852     24854     24853     24855     24857     24856     24858
     24860     24859     24861     24863     24862     24864     24866     24865     24867
     24869     24868     24870     24872     24871     24873     24875     24874     24876
     24878     24877     24879     24881     24880     24882     24884     24883     24885
     24887     24886     24888     24890     24889     24891     24893     24892     24894
     24896     24895     24897     24899     24898     24900     24902     24901     24903
     24905     24904     24906     24908     24907     24909     24911     24910     24912
     24914     24913     24915     24917     24916     24918     24920     24919     24921
     24923     24922     24924     24926     24925     24927     24929     24928     24930
     24932     24931     24933     24935     24934     24936     24938     24937     24939
     24941     24940     24942     24944     24943     24945     24947     24946     24948
     24950     24949     24951     24953     24952     24954     24956     24955     24957
     24959     24958     24960     24962     24961     24963     24965     24964     24966
     24968     24967     24969     24971     24970     24972     24974     24973     24975
     24977     24976     24978     24980     24979     24981     24983     24982     24984
     24986     24985     24987     24989     24988     24990     24992     24991     24993
     24995     24994     24996     24998     24997     24999     25001     25000     25002
     25004     25003     25005     25007     25006     25008     25010     25009     25011
     25013     25012     25014     25016     25015     25017     25019     25018     25020
     25022     25021     25023     25025     25024     25026     25028     25027     25029
     25031     25030     25032     25034     25033     25035     25037     25036     25038
     25040     25039     25041     25043     25042     25044     25046     25045     25047
     25049     25048     25050     25052     25051     25053     25055     25054     25056
     25058     25057     25059     25061     25060     25062     25064     25063     25065
     25067     25066     25068     25070     25069     25071     25073     25072     25074
     25076     25075     25077     25079     25078     25080     25082     25081     25083
     25085     25084     25086     25088     25087     25089     25091     25090     25092
     25094     25093     25095     25097     25096     25098     25100     25099     25101
     25103     25102     25104     25106     25105     25107     25109     25108     25110
     25112     25111     25113     25115     25114     25116     25118     25117     25119
     25121     25120     25122     25124     25123     25125     25127     25126     25128
     25130     25129     25131     25133     25132     25134     25136     25135     25137
     25139     25138     25140     25142     25141     25143     25145     25144     25146
     25148     25147     25149     25151     25150     25152     25154     25153     25155
     25157     25156     25158     25160     25159     25161     25163     25162     25164
     25166     25165     25167     25169     25168     25170     25172     25171     25173
     25175     25174     25176     25178     25177     25179     25181     25180     25182
     25184     25183     25185     25187     25186     25188     25190     25189     25191
     25193     25192     25194     25196     25195     25197     25199     25198     25200
     25202     25201     25203     25205     25204     25206     25208     25207     25209
     25211     25210     25212     25214     25213     25215     25217     25216     25218
     25220     25219     25221     25223     25222     25224     25226     25225     25227
     25229     25228     25230     25232     25231     25233     25235     25234     25236
     25238     25237     25239     25241     25240     25242     25244     25243     25245
     25247     25246     25248     25250     25249     25251     25253     25252     25254
     25256     25255     25257     25259     25258     25260     25262     25261     25263
     25265     25264     25266     25268     25267     25269     25271     25270     25272
     25274     25273     25275     25277     25276     25278     25280     25279     25281
     25283     25282     25284     25286     25285     25287     25289     25288     25290
     25292     25291     25293     25295     25294     25296     25298     25297     25299
     25301     25300     25302     25304     25303     25305     25307     25306     25308
     25310     25309     25311     25313     25312     25314     25316     25315     25317
     25319     25318     25320     25322     25321     25323     25325     25324     25326
     25328     25327     25329     25331     25330     25332     25334     25333     25335
     25337     25336     25338     25340     25339     25341     25343     25342     25344
     25346     25345     25347     25349     25348     25350     25352     25351     25353
     25355     25354     25356     25358     25357     25359     25361     25360     25362
     25364     25363     25365     25367     25366     25368     25370     25369     25371
     25373     25372     25374     25376     25375     25377     25379     25378     25380
     25382     25381     25383     25385     25384     25386     25388     25387     25389
     25391     25390     25392     25394     25393     25395     25397     25396     25398
     25400     25399     25401     25403     25402     25404     25406     25405     25407
     25409     25408     25410     25412     25411     25413     25415     25414     25416
     25418     25417     25419     25421     25420     25422     25424     25423     25425
     25427     25426     25428     25430     25429     25431     25433     25432     25434
     25436     25435     25437     25439     25438     25440     25442     25441     25443
     25445     25444     25446     25448     25447     25449     25451     25450     25452
     25454     25453     25455     25457     25456     25458     25460     25459     25461
     25463     25462     25464     25466     25465     25467     25469     25468     25470
     25472     25471     25473     25475     25474     25476     25478     25477     25479
     25481     25480     25482     25484     25483     25485     25487     25486     25488
     25490     25489     25491     25493     25492     25494     25496     25495     25497
     25499     25498     25500     25502     25501     25503     25505     25504     25506
     25508     25507     25509     25511     25510     25512     25514     25513     25515
     25517     25516     25518     25520     25519     25521     25523     25522     25524
     25526     25525     25527     25529     25528     25530     25532     25531     25533
     25535     25534     25536     25538     25537     25539     25541     25540     25542
     25544     25543     25545     25547     25546     25548     25550     25549     25551
     25553     25552     25554     25556     25555     25557     25559     25558     25560
     25562     25561     25563     25565     25564     25566     25568     25567     25569
     25571     25570     25572     25574     25573     25575     25577     25576     25578
     25580     25579     25581     25583     25582     25584     25586     25585     25587
     25589     25588     25590     25592     25591     25593     25595     25594     25596
     25598     25597     25599     25601     25600     25602     25604     25603     25605
     25607     25606     25608     25610     25609     25611     25613     25612     25614
     25616     25615     25617     25619     25618     25620     25622     25621     25623
     25625     25624     25626     25628     25627     25629     25631     25630     25632
     25634     25633     25635     25637     25636     25638     25640     25639     25641
     25643     25642     25644     25646     25645     25647     25649     25648     25650
     25652     25651     25653     25655     25654     25656     25658     25657     25659
     25661     25660     25662     25664     25663     25665     25667     25666     25668
     25670     25669     25671     25673     25672     25674     25676     25675     25677
     25679     25678     25680     25682     25681     25683     25685     25684     25686
     25688     25687     25689     25691     25690     25692     25694     25693     25695
     25697     25696     25698     25700     25699     25701     25703     25702     25704
     25706     25705     25707     25709     25708     25710     25712     25711     25713
     25715     25714     25716     25718     25717     25719     25721     25720     25722
     25724     25723     25725     25727     25726     25728     25730     25729     25731
     25733     25732     25734     25736     25735     25737     25739     25738     25740
     25742     25741     25743     25745     25744     25746     25748     25747     25749
     25751     25750     25752     25754     25753     25755     25757     25756     25758
     25760     25759     25761     25763     25762     25764     25766     25765     25767
     25769     25768     25770     25772     25771     25773     25775     25774     25776
     25778     25777     25779     25781     25780     25782     25784     25783     25785
     25787     25786     25788     25790     25789     25791     25793     25792     25794
     25796     25795     25797     25799     25798     25800     25802     25801     25803
     25805     25804     25806     25808     25807     25809     25811     25810     25812
     25814     25813     25815     25817     25816     25818     25820     25819     25821
     25823     25822     25824     25826     25825     25827     25829     25828     25830
     25832     25831     25833     25835     25834     25836     25838     25837     25839
     25841     25840     25842     25844     25843     25845     25847     25846     25848
     25850     25849     25851     25853     25852     25854     25856     25855     25857
     25859     25858     25860     25862     25861     25863     25865     25864     25866
     25868     25867     25869     25871     25870     25872     25874     25873     25875
     25877     25876     25878     25880     25879     25881     25883     25882     25884
     25886     25885     25887     25889     25888     25890     25892     25891     25893
     25895     25894     25896     25898     25897     25899     25901     25900     25902
     25904     25903     25905     25907     25906     25908     25910     25909     25911
     25913     25912     25914     25916     25915     25917     25919     25918     25920
     25922     25921     25923     25925     25924     25926     25928     25927     25929
     25931     25930     25932     25934     25933     25935     25937     25936     25938
     25940     25939     25941     25943     25942     25944     25946     25945     25947
     25949     25948     25950     25952     25951     25953     25955     25954     25956
     25958     25957     25959     25961     25960     25962     25964     25963     25965
     25967     25966     25968     25970     25969     25971     25973     25972     25974
     25976     25975     25977     25979     25978     25980     25982     25981     25983
     25985     25984     25986     25988     25987     25989     25991     25990     25992
     25994     25993     25995     25997     25996     25998     26000     25999     26001
     26003     26002     26004     26006     26005     26007     26009     26008     26010
     26012     26011     26013     26015     26014     26016     26018     26017     26019
     26021     26020     26022     26024     26023     26025     26027     26026     26028
     26030     26029     26031     26033     26032     26034     26036     26035     26037
     26039     26038     26040     26042     26041     26043     26045     26044     26046
     26048     26047     26049     26051     26050     26052     26054     26053     26055
     26057     26056     26058     26060     26059     26061     26063     26062     26064
     26066     26065     26067     26069     26068     26070     26072     26071     26073
     26075     26074     26076     26078     26077     26079     26081     26080     26082
     26084     26083     26085     26087     26086     26088     26090     26089     26091
     26093     26092     26094     26096     26095     26097     26099     26098     26100
     26102     26101     26103     26105     26104     26106     26108     26107     26109
     26111     26110     26112     26114     26113     26115     26117     26116     26118
     26120     26119     26121     26123     26122     26124     26126     26125     26127
     26129     26128     26130     26132     26131     26133     26135     26134     26136
     26138     26137     26139     26141     26140     26142     26144     26143     26145
     26147     26146     26148     26150     26149     26151     26153     26152     26154
     26156     26155     26157     26159     26158     26160     26162     26161     26163
     26165     26164     26166     26168     26167     26169     26171     26170     26172
     26174     26173     26175     26177     26176     26178     26180     26179     26181
     26183     26182     26184     26186     26185     26187     26189     26188     26190
     26192     26191     26193     26195     26194     26196     26198     26197     26199
     26201     26200     26202     26204     26203     26205     26207     26206     26208
     26210     26209     26211     26213     26212     26214     26216     26215     26217
     26219     26218     26220     26222     26221     26223     26225     26224     26226
     26228     26227     26229     26231     26230     26232     26234     26233     26235
     26237     26236     26238     26240     26239     26241     26243     26242     26244
     26246     26245     26247     26249     26248     26250     26252     26251     26253
     26255     26254     26256     26258     26257     26259     26261     26260     26262
     26264     26263     26265     26267     26266     26268     26270     26269     26271
     26273     26272     26274     26276     26275     26277     26279     26278     26280
     26282     26281     26283     26285     26284     26286     26288     26287     26289
     26291     26290     26292     26294     26293     26295     26297     26296     26298
     26300     26299     26301     26303     26302     26304     26306     26305     26307
     26309     26308     26310     26312     26311     26313     26315     26314     26316
     26318     26317     26319     26321     26320     26322     26324     26323     26325
     26327     26326     26328     26330     26329     26331     26333     26332     26334
     26336     26335     26337     26339     26338     26340     26342     26341     26343
     26345     26344     26346     26348     26347     26349     26351     26350     26352
     26354     26353     26355     26357     26356     26358     26360     26359     26361
     26363     26362     26364     26366     26365     26367     26369     26368     26370
     26372     26371     26373     26375     26374     26376     26378     26377     26379
     26381     26380     26382     26384     26383     26385     26387     26386     26388
     26390     26389     26391     26393     26392     26394     26396     26395     26397
     26399     26398     26400     26402     26401     26403     26405     26404     26406
     26408     26407     26409     26411     26410     26412     26414     26413     26415
     26417     26416     26418     26420     26419     26421     26423     26422     26424
     26426     26425     26427     26429     26428     26430     26432     26431     26433
     26435     26434     26436     26438     26437     26439     26441     26440     26442
     26444     26443     26445     26447     26446     26448     26450     26449     26451
     26453     26452     26454     26456     26455     26457     26459     26458     26460
     26462     26461     26463     26465     26464     26466     26468     26467     26469
     26471     26470     26472     26474     26473     26475     26477     26476     26478
     26480     26479     26481     26483     26482     26484     26486     26485     26487
     26489     26488     26490     26492     26491     26493     26495     26494     26496
     26498     26497     26499     26501     26500     26502     26504     26503     26505
     26507     26506     26508     26510     26509     26511     26513     26512     26514
     26516     26515     26517     26519     26518     26520     26522     26521     26523
     26525     26524     26526     26528     26527     26529     26531     26530     26532
     26534     26533     26535     26537     26536     26538     26540     26539     26541
     26543     26542     26544     26546     26545     26547     26549     26548     26550
     26552     26551     26553     26555     26554     26556     26558     26557     26559
     26561     26560     26562     26564     26563     26565     26567     26566     26568
     26570     26569     26571     26573     26572     26574     26576     26575     26577
     26579     26578     26580     26582     26581     26583     26585     26584     26586
     26588     26587     26589     26591     26590     26592     26594     26593     26595
     26597     26596     26598     26600     26599     26601     26603     26602     26604
     26606     26605     26607     26609     26608     26610     26612     26611     26613
     26615     26614     26616     26618     26617     26619     26621     26620     26622
     26624     26623     26625     26627     26626     26628     26630     26629     26631
     26633     26632     26634     26636     26635     26637     26639     26638     26640
     26642     26641     26643     26645     26644     26646     26648     26647     26649
     26651     26650     26652     26654     26653     26655     26657     26656     26658
     26660     26659     26661     26663     26662     26664     26666     26665     26667
     26669     26668     26670     26672     26671     26673     26675     26674     26676
     26678     26677     26679     26681     26680     26682     26684     26683     26685
     26687     26686     26688     26690     26689     26691     26693     26692     26694
     26696     26695     26697     26699     26698     26700     26702     26701     26703
     26705     26704     26706     26708     26707     26709     26711     26710     26712
     26714     26713     26715     26717     26716     26718     26720     26719     26721
     26723     26722     26724     26726     26725     26727     26729     26728     26730
     26732     26731     26733     26735     26734     26736     26738     26737     26739
     26741     26740     26742     26744     26743     26745     26747     26746     26748
     26750     26749     26751     26753     26752     26754     26756     26755     26757
     26759     26758     26760     26762     26761     26763     26765     26764     26766
     26768     26767     26769     26771     26770     26772     26774     26773     26775
     26777     26776     26778     26780     26779     26781     26783     26782     26784
     26786     26785     26787     26789     26788     26790     26792     26791     26793
     26795     26794     26796     26798     26797     26799     26801     26800     26802
     26804     26803     26805     26807     26806     26808     26810     26809     26811
     26813     26812     26814     26816     26815     26817     26819     26818     26820
     26822     26821     26823     26825     26824     26826     26828     26827     26829
     26831     26830     26832     26834     26833     26835     26837     26836     26838
     26840     26839     26841     26843     26842     26844     26846     26845     26847
     26849     26848     26850     26852     26851     26853     26855     26854     26856
     26858     26857     26859     26861     26860     26862     26864     26863     26865
     26867     26866     26868     26870     26869     26871     26873     26872     26874
     26876     26875     26877     26879     26878     26880     26882     26881     26883
     26885     26884     26886     26888     26887     26889     26891     26890     26892
     26894     26893     26895     26897     26896     26898     26900     26899     26901
     26903     26902     26904     26906     26905     26907     26909     26908     26910
     26912     26911     26913     26915     26914     26916     26918     26917     26919
     26921     26920     26922     26924     26923     26925     26927     26926     26928
     26930     26929     26931     26933     26932     26934     26936     26935     26937
     26939     26938     26940     26942     26941     26943     26945     26944     26946
     26948     26947     26949     26951     26950     26952     26954     26953     26955
     26957     26956     26958     26960     26959     26961     26963     26962     26964
     26966     26965     26967     26969     26968     26970     26972     26971     26973
     26975     26974     26976     26978     26977     26979     26981     26980     26982
     26984     26983     26985     26987     26986     26988     26990     26989     26991
     26993     26992     26994     26996     26995     26997     26999     26998     27000
     27002     27001     27003     27005     27004     27006     27008     27007     27009
     27011     27010     27012     27014     27013     27015     27017     27016     27018
     27020     27019     27021     27023     27022     27024     27026     27025     27027
     27029     27028     27030     27032     27031     27033     27035     27034     27036
     27038     27037     27039     27041     27040     27042     27044     27043     27045
     27047     27046     27048     27050     27049     27051     27053     27052     27054
     27056     27055     27057     27059     27058     27060     27062     27061     27063
     27065     27064     27066     27068     27067     27069     27071     27070     27072
     27074     27073     27075     27077     27076     27078     27080     27079     27081
     27083     27082     27084     27086     27085     27087     27089     27088     27090
     27092     27091     27093     27095     27094     27096     27098     27097     27099
     27101     27100     27102     27104     27103     27105     27107     27106     27108
     27110     27109     27111     27113     27112     27114     27116     27115     27117
     27119     27118     27120     27122     27121     27123     27125     27124     27126
     27128     27127     27129     27131     27130     27132     27134     27133     27135
     27137     27136     27138     27140     27139     27141     27143     27142     27144
     27146     27145     27147     27149     27148     27150     27152     27151     27153
     27155     27154     27156     27158     27157     27159     27161     27160     27162
     27164     27163     27165     27167     27166     27168     27170     27169     27171
     27173     27172     27174     27176     27175     27177     27179     27178     27180
     27182     27181     27183     27185     27184     27186     27188     27187     27189
     27191     27190     27192     27194     27193     27195     27197     27196     27198
     27200     27199     27201     27203     27202     27204     27206     27205     27207
     27209     27208     27210     27212     27211     27213     27215     27214     27216
     27218     27217     27219     27221     27220     27222     27224     27223     27225
     27227     27226     27228     27230     27229     27231     27233     27232     27234
     27236     27235     27237     27239     27238     27240     27242     27241     27243
     27245     27244     27246     27248     27247     27249     27251     27250     27252
     27254     27253     27255     27257     27256     27258     27260     27259     27261
     27263     27262     27264     27266     27265     27267     27269     27268     27270
     27272     27271     27273     27275     27274     27276     27278     27277     27279
     27281     27280     27282     27284     27283     27285     27287     27286     27288
     27290     27289     27291     27293     27292     27294     27296     27295     27297
     27299     27298     27300     27302     27301     27303     27305     27304     27306
     27308     27307     27309     27311     27310     27312     27314     27313     27315
     27317     27316     27318     27320     27319     27321     27323     27322     27324
     27326     27325     27327     27329     27328     27330     27332     27331     27333
     27335     27334     27336     27338     27337     27339     27341     27340     27342
     27344     27343     27345     27347     27346     27348     27350     27349     27351
     27353     27352     27354     27356     27355     27357     27359     27358     27360
     27362     27361     27363     27365     27364     27366     27368     27367     27369
     27371     27370     27372     27374     27373     27375     27377     27376     27378
     27380     27379     27381     27383     27382     27384     27386     27385     27387
     27389     27388     27390     27392     27391     27393     27395     27394     27396
     27398     27397     27399     27401     27400     27402     27404     27403     27405
     27407     27406     27408     27410     27409     27411     27413     27412     27414
     27416     27415     27417     27419     27418     27420     27422     27421     27423
     27425     27424     27426     27428     27427     27429     27431     27430     27432
     27434     27433     27435     27437     27436     27438     27440     27439     27441
     27443     27442     27444     27446     27445     27447     27449     27448     27450
     27452     27451     27453     27455     27454     27456     27458     27457     27459
     27461     27460     27462     27464     27463     27465     27467     27466     27468
     27470     27469     27471     27473     27472     27474     27476     27475     27477
     27479     27478     27480     27482     27481     27483     27485     27484     27486
     27488     27487     27489     27491     27490     27492     27494     27493     27495
     27497     27496     27498     27500     27499     27501     27503     27502     27504
     27506     27505     27507     27509     27508     27510     27512     27511     27513
     27515     27514     27516     27518     27517     27519     27521     27520     27522
     27524     27523     27525     27527     27526     27528     27530     27529     27531
     27533     27532     27534     27536     27535     27537     27539     27538     27540
     27542     27541     27543     27545     27544     27546     27548     27547     27549
     27551     27550     27552     27554     27553     27555     27557     27556     27558
     27560     27559     27561     27563     27562     27564     27566     27565     27567
     27569     27568     27570     27572     27571     27573     27575     27574     27576
     27578     27577     27579     27581     27580     27582     27584     27583     27585
     27587     27586     27588     27590     27589     27591     27593     27592     27594
     27596     27595     27597     27599     27598     27600     27602     27601     27603
     27605     27604     27606     27608     27607     27609     27611     27610     27612
     27614     27613     27615     27617     27616     27618     27620     27619     27621
     27623     27622     27624     27626     27625     27627     27629     27628     27630
     27632     27631     27633     27635     27634     27636     27638     27637     27639
     27641     27640     27642     27644     27643     27645     27647     27646     27648
     27650     27649     27651     27653     27652     27654     27656     27655     27657
     27659     27658     27660     27662     27661     27663     27665     27664     27666
     27668     27667     27669     27671     27670     27672     27674     27673     27675
     27677     27676     27678     27680     27679     27681     27683     27682     27684
     27686     27685     27687     27689     27688     27690     27692     27691     27693
     27695     27694     27696     27698     27697     27699     27701     27700     27702
     27704     27703     27705     27707     27706     27708     27710     27709     27711
     27713     27712     27714     27716     27715     27717     27719     27718     27720
     27722     27721     27723     27725     27724     27726     27728     27727     27729
     27731     27730     27732     27734     27733     27735     27737     27736     27738
     27740     27739     27741     27743     27742     27744     27746     27745     27747
     27749     27748     27750     27752     27751     27753     27755     27754     27756
     27758     27757     27759     27761     27760     27762     27764     27763     27765
     27767     27766     27768     27770     27769     27771     27773     27772     27774
     27776     27775     27777     27779     27778     27780     27782     27781     27783
     27785     27784     27786     27788     27787     27789     27791     27790     27792
     27794     27793     27795     27797     27796     27798     27800     27799     27801
     27803     27802     27804     27806     27805     27807     27809     27808     27810
     27812     27811     27813     27815     27814     27816     27818     27817     27819
     27821     27820     27822     27824     27823     27825     27827     27826     27828
     27830     27829     27831     27833     27832     27834     27836     27835     27837
     27839     27838     27840     27842     27841     27843     27845     27844     27846
     27848     27847     27849     27851     27850     27852     27854     27853     27855
     27857     27856     27858     27860     27859     27861     27863     27862     27864
     27866     27865     27867     27869     27868     27870     27872     27871     27873
     27875     27874     27876     27878     27877     27879     27881     27880     27882
     27884     27883     27885     27887     27886     27888     27890     27889     27891
     27893     27892     27894     27896     27895     27897     27899     27898     27900
     27902     27901     27903     27905     27904     27906     27908     27907     27909
     27911     27910     27912     27914     27913     27915     27917     27916     27918
     27920     27919     27921     27923     27922     27924     27926     27925     27927
     27929     27928     27930     27932     27931     27933     27935     27934     27936
     27938     27937     27939     27941     27940     27942     27944     27943     27945
     27947     27946     27948     27950     27949     27951     27953     27952     27954
     27956     27955     27957     27959     27958     27960     27962     27961     27963
     27965     27964     27966     27968     27967     27969     27971     27970     27972
     27974     27973     27975     27977     27976     27978     27980     27979     27981
     27983     27982     27984     27986     27985     27987     27989     27988     27990
     27992     27991     27993     27995     27994     27996     27998     27997     27999
     28001     28000     28002     28004     28003     28005     28007     28006     28008
     28010     28009     28011     28013     28012     28014     28016     28015     28017
     28019     28018     28020     28022     28021     28023     28025     28024     28026
     28028     28027     28029     28031     28030     28032     28034     28033     28035
     28037     28036     28038     28040     28039     28041     28043     28042     28044
     28046     28045     28047     28049     28048     28050     28052     28051     28053
     28055     28054     28056     28058     28057     28059     28061     28060     28062
     28064     28063     28065     28067     28066     28068     28070     28069     28071
     28073     28072     28074     28076     28075     28077     28079     28078     28080
     28082     28081     28083     28085     28084     28086     28088     28087     28089
     28091     28090     28092     28094     28093     28095     28097     28096     28098
     28100     28099     28101     28103     28102     28104     28106     28105     28107
     28109     28108     28110     28112     28111     28113     28115     28114     28116
     28118     28117     28119     28121     28120     28122     28124     28123     28125
     28127     28126     28128     28130     28129     28131     28133     28132     28134
     28136     28135     28137     28139     28138     28140     28142     28141     28143
     28145     28144     28146     28148     28147     28149     28151     28150     28152
     28154     28153     28155     28157     28156     28158     28160     28159     28161
     28163     28162     28164     28166     28165     28167     28169     28168     28170
     28172     28171     28173     28175     28174     28176     28178     28177     28179
     28181     28180     28182     28184     28183     28185     28187     28186     28188
     28190     28189     28191     28193     28192     28194     28196     28195     28197
     28199     28198     28200     28202     28201     28203     28205     28204     28206
     28208     28207     28209     28211     28210     28212     28214     28213     28215
     28217     28216     28218     28220     28219     28221     28223     28222     28224
     28226     28225     28227     28229     28228     28230     28232     28231     28233
     28235     28234     28236     28238     28237     28239     28241     28240     28242
     28244     28243     28245     28247     28246     28248     28250     28249     28251
     28253     28252     28254     28256     28255     28257     28259     28258     28260
     28262     28261     28263     28265     28264     28266     28268     28267     28269
     28271     28270     28272     28274     28273     28275     28277     28276     28278
     28280     28279     28281     28283     28282     28284     28286     28285     28287
     28289     28288     28290     28292     28291     28293     28295     28294     28296
     28298     28297     28299     28301     28300     28302     28304     28303     28305
     28307     28306     28308     28310     28309     28311     28313     28312     28314
     28316     28315     28317     28319     28318     28320     28322     28321     28323
     28325     28324     28326     28328     28327     28329     28331     28330     28332
     28334     28333     28335     28337     28336     28338     28340     28339     28341
     28343     28342     28344     28346     28345     28347     28349     28348     28350
     28352     28351     28353     28355     28354     28356     28358     28357     28359
     28361     28360     28362     28364     28363     28365     28367     28366     28368
     28370     28369     28371     28373     28372     28374     28376     28375     28377
     28379     28378     28380     28382     28381     28383     28385     28384     28386
     28388     28387     28389     28391     28390     28392     28394     28393     28395
     28397     28396     28398     28400     28399     28401     28403     28402     28404
     28406     28405     28407     28409     28408     28410     28412     28411     28413
     28415     28414     28416     28418     28417     28419     28421     28420     28422
     28424     28423     28425     28427     28426     28428     28430     28429     28431
     28433     28432     28434     28436     28435     28437     28439     28438     28440
     28442     28441     28443     28445     28444     28446     28448     28447     28449
     28451     28450     28452     28454     28453     28455     28457     28456     28458
     28460     28459     28461     28463     28462     28464     28466     28465     28467
     28469     28468     28470     28472     28471     28473     28475     28474     28476
     28478     28477     28479     28481     28480     28482     28484     28483     28485
     28487     28486     28488     28490     28489     28491     28493     28492     28494
     28496     28495     28497     28499     28498     28500     28502     28501     28503
     28505     28504     28506     28508     28507     28509     28511     28510     28512
     28514     28513     28515     28517     28516     28518     28520     28519     28521
     28523     28522     28524     28526     28525     28527     28529     28528     28530
     28532     28531     28533     28535     28534     28536     28538     28537     28539
     28541     28540     28542     28544     28543     28545     28547     28546     28548
     28550     28549     28551     28553     28552     28554     28556     28555     28557
     28559     28558     28560     28562     28561     28563     28565     28564     28566
     28568     28567     28569     28571     28570     28572     28574     28573     28575
     28577     28576     28578     28580     28579     28581     28583     28582     28584
     28586     28585     28587     28589     28588     28590     28592     28591     28593
     28595     28594     28596     28598     28597     28599     28601     28600     28602
     28604     28603     28605     28607     28606     28608     28610     28609     28611
     28613     28612     28614     28616     28615     28617     28619     28618     28620
     28622     28621     28623     28625     28624     28626     28628     28627     28629
     28631     28630     28632     28634     28633     28635     28637     28636     28638
     28640     28639     28641     28643     28642     28644     28646     28645     28647
     28649     28648     28650     28652     28651     28653     28655     28654     28656
     28658     28657     28659     28661     28660     28662     28664     28663     28665
     28667     28666     28668     28670     28669     28671     28673     28672     28674
     28676     28675     28677     28679     28678     28680     28682     28681     28683
     28685     28684     28686     28688     28687     28689     28691     28690     28692
     28694     28693     28695     28697     28696     28698     28700     28699     28701
     28703     28702     28704     28706     28705     28707     28709     28708     28710
     28712     28711     28713     28715     28714     28716     28718     28717     28719
     28721     28720     28722     28724     28723     28725     28727     28726     28728
     28730     28729     28731     28733     28732     28734     28736     28735     28737
     28739     28738     28740     28742     28741     28743     28745     28744     28746
     28748     28747     28749     28751     28750     28752     28754     28753     28755
     28757     28756     28758     28760     28759     28761     28763     28762     28764
     28766     28765     28767     28769     28768     28770     28772     28771     28773
     28775     28774     28776     28778     28777     28779     28781     28780     28782
     28784     28783     28785     28787     28786     28788     28790     28789     28791
     28793     28792     28794     28796     28795     28797     28799     28798     28800
     28802     28801     28803     28805     28804     28806     28808     28807     28809
     28811     28810     28812     28814     28813     28815     28817     28816     28818
     28820     28819     28821     28823     28822     28824     28826     28825     28827
     28829     28828     28830     28832     28831     28833     28835     28834     28836
     28838     28837     28839     28841     28840     28842     28844     28843     28845
     28847     28846     28848     28850     28849     28851     28853     28852     28854
     28856     28855     28857     28859     28858     28860     28862     28861     28863
     28865     28864     28866     28868     28867     28869     28871     28870     28872
     28874     28873     28875     28877     28876     28878     28880     28879     28881
     28883     28882     28884     28886     28885     28887     28889     28888     28890
     28892     28891     28893     28895     28894     28896     28898     28897     28899
     28901     28900     28902     28904     28903     28905     28907     28906     28908
     28910     28909     28911     28913     28912     28914     28916     28915     28917
     28919     28918     28920     28922     28921     28923     28925     28924     28926
     28928     28927     28929     28931     28930     28932     28934     28933     28935
     28937     28936     28938     28940     28939     28941     28943     28942     28944
     28946     28945     28947     28949     28948     28950     28952     28951     28953
     28955     28954     28956     28958     28957     28959     28961     28960     28962
     28964     28963     28965     28967     28966     28968     28970     28969     28971
     28973     28972     28974     28976     28975     28977     28979     28978     28980
     28982     28981     28983     28985     28984     28986     28988     28987     28989
     28991     28990     28992     28994     28993     28995     28997     28996     28998
     29000     28999     29001     29003     29002     29004     29006     29005     29007
     29009     29008     29010     29012     29011     29013     29015     29014     29016
     29018     29017     29019     29021     29020     29022     29024     29023     29025
     29027     29026     29028     29030     29029     29031     29033     29032     29034
     29036     29035     29037     29039     29038     29040     29042     29041     29043
     29045     29044     29046     29048     29047     29049     29051     29050     29052
     29054     29053     29055     29057     29056     29058     29060     29059     29061
     29063     29062     29064     29066     29065     29067     29069     29068     29070
     29072     29071     29073     29075     29074     29076     29078     29077     29079
     29081     29080     29082     29084     29083     29085     29087     29086     29088
     29090     29089     29091     29093     29092     29094     29096     29095     29097
     29099     29098     29100     29102     29101     29103     29105     29104     29106
     29108     29107     29109     29111     29110     29112     29114     29113     29115
     29117     29116     29118     29120     29119     29121     29123     29122     29124
     29126     29125     29127     29129     29128     29130     29132     29131     29133
     29135     29134     29136     29138     29137     29139     29141     29140     29142
     29144     29143     29145     29147     29146     29148     29150     29149     29151
     29153     29152     29154     29156     29155     29157     29159     29158     29160
     29162     29161     29163     29165     29164     29166     29168     29167     29169
     29171     29170     29172     29174     29173     29175     29177     29176     29178
     29180     29179     29181     29183     29182     29184     29186     29185     29187
     29189     29188     29190     29192     29191     29193     29195     29194     29196
     29198     29197     29199     29201     29200     29202     29204     29203     29205
     29207     29206     29208     29210     29209     29211     29213     29212     29214
     29216     29215     29217     29219     29218     29220     29222     29221     29223
     29225     29224     29226     29228     29227     29229     29231     29230     29232
     29234     29233     29235     29237     29236     29238     29240     29239     29241
     29243     29242     29244     29246     29245     29247     29249     29248     29250
     29252     29251     29253     29255     29254     29256     29258     29257     29259
     29261     29260     29262     29264     29263     29265     29267     29266     29268
     29270     29269     29271     29273     29272     29274     29276     29275     29277
     29279     29278     29280     29282     29281     29283     29285     29284     29286
     29288     29287     29289     29291     29290     29292     29294     29293     29295
     29297     29296     29298     29300     29299     29301     29303     29302     29304
     29306     29305     29307     29309     29308     29310     29312     29311     29313
     29315     29314     29316     29318     29317     29319     29321     29320     29322
     29324     29323     29325     29327     29326     29328     29330     29329     29331
     29333     29332     29334     29336     29335     29337     29339     29338     29340
     29342     29341     29343     29345     29344     29346     29348     29347     29349
     29351     29350     29352     29354     29353     29355     29357     29356     29358
     29360     29359     29361     29363     29362     29364     29366     29365     29367
     29369     29368     29370     29372     29371     29373     29375     29374     29376
     29378     29377     29379     29381     29380     29382     29384     29383     29385
     29387     29386     29388     29390     29389     29391     29393     29392     29394
     29396     29395     29397     29399     29398     29400     29402     29401     29403
     29405     29404     29406     29408     29407     29409     29411     29410     29412
     29414     29413     29415     29417     29416     29418     29420     29419     29421
     29423     29422     29424     29426     29425     29427     29429     29428     29430
     29432     29431     29433     29435     29434     29436     29438     29437     29439
     29441     29440     29442     29444     29443     29445     29447     29446     29448
     29450     29449     29451     29453     29452     29454     29456     29455     29457
     29459     29458     29460     29462     29461     29463     29465     29464     29466
     29468     29467     29469     29471     29470     29472     29474     29473     29475
     29477     29476     29478     29480     29479     29481     29483     29482     29484
     29486     29485     29487     29489     29488     29490     29492     29491     29493
     29495     29494     29496     29498     29497     29499     29501     29500     29502
     29504     29503     29505     29507     29506     29508     29510     29509     29511
     29513     29512     29514     29516     29515     29517     29519     29518     29520
     29522     29521     29523     29525     29524     29526     29528     29527     29529
     29531     29530     29532     29534     29533     29535     29537     29536     29538
     29540     29539     29541     29543     29542     29544     29546     29545     29547
     29549     29548     29550     29552     29551     29553     29555     29554     29556
     29558     29557     29559     29561     29560     29562     29564     29563     29565
     29567     29566     29568     29570     29569     29571     29573     29572     29574
     29576     29575     29577     29579     29578     29580     29582     29581     29583
     29585     29584     29586     29588     29587     29589     29591     29590     29592
     29594     29593     29595     29597     29596     29598     29600     29599     29601
     29603     29602     29604     29606     29605     29607     29609     29608     29610
     29612     29611     29613     29615     29614     29616     29618     29617     29619
     29621     29620     29622     29624     29623     29625     29627     29626     29628
     29630     29629     29631     29633     29632     29634     29636     29635     29637
     29639     29638     29640     29642     29641     29643     29645     29644     29646
     29648     29647     29649     29651     29650     29652     29654     29653     29655
     29657     29656     29658     29660     29659     29661     29663     29662     29664
     29666     29665     29667     29669     29668     29670     29672     29671     29673
     29675     29674     29676     29678     29677     29679     29681     29680     29682
     29684     29683     29685     29687     29686     29688     29690     29689     29691
     29693     29692     29694     29696     29695     29697     29699     29698     29700
     29702     29701     29703     29705     29704     29706     29708     29707     29709
     29711     29710     29712     29714     29713     29715     29717     29716     29718
     29720     29719     29721     29723     29722     29724     29726     29725     29727
     29729     29728     29730     29732     29731     29733     29735     29734     29736
     29738     29737     29739     29741     29740     29742     29744     29743     29745
     29747     29746     29748     29750     29749     29751     29753     29752     29754
     29756     29755     29757     29759     29758     29760     29762     29761     29763
     29765     29764     29766     29768     29767     29769     29771     29770     29772
     29774     29773     29775     29777     29776     29778     29780     29779     29781
     29783     29782     29784     29786     29785     29787     29789     29788     29790
     29792     29791     29793     29795     29794     29796     29798     29797     29799
     29801     29800     29802     29804     29803     29805     29807     29806     29808
     29810     29809     29811     29813     29812     29814     29816     29815     29817
     29819     29818     29820     29822     29821     29823     29825     29824     29826
     29828     29827     29829     29831     29830     29832     29834     29833     29835
     29837     29836     29838     29840     29839     29841     29843     29842     29844
     29846     29845     29847     29849     29848     29850     29852     29851     29853
     29855     29854     29856     29858     29857     29859     29861     29860     29862
     29864     29863     29865     29867     29866     29868     29870     29869     29871
     29873     29872     29874     29876     29875     29877     29879     29878     29880
     29882     29881     29883     29885     29884     29886     29888     29887     29889
     29891     29890     29892     29894     29893     29895     29897     29896     29898
     29900     29899     29901     29903     29902     29904     29906     29905     29907
     29909     29908     29910     29912     29911     29913     29915     29914     29916
     29918     29917     29919     29921     29920     29922     29924     29923     29925
     29927     29926     29928     29930     29929     29931     29933     29932     29934
     29936     29935     29937     29939     29938     29940     29942     29941     29943
     29945     29944     29946     29948     29947     29949     29951     29950     29952
     29954     29953     29955     29957     29956     29958     29960     29959     29961
     29963     29962     29964     29966     29965     29967     29969     29968     29970
     29972     29971     29973     29975     29974     29976     29978     29977     29979
     29981     29980     29982     29984     29983     29985     29987     29986     29988
     29990     29989     29991     29993     29992     29994     29996     29995     29997
     29999     29998     30000     30002     30001     30003     30005     30004     30006
     30008     30007     30009     30011     30010     30012     30014     30013     30015
     30017     30016     30018     30020     30019     30021     30023     30022     30024
     30026     30025     30027     30029     30028     30030     30032     30031     30033
     30035     30034     30036     30038     30037     30039     30041     30040     30042
     30044     30043     30045     30047     30046     30048     30050     30049     30051
     30053     30052     30054     30056     30055     30057     30059     30058     30060
     30062     30061     30063     30065     30064     30066     30068     30067     30069
     30071     30070     30072     30074     30073     30075     30077     30076     30078
     30080     30079     30081     30083     30082     30084     30086     30085     30087
     30089     30088     30090     30092     30091     30093     30095     30094     30096
     30098     30097     30099     30101     30100     30102     30104     30103     30105
     30107     30106     30108     30110     30109     30111     30113     30112     30114
     30116     30115     30117     30119     30118     30120     30122     30121     30123
     30125     30124     30126     30128     30127     30129     30131     30130     30132
     30134     30133     30135     30137     30136     30138     30140     30139     30141
     30143     30142     30144     30146     30145     30147     30149     30148     30150
     30152     30151     30153     30155     30154     30156     30158     30157     30159
     30161     30160     30162     30164     30163     30165     30167     30166     30168
     30170     30169     30171     30173     30172     30174     30176     30175     30177
     30179     30178     30180     30182     30181     30183     30185     30184     30186
     30188     30187     30189     30191     30190     30192     30194     30193     30195
     30197     30196     30198     30200     30199     30201     30203     30202     30204
     30206     30205     30207     30209     30208     30210     30212     30211     30213
     30215     30214     30216     30218     30217     30219     30221     30220     30222
     30224     30223     30225     30227     30226     30228     30230     30229     30231
     30233     30232     30234     30236     30235     30237     30239     30238     30240
     30242     30241     30243     30245     30244     30246     30248     30247     30249
     30251     30250     30252     30254     30253     30255     30257     30256     30258
     30260     30259     30261     30263     30262     30264     30266     30265     30267
     30269     30268     30270     30272     30271     30273     30275     30274     30276
     30278     30277     30279     30281     30280     30282     30284     30283     30285
     30287     30286     30288     30290     30289     30291     30293     30292     30294
     30296     30295     30297     30299     30298     30300     30302     30301     30303
     30305     30304     30306     30308     30307     30309     30311     30310     30312
     30314     30313     30315     30317     30316     30318     30320     30319     30321
     30323     30322     30324     30326     30325     30327     30329     30328     30330
     30332     30331     30333     30335     30334     30336     30338     30337     30339
     30341     30340     30342     30344     30343     30345     30347     30346     30348
     30350     30349     30351     30353     30352     30354     30356     30355     30357
     30359     30358     30360     30362     30361     30363     30365     30364     30366
     30368     30367     30369     30371     30370     30372     30374     30373     30375
     30377     30376     30378     30380     30379     30381     30383     30382     30384
     30386     30385     30387     30389     30388     30390     30392     30391     30393
     30395     30394     30396     30398     30397     30399     30401     30400     30402
     30404     30403     30405     30407     30406     30408     30410     30409     30411
     30413     30412     30414     30416     30415     30417     30419     30418     30420
     30422     30421     30423     30425     30424     30426     30428     30427     30429
     30431     30430     30432     30434     30433     30435     30437     30436     30438
     30440     30439     30441     30443     30442     30444     30446     30445     30447
     30449     30448     30450     30452     30451     30453     30455     30454     30456
     30458     30457     30459     30461     30460     30462     30464     30463     30465
     30467     30466     30468     30470     30469     30471     30473     30472     30474
     30476     30475     30477     30479     30478     30480     30482     30481     30483
     30485     30484     30486     30488     30487     30489     30491     30490     30492
     30494     30493     30495     30497     30496     30498     30500     30499     30501
     30503     30502     30504     30506     30505     30507     30509     30508     30510
     30512     30511     30513     30515     30514     30516     30518     30517     30519
     30521     30520     30522     30524     30523     30525     30527     30526     30528
     30530     30529     30531     30533     30532     30534     30536     30535     30537
     30539     30538     30540     30542     30541     30543     30545     30544     30546
     30548     30547     30549     30551     30550     30552     30554     30553     30555
     30557     30556     30558     30560     30559     30561     30563     30562     30564
     30566     30565     30567     30569     30568     30570     30572     30571     30573
     30575     30574     30576     30578     30577     30579     30581     30580     30582
     30584     30583     30585     30587     30586     30588     30590     30589     30591
     30593     30592     30594     30596     30595     30597     30599     30598     30600
     30602     30601     30603     30605     30604     30606     30608     30607     30609
     30611     30610     30612     30614     30613     30615     30617     30616     30618
     30620     30619     30621     30623     30622     30624     30626     30625     30627
     30629     30628     30630     30632     30631     30633     30635     30634     30636
     30638     30637     30639     30641     30640     30642     30644     30643     30645
     30647     30646     30648     30650     30649     30651     30653     30652     30654
     30656     30655     30657     30659     30658     30660     30662     30661     30663
     30665     30664     30666     30668     30667     30669     30671     30670     30672
     30674     30673     30675     30677     30676     30678     30680     30679     30681
     30683     30682     30684     30686     30685     30687     30689     30688     30690
     30692     30691     30693     30695     30694     30696     30698     30697     30699
     30701     30700     30702     30704     30703     30705     30707     30706     30708
     30710     30709     30711     30713     30712     30714     30716     30715     30717
     30719     30718     30720     30722     30721     30723     30725     30724     30726
     30728     30727     30729     30731     30730     30732     30734     30733     30735
     30737     30736     30738     30740     30739     30741     30743     30742     30744
     30746     30745     30747     30749     30748     30750     30752     30751     30753
     30755     30754     30756     30758     30757     30759     30761     30760     30762
     30764     30763     30765     30767     30766     30768     30770     30769     30771
     30773     30772     30774     30776     30775     30777     30779     30778     30780
     30782     30781     30783     30785     30784     30786     30788     30787     30789
     30791     30790     30792     30794     30793     30795     30797     30796     30798
     30800     30799     30801     30803     30802     30804     30806     30805     30807
     30809     30808     30810     30812     30811     30813     30815     30814     30816
     30818     30817     30819     30821     30820     30822     30824     30823     30825
     30827     30826     30828     30830     30829     30831     30833     30832     30834
     30836     30835     30837     30839     30838     30840     30842     30841     30843
     30845     30844     30846     30848     30847     30849     30851     30850     30852
     30854     30853     30855     30857     30856     30858     30860     30859     30861
     30863     30862     30864     30866     30865     30867     30869     30868     30870
     30872     30871     30873     30875     30874     30876     30878     30877     30879
     30881     30880     30882     30884     30883     30885     30887     30886     30888
     30890     30889     30891     30893     30892     30894     30896     30895     30897
     30899     30898     30900     30902     30901     30903     30905     30904     30906
     30908     30907     30909     30911     30910     30912     30914     30913     30915
     30917     30916     30918     30920     30919     30921     30923     30922     30924
     30926     30925     30927     30929     30928     30930     30932     30931     30933
     30935     30934     30936     30938     30937     30939     30941     30940     30942
     30944     30943     30945     30947     30946     30948     30950     30949     30951
     30953     30952     30954     30956     30955     30957     30959     30958     30960
     30962     30961     30963     30965     30964     30966     30968     30967     30969
     30971     30970     30972     30974     30973     30975     30977     30976     30978
     30980     30979     30981     30983     30982     30984     30986     30985     30987
     30989     30988     30990     30992     30991     30993     30995     30994     30996
     30998     30997     30999     31001     31000     31002     31004     31003     31005
     31007     31006     31008     31010     31009     31011     31013     31012     31014
     31016     31015     31017     31019     31018     31020     31022     31021     31023
     31025     31024     31026     31028     31027     31029     31031     31030     31032
     31034     31033     31035     31037     31036     31038     31040     31039     31041
     31043     31042     31044     31046     31045     31047     31049     31048     31050
     31052     31051     31053     31055     31054     31056     31058     31057     31059
     31061     31060     31062     31064     31063     31065     31067     31066     31068
     31070     31069     31071     31073     31072     31074     31076     31075     31077
     31079     31078     31080     31082     31081     31083     31085     31084     31086
     31088     31087     31089     31091     31090     31092     31094     31093     31095
     31097     31096     31098     31100     31099     31101     31103     31102     31104
     31106     31105     31107     31109     31108     31110     31112     31111     31113
     31115     31114     31116     31118     31117     31119     31121     31120     31122
     31124     31123     31125     31127     31126     31128     31130     31129     31131
     31133     31132     31134     31136     31135     31137     31139     31138     31140
     31142     31141     31143     31145     31144     31146     31148     31147     31149
     31151     31150     31152     31154     31153     31155     31157     31156     31158
     31160     31159     31161     31163     31162     31164     31166     31165     31167
     31169     31168     31170     31172     31171     31173     31175     31174     31176
     31178     31177     31179     31181     31180     31182     31184     31183     31185
     31187     31186     31188     31190     31189     31191     31193     31192     31194
     31196     31195     31197     31199     31198     31200     31202     31201     31203
     31205     31204     31206     31208     31207     31209     31211     31210     31212
     31214     31213     31215     31217     31216     31218     31220     31219     31221
     31223     31222     31224     31226     31225     31227     31229     31228     31230
     31232     31231     31233     31235     31234     31236     31238     31237     31239
     31241     31240     31242     31244     31243     31245     31247     31246     31248
     31250     31249     31251     31253     31252     31254     31256     31255     31257
     31259     31258     31260     31262     31261     31263     31265     31264     31266
     31268     31267     31269     31271     31270     31272     31274     31273     31275
     31277     31276     31278     31280     31279     31281     31283     31282     31284
     31286     31285     31287     31289     31288     31290     31292     31291     31293
     31295     31294     31296     31298     31297     31299     31301     31300     31302
     31304     31303     31305     31307     31306     31308     31310     31309     31311
     31313     31312     31314     31316     31315     31317     31319     31318     31320
     31322     31321     31323     31325     31324     31326     31328     31327     31329
     31331     31330     31332     31334     31333     31335     31337     31336     31338
     31340     31339     31341     31343     31342     31344     31346     31345     31347
     31349     31348     31350     31352     31351     31353     31355     31354     31356
     31358     31357     31359     31361     31360     31362     31364     31363     31365
     31367     31366     31368     31370     31369     31371     31373     31372     31374
     31376     31375     31377     31379     31378     31380     31382     31381     31383
     31385     31384     31386     31388     31387     31389     31391     31390     31392
     31394     31393     31395     31397     31396     31398     31400     31399     31401
     31403     31402     31404     31406     31405     31407     31409     31408     31410
     31412     31411     31413     31415     31414     31416     31418     31417     31419
     31421     31420     31422     31424     31423     31425     31427     31426     31428
     31430     31429     31431     31433     31432     31434     31436     31435     31437
     31439     31438     31440     31442     31441     31443     31445     31444     31446
     31448     31447     31449     31451     31450     31452     31454     31453     31455
     31457     31456     31458     31460     31459     31461     31463     31462     31464
     31466     31465     31467     31469     31468     31470     31472     31471     31473
     31475     31474     31476     31478     31477     31479     31481     31480     31482
     31484     31483     31485     31487     31486     31488     31490     31489     31491
     31493     31492     31494     31496     31495     31497     31499     31498     31500
     31502     31501     31503     31505     31504     31506     31508     31507     31509
     31511     31510     31512     31514     31513     31515     31517     31516     31518
     31520     31519     31521     31523     31522     31524     31526     31525     31527
     31529     31528     31530     31532     31531     31533     31535     31534     31536
     31538     31537     31539     31541     31540     31542     31544     31543     31545
     31547     31546     31548     31550     31549     31551     31553     31552     31554
     31556     31555     31557     31559     31558     31560     31562     31561     31563
     31565     31564     31566     31568     31567     31569     31571     31570     31572
     31574     31573     31575     31577     31576     31578     31580     31579     31581
     31583     31582     31584     31586     31585     31587     31589     31588     31590
     31592     31591     31593     31595     31594     31596     31598     31597     31599
     31601     31600     31602     31604     31603     31605     31607     31606     31608
     31610     31609     31611     31613     31612     31614     31616     31615     31617
     31619     31618     31620     31622     31621     31623     31625     31624     31626
     31628     31627     31629     31631     31630     31632     31634     31633     31635
     31637     31636     31638     31640     31639     31641     31643     31642     31644
     31646     31645     31647     31649     31648     31650     31652     31651     31653
     31655     31654     31656     31658     31657     31659     31661     31660     31662
     31664     31663     31665     31667     31666     31668     31670     31669     31671
     31673     31672     31674     31676     31675     31677     31679     31678     31680
     31682     31681     31683     31685     31684     31686     31688     31687     31689
     31691     31690     31692     31694     31693     31695     31697     31696     31698
     31700     31699     31701     31703     31702     31704     31706     31705     31707
     31709     31708     31710     31712     31711     31713     31715     31714     31716
     31718     31717     31719     31721     31720     31722     31724     31723     31725
     31727     31726     31728     31730     31729     31731     31733     31732     31734
     31736     31735     31737     31739     31738     31740     31742     31741     31743
     31745     31744     31746     31748     31747     31749     31751     31750     31752
     31754     31753     31755     31757     31756     31758     31760     31759     31761
     31763     31762     31764     31766     31765     31767     31769     31768     31770
     31772     31771     31773     31775     31774     31776     31778     31777     31779
     31781     31780     31782     31784     31783     31785     31787     31786     31788
     31790     31789     31791     31793     31792     31794     31796     31795     31797
     31799     31798     31800     31802     31801     31803     31805     31804     31806
     31808     31807     31809     31811     31810     31812     31814     31813     31815
     31817     31816     31818     31820     31819     31821     31823     31822     31824
     31826     31825     31827     31829     31828     31830     31832     31831     31833
     31835     31834     31836     31838     31837     31839     31841     31840     31842
     31844     31843     31845     31847     31846     31848     31850     31849     31851
     31853     31852     31854     31856     31855     31857     31859     31858     31860
     31862     31861     31863     31865     31864     31866     31868     31867     31869
     31871     31870     31872     31874     31873     31875     31877     31876     31878
     31880     31879     31881     31883     31882     31884     31886     31885     31887
     31889     31888     31890     31892     31891     31893     31895     31894     31896
     31898     31897     31899     31901     31900     31902     31904     31903     31905
     31907     31906     31908     31910     31909     31911     31913     31912     31914
     31916     31915     31917     31919     31918     31920     31922     31921     31923
     31925     31924     31926     31928     31927     31929     31931     31930     31932
     31934     31933     31935     31937     31936     31938     31940     31939     31941
     31943     31942     31944     31946     31945     31947     31949     31948     31950
     31952     31951     31953     31955     31954     31956     31958     31957     31959
     31961     31960     31962     31964     31963     31965     31967     31966     31968
     31970     31969     31971     31973     31972     31974     31976     31975     31977
     31979     31978     31980     31982     31981     31983     31985     31984     31986
     31988     31987     31989     31991     31990     31992     31994     31993     31995
     31997     31996     31998     32000     31999     32001     32003     32002     32004
     32006     32005     32007     32009     32008     32010     32012     32011     32013
     32015     32014     32016     32018     32017     32019     32021     32020     32022
     32024     32023     32025     32027     32026     32028     32030     32029     32031
     32033     32032     32034     32036     32035     32037     32039     32038     32040
     32042     32041     32043     32045     32044     32046     32048     32047     32049
     32051     32050     32052     32054     32053     32055     32057     32056     32058
     32060     32059     32061     32063     32062     32064     32066     32065     32067
     32069     32068     32070     32072     32071     32073     32075     32074     32076
     32078     32077     32079     32081     32080     32082     32084     32083     32085
     32087     32086     32088     32090     32089     32091     32093     32092     32094
     32096     32095     32097     32099     32098     32100     32102     32101     32103
     32105     32104     32106     32108     32107     32109     32111     32110     32112
     32114     32113     32115     32117     32116     32118     32120     32119     32121
     32123     32122     32124     32126     32125     32127     32129     32128     32130
     32132     32131     32133     32135     32134     32136     32138     32137     32139
     32141     32140     32142     32144     32143     32145     32147     32146     32148
     32150     32149     32151     32153     32152     32154     32156     32155     32157
     32159     32158     32160     32162     32161     32163     32165     32164     32166
     32168     32167     32169     32171     32170     32172     32174     32173     32175
     32177     32176     32178     32180     32179     32181     32183     32182     32184
     32186     32185     32187     32189     32188     32190     32192     32191     32193
     32195     32194     32196     32198     32197     32199     32201     32200     32202
     32204     32203     32205     32207     32206     32208     32210     32209     32211
     32213     32212     32214     32216     32215     32217     32219     32218     32220
     32222     32221     32223     32225     32224     32226     32228     32227     32229
     32231     32230     32232     32234     32233     32235     32237     32236     32238
     32240     32239     32241     32243     32242     32244     32246     32245     32247
     32249     32248     32250     32252     32251     32253     32255     32254     32256
     32258     32257     32259     32261     32260     32262     32264     32263     32265
     32267     32266     32268     32270     32269     32271     32273     32272     32274
     32276     32275     32277     32279     32278     32280     32282     32281     32283
     32285     32284     32286     32288     32287     32289     32291     32290     32292
     32294     32293     32295     32297     32296     32298     32300     32299     32301
     32303     32302     32304     32306     32305     32307     32309     32308     32310
     32312     32311     32313     32315     32314     32316     32318     32317     32319
     32321     32320     32322     32324     32323     32325     32327     32326     32328
     32330     32329     32331     32333     32332     32334     32336     32335     32337
     32339     32338     32340     32342     32341     32343     32345     32344     32346
     32348     32347     32349     32351     32350     32352     32354     32353     32355
     32357     32356     32358     32360     32359     32361     32363     32362     32364
     32366     32365     32367     32369     32368     32370     32372     32371     32373
     32375     32374     32376     32378     32377     32379     32381     32380     32382
     32384     32383     32385     32387     32386     32388     32390     32389     32391
     32393     32392     32394     32396     32395     32397     32399     32398     32400
     32402     32401     32403     32405     32404     32406     32408     32407     32409
     32411     32410     32412     32414     32413     32415     32417     32416     32418
     32420     32419     32421     32423     32422     32424     32426     32425     32427
     32429     32428     32430     32432     32431     32433     32435     32434     32436
     32438     32437     32439     32441     32440     32442     32444     32443     32445
     32447     32446     32448     32450     32449     32451     32453     32452     32454
     32456     32455     32457     32459     32458     32460     32462     32461     32463
     32465     32464     32466     32468     32467     32469     32471     32470     32472
     32474     32473     32475     32477     32476     32478     32480     32479     32481
     32483     32482     32484     32486     32485     32487     32489     32488     32490
     32492     32491     32493     32495     32494     32496     32498     32497     32499
     32501     32500     32502     32504     32503     32505     32507     32506     32508
     32510     32509     32511     32513     32512     32514     32516     32515     32517
     32519     32518     32520     32522     32521     32523     32525     32524     32526
     32528     32527     32529     32531     32530     32532     32534     32533     32535
     32537     32536     32538     32540     32539     32541     32543     32542     32544
     32546     32545     32547     32549     32548     32550     32552     32551     32553
     32555     32554     32556     32558     32557     32559     32561     32560     32562
     32564     32563     32565     32567     32566     32568     32570     32569     32571
     32573     32572     32574     32576     32575     32577     32579     32578     32580
     32582     32581     32583     32585     32584     32586     32588     32587     32589
     32591     32590     32592     32594     32593     32595     32597     32596     32598
     32600     32599     32601     32603     32602     32604     32606     32605     32607
     32609     32608     32610     32612     32611     32613     32615     32614     32616
     32618     32617     32619     32621     32620     32622     32624     32623     32625
     32627     32626     32628     32630     32629     32631     32633     32632     32634
     32636     32635     32637     32639     32638     32640     32642     32641     32643
     32645     32644     32646     32648     32647     32649     32651     32650     32652
     32654     32653     32655     32657     32656     32658     32660     32659     32661
     32663     32662     32664     32666     32665     32667     32669     32668     32670
     32672     32671     32673     32675     32674     32676     32678     32677     32679
     32681     32680     32682     32684     32683     32685     32687     32686     32688
     32690     32689     32691     32693     32692     32694     32696     32695     32697
     32699     32698     32700     32702     32701     32703     32705     32704     32706
     32708     32707     32709     32711     32710     32712     32714     32713     32715
     32717     32716     32718     32720     32719     32721     32723     32722     32724
     32726     32725     32727     32729     32728     32730     32732     32731     32733
     32735     32734     32736     32738     32737     32739     32741     32740     32742
     32744     32743     32745     32747     32746     32748     32750     32749     32751
     32753     32752     32754     32756     32755     32757     32759     32758     32760
     32762     32761     32763     32765     32764     32766     32768     32767     32769
     32771     32770     32772     32774     32773     32775     32777     32776     32778
     32780     32779     32781     32783     32782     32784     32786     32785     32787
     32789     32788     32790     32792     32791     32793     32795     32794     32796
     32798     32797     32799     32801     32800     32802     32804     32803     32805
     32807     32806     32808     32810     32809     32811     32813     32812     32814
     32816     32815     32817     32819     32818     32820     32822     32821     32823
     32825     32824     32826     32828     32827     32829     32831     32830     32832
     32834     32833     32835     32837     32836     32838     32840     32839     32841
     32843     32842     32844     32846     32845     32847     32849     32848     32850
     32852     32851     32853     32855     32854     32856     32858     32857     32859
     32861     32860     32862     32864     32863     32865     32867     32866     32868
     32870     32869     32871     32873     32872     32874     32876     32875     32877
     32879     32878     32880     32882     32881     32883     32885     32884     32886
     32888     32887     32889     32891     32890     32892     32894     32893     32895
     32897     32896     32898     32900     32899     32901     32903     32902     32904
     32906     32905     32907     32909     32908     32910     32912     32911     32913
     32915     32914     32916     32918     32917     32919     32921     32920     32922
     32924     32923     32925     32927     32926     32928     32930     32929     32931
     32933     32932     32934     32936     32935     32937     32939     32938     32940
     32942     32941     32943     32945     32944     32946     32948     32947     32949
     32951     32950     32952     32954     32953     32955     32957     32956     32958
     32960     32959     32961     32963     32962     32964     32966     32965     32967
     32969     32968     32970     32972     32971     32973     32975     32974     32976
     32978     32977     32979     32981     32980     32982     32984     32983     32985
     32987     32986     32988     32990     32989     32991     32993     32992     32994
     32996     32995     32997     32999     32998     33000     33002     33001     33003
     33005     33004     33006     33008     33007     33009     33011     33010     33012
     33014     33013     33015     33017     33016     33018     33020     33019     33021
     33023     33022     33024     33026     33025     33027     33029     33028     33030
     33032     33031     33033     33035     33034     33036     33038     33037     33039
     33041     33040     33042     33044     33043     33045     33047     33046     33048
     33050     33049     33051     33053     33052     33054     33056     33055     33057
     33059     33058     33060     33062     33061     33063     33065     33064     33066
     33068     33067     33069     33071     33070     33072     33074     33073     33075
     33077     33076     33078     33080     33079     33081     33083     33082     33084
     33086     33085     33087     33089     33088     33090     33092     33091     33093
     33095     33094     33096     33098     33097     33099     33101     33100     33102
     33104     33103     33105     33107     33106     33108     33110     33109     33111
     33113     33112     33114     33116     33115     33117     33119     33118     33120
     33122     33121     33123     33125     33124     33126     33128     33127     33129
     33131     33130     33132     33134     33133     33135     33137     33136     33138
     33140     33139     33141     33143     33142     33144     33146     33145     33147
     33149     33148     33150     33152     33151     33153     33155     33154     33156
     33158     33157     33159     33161     33160     33162     33164     33163     33165
     33167     33166     33168     33170     33169     33171     33173     33172     33174
     33176     33175     33177     33179     33178     33180     33182     33181     33183
     33185     33184     33186     33188     33187     33189     33191     33190     33192
     33194     33193     33195     33197     33196     33198     33200     33199     33201
     33203     33202     33204     33206     33205     33207     33209     33208     33210
     33212     33211     33213     33215     33214     33216     33218     33217     33219
     33221     33220     33222     33224     33223     33225     33227     33226     33228
     33230     33229     33231     33233     33232     33234     33236     33235     33237
     33239     33238     33240     33242     33241     33243     33245     33244     33246
     33248     33247     33249     33251     33250     33252     33254     33253     33255
     33257     33256     33258     33260     33259     33261     33263     33262     33264
     33266     33265     33267     33269     33268     33270     33272     33271     33273
     33275     33274     33276     33278     33277     33279     33281     33280     33282
     33284     33283     33285     33287     33286     33288     33290     33289     33291
     33293     33292     33294     33296     33295     33297     33299     33298     33300
     33302     33301     33303     33305     33304     33306     33308     33307     33309
     33311     33310     33312     33314     33313     33315     33317     33316     33318
     33320     33319     33321     33323     33322     33324     33326     33325     33327
     33329     33328     33330     33332     33331     33333     33335     33334     33336
     33338     33337     33339     33341     33340     33342     33344     33343     33345
     33347     33346     33348     33350     33349     33351     33353     33352     33354
     33356     33355     33357     33359     33358     33360     33362     33361     33363
     33365     33364     33366     33368     33367     33369     33371     33370     33372
     33374     33373     33375     33377     33376     33378     33380     33379     33381
     33383     33382     33384     33386     33385     33387     33389     33388     33390
     33392     33391     33393     33395     33394     33396     33398     33397     33399
     33401     33400     33402     33404     33403     33405     33407     33406     33408
     33410     33409     33411     33413     33412     33414     33416     33415     33417
     33419     33418     33420     33422     33421     33423     33425     33424     33426
     33428     33427     33429     33431     33430     33432     33434     33433     33435
     33437     33436     33438     33440     33439     33441     33443     33442     33444
     33446     33445     33447     33449     33448     33450     33452     33451     33453
     33455     33454     33456     33458     33457     33459     33461     33460     33462
     33464     33463     33465     33467     33466     33468     33470     33469     33471
     33473     33472     33474     33476     33475     33477     33479     33478     33480
     33482     33481     33483     33485     33484     33486     33488     33487     33489
     33491     33490     33492     33494     33493     33495     33497     33496     33498
     33500     33499     33501     33503     33502     33504     33506     33505     33507
     33509     33508     33510     33512     33511     33513     33515     33514     33516
     33518     33517     33519     33521     33520     33522     33524     33523     33525
     33527     33526     33528     33530     33529     33531     33533     33532     33534
     33536     33535     33537     33539     33538     33540     33542     33541     33543
     33545     33544     33546     33548     33547     33549     33551     33550     33552
     33554     33553     33555     33557     33556     33558     33560     33559     33561
     33563     33562     33564     33566     33565     33567     33569     33568     33570
     33572     33571     33573     33575     33574     33576     33578     33577     33579
     33581     33580     33582     33584     33583     33585     33587     33586     33588
     33590     33589     33591     33593     33592     33594     33596     33595     33597
     33599     33598     33600     33602     33601     33603     33605     33604     33606
     33608     33607     33609     33611     33610     33612     33614     33613     33615
     33617     33616     33618     33620     33619     33621     33623     33622     33624
     33626     33625     33627     33629     33628     33630     33632     33631     33633
     33635     33634     33636     33638     33637     33639     33641     33640     33642
     33644     33643     33645     33647     33646     33648     33650     33649     33651
     33653     33652     33654     33656     33655     33657     33659     33658     33660
     33662     33661     33663     33665     33664     33666     33668     33667     33669
     33671     33670     33672     33674     33673     33675     33677     33676     33678
     33680     33679     33681     33683     33682     33684     33686     33685     33687
     33689     33688     33690     33692     33691     33693     33695     33694     33696
     33698     33697     33699     33701     33700     33702     33704     33703     33705
     33707     33706     33708     33710     33709     33711     33713     33712     33714
     33716     33715     33717     33719     33718     33720     33722     33721     33723
     33725     33724     33726     33728     33727     33729     33731     33730     33732
     33734     33733     33735     33737     33736     33738     33740     33739     33741
     33743     33742     33744     33746     33745     33747     33749     33748     33750
     33752     33751     33753     33755     33754     33756     33758     33757     33759
     33761     33760     33762     33764     33763     33765     33767     33766     33768
     33770     33769     33771     33773     33772     33774     33776     33775     33777
     33779     33778     33780     33782     33781     33783     33785     33784     33786
     33788     33787     33789     33791     33790     33792     33794     33793     33795
     33797     33796     33798     33800     33799     33801     33803     33802     33804
     33806     33805     33807     33809     33808     33810     33812     33811     33813
     33815     33814     33816     33818     33817     33819     33821     33820     33822
     33824     33823     33825     33827     33826     33828     33830     33829     33831
     33833     33832     33834     33836     33835     33837     33839     33838     33840
     33842     33841     33843     33845     33844     33846     33848     33847     33849
     33851     33850     33852     33854     33853     33855     33857     33856     33858
     33860     33859     33861     33863     33862     33864     33866     33865     33867
     33869     33868     33870     33872     33871     33873     33875     33874     33876
     33878     33877     33879     33881     33880     33882     33884     33883     33885
     33887     33886     33888     33890     33889     33891     33893     33892     33894
     33896     33895     33897     33899     33898     33900     33902     33901     33903
     33905     33904     33906     33908     33907     33909     33911     33910     33912
     33914     33913     33915     33917     33916     33918     33920     33919     33921
     33923     33922     33924     33926     33925     33927     33929     33928     33930
     33932     33931     33933     33935     33934     33936     33938     33937     33939
     33941     33940     33942     33944     33943     33945     33947     33946     33948
     33950     33949     33951     33953     33952     33954     33956     33955     33957
     33959     33958     33960     33962     33961     33963     33965     33964     33966
     33968     33967     33969     33971     33970     33972     33974     33973     33975
     33977     33976     33978     33980     33979     33981     33983     33982     33984
     33986     33985     33987     33989     33988     33990     33992     33991     33993
     33995     33994     33996     33998     33997     33999     34001     34000     34002
     34004     34003     34005     34007     34006     34008     34010     34009     34011
     34013     34012     34014     34016     34015     34017     34019     34018     34020
     34022     34021     34023     34025     34024     34026     34028     34027     34029
     34031     34030     34032     34034     34033     34035     34037     34036     34038
     34040     34039     34041     34043     34042     34044     34046     34045     34047
     34049     34048     34050     34052     34051     34053     34055     34054     34056
     34058     34057     34059     34061     34060     34062     34064     34063     34065
     34067     34066     34068     34070     34069     34071     34073     34072     34074
     34076     34075     34077     34079     34078     34080     34082     34081     34083
     34085     34084     34086     34088     34087     34089     34091     34090     34092
     34094     34093     34095     34097     34096     34098     34100     34099     34101
     34103     34102     34104     34106     34105     34107     34109     34108     34110
     34112     34111     34113     34115     34114     34116     34118     34117     34119
     34121     34120     34122     34124     34123     34125     34127     34126     34128
     34130     34129     34131     34133     34132     34134     34136     34135     34137
     34139     34138     34140     34142     34141     34143     34145     34144     34146
     34148     34147     34149     34151     34150     34152     34154     34153     34155
     34157     34156     34158     34160     34159     34161     34163     34162     34164
     34166     34165     34167     34169     34168     34170     34172     34171     34173
     34175     34174     34176     34178     34177     34179     34181     34180     34182
     34184     34183     34185     34187     34186     34188     34190     34189     34191
     34193     34192     34194     34196     34195     34197     34199     34198     34200
     34202     34201     34203     34205     34204     34206     34208     34207     34209
     34211     34210     34212     34214     34213     34215     34217     34216     34218
     34220     34219     34221     34223     34222     34224     34226     34225     34227
     34229     34228     34230     34232     34231     34233     34235     34234     34236
     34238     34237     34239     34241     34240     34242     34244     34243     34245
     34247     34246     34248     34250     34249     34251     34253     34252     34254
     34256     34255     34257     34259     34258     34260     34262     34261     34263
     34265     34264     34266     34268     34267     34269     34271     34270     34272
     34274     34273     34275     34277     34276     34278     34280     34279     34281
     34283     34282     34284     34286     34285     34287     34289     34288     34290
     34292     34291     34293     34295     34294     34296     34298     34297     34299
     34301     34300     34302     34304     34303     34305     34307     34306     34308
     34310     34309     34311     34313     34312     34314     34316     34315     34317
     34319     34318     34320     34322     34321     34323     34325     34324     34326
     34328     34327     34329     34331     34330     34332     34334     34333     34335
     34337     34336     34338     34340     34339     34341     34343     34342     34344
     34346     34345     34347     34349     34348     34350     34352     34351     34353
     34355     34354     34356     34358     34357     34359     34361     34360     34362
     34364     34363     34365     34367     34366     34368     34370     34369     34371
     34373     34372     34374     34376     34375     34377     34379     34378     34380
     34382     34381     34383     34385     34384     34386     34388     34387     34389
     34391     34390     34392     34394     34393     34395     34397     34396     34398
     34400     34399     34401     34403     34402     34404     34406     34405     34407
     34409     34408     34410     34412     34411     34413     34415     34414     34416
     34418     34417     34419     34421     34420     34422     34424     34423     34425
     34427     34426     34428     34430     34429     34431     34433     34432     34434
     34436     34435     34437     34439     34438     34440     34442     34441     34443
     34445     34444     34446     34448     34447     34449     34451     34450     34452
     34454     34453     34455     34457     34456     34458     34460     34459     34461
     34463     34462     34464     34466     34465     34467     34469     34468     34470
     34472     34471     34473     34475     34474     34476     34478     34477     34479
     34481     34480     34482     34484     34483     34485     34487     34486     34488
     34490     34489     34491     34493     34492     34494     34496     34495     34497
     34499     34498     34500     34502     34501     34503     34505     34504     34506
     34508     34507     34509     34511     34510     34512     34514     34513     34515
     34517     34516     34518     34520     34519     34521     34523     34522     34524
     34526     34525     34527     34529     34528     34530     34532     34531     34533
     34535     34534     34536     34538     34537     34539     34541     34540     34542
     34544     34543     34545     34547     34546     34548     34550     34549     34551
     34553     34552     34554     34556     34555     34557     34559     34558     34560
     34562     34561     34563     34565     34564     34566     34568     34567     34569
     34571     34570     34572     34574     34573     34575     34577     34576     34578
     34580     34579     34581     34583     34582     34584     34586     34585     34587
     34589     34588     34590     34592     34591     34593     34595     34594     34596
     34598     34597     34599     34601     34600     34602     34604     34603     34605
     34607     34606     34608     34610     34609     34611     34613     34612     34614
     34616     34615     34617     34619     34618     34620     34622     34621     34623
     34625     34624     34626     34628     34627     34629     34631     34630     34632
     34634     34633     34635     34637     34636     34638     34640     34639     34641
     34643     34642     34644     34646     34645     34647     34649     34648     34650
     34652     34651     34653     34655     34654     34656     34658     34657     34659
     34661     34660     34662     34664     34663     34665     34667     34666     34668
     34670     34669     34671     34673     34672     34674     34676     34675     34677
     34679     34678     34680     34682     34681     34683     34685     34684     34686
     34688     34687     34689     34691     34690     34692     34694     34693     34695
     34697     34696     34698     34700     34699     34701     34703     34702     34704
     34706     34705     34707     34709     34708     34710     34712     34711     34713
     34715     34714     34716     34718     34717     34719     34721     34720     34722
     34724     34723     34725     34727     34726     34728     34730     34729     34731
     34733     34732     34734     34736     34735     34737     34739     34738     34740
     34742     34741     34743     34745     34744     34746     34748     34747     34749
     34751     34750     34752     34754     34753     34755     34757     34756     34758
     34760     34759     34761     34763     34762     34764     34766     34765     34767
     34769     34768     34770     34772     34771     34773     34775     34774     34776
     34778     34777     34779     34781     34780     34782     34784     34783     34785
     34787     34786     34788     34790     34789     34791     34793     34792     34794
     34796     34795     34797     34799     34798     34800     34802     34801     34803
     34805     34804     34806     34808     34807     34809     34811     34810     34812
     34814     34813     34815     34817     34816     34818     34820     34819     34821
     34823     34822     34824     34826     34825     34827     34829     34828     34830
     34832     34831     34833     34835     34834     34836     34838     34837     34839
     34841     34840     34842     34844     34843     34845     34847     34846     34848
     34850     34849     34851     34853     34852     34854     34856     34855     34857
     34859     34858     34860     34862     34861     34863     34865     34864     34866
     34868     34867     34869     34871     34870     34872     34874     34873     34875
     34877     34876     34878     34880     34879     34881     34883     34882     34884
     34886     34885     34887     34889     34888     34890     34892     34891     34893
     34895     34894     34896     34898     34897     34899     34901     34900     34902
     34904     34903     34905     34907     34906     34908     34910     34909     34911
     34913     34912     34914     34916     34915     34917     34919     34918     34920
     34922     34921     34923     34925     34924     34926     34928     34927     34929
     34931     34930     34932     34934     34933     34935     34937     34936     34938
     34940     34939     34941     34943     34942     34944     34946     34945     34947
     34949     34948     34950     34952     34951     34953     34955     34954     34956
     34958     34957     34959     34961     34960     34962     34964     34963     34965
     34967     34966     34968     34970     34969     34971     34973     34972     34974
     34976     34975     34977     34979     34978     34980     34982     34981     34983
     34985     34984     34986     34988     34987     34989     34991     34990     34992
     34994     34993     34995     34997     34996     34998     35000     34999     35001
     35003     35002     35004     35006     35005     35007     35009     35008     35010
     35012     35011     35013     35015     35014     35016     35018     35017     35019
     35021     35020     35022     35024     35023     35025     35027     35026     35028
     35030     35029     35031     35033     35032     35034     35036     35035     35037
     35039     35038     35040     35042     35041     35043     35045     35044     35046
     35048     35047     35049     35051     35050     35052     35054     35053     35055
     35057     35056     35058     35060     35059     35061     35063     35062     35064
     35066     35065     35067     35069     35068     35070     35072     35071     35073
     35075     35074     35076     35078     35077     35079     35081     35080     35082
     35084     35083     35085     35087     35086     35088     35090     35089     35091
     35093     35092     35094     35096     35095     35097     35099     35098     35100
     35102     35101     35103     35105     35104     35106     35108     35107     35109
     35111     35110     35112     35114     35113     35115     35117     35116     35118
     35120     35119     35121     35123     35122     35124     35126     35125     35127
     35129     35128     35130     35132     35131     35133     35135     35134     35136
     35138     35137     35139     35141     35140     35142     35144     35143     35145
     35147     35146     35148     35150     35149     35151     35153     35152     35154
     35156     35155     35157     35159     35158     35160     35162     35161     35163
     35165     35164     35166     35168     35167     35169     35171     35170     35172
     35174     35173     35175     35177     35176     35178     35180     35179     35181
     35183     35182     35184     35186     35185     35187     35189     35188     35190
     35192     35191     35193     35195     35194     35196     35198     35197     35199
     35201     35200     35202     35204     35203     35205     35207     35206     35208
     35210     35209     35211     35213     35212     35214     35216     35215     35217
     35219     35218     35220     35222     35221     35223     35225     35224     35226
     35228     35227     35229     35231     35230     35232     35234     35233     35235
     35237     35236     35238     35240     35239     35241     35243     35242     35244
     35246     35245     35247     35249     35248     35250     35252     35251     35253
     35255     35254     35256     35258     35257     35259     35261     35260     35262
     35264     35263     35265     35267     35266     35268     35270     35269     35271
     35273     35272     35274     35276     35275     35277     35279     35278     35280
     35282     35281     35283     35285     35284     35286     35288     35287     35289
     35291     35290     35292     35294     35293     35295     35297     35296     35298
     35300     35299     35301     35303     35302     35304     35306     35305     35307
     35309     35308     35310     35312     35311     35313     35315     35314     35316
     35318     35317     35319     35321     35320     35322     35324     35323     35325
     35327     35326     35328     35330     35329     35331     35333     35332     35334
     35336     35335     35337     35339     35338     35340     35342     35341     35343
     35345     35344     35346     35348     35347     35349     35351     35350     35352
     35354     35353     35355     35357     35356     35358     35360     35359     35361
     35363     35362     35364     35366     35365     35367     35369     35368     35370
     35372     35371     35373     35375     35374     35376     35378     35377     35379
     35381     35380     35382     35384     35383     35385     35387     35386     35388
     35390     35389     35391     35393     35392     35394     35396     35395     35397
     35399     35398     35400     35402     35401     35403     35405     35404     35406
     35408     35407     35409     35411     35410     35412     35414     35413     35415
     35417     35416     35418     35420     35419     35421     35423     35422     35424
     35426     35425     35427     35429     35428     35430     35432     35431     35433
     35435     35434     35436     35438     35437     35439     35441     35440     35442
     35444     35443     35445     35447     35446     35448     35450     35449     35451
     35453     35452     35454     35456     35455     35457     35459     35458     35460
     35462     35461     35463     35465     35464     35466     35468     35467     35469
     35471     35470     35472     35474     35473     35475     35477     35476     35478
     35480     35479     35481     35483     35482     35484     35486     35485     35487
     35489     35488     35490     35492     35491     35493     35495     35494     35496
     35498     35497     35499     35501     35500     35502     35504     35503     35505
     35507     35506     35508     35510     35509     35511     35513     35512     35514
     35516     35515     35517     35519     35518     35520     35522     35521     35523
     35525     35524     35526     35528     35527     35529     35531     35530     35532
     35534     35533     35535     35537     35536     35538     35540     35539     35541
     35543     35542     35544     35546     35545     35547     35549     35548     35550
     35552     35551     35553     35555     35554     35556     35558     35557     35559
     35561     35560     35562     35564     35563     35565     35567     35566     35568
     35570     35569     35571     35573     35572     35574     35576     35575     35577
     35579     35578     35580     35582     35581     35583     35585     35584     35586
     35588     35587     35589     35591     35590     35592     35594     35593     35595
     35597     35596     35598     35600     35599     35601     35603     35602     35604
     35606     35605     35607     35609     35608     35610     35612     35611     35613
     35615     35614     35616     35618     35617     35619     35621     35620     35622
     35624     35623     35625     35627     35626     35628     35630     35629     35631
     35633     35632     35634     35636     35635     35637     35639     35638     35640
     35642     35641     35643     35645     35644     35646     35648     35647     35649
     35651     35650     35652     35654     35653     35655     35657     35656     35658
     35660     35659     35661     35663     35662     35664     35666     35665     35667
     35669     35668     35670     35672     35671     35673     35675     35674     35676
     35678     35677     35679     35681     35680     35682     35684     35683     35685
     35687     35686     35688     35690     35689     35691     35693     35692     35694
     35696     35695     35697     35699     35698     35700     35702     35701     35703
     35705     35704     35706     35708     35707     35709     35711     35710     35712
     35714     35713     35715     35717     35716     35718     35720     35719     35721
     35723     35722     35724     35726     35725     35727     35729     35728     35730
     35732     35731     35733     35735     35734     35736     35738     35737     35739
     35741     35740     35742     35744     35743     35745     35747     35746     35748
     35750     35749     35751     35753     35752     35754     35756     35755     35757
     35759     35758     35760     35762     35761     35763     35765     35764     35766
     35768     35767     35769     35771     35770     35772     35774     35773     35775
     35777     35776     35778     35780     35779     35781     35783     35782     35784
     35786     35785     35787     35789     35788     35790     35792     35791     35793
     35795     35794     35796     35798     35797     35799     35801     35800     35802
     35804     35803     35805     35807     35806     35808     35810     35809     35811
     35813     35812     35814     35816     35815     35817     35819     35818     35820
     35822     35821     35823     35825     35824     35826     35828     35827     35829
     35831     35830     35832     35834     35833     35835     35837     35836     35838
     35840     35839     35841     35843     35842     35844     35846     35845     35847
     35849     35848     35850     35852     35851     35853     35855     35854     35856
     35858     35857     35859     35861     35860     35862     35864     35863     35865
     35867     35866     35868     35870     35869     35871     35873     35872     35874
     35876     35875     35877     35879     35878     35880     35882     35881     35883
     35885     35884     35886     35888     35887     35889     35891     35890     35892
     35894     35893     35895     35897     35896     35898     35900     35899     35901
     35903     35902     35904     35906     35905     35907     35909     35908     35910
     35912     35911     35913     35915     35914     35916     35918     35917     35919
     35921     35920     35922     35924     35923     35925     35927     35926     35928
     35930     35929     35931     35933     35932     35934     35936     35935     35937
     35939     35938     35940     35942     35941     35943     35945     35944     35946
     35948     35947     35949     35951     35950     35952     35954     35953     35955
     35957     35956     35958     35960     35959     35961     35963     35962     35964
     35966     35965     35967     35969     35968     35970     35972     35971     35973
     35975     35974     35976     35978     35977     35979     35981     35980     35982
     35984     35983     35985     35987     35986     35988     35990     35989     35991
     35993     35992     35994     35996     35995     35997     35999     35998     36000
     36002     36001     36003     36005     36004     36006     36008     36007     36009
     36011     36010     36012     36014     36013     36015     36017     36016     36018
     36020     36019     36021     36023     36022     36024     36026     36025     36027
     36029     36028     36030     36032     36031     36033     36035     36034     36036
     36038     36037     36039     36041     36040     36042     36044     36043     36045
     36047     36046     36048     36050     36049     36051     36053     36052     36054
     36056     36055     36057     36059     36058     36060     36062     36061     36063
     36065     36064     36066     36068     36067     36069     36071     36070     36072
     36074     36073     36075     36077     36076     36078     36080     36079     36081
     36083     36082     36084     36086     36085     36087     36089     36088     36090
     36092     36091     36093     36095     36094     36096     36098     36097     36099
     36101     36100     36102     36104     36103     36105     36107     36106     36108
     36110     36109     36111     36113     36112     36114     36116     36115     36117
     36119     36118     36120     36122     36121     36123     36125     36124     36126
     36128     36127     36129     36131     36130     36132     36134     36133     36135
     36137     36136     36138     36140     36139     36141     36143     36142     36144
     36146     36145     36147     36149     36148     36150     36152     36151     36153
     36155     36154     36156     36158     36157     36159     36161     36160     36162
     36164     36163     36165     36167     36166     36168     36170     36169     36171
     36173     36172     36174     36176     36175     36177     36179     36178     36180
     36182     36181     36183     36185     36184     36186     36188     36187     36189
     36191     36190     36192     36194     36193     36195     36197     36196     36198
     36200     36199     36201     36203     36202     36204     36206     36205     36207
     36209     36208     36210     36212     36211     36213     36215     36214     36216
     36218     36217     36219     36221     36220     36222     36224     36223     36225
     36227     36226     36228     36230     36229     36231     36233     36232     36234
     36236     36235     36237     36239     36238     36240     36242     36241     36243
     36245     36244     36246     36248     36247     36249     36251     36250     36252
     36254     36253     36255     36257     36256     36258     36260     36259     36261
     36263     36262     36264     36266     36265     36267     36269     36268     36270
     36272     36271     36273     36275     36274     36276     36278     36277     36279
     36281     36280     36282     36284     36283     36285     36287     36286     36288
     36290     36289     36291     36293     36292     36294     36296     36295     36297
     36299     36298     36300     36302     36301     36303     36305     36304     36306
     36308     36307     36309     36311     36310     36312     36314     36313     36315
     36317     36316     36318     36320     36319     36321     36323     36322     36324
     36326     36325     36327     36329     36328     36330     36332     36331     36333
     36335     36334     36336     36338     36337     36339     36341     36340     36342
     36344     36343     36345     36347     36346     36348     36350     36349     36351
     36353     36352     36354     36356     36355     36357     36359     36358     36360
     36362     36361     36363     36365     36364     36366     36368     36367     36369
     36371     36370     36372     36374     36373     36375     36377     36376     36378
     36380     36379     36381     36383     36382     36384     36386     36385     36387
     36389     36388     36390     36392     36391     36393     36395     36394     36396
     36398     36397     36399     36401     36400     36402     36404     36403     36405
     36407     36406     36408     36410     36409     36411     36413     36412     36414
     36416     36415     36417     36419     36418     36420     36422     36421     36423
     36425     36424     36426     36428     36427     36429     36431     36430     36432
     36434     36433     36435     36437     36436     36438     36440     36439     36441
     36443     36442     36444     36446     36445     36447     36449     36448     36450
     36452     36451     36453     36455     36454     36456     36458     36457     36459
     36461     36460     36462     36464     36463     36465     36467     36466     36468
     36470     36469     36471     36473     36472     36474     36476     36475     36477
     36479     36478     36480     36482     36481     36483     36485     36484     36486
     36488     36487     36489     36491     36490     36492     36494     36493     36495
     36497     36496     36498     36500     36499     36501     36503     36502     36504
     36506     36505     36507     36509     36508     36510     36512     36511     36513
     36515     36514     36516     36518     36517     36519     36521     36520     36522
     36524     36523     36525     36527     36526     36528     36530     36529     36531
     36533     36532     36534     36536     36535     36537     36539     36538     36540
     36542     36541     36543     36545     36544     36546     36548     36547     36549
     36551     36550     36552     36554     36553     36555     36557     36556     36558
     36560     36559     36561     36563     36562     36564     36566     36565     36567
     36569     36568     36570     36572     36571     36573     36575     36574     36576
     36578     36577     36579     36581     36580     36582     36584     36583     36585
     36587     36586     36588     36590     36589     36591     36593     36592     36594
     36596     36595     36597     36599     36598     36600     36602     36601     36603
     36605     36604     36606     36608     36607     36609     36611     36610     36612
     36614     36613     36615     36617     36616     36618     36620     36619     36621
     36623     36622     36624     36626     36625     36627     36629     36628     36630
     36632     36631     36633     36635     36634     36636     36638     36637     36639
     36641     36640     36642     36644     36643     36645     36647     36646     36648
     36650     36649     36651     36653     36652     36654     36656     36655     36657
     36659     36658     36660     36662     36661     36663     36665     36664     36666
     36668     36667     36669     36671     36670     36672     36674     36673     36675
     36677     36676     36678     36680     36679     36681     36683     36682     36684
     36686     36685     36687     36689     36688     36690     36692     36691     36693
     36695     36694     36696     36698     36697     36699     36701     36700     36702
     36704     36703     36705     36707     36706     36708     36710     36709     36711
     36713     36712     36714     36716     36715     36717     36719     36718     36720
     36722     36721     36723     36725     36724     36726     36728     36727     36729
     36731     36730     36732     36734     36733     36735     36737     36736     36738
     36740     36739     36741     36743     36742     36744     36746     36745     36747
     36749     36748     36750     36752     36751     36753     36755     36754     36756
     36758     36757     36759     36761     36760     36762     36764     36763     36765
     36767     36766     36768     36770     36769     36771     36773     36772     36774
     36776     36775     36777     36779     36778     36780     36782     36781     36783
     36785     36784     36786     36788     36787     36789     36791     36790     36792
     36794     36793     36795     36797     36796     36798     36800     36799     36801
     36803     36802     36804     36806     36805     36807     36809     36808     36810
     36812     36811     36813     36815     36814     36816     36818     36817     36819
     36821     36820     36822     36824     36823     36825     36827     36826     36828
     36830     36829     36831     36833     36832     36834     36836     36835     36837
     36839     36838     36840     36842     36841     36843     36845     36844     36846
     36848     36847     36849     36851     36850     36852     36854     36853     36855
     36857     36856     36858     36860     36859     36861     36863     36862     36864
     36866     36865     36867     36869     36868     36870     36872     36871     36873
     36875     36874     36876     36878     36877     36879     36881     36880     36882
     36884     36883     36885     36887     36886     36888     36890     36889     36891
     36893     36892     36894     36896     36895     36897     36899     36898     36900
     36902     36901     36903     36905     36904     36906     36908     36907     36909
     36911     36910     36912     36914     36913     36915     36917     36916     36918
     36920     36919     36921     36923     36922     36924     36926     36925     36927
     36929     36928     36930     36932     36931     36933     36935     36934     36936
     36938     36937     36939     36941     36940     36942     36944     36943     36945
     36947     36946     36948     36950     36949     36951     36953     36952     36954
     36956     36955     36957     36959     36958     36960     36962     36961     36963
     36965     36964     36966     36968     36967     36969     36971     36970     36972
     36974     36973     36975     36977     36976     36978     36980     36979     36981
     36983     36982     36984     36986     36985     36987     36989     36988     36990
     36992     36991     36993     36995     36994     36996     36998     36997     36999
     37001     37000     37002     37004     37003     37005     37007     37006     37008
     37010     37009     37011     37013     37012     37014     37016     37015     37017
     37019     37018     37020     37022     37021     37023     37025     37024     37026
     37028     37027     37029     37031     37030     37032     37034     37033     37035
     37037     37036     37038     37040     37039     37041     37043     37042     37044
     37046     37045     37047     37049     37048     37050     37052     37051     37053
     37055     37054     37056     37058     37057     37059     37061     37060     37062
     37064     37063     37065     37067     37066     37068     37070     37069     37071
     37073     37072     37074     37076     37075     37077     37079     37078     37080
     37082     37081     37083     37085     37084     37086     37088     37087     37089
     37091     37090     37092     37094     37093     37095     37097     37096     37098
     37100     37099     37101     37103     37102     37104     37106     37105     37107
     37109     37108     37110     37112     37111     37113     37115     37114     37116
     37118     37117     37119     37121     37120     37122     37124     37123     37125
     37127     37126     37128     37130     37129     37131     37133     37132     37134
     37136     37135     37137     37139     37138     37140     37142     37141     37143
     37145     37144     37146     37148     37147     37149     37151     37150     37152
     37154     37153     37155     37157     37156     37158     37160     37159     37161
     37163     37162     37164     37166     37165     37167     37169     37168     37170
     37172     37171     37173     37175     37174     37176     37178     37177     37179
     37181     37180     37182     37184     37183     37185     37187     37186     37188
     37190     37189     37191     37193     37192     37194     37196     37195     37197
     37199     37198     37200     37202     37201     37203     37205     37204     37206
     37208     37207     37209     37211     37210     37212     37214     37213     37215
     37217     37216     37218     37220     37219     37221     37223     37222     37224
     37226     37225     37227     37229     37228     37230     37232     37231     37233
     37235     37234     37236     37238     37237     37239     37241     37240     37242
     37244     37243     37245     37247     37246     37248     37250     37249     37251
     37253     37252     37254     37256     37255     37257     37259     37258     37260
     37262     37261     37263     37265     37264     37266     37268     37267     37269
     37271     37270     37272     37274     37273     37275     37277     37276     37278
     37280     37279     37281     37283     37282     37284     37286     37285     37287
     37289     37288     37290     37292     37291     37293     37295     37294     37296
     37298     37297     37299     37301     37300     37302     37304     37303     37305
     37307     37306     37308     37310     37309     37311     37313     37312     37314
     37316     37315     37317     37319     37318     37320     37322     37321     37323
     37325     37324     37326     37328     37327     37329     37331     37330     37332
     37334     37333     37335     37337     37336     37338     37340     37339     37341
     37343     37342     37344     37346     37345     37347     37349     37348     37350
     37352     37351     37353     37355     37354     37356     37358     37357     37359
     37361     37360     37362     37364     37363     37365     37367     37366     37368
     37370     37369     37371     37373     37372     37374     37376     37375     37377
     37379     37378     37380     37382     37381     37383     37385     37384     37386
     37388     37387     37389     37391     37390     37392     37394     37393     37395
     37397     37396     37398     37400     37399     37401     37403     37402     37404
     37406     37405     37407     37409     37408     37410     37412     37411     37413
     37415     37414     37416     37418     37417     37419     37421     37420     37422
     37424     37423     37425     37427     37426     37428     37430     37429     37431
     37433     37432     37434     37436     37435     37437     37439     37438     37440
     37442     37441     37443     37445     37444     37446     37448     37447     37449
     37451     37450     37452     37454     37453     37455     37457     37456     37458
     37460     37459     37461     37463     37462     37464     37466     37465     37467
     37469     37468     37470     37472     37471     37473     37475     37474     37476
     37478     37477     37479     37481     37480     37482     37484     37483     37485
     37487     37486     37488     37490     37489     37491     37493     37492     37494
     37496     37495     37497     37499     37498     37500     37502     37501     37503
     37505     37504     37506     37508     37507     37509     37511     37510     37512
     37514     37513     37515     37517     37516     37518     37520     37519     37521
     37523     37522     37524     37526     37525     37527     37529     37528     37530
     37532     37531     37533     37535     37534     37536     37538     37537     37539
     37541     37540     37542     37544     37543     37545     37547     37546     37548
     37550     37549     37551     37553     37552     37554     37556     37555     37557
     37559     37558     37560     37562     37561     37563     37565     37564     37566
     37568     37567     37569     37571     37570     37572     37574     37573     37575
     37577     37576     37578     37580     37579     37581     37583     37582     37584
     37586     37585     37587     37589     37588     37590     37592     37591     37593
     37595     37594     37596     37598     37597     37599     37601     37600     37602
     37604     37603     37605     37607     37606     37608     37610     37609     37611
     37613     37612     37614     37616     37615     37617     37619     37618     37620
     37622     37621     37623     37625     37624     37626     37628     37627     37629
     37631     37630     37632     37634     37633     37635     37637     37636     37638
     37640     37639     37641     37643     37642     37644     37646     37645     37647
     37649     37648     37650     37652     37651     37653     37655     37654     37656
     37658     37657     37659     37661     37660     37662     37664     37663     37665
     37667     37666     37668     37670     37669     37671     37673     37672     37674
     37676     37675     37677     37679     37678     37680     37682     37681     37683
     37685     37684     37686     37688     37687     37689     37691     37690     37692
     37694     37693     37695     37697     37696     37698     37700     37699     37701
     37703     37702     37704     37706     37705     37707     37709     37708     37710
     37712     37711     37713     37715     37714     37716     37718     37717     37719
     37721     37720     37722     37724     37723     37725     37727     37726     37728
     37730     37729     37731     37733     37732     37734     37736     37735     37737
     37739     37738     37740     37742     37741     37743     37745     37744     37746
     37748     37747     37749     37751     37750     37752     37754     37753     37755
     37757     37756     37758     37760     37759     37761     37763     37762     37764
     37766     37765     37767     37769     37768     37770     37772     37771     37773
     37775     37774     37776     37778     37777     37779     37781     37780     37782
     37784     37783     37785     37787     37786     37788     37790     37789     37791
     37793     37792     37794     37796     37795     37797     37799     37798     37800
     37802     37801     37803     37805     37804     37806     37808     37807     37809
     37811     37810     37812     37814     37813     37815     37817     37816     37818
     37820     37819     37821     37823     37822     37824     37826     37825     37827
     37829     37828     37830     37832     37831     37833     37835     37834     37836
     37838     37837     37839     37841     37840     37842     37844     37843     37845
     37847     37846     37848     37850     37849     37851     37853     37852     37854
     37856     37855     37857     37859     37858     37860     37862     37861     37863
     37865     37864     37866     37868     37867     37869     37871     37870     37872
     37874     37873     37875     37877     37876     37878     37880     37879     37881
     37883     37882     37884     37886     37885     37887     37889     37888     37890
     37892     37891     37893     37895     37894     37896     37898     37897     37899
     37901     37900     37902     37904     37903     37905     37907     37906     37908
     37910     37909     37911     37913     37912     37914     37916     37915     37917
     37919     37918     37920     37922     37921     37923     37925     37924     37926
     37928     37927     37929     37931     37930     37932     37934     37933     37935
     37937     37936     37938     37940     37939     37941     37943     37942     37944
     37946     37945     37947     37949     37948     37950     37952     37951     37953
     37955     37954     37956     37958     37957     37959     37961     37960     37962
     37964     37963     37965     37967     37966     37968     37970     37969     37971
     37973     37972     37974     37976     37975     37977     37979     37978     37980
     37982     37981     37983     37985     37984     37986     37988     37987     37989
     37991     37990     37992     37994     37993     37995     37997     37996     37998
     38000     37999     38001     38003     38002     38004     38006     38005     38007
     38009     38008     38010     38012     38011     38013     38015     38014     38016
     38018     38017     38019     38021     38020     38022     38024     38023     38025
     38027     38026     38028     38030     38029     38031     38033     38032     38034
     38036     38035     38037     38039     38038     38040     38042     38041     38043
     38045     38044     38046     38048     38047     38049     38051     38050     38052
     38054     38053     38055     38057     38056     38058     38060     38059     38061
     38063     38062     38064     38066     38065     38067     38069     38068     38070
     38072     38071     38073     38075     38074     38076     38078     38077     38079
     38081     38080     38082     38084     38083     38085     38087     38086     38088
     38090     38089     38091     38093     38092     38094     38096     38095     38097
     38099     38098     38100     38102     38101     38103     38105     38104     38106
     38108     38107     38109     38111     38110     38112     38114     38113     38115
     38117     38116     38118     38120     38119     38121     38123     38122     38124
     38126     38125     38127     38129     38128     38130     38132     38131     38133
     38135     38134     38136     38138     38137     38139     38141     38140     38142
     38144     38143     38145     38147     38146     38148     38150     38149     38151
     38153     38152     38154     38156     38155     38157     38159     38158     38160
     38162     38161     38163     38165     38164     38166     38168     38167     38169
     38171     38170     38172     38174     38173     38175     38177     38176     38178
     38180     38179     38181     38183     38182     38184     38186     38185     38187
     38189     38188     38190     38192     38191     38193     38195     38194     38196
     38198     38197     38199     38201     38200     38202     38204     38203     38205
     38207     38206     38208     38210     38209     38211     38213     38212     38214
     38216     38215     38217     38219     38218     38220     38222     38221     38223
     38225     38224     38226     38228     38227     38229     38231     38230     38232
     38234     38233     38235     38237     38236     38238     38240     38239     38241
     38243     38242     38244     38246     38245     38247     38249     38248     38250
     38252     38251     38253     38255     38254     38256     38258     38257     38259
     38261     38260     38262     38264     38263     38265     38267     38266     38268
     38270     38269     38271     38273     38272     38274     38276     38275     38277
     38279     38278     38280     38282     38281     38283     38285     38284     38286
     38288     38287     38289     38291     38290     38292     38294     38293     38295
     38297     38296     38298     38300     38299     38301     38303     38302     38304
     38306     38305     38307     38309     38308     38310     38312     38311     38313
     38315     38314     38316     38318     38317     38319     38321     38320     38322
     38324     38323     38325     38327     38326     38328     38330     38329     38331
     38333     38332     38334     38336     38335     38337     38339     38338     38340
     38342     38341     38343     38345     38344     38346     38348     38347     38349
     38351     38350     38352     38354     38353     38355     38357     38356     38358
     38360     38359     38361     38363     38362     38364     38366     38365     38367
     38369     38368     38370     38372     38371     38373     38375     38374     38376
     38378     38377     38379     38381     38380     38382     38384     38383     38385
     38387     38386     38388     38390     38389     38391     38393     38392     38394
     38396     38395     38397     38399     38398     38400     38402     38401     38403
     38405     38404     38406     38408     38407     38409     38411     38410     38412
     38414     38413     38415     38417     38416     38418     38420     38419     38421
     38423     38422     38424     38426     38425     38427     38429     38428     38430
     38432     38431     38433     38435     38434     38436     38438     38437     38439
     38441     38440     38442     38444     38443     38445     38447     38446     38448
     38450     38449     38451     38453     38452     38454     38456     38455     38457
     38459     38458     38460     38462     38461     38463     38465     38464     38466
     38468     38467     38469     38471     38470     38472     38474     38473     38475
     38477     38476     38478     38480     38479     38481     38483     38482     38484
     38486     38485     38487     38489     38488     38490     38492     38491     38493
     38495     38494     38496     38498     38497     38499     38501     38500     38502
     38504     38503     38505     38507     38506     38508     38510     38509     38511
     38513     38512     38514     38516     38515     38517     38519     38518     38520
     38522     38521     38523     38525     38524     38526     38528     38527     38529
     38531     38530     38532     38534     38533     38535     38537     38536     38538
     38540     38539     38541     38543     38542     38544     38546     38545     38547
     38549     38548     38550     38552     38551     38553     38555     38554     38556
     38558     38557     38559     38561     38560     38562     38564     38563     38565
     38567     38566     38568     38570     38569     38571     38573     38572     38574
     38576     38575     38577     38579     38578     38580     38582     38581     38583
     38585     38584     38586     38588     38587     38589     38591     38590     38592
     38594     38593     38595     38597     38596     38598     38600     38599     38601
     38603     38602     38604     38606     38605     38607     38609     38608     38610
     38612     38611     38613     38615     38614     38616     38618     38617     38619
     38621     38620     38622     38624     38623     38625     38627     38626     38628
     38630     38629     38631     38633     38632     38634     38636     38635     38637
     38639     38638     38640     38642     38641     38643     38645     38644     38646
     38648     38647     38649     38651     38650     38652     38654     38653     38655
     38657     38656     38658     38660     38659     38661     38663     38662     38664
     38666     38665     38667     38669     38668     38670     38672     38671     38673
     38675     38674     38676     38678     38677     38679     38681     38680     38682
     38684     38683     38685     38687     38686     38688     38690     38689     38691
     38693     38692     38694     38696     38695     38697     38699     38698     38700
     38702     38701     38703     38705     38704     38706     38708     38707     38709
     38711     38710     38712     38714     38713     38715     38717     38716     38718
     38720     38719     38721     38723     38722     38724     38726     38725     38727
     38729     38728     38730     38732     38731     38733     38735     38734     38736
     38738     38737     38739     38741     38740     38742     38744     38743     38745
     38747     38746     38748     38750     38749     38751     38753     38752     38754
     38756     38755     38757     38759     38758     38760     38762     38761     38763
     38765     38764     38766     38768     38767     38769     38771     38770     38772
     38774     38773     38775     38777     38776     38778     38780     38779     38781
     38783     38782     38784     38786     38785     38787     38789     38788     38790
     38792     38791     38793     38795     38794     38796     38798     38797     38799
     38801     38800     38802     38804     38803     38805     38807     38806     38808
     38810     38809     38811     38813     38812     38814     38816     38815     38817
     38819     38818     38820     38822     38821     38823     38825     38824     38826
     38828     38827     38829     38831     38830     38832     38834     38833     38835
     38837     38836     38838     38840     38839     38841     38843     38842     38844
     38846     38845     38847     38849     38848     38850     38852     38851     38853
     38855     38854     38856     38858     38857     38859     38861     38860     38862
     38864     38863     38865     38867     38866     38868     38870     38869     38871
     38873     38872     38874     38876     38875     38877     38879     38878     38880
     38882     38881     38883     38885     38884     38886     38888     38887     38889
     38891     38890     38892     38894     38893     38895     38897     38896     38898
     38900     38899     38901     38903     38902     38904     38906     38905     38907
     38909     38908     38910     38912     38911     38913     38915     38914     38916
     38918     38917     38919     38921     38920     38922     38924     38923     38925
     38927     38926     38928     38930     38929     38931     38933     38932     38934
     38936     38935     38937     38939     38938     38940     38942     38941     38943
     38945     38944     38946     38948     38947     38949     38951     38950     38952
     38954     38953     38955     38957     38956     38958     38960     38959     38961
     38963     38962     38964     38966     38965     38967     38969     38968     38970
     38972     38971     38973     38975     38974     38976     38978     38977     38979
     38981     38980     38982     38984     38983     38985     38987     38986     38988
     38990     38989     38991     38993     38992     38994     38996     38995     38997
     38999     38998     39000     39002     39001     39003     39005     39004     39006
     39008     39007     39009     39011     39010     39012     39014     39013     39015
     39017     39016     39018     39020     39019     39021     39023     39022     39024
     39026     39025     39027     39029     39028     39030     39032     39031     39033
     39035     39034     39036     39038     39037     39039     39041     39040     39042
     39044     39043     39045     39047     39046     39048     39050     39049     39051
     39053     39052     39054     39056     39055     39057     39059     39058     39060
     39062     39061     39063     39065     39064     39066     39068     39067     39069
     39071     39070     39072     39074     39073     39075     39077     39076     39078
     39080     39079     39081     39083     39082     39084     39086     39085     39087
     39089     39088     39090     39092     39091     39093     39095     39094     39096
     39098     39097     39099     39101     39100     39102     39104     39103     39105
     39107     39106     39108     39110     39109     39111     39113     39112     39114
     39116     39115     39117     39119     39118     39120     39122     39121     39123
     39125     39124     39126     39128     39127     39129     39131     39130     39132
     39134     39133     39135     39137     39136     39138     39140     39139     39141
     39143     39142     39144     39146     39145     39147     39149     39148     39150
     39152     39151     39153     39155     39154     39156     39158     39157     39159
     39161     39160     39162     39164     39163     39165     39167     39166     39168
     39170     39169     39171     39173     39172     39174     39176     39175     39177
     39179     39178     39180     39182     39181     39183     39185     39184     39186
     39188     39187     39189     39191     39190     39192     39194     39193     39195
     39197     39196     39198     39200     39199     39201     39203     39202     39204
     39206     39205     39207     39209     39208     39210     39212     39211     39213
     39215     39214     39216     39218     39217     39219     39221     39220     39222
     39224     39223     39225     39227     39226     39228     39230     39229     39231
     39233     39232     39234     39236     39235     39237     39239     39238     39240
     39242     39241     39243     39245     39244     39246     39248     39247     39249
     39251     39250     39252     39254     39253     39255     39257     39256     39258
     39260     39259     39261     39263     39262     39264     39266     39265     39267
     39269     39268     39270     39272     39271     39273     39275     39274     39276
     39278     39277     39279     39281     39280     39282     39284     39283     39285
     39287     39286     39288     39290     39289     39291     39293     39292     39294
     39296     39295     39297     39299     39298     39300     39302     39301     39303
     39305     39304     39306     39308     39307     39309     39311     39310     39312
     39314     39313     39315     39317     39316     39318     39320     39319     39321
     39323     39322     39324     39326     39325     39327     39329     39328     39330
     39332     39331     39333     39335     39334     39336     39338     39337     39339
     39341     39340     39342     39344     39343     39345     39347     39346     39348
     39350     39349     39351     39353     39352     39354     39356     39355     39357
     39359     39358     39360     39362     39361     39363     39365     39364     39366
     39368     39367     39369     39371     39370     39372     39374     39373     39375
     39377     39376     39378     39380     39379     39381     39383     39382     39384
     39386     39385     39387     39389     39388     39390     39392     39391     39393
     39395     39394     39396     39398     39397     39399     39401     39400     39402
     39404     39403     39405     39407     39406     39408     39410     39409     39411
     39413     39412     39414     39416     39415     39417     39419     39418     39420
     39422     39421     39423     39425     39424     39426     39428     39427     39429
     39431     39430     39432     39434     39433     39435     39437     39436     39438
     39440     39439     39441     39443     39442     39444     39446     39445     39447
     39449     39448     39450     39452     39451     39453     39455     39454     39456
     39458     39457     39459     39461     39460     39462     39464     39463     39465
     39467     39466     39468     39470     39469     39471     39473     39472     39474
     39476     39475     39477     39479     39478     39480     39482     39481     39483
     39485     39484     39486     39488     39487     39489     39491     39490     39492
     39494     39493     39495     39497     39496     39498     39500     39499     39501
     39503     39502     39504     39506     39505     39507     39509     39508     39510
     39512     39511     39513     39515     39514     39516     39518     39517     39519
     39521     39520     39522     39524     39523     39525     39527     39526     39528
     39530     39529     39531     39533     39532     39534     39536     39535     39537
     39539     39538     39540     39542     39541     39543     39545     39544     39546
     39548     39547     39549     39551     39550     39552     39554     39553     39555
     39557     39556     39558     39560     39559     39561     39563     39562     39564
     39566     39565     39567     39569     39568     39570     39572     39571     39573
     39575     39574     39576     39578     39577     39579     39581     39580     39582
     39584     39583     39585     39587     39586     39588     39590     39589     39591
     39593     39592     39594     39596     39595     39597     39599     39598     39600
     39602     39601     39603     39605     39604     39606     39608     39607     39609
     39611     39610     39612     39614     39613     39615     39617     39616     39618
     39620     39619     39621     39623     39622     39624     39626     39625     39627
     39629     39628     39630     39632     39631     39633     39635     39634     39636
     39638     39637     39639     39641     39640     39642     39644     39643     39645
     39647     39646     39648     39650     39649     39651     39653     39652     39654
     39656     39655     39657     39659     39658     39660     39662     39661     39663
     39665     39664     39666     39668     39667     39669     39671     39670     39672
     39674     39673     39675     39677     39676     39678     39680     39679     39681
     39683     39682     39684     39686     39685     39687     39689     39688     39690
     39692     39691     39693     39695     39694     39696     39698     39697     39699
     39701     39700     39702     39704     39703     39705     39707     39706     39708
     39710     39709     39711     39713     39712     39714     39716     39715     39717
     39719     39718     39720     39722     39721     39723     39725     39724     39726
     39728     39727     39729     39731     39730     39732     39734     39733     39735
     39737     39736     39738     39740     39739     39741     39743     39742     39744
     39746     39745     39747     39749     39748     39750     39752     39751     39753
     39755     39754     39756     39758     39757     39759     39761     39760     39762
     39764     39763     39765     39767     39766     39768     39770     39769     39771
     39773     39772     39774     39776     39775     39777     39779     39778     39780
     39782     39781     39783     39785     39784     39786     39788     39787     39789
     39791     39790     39792     39794     39793     39795     39797     39796     39798
     39800     39799     39801     39803     39802     39804     39806     39805     39807
     39809     39808     39810     39812     39811     39813     39815     39814     39816
     39818     39817     39819     39821     39820     39822     39824     39823     39825
     39827     39826     39828     39830     39829     39831     39833     39832     39834
     39836     39835     39837     39839     39838     39840     39842     39841     39843
     39845     39844     39846     39848     39847     39849     39851     39850     39852
     39854     39853     39855     39857     39856     39858     39860     39859     39861
     39863     39862     39864     39866     39865     39867     39869     39868     39870
     39872     39871     39873     39875     39874     39876     39878     39877     39879
     39881     39880     39882     39884     39883     39885     39887     39886     39888
     39890     39889     39891     39893     39892     39894     39896     39895     39897
     39899     39898     39900     39902     39901     39903     39905     39904     39906
     39908     39907     39909     39911     39910     39912     39914     39913     39915
     39917     39916     39918     39920     39919     39921     39923     39922     39924
     39926     39925     39927     39929     39928     39930     39932     39931     39933
     39935     39934     39936     39938     39937     39939     39941     39940     39942
     39944     39943     39945     39947     39946     39948     39950     39949     39951
     39953     39952     39954     39956     39955     39957     39959     39958     39960
     39962     39961     39963     39965     39964     39966     39968     39967     39969
     39971     39970     39972     39974     39973     39975     39977     39976     39978
     39980     39979     39981     39983     39982     39984     39986     39985     39987
     39989     39988     39990     39992     39991     39993     39995     39994     39996
     39998     39997     39999     40001     40000     40002     40004     40003     40005
     40007     40006     40008     40010     40009     40011     40013     40012     40014
     40016     40015     40017     40019     40018     40020     40022     40021     40023
     40025     40024     40026     40028     40027     40029     40031     40030     40032
     40034     40033     40035     40037     40036     40038     40040     40039     40041
     40043     40042     40044     40046     40045     40047     40049     40048     40050
     40052     40051     40053     40055     40054     40056     40058     40057     40059
     40061     40060     40062     40064     40063     40065     40067     40066     40068
     40070     40069     40071     40073     40072     40074     40076     40075     40077
     40079     40078     40080     40082     40081     40083     40085     40084     40086
     40088     40087     40089     40091     40090     40092     40094     40093     40095
     40097     40096     40098     40100     40099     40101     40103     40102     40104
     40106     40105     40107     40109     40108     40110     40112     40111     40113
     40115     40114     40116     40118     40117     40119     40121     40120     40122
     40124     40123     40125     40127     40126     40128     40130     40129     40131
     40133     40132     40134     40136     40135     40137     40139     40138     40140
     40142     40141     40143     40145     40144     40146     40148     40147     40149
     40151     40150     40152     40154     40153     40155     40157     40156     40158
     40160     40159     40161     40163     40162     40164     40166     40165     40167
     40169     40168     40170     40172     40171     40173     40175     40174     40176
     40178     40177     40179     40181     40180     40182     40184     40183     40185
     40187     40186     40188     40190     40189     40191     40193     40192     40194
     40196     40195     40197     40199     40198     40200     40202     40201     40203
     40205     40204     40206     40208     40207     40209     40211     40210     40212
     40214     40213     40215     40217     40216     40218     40220     40219     40221
     40223     40222     40224     40226     40225     40227     40229     40228     40230
     40232     40231     40233     40235     40234     40236     40238     40237     40239
     40241     40240     40242     40244     40243     40245     40247     40246     40248
     40250     40249     40251     40253     40252     40254     40256     40255     40257
     40259     40258     40260     40262     40261     40263     40265     40264     40266
     40268     40267     40269     40271     40270     40272     40274     40273     40275
     40277     40276     40278     40280     40279     40281     40283     40282     40284
     40286     40285     40287     40289     40288     40290     40292     40291     40293
     40295     40294     40296     40298     40297     40299     40301     40300     40302
     40304     40303     40305     40307     40306     40308     40310     40309     40311
     40313     40312     40314     40316     40315     40317     40319     40318     40320
     40322     40321     40323     40325     40324     40326     40328     40327     40329
     40331     40330     40332     40334     40333     40335     40337     40336     40338
     40340     40339     40341     40343     40342     40344     40346     40345     40347
     40349     40348     40350     40352     40351     40353     40355     40354     40356
     40358     40357     40359     40361     40360     40362     40364     40363     40365
     40367     40366     40368     40370     40369     40371     40373     40372     40374
     40376     40375     40377     40379     40378     40380     40382     40381     40383
     40385     40384     40386     40388     40387     40389     40391     40390     40392
     40394     40393     40395     40397     40396     40398     40400     40399     40401
     40403     40402     40404     40406     40405     40407     40409     40408     40410
     40412     40411     40413     40415     40414     40416     40418     40417     40419
     40421     40420     40422     40424     40423     40425     40427     40426     40428
     40430     40429     40431     40433     40432     40434     40436     40435     40437
     40439     40438     40440     40442     40441     40443     40445     40444     40446
     40448     40447     40449     40451     40450     40452     40454     40453     40455
     40457     40456     40458     40460     40459     40461     40463     40462     40464
     40466     40465     40467     40469     40468     40470     40472     40471     40473
     40475     40474     40476     40478     40477     40479     40481     40480     40482
     40484     40483     40485     40487     40486     40488     40490     40489     40491
     40493     40492     40494     40496     40495     40497     40499     40498     40500
     40502     40501     40503     40505     40504     40506     40508     40507     40509
     40511     40510     40512     40514     40513     40515     40517     40516     40518
     40520     40519     40521     40523     40522     40524     40526     40525     40527
     40529     40528     40530     40532     40531     40533     40535     40534     40536
     40538     40537     40539     40541     40540     40542     40544     40543     40545
     40547     40546     40548     40550     40549     40551     40553     40552     40554
     40556     40555     40557     40559     40558     40560     40562     40561     40563
     40565     40564     40566     40568     40567     40569     40571     40570     40572
     40574     40573     40575     40577     40576     40578     40580     40579     40581
     40583     40582     40584     40586     40585     40587     40589     40588     40590
     40592     40591     40593     40595     40594     40596     40598     40597     40599
     40601     40600     40602     40604     40603     40605     40607     40606     40608
     40610     40609     40611     40613     40612     40614     40616     40615     40617
     40619     40618     40620     40622     40621     40623     40625     40624     40626
     40628     40627     40629     40631     40630     40632     40634     40633     40635
     40637     40636     40638     40640     40639     40641     40643     40642     40644
     40646     40645     40647     40649     40648     40650     40652     40651     40653
     40655     40654     40656     40658     40657     40659     40661     40660     40662
     40664     40663     40665     40667     40666     40668     40670     40669     40671
     40673     40672     40674     40676     40675     40677     40679     40678     40680
     40682     40681     40683     40685     40684     40686     40688     40687     40689
     40691     40690     40692     40694     40693     40695     40697     40696     40698
     40700     40699     40701     40703     40702     40704     40706     40705     40707
     40709     40708     40710     40712     40711     40713     40715     40714     40716
     40718     40717     40719     40721     40720     40722     40724     40723     40725
     40727     40726     40728     40730     40729     40731     40733     40732     40734
     40736     40735     40737     40739     40738     40740     40742     40741     40743
     40745     40744     40746     40748     40747     40749     40751     40750     40752
     40754     40753     40755     40757     40756     40758     40760     40759     40761
     40763     40762     40764     40766     40765     40767     40769     40768     40770
     40772     40771     40773     40775     40774     40776     40778     40777     40779
     40781     40780     40782     40784     40783     40785     40787     40786     40788
     40790     40789     40791     40793     40792     40794     40796     40795     40797
     40799     40798     40800     40802     40801     40803     40805     40804     40806
     40808     40807     40809     40811     40810     40812     40814     40813     40815
     40817     40816     40818     40820     40819     40821     40823     40822     40824
     40826     40825     40827     40829     40828     40830     40832     40831     40833
     40835     40834     40836     40838     40837     40839     40841     40840     40842
     40844     40843     40845     40847     40846     40848     40850     40849     40851
     40853     40852     40854     40856     40855     40857     40859     40858     40860
     40862     40861     40863     40865     40864     40866     40868     40867     40869
     40871     40870     40872     40874     40873     40875     40877     40876     40878
     40880     40879     40881     40883     40882     40884     40886     40885     40887
     40889     40888     40890     40892     40891     40893     40895     40894     40896
     40898     40897     40899     40901     40900     40902     40904     40903     40905
     40907     40906     40908     40910     40909     40911     40913     40912     40914
     40916     40915     40917     40919     40918     40920     40922     40921     40923
     40925     40924     40926     40928     40927     40929     40931     40930     40932
     40934     40933     40935     40937     40936     40938     40940     40939     40941
     40943     40942     40944     40946     40945     40947     40949     40948     40950
     40952     40951     40953     40955     40954     40956     40958     40957     40959
     40961     40960     40962     40964     40963     40965     40967     40966     40968
     40970     40969     40971     40973     40972     40974     40976     40975     40977
     40979     40978     40980     40982     40981     40983     40985     40984     40986
     40988     40987     40989     40991     40990     40992     40994     40993     40995
     40997     40996     40998     41000     40999     41001     41003     41002     41004
     41006     41005     41007     41009     41008     41010     41012     41011     41013
     41015     41014     41016     41018     41017     41019     41021     41020     41022
     41024     41023     41025     41027     41026     41028     41030     41029     41031
     41033     41032     41034     41036     41035     41037     41039     41038     41040
     41042     41041     41043     41045     41044     41046     41048     41047     41049
     41051     41050     41052     41054     41053     41055     41057     41056     41058
     41060     41059     41061     41063     41062     41064     41066     41065     41067
     41069     41068     41070     41072     41071     41073     41075     41074     41076
     41078     41077     41079     41081     41080     41082     41084     41083     41085
     41087     41086     41088     41090     41089     41091     41093     41092     41094
     41096     41095     41097     41099     41098     41100     41102     41101     41103
     41105     41104     41106     41108     41107     41109     41111     41110     41112
     41114     41113     41115     41117     41116     41118     41120     41119     41121
     41123     41122     41124     41126     41125     41127     41129     41128     41130
     41132     41131     41133     41135     41134     41136     41138     41137     41139
     41141     41140     41142     41144     41143     41145     41147     41146     41148
     41150     41149     41151     41153     41152     41154     41156     41155     41157
     41159     41158     41160     41162     41161     41163     41165     41164     41166
     41168     41167     41169     41171     41170     41172     41174     41173     41175
     41177     41176     41178     41180     41179     41181     41183     41182     41184
     41186     41185     41187     41189     41188     41190     41192     41191     41193
     41195     41194     41196     41198     41197     41199     41201     41200     41202
     41204     41203     41205     41207     41206     41208     41210     41209     41211
     41213     41212     41214     41216     41215     41217     41219     41218     41220
     41222     41221     41223     41225     41224     41226     41228     41227     41229
     41231     41230     41232     41234     41233     41235     41237     41236     41238
     41240     41239     41241     41243     41242     41244     41246     41245     41247
     41249     41248     41250     41252     41251     41253     41255     41254     41256
     41258     41257     41259     41261     41260     41262     41264     41263     41265
     41267     41266     41268     41270     41269     41271     41273     41272     41274
     41276     41275     41277     41279     41278     41280     41282     41281     41283
     41285     41284     41286     41288     41287     41289     41291     41290     41292
     41294     41293     41295     41297     41296     41298     41300     41299     41301
     41303     41302     41304     41306     41305     41307     41309     41308     41310
     41312     41311     41313     41315     41314     41316     41318     41317     41319
     41321     41320     41322     41324     41323     41325     41327     41326     41328
     41330     41329     41331     41333     41332     41334     41336     41335     41337
     41339     41338     41340     41342     41341     41343     41345     41344     41346
     41348     41347     41349     41351     41350     41352     41354     41353     41355
     41357     41356     41358     41360     41359     41361     41363     41362     41364
     41366     41365     41367     41369     41368     41370     41372     41371     41373
     41375     41374     41376     41378     41377     41379     41381     41380     41382
     41384     41383     41385     41387     41386     41388     41390     41389     41391
     41393     41392     41394     41396     41395     41397     41399     41398     41400
     41402     41401     41403     41405     41404     41406     41408     41407     41409
     41411     41410     41412     41414     41413     41415     41417     41416     41418
     41420     41419     41421     41423     41422     41424     41426     41425     41427
     41429     41428     41430     41432     41431     41433     41435     41434     41436
     41438     41437     41439     41441     41440     41442     41444     41443     41445
     41447     41446     41448     41450     41449     41451     41453     41452     41454
     41456     41455     41457     41459     41458     41460     41462     41461     41463
     41465     41464     41466     41468     41467     41469     41471     41470     41472
     41474     41473     41475     41477     41476     41478     41480     41479     41481
     41483     41482     41484     41486     41485     41487     41489     41488     41490
     41492     41491     41493     41495     41494     41496     41498     41497     41499
     41501     41500     41502     41504     41503     41505     41507     41506     41508
     41510     41509     41511     41513     41512     41514     41516     41515     41517
     41519     41518     41520     41522     41521     41523     41525     41524     41526
     41528     41527     41529     41531     41530     41532     41534     41533     41535
     41537     41536     41538     41540     41539     41541     41543     41542     41544
     41546     41545     41547     41549     41548     41550     41552     41551     41553
     41555     41554     41556     41558     41557     41559     41561     41560     41562
     41564     41563     41565     41567     41566     41568     41570     41569     41571
     41573     41572     41574     41576     41575     41577     41579     41578     41580
     41582     41581     41583     41585     41584     41586     41588     41587     41589
     41591     41590     41592     41594     41593     41595     41597     41596     41598
     41600     41599     41601     41603     41602     41604     41606     41605     41607
     41609     41608     41610     41612     41611     41613     41615     41614     41616
     41618     41617     41619     41621     41620     41622     41624     41623     41625
     41627     41626     41628     41630     41629     41631     41633     41632     41634
     41636     41635     41637     41639     41638     41640     41642     41641     41643
     41645     41644     41646     41648     41647     41649     41651     41650     41652
     41654     41653     41655     41657     41656     41658     41660     41659     41661
     41663     41662     41664     41666     41665     41667     41669     41668     41670
     41672     41671     41673     41675     41674     41676     41678     41677     41679
     41681     41680     41682     41684     41683     41685     41687     41686     41688
     41690     41689     41691     41693     41692     41694     41696     41695     41697
     41699     41698     41700     41702     41701     41703     41705     41704     41706
     41708     41707     41709     41711     41710     41712     41714     41713     41715
     41717     41716     41718     41720     41719     41721     41723     41722     41724
     41726     41725     41727     41729     41728     41730     41732     41731     41733
     41735     41734     41736     41738     41737     41739     41741     41740     41742
     41744     41743     41745     41747     41746     41748     41750     41749     41751
     41753     41752     41754     41756     41755     41757     41759     41758     41760
     41762     41761     41763     41765     41764     41766     41768     41767     41769
     41771     41770     41772     41774     41773     41775     41777     41776     41778
     41780     41779     41781     41783     41782     41784     41786     41785     41787
     41789     41788     41790     41792     41791     41793     41795     41794     41796
     41798     41797     41799     41801     41800     41802     41804     41803     41805
     41807     41806     41808     41810     41809     41811     41813     41812     41814
     41816     41815     41817     41819     41818     41820     41822     41821     41823
     41825     41824     41826     41828     41827     41829     41831     41830     41832
     41834     41833     41835     41837     41836     41838     41840     41839     41841
     41843     41842     41844     41846     41845     41847     41849     41848     41850
     41852     41851     41853     41855     41854     41856     41858     41857     41859
     41861     41860     41862     41864     41863     41865     41867     41866     41868
     41870     41869     41871     41873     41872     41874     41876     41875     41877
     41879     41878     41880     41882     41881     41883     41885     41884     41886
     41888     41887     41889     41891     41890     41892     41894     41893     41895
     41897     41896     41898     41900     41899     41901     41903     41902     41904
     41906     41905     41907     41909     41908     41910     41912     41911     41913
     41915     41914     41916     41918     41917     41919     41921     41920     41922
     41924     41923     41925     41927     41926     41928     41930     41929     41931
     41933     41932     41934     41936     41935     41937     41939     41938     41940
     41942     41941     41943     41945     41944     41946     41948     41947     41949
     41951     41950     41952     41954     41953     41955     41957     41956     41958
     41960     41959     41961     41963     41962     41964     41966     41965     41967
     41969     41968     41970     41972     41971     41973     41975     41974     41976
     41978     41977     41979     41981     41980     41982     41984     41983     41985
     41987     41986     41988     41990     41989     41991     41993     41992     41994
     41996     41995     41997     41999     41998     42000     42002     42001     42003
     42005     42004     42006     42008     42007     42009     42011     42010     42012
     42014     42013     42015     42017     42016     42018     42020     42019     42021
     42023     42022     42024     42026     42025     42027     42029     42028     42030
     42032     42031     42033     42035     42034     42036     42038     42037     42039
     42041     42040     42042     42044     42043     42045     42047     42046     42048
     42050     42049     42051     42053     42052     42054     42056     42055     42057
     42059     42058     42060     42062     42061     42063     42065     42064     42066
     42068     42067     42069     42071     42070     42072     42074     42073     42075
     42077     42076     42078     42080     42079     42081     42083     42082     42084
     42086     42085     42087     42089     42088     42090     42092     42091     42093
     42095     42094     42096     42098     42097     42099     42101     42100     42102
     42104     42103     42105     42107     42106     42108     42110     42109     42111
     42113     42112     42114     42116     42115     42117     42119     42118     42120
     42122     42121     42123     42125     42124     42126     42128     42127     42129
     42131     42130     42132     42134     42133     42135     42137     42136     42138
     42140     42139     42141     42143     42142     42144     42146     42145     42147
     42149     42148     42150     42152     42151     42153     42155     42154     42156
     42158     42157     42159     42161     42160     42162     42164     42163     42165
     42167     42166     42168     42170     42169     42171     42173     42172     42174
     42176     42175     42177     42179     42178     42180     42182     42181     42183
     42185     42184     42186     42188     42187     42189     42191     42190     42192
     42194     42193     42195     42197     42196     42198     42200     42199     42201
     42203     42202     42204     42206     42205     42207     42209     42208     42210
     42212     42211     42213     42215     42214     42216     42218     42217     42219
     42221     42220     42222     42224     42223     42225     42227     42226     42228
     42230     42229     42231     42233     42232     42234     42236     42235     42237
     42239     42238     42240     42242     42241     42243     42245     42244     42246
     42248     42247     42249     42251     42250     42252     42254     42253     42255
     42257     42256     42258     42260     42259     42261     42263     42262     42264
     42266     42265     42267     42269     42268     42270     42272     42271     42273
     42275     42274     42276     42278     42277     42279     42281     42280     42282
     42284     42283     42285     42287     42286     42288     42290     42289     42291
     42293     42292     42294     42296     42295     42297     42299     42298     42300
     42302     42301     42303     42305     42304     42306     42308     42307     42309
     42311     42310     42312     42314     42313     42315     42317     42316     42318
     42320     42319     42321     42323     42322     42324     42326     42325     42327
     42329     42328     42330     42332     42331     42333     42335     42334     42336
     42338     42337     42339     42341     42340     42342     42344     42343     42345
     42347     42346     42348     42350     42349     42351     42353     42352     42354
     42356     42355     42357     42359     42358     42360     42362     42361     42363
     42365     42364     42366     42368     42367     42369     42371     42370     42372
     42374     42373     42375     42377     42376     42378     42380     42379     42381
     42383     42382     42384     42386     42385     42387     42389     42388     42390
     42392     42391     42393     42395     42394     42396     42398     42397     42399
     42401     42400     42402     42404     42403     42405     42407     42406     42408
     42410     42409     42411     42413     42412     42414     42416     42415     42417
     42419     42418     42420     42422     42421     42423     42425     42424     42426
     42428     42427     42429     42431     42430     42432     42434     42433     42435
     42437     42436     42438     42440     42439     42441     42443     42442     42444
     42446     42445     42447     42449     42448     42450     42452     42451     42453
     42455     42454     42456     42458     42457     42459     42461     42460     42462
     42464     42463     42465     42467     42466     42468     42470     42469     42471
     42473     42472     42474     42476     42475     42477     42479     42478     42480
     42482     42481     42483     42485     42484     42486     42488     42487     42489
     42491     42490     42492     42494     42493     42495     42497     42496     42498
     42500     42499     42501     42503     42502     42504     42506     42505     42507
     42509     42508     42510     42512     42511     42513     42515     42514     42516
     42518     42517     42519     42521     42520     42522     42524     42523     42525
     42527     42526     42528     42530     42529     42531     42533     42532     42534
     42536     42535     42537     42539     42538     42540     42542     42541     42543
     42545     42544     42546     42548     42547     42549     42551     42550     42552
     42554     42553     42555     42557     42556     42558     42560     42559     42561
     42563     42562     42564     42566     42565     42567     42569     42568     42570
     42572     42571     42573     42575     42574     42576     42578     42577     42579
     42581     42580     42582     42584     42583     42585     42587     42586     42588
     42590     42589     42591     42593     42592     42594     42596     42595     42597
     42599     42598     42600     42602     42601     42603     42605     42604     42606
     42608     42607     42609     42611     42610     42612     42614     42613     42615
     42617     42616     42618     42620     42619     42621     42623     42622     42624
     42626     42625     42627     42629     42628     42630     42632     42631     42633
     42635     42634     42636     42638     42637     42639     42641     42640     42642
     42644     42643     42645     42647     42646     42648     42650     42649     42651
     42653     42652     42654     42656     42655     42657     42659     42658     42660
     42662     42661     42663     42665     42664     42666     42668     42667     42669
     42671     42670     42672     42674     42673     42675     42677     42676     42678
     42680     42679     42681     42683     42682     42684     42686     42685     42687
     42689     42688     42690     42692     42691     42693     42695     42694     42696
     42698     42697     42699     42701     42700     42702     42704     42703     42705
     42707     42706     42708     42710     42709     42711     42713     42712     42714
     42716     42715     42717     42719     42718     42720     42722     42721     42723
     42725     42724     42726     42728     42727     42729     42731     42730     42732
     42734     42733     42735     42737     42736     42738     42740     42739     42741
     42743     42742     42744     42746     42745     42747     42749     42748     42750
     42752     42751     42753     42755     42754     42756     42758     42757     42759
     42761     42760     42762     42764     42763     42765     42767     42766     42768
     42770     42769     42771     42773     42772     42774     42776     42775     42777
     42779     42778     42780     42782     42781     42783     42785     42784     42786
     42788     42787     42789     42791     42790     42792     42794     42793     42795
     42797     42796     42798     42800     42799     42801     42803     42802     42804
     42806     42805     42807     42809     42808     42810     42812     42811     42813
     42815     42814     42816     42818     42817     42819     42821     42820     42822
     42824     42823     42825     42827     42826     42828     42830     42829     42831
     42833     42832     42834     42836     42835     42837     42839     42838     42840
     42842     42841     42843     42845     42844     42846     42848     42847     42849
     42851     42850     42852     42854     42853     42855     42857     42856     42858
     42860     42859     42861     42863     42862     42864     42866     42865     42867
     42869     42868     42870     42872     42871     42873     42875     42874     42876
     42878     42877     42879     42881     42880     42882     42884     42883     42885
     42887     42886     42888     42890     42889     42891     42893     42892     42894
     42896     42895     42897     42899     42898     42900     42902     42901     42903
     42905     42904     42906     42908     42907     42909     42911     42910     42912
     42914     42913     42915     42917     42916     42918     42920     42919     42921
     42923     42922     42924     42926     42925     42927     42929     42928     42930
     42932     42931     42933     42935     42934     42936     42938     42937     42939
     42941     42940     42942     42944     42943     42945     42947     42946     42948
     42950     42949     42951     42953     42952     42954     42956     42955     42957
     42959     42958     42960     42962     42961     42963     42965     42964     42966
     42968     42967     42969     42971     42970     42972     42974     42973     42975
     42977     42976     42978     42980     42979     42981     42983     42982     42984
     42986     42985     42987     42989     42988     42990     42992     42991     42993
     42995     42994     42996     42998     42997     42999     43001     43000     43002
     43004     43003     43005     43007     43006     43008     43010     43009     43011
     43013     43012     43014     43016     43015     43017     43019     43018     43020
     43022     43021     43023     43025     43024     43026     43028     43027     43029
     43031     43030     43032     43034     43033     43035     43037     43036     43038
     43040     43039     43041     43043     43042     43044     43046     43045     43047
     43049     43048     43050     43052     43051     43053     43055     43054     43056
     43058     43057     43059     43061     43060     43062     43064     43063     43065
     43067     43066     43068     43070     43069     43071     43073     43072     43074
     43076     43075     43077     43079     43078     43080     43082     43081     43083
     43085     43084     43086     43088     43087     43089     43091     43090     43092
     43094     43093     43095     43097     43096     43098     43100     43099     43101
     43103     43102     43104     43106     43105     43107     43109     43108     43110
     43112     43111     43113     43115     43114     43116     43118     43117     43119
     43121     43120     43122     43124     43123     43125     43127     43126     43128
     43130     43129     43131     43133     43132     43134     43136     43135     43137
     43139     43138     43140     43142     43141     43143     43145     43144     43146
     43148     43147     43149     43151     43150     43152     43154     43153     43155
     43157     43156     43158     43160     43159     43161     43163     43162     43164
     43166     43165     43167     43169     43168     43170     43172     43171     43173
     43175     43174     43176     43178     43177     43179     43181     43180     43182
     43184     43183     43185     43187     43186     43188     43190     43189     43191
     43193     43192     43194     43196     43195     43197     43199     43198     43200
     43202     43201     43203     43205     43204     43206     43208     43207     43209
     43211     43210     43212     43214     43213     43215     43217     43216     43218
     43220     43219     43221     43223     43222     43224     43226     43225     43227
     43229     43228     43230     43232     43231     43233     43235     43234     43236
     43238     43237     43239     43241     43240     43242     43244     43243     43245
     43247     43246     43248     43250     43249     43251     43253     43252     43254
     43256     43255     43257     43259     43258     43260     43262     43261     43263
     43265     43264     43266     43268     43267     43269     43271     43270     43272
     43274     43273     43275     43277     43276     43278     43280     43279     43281
     43283     43282     43284     43286     43285     43287     43289     43288     43290
     43292     43291     43293     43295     43294     43296     43298     43297     43299
     43301     43300     43302     43304     43303     43305     43307     43306     43308
     43310     43309     43311     43313     43312     43314     43316     43315     43317
     43319     43318     43320     43322     43321     43323     43325     43324     43326
     43328     43327     43329     43331     43330     43332     43334     43333     43335
     43337     43336     43338     43340     43339     43341     43343     43342     43344
     43346     43345     43347     43349     43348     43350     43352     43351     43353
     43355     43354     43356     43358     43357     43359     43361     43360     43362
     43364     43363     43365     43367     43366     43368     43370     43369     43371
     43373     43372     43374     43376     43375     43377     43379     43378     43380
     43382     43381     43383     43385     43384     43386     43388     43387     43389
     43391     43390     43392     43394     43393     43395     43397     43396     43398
     43400     43399     43401     43403     43402     43404     43406     43405     43407
     43409     43408     43410     43412     43411     43413     43415     43414     43416
     43418     43417     43419     43421     43420     43422     43424     43423     43425
     43427     43426     43428     43430     43429     43431     43433     43432     43434
     43436     43435     43437     43439     43438     43440     43442     43441     43443
     43445     43444     43446     43448     43447     43449     43451     43450     43452
     43454     43453     43455     43457     43456     43458     43460     43459     43461
     43463     43462     43464     43466     43465     43467     43469     43468     43470
     43472     43471     43473     43475     43474     43476     43478     43477     43479
     43481     43480     43482     43484     43483     43485     43487     43486     43488
     43490     43489     43491     43493     43492     43494     43496     43495     43497
     43499     43498     43500     43502     43501     43503     43505     43504     43506
     43508     43507     43509     43511     43510     43512     43514     43513     43515
     43517     43516     43518     43520     43519     43521     43523     43522     43524
     43526     43525     43527     43529     43528     43530     43532     43531     43533
     43535     43534     43536     43538     43537     43539     43541     43540     43542
     43544     43543     43545     43547     43546     43548     43550     43549     43551
     43553     43552     43554     43556     43555     43557     43559     43558     43560
     43562     43561     43563     43565     43564     43566     43568     43567     43569
     43571     43570     43572     43574     43573     43575     43577     43576     43578
     43580     43579     43581     43583     43582     43584     43586     43585     43587
     43589     43588     43590     43592     43591     43593     43595     43594     43596
     43598     43597     43599     43601     43600     43602     43604     43603     43605
     43607     43606     43608     43610     43609     43611     43613     43612     43614
     43616     43615     43617     43619     43618     43620     43622     43621     43623
     43625     43624     43626     43628     43627     43629     43631     43630     43632
     43634     43633     43635     43637     43636     43638     43640     43639     43641
     43643     43642     43644     43646     43645     43647     43649     43648     43650
     43652     43651     43653     43655     43654     43656     43658     43657     43659
     43661     43660     43662     43664     43663     43665     43667     43666     43668
     43670     43669     43671     43673     43672     43674     43676     43675     43677
     43679     43678     43680     43682     43681     43683     43685     43684     43686
     43688     43687     43689     43691     43690     43692     43694     43693     43695
     43697     43696     43698     43700     43699     43701     43703     43702     43704
     43706     43705     43707     43709     43708     43710     43712     43711     43713
     43715     43714     43716     43718     43717     43719     43721     43720     43722
     43724     43723     43725     43727     43726     43728     43730     43729     43731
     43733     43732     43734     43736     43735     43737     43739     43738     43740
     43742     43741     43743     43745     43744     43746     43748     43747     43749
     43751     43750     43752     43754     43753     43755     43757     43756     43758
     43760     43759     43761     43763     43762     43764     43766     43765     43767
     43769     43768     43770     43772     43771     43773     43775     43774     43776
     43778     43777     43779     43781     43780     43782     43784     43783     43785
     43787     43786     43788     43790     43789     43791     43793     43792     43794
     43796     43795     43797     43799     43798     43800     43802     43801     43803
     43805     43804     43806     43808     43807     43809     43811     43810     43812
     43814     43813     43815     43817     43816     43818     43820     43819     43821
     43823     43822     43824     43826     43825     43827     43829     43828     43830
     43832     43831     43833     43835     43834     43836     43838     43837     43839
     43841     43840     43842     43844     43843     43845     43847     43846     43848
     43850     43849     43851     43853     43852     43854     43856     43855     43857
     43859     43858     43860     43862     43861     43863     43865     43864     43866
     43868     43867     43869     43871     43870     43872     43874     43873     43875
     43877     43876     43878     43880     43879     43881     43883     43882     43884
     43886     43885     43887     43889     43888     43890     43892     43891     43893
     43895     43894     43896     43898     43897     43899     43901     43900     43902
     43904     43903     43905     43907     43906     43908     43910     43909     43911
     43913     43912     43914     43916     43915     43917     43919     43918     43920
     43922     43921     43923     43925     43924     43926     43928     43927     43929
     43931     43930     43932     43934     43933     43935     43937     43936     43938
     43940     43939     43941     43943     43942     43944     43946     43945     43947
     43949     43948     43950     43952     43951     43953     43955     43954     43956
     43958     43957     43959     43961     43960     43962     43964     43963     43965
     43967     43966     43968     43970     43969     43971     43973     43972     43974
     43976     43975     43977     43979     43978     43980     43982     43981     43983
     43985     43984     43986     43988     43987     43989     43991     43990     43992
     43994     43993     43995     43997     43996     43998     44000     43999     44001
     44003     44002     44004     44006     44005     44007     44009     44008     44010
     44012     44011     44013     44015     44014     44016     44018     44017     44019
     44021     44020     44022     44024     44023     44025     44027     44026     44028
     44030     44029     44031     44033     44032     44034     44036     44035     44037
     44039     44038     44040     44042     44041     44043     44045     44044     44046
     44048     44047     44049     44051     44050     44052     44054     44053     44055
     44057     44056     44058     44060     44059     44061     44063     44062     44064
     44066     44065     44067     44069     44068     44070     44072     44071     44073
     44075     44074     44076     44078     44077     44079     44081     44080     44082
     44084     44083     44085     44087     44086     44088     44090     44089     44091
     44093     44092     44094     44096     44095     44097     44099     44098     44100
     44102     44101     44103     44105     44104     44106     44108     44107     44109
     44111     44110     44112     44114     44113     44115     44117     44116     44118
     44120     44119     44121     44123     44122     44124     44126     44125     44127
     44129     44128     44130     44132     44131     44133     44135     44134     44136
     44138     44137     44139     44141     44140     44142     44144     44143     44145
     44147     44146     44148     44150     44149     44151     44153     44152     44154
     44156     44155     44157     44159     44158     44160     44162     44161     44163
     44165     44164     44166     44168     44167     44169     44171     44170     44172
     44174     44173     44175     44177     44176     44178     44180     44179     44181
     44183     44182     44184     44186     44185     44187     44189     44188     44190
     44192     44191     44193     44195     44194     44196     44198     44197     44199
     44201     44200     44202     44204     44203     44205     44207     44206     44208
     44210     44209     44211     44213     44212     44214     44216     44215     44217
     44219     44218     44220     44222     44221     44223     44225     44224     44226
     44228     44227     44229     44231     44230     44232     44234     44233     44235
     44237     44236     44238     44240     44239     44241     44243     44242     44244
     44246     44245     44247     44249     44248     44250     44252     44251     44253
     44255     44254     44256     44258     44257     44259     44261     44260     44262
     44264     44263     44265     44267     44266     44268     44270     44269     44271
     44273     44272     44274     44276     44275     44277     44279     44278     44280
     44282     44281     44283     44285     44284     44286     44288     44287     44289
     44291     44290     44292     44294     44293     44295     44297     44296     44298
     44300     44299     44301     44303     44302     44304     44306     44305     44307
     44309     44308     44310     44312     44311     44313     44315     44314     44316
     44318     44317     44319     44321     44320     44322     44324     44323     44325
     44327     44326     44328     44330     44329     44331     44333     44332     44334
     44336     44335     44337     44339     44338     44340     44342     44341     44343
     44345     44344     44346     44348     44347     44349     44351     44350     44352
     44354     44353     44355     44357     44356     44358     44360     44359     44361
     44363     44362     44364     44366     44365     44367     44369     44368     44370
     44372     44371     44373     44375     44374     44376     44378     44377     44379
     44381     44380     44382     44384     44383     44385     44387     44386     44388
     44390     44389     44391     44393     44392     44394     44396     44395     44397
     44399     44398     44400     44402     44401     44403     44405     44404     44406
     44408     44407     44409     44411     44410     44412     44414     44413     44415
     44417     44416     44418     44420     44419     44421     44423     44422     44424
     44426     44425     44427     44429     44428     44430     44432     44431     44433
     44435     44434     44436     44438     44437     44439     44441     44440     44442
     44444     44443     44445     44447     44446     44448     44450     44449     44451
     44453     44452     44454     44456     44455     44457     44459     44458     44460
     44462     44461     44463     44465     44464     44466     44468     44467     44469
     44471     44470     44472     44474     44473     44475     44477     44476     44478
     44480     44479     44481     44483     44482     44484     44486     44485     44487
     44489     44488     44490     44492     44491     44493     44495     44494     44496
     44498     44497     44499     44501     44500     44502     44504     44503     44505
     44507     44506     44508     44510     44509     44511     44513     44512     44514
     44516     44515     44517     44519     44518     44520     44522     44521     44523
     44525     44524     44526     44528     44527     44529     44531     44530     44532
     44534     44533     44535     44537     44536     44538     44540     44539     44541
     44543     44542     44544     44546     44545     44547     44549     44548     44550
     44552     44551     44553     44555     44554     44556     44558     44557     44559
     44561     44560     44562     44564     44563     44565     44567     44566     44568
     44570     44569     44571     44573     44572     44574     44576     44575     44577
     44579     44578     44580     44582     44581     44583     44585     44584     44586
     44588     44587     44589     44591     44590     44592     44594     44593     44595
     44597     44596     44598     44600     44599     44601     44603     44602     44604
     44606     44605     44607     44609     44608     44610     44612     44611     44613
     44615     44614     44616     44618     44617     44619     44621     44620     44622
     44624     44623     44625     44627     44626     44628     44630     44629     44631
     44633     44632     44634     44636     44635     44637     44639     44638     44640
     44642     44641     44643     44645     44644     44646     44648     44647     44649
     44651     44650     44652     44654     44653     44655     44657     44656     44658
     44660     44659     44661     44663     44662     44664     44666     44665     44667
     44669     44668     44670     44672     44671     44673     44675     44674     44676
     44678     44677     44679     44681     44680     44682     44684     44683     44685
     44687     44686     44688     44690     44689     44691     44693     44692     44694
     44696     44695     44697     44699     44698     44700     44702     44701     44703
     44705     44704     44706     44708     44707     44709     44711     44710     44712
     44714     44713     44715     44717     44716     44718     44720     44719     44721
     44723     44722     44724     44726     44725     44727     44729     44728     44730
     44732     44731     44733     44735     44734     44736     44738     44737     44739
     44741     44740     44742     44744     44743     44745     44747     44746     44748
     44750     44749     44751     44753     44752     44754     44756     44755     44757
     44759     44758     44760     44762     44761     44763     44765     44764     44766
     44768     44767     44769     44771     44770     44772     44774     44773     44775
     44777     44776     44778     44780     44779     44781     44783     44782     44784
     44786     44785     44787     44789     44788     44790     44792     44791     44793
     44795     44794     44796     44798     44797     44799     44801     44800     44802
     44804     44803     44805     44807     44806     44808     44810     44809     44811
     44813     44812     44814     44816     44815     44817     44819     44818     44820
     44822     44821     44823     44825     44824     44826     44828     44827     44829
     44831     44830     44832     44834     44833     44835     44837     44836     44838
     44840     44839     44841     44843     44842     44844     44846     44845     44847
     44849     44848     44850     44852     44851     44853     44855     44854     44856
     44858     44857     44859     44861     44860     44862     44864     44863     44865
     44867     44866     44868     44870     44869     44871     44873     44872     44874
     44876     44875     44877     44879     44878     44880     44882     44881     44883
     44885     44884     44886     44888     44887     44889     44891     44890     44892
     44894     44893     44895     44897     44896     44898     44900     44899     44901
     44903     44902     44904     44906     44905     44907     44909     44908     44910
     44912     44911     44913     44915     44914     44916     44918     44917     44919
     44921     44920     44922     44924     44923     44925     44927     44926     44928
     44930     44929     44931     44933     44932     44934     44936     44935     44937
     44939     44938     44940     44942     44941     44943     44945     44944     44946
     44948     44947     44949     44951     44950     44952     44954     44953     44955
     44957     44956     44958     44960     44959     44961     44963     44962     44964
     44966     44965     44967     44969     44968     44970     44972     44971     44973
     44975     44974     44976     44978     44977     44979     44981     44980     44982
     44984     44983     44985     44987     44986     44988     44990     44989     44991
     44993     44992     44994     44996     44995     44997     44999     44998     45000
     45002     45001     45003     45005     45004     45006     45008     45007     45009
     45011     45010     45012     45014     45013     45015     45017     45016     45018
     45020     45019     45021     45023     45022     45024     45026     45025     45027
     45029     45028     45030     45032     45031     45033     45035     45034     45036
     45038     45037     45039     45041     45040     45042     45044     45043     45045
     45047     45046     45048     45050     45049     45051     45053     45052     45054
     45056     45055     45057     45059     45058     45060     45062     45061     45063
     45065     45064     45066     45068     45067     45069     45071     45070     45072
     45074     45073     45075     45077     45076     45078     45080     45079     45081
     45083     45082     45084     45086     45085     45087     45089     45088     45090
     45092     45091     45093     45095     45094     45096     45098     45097     45099
     45101     45100     45102     45104     45103     45105     45107     45106     45108
     45110     45109     45111     45113     45112     45114     45116     45115     45117
     45119     45118     45120     45122     45121     45123     45125     45124     45126
     45128     45127     45129     45131     45130     45132     45134     45133     45135
     45137     45136     45138     45140     45139     45141     45143     45142     45144
     45146     45145     45147     45149     45148     45150     45152     45151     45153
     45155     45154     45156     45158     45157     45159     45161     45160     45162
     45164     45163     45165     45167     45166     45168     45170     45169     45171
     45173     45172     45174     45176     45175     45177     45179     45178     45180
     45182     45181     45183     45185     45184     45186     45188     45187     45189
     45191     45190     45192     45194     45193     45195     45197     45196     45198
     45200     45199     45201     45203     45202     45204     45206     45205     45207
     45209     45208     45210     45212     45211     45213     45215     45214     45216
     45218     45217     45219     45221     45220     45222     45224     45223     45225
     45227     45226     45228     45230     45229     45231     45233     45232     45234
     45236     45235     45237     45239     45238     45240     45242     45241     45243
     45245     45244     45246     45248     45247     45249     45251     45250     45252
     45254     45253     45255     45257     45256     45258     45260     45259     45261
     45263     45262     45264     45266     45265     45267     45269     45268     45270
     45272     45271     45273     45275     45274     45276     45278     45277     45279
     45281     45280     45282     45284     45283     45285     45287     45286     45288
     45290     45289     45291     45293     45292     45294     45296     45295     45297
     45299     45298     45300     45302     45301     45303     45305     45304     45306
     45308     45307     45309     45311     45310     45312     45314     45313     45315
     45317     45316     45318     45320     45319     45321     45323     45322     45324
     45326     45325     45327     45329     45328     45330     45332     45331     45333
     45335     45334     45336     45338     45337     45339     45341     45340     45342
     45344     45343     45345     45347     45346     45348     45350     45349     45351
     45353     45352     45354     45356     45355     45357     45359     45358     45360
     45362     45361     45363     45365     45364     45366     45368     45367     45369
     45371     45370     45372     45374     45373     45375     45377     45376     45378
     45380     45379     45381     45383     45382     45384     45386     45385     45387
     45389     45388     45390     45392     45391     45393     45395     45394     45396
     45398     45397     45399     45401     45400     45402     45404     45403     45405
     45407     45406     45408     45410     45409     45411     45413     45412     45414
     45416     45415     45417     45419     45418     45420     45422     45421     45423
     45425     45424     45426     45428     45427     45429     45431     45430     45432
     45434     45433     45435     45437     45436     45438     45440     45439     45441
     45443     45442     45444     45446     45445     45447     45449     45448     45450
     45452     45451     45453     45455     45454     45456     45458     45457     45459
     45461     45460     45462     45464     45463     45465     45467     45466     45468
     45470     45469     45471     45473     45472     45474     45476     45475     45477
     45479     45478     45480     45482     45481     45483     45485     45484     45486
     45488     45487     45489     45491     45490     45492     45494     45493     45495
     45497     45496     45498     45500     45499     45501     45503     45502     45504
     45506     45505     45507     45509     45508     45510     45512     45511     45513
     45515     45514     45516     45518     45517     45519     45521     45520     45522
     45524     45523     45525     45527     45526     45528     45530     45529     45531
     45533     45532     45534     45536     45535     45537     45539     45538     45540
     45542     45541     45543     45545     45544     45546     45548     45547     45549
     45551     45550     45552     45554     45553     45555     45557     45556     45558
     45560     45559     45561     45563     45562     45564     45566     45565     45567
     45569     45568     45570     45572     45571     45573     45575     45574     45576
     45578     45577     45579     45581     45580     45582     45584     45583     45585
     45587     45586     45588     45590     45589     45591     45593     45592     45594
     45596     45595     45597     45599     45598     45600     45602     45601     45603
     45605     45604     45606     45608     45607     45609     45611     45610     45612
     45614     45613     45615     45617     45616     45618     45620     45619     45621
     45623     45622     45624     45626     45625     45627     45629     45628     45630
     45632     45631     45633     45635     45634     45636     45638     45637     45639
     45641     45640     45642     45644     45643     45645     45647     45646     45648
     45650     45649     45651     45653     45652     45654     45656     45655     45657
     45659     45658     45660     45662     45661     45663     45665     45664     45666
     45668     45667     45669     45671     45670     45672     45674     45673     45675
     45677     45676     45678     45680     45679     45681     45683     45682     45684
     45686     45685     45687     45689     45688     45690     45692     45691     45693
     45695     45694     45696     45698     45697     45699     45701     45700     45702
     45704     45703     45705     45707     45706     45708     45710     45709     45711
     45713     45712     45714     45716     45715     45717     45719     45718     45720
     45722     45721     45723     45725     45724     45726     45728     45727     45729
     45731     45730     45732     45734     45733     45735     45737     45736     45738
     45740     45739     45741     45743     45742     45744     45746     45745     45747
     45749     45748     45750     45752     45751     45753     45755     45754     45756
     45758     45757     45759     45761     45760     45762     45764     45763     45765
     45767     45766     45768     45770     45769     45771     45773     45772     45774
     45776     45775     45777     45779     45778     45780     45782     45781     45783
     45785     45784     45786     45788     45787     45789     45791     45790     45792
     45794     45793     45795     45797     45796     45798     45800     45799     45801
     45803     45802     45804     45806     45805     45807     45809     45808     45810
     45812     45811     45813     45815     45814     45816     45818     45817     45819
     45821     45820     45822     45824     45823     45825     45827     45826     45828
     45830     45829     45831     45833     45832     45834     45836     45835     45837
     45839     45838     45840     45842     45841     45843     45845     45844     45846
     45848     45847     45849     45851     45850     45852     45854     45853     45855
     45857     45856     45858     45860     45859     45861     45863     45862     45864
     45866     45865     45867     45869     45868     45870     45872     45871     45873
     45875     45874     45876     45878     45877     45879     45881     45880     45882
     45884     45883     45885     45887     45886     45888     45890     45889     45891
     45893     45892     45894     45896     45895     45897     45899     45898     45900
     45902     45901     45903     45905     45904     45906     45908     45907     45909
     45911     45910     45912     45914     45913     45915     45917     45916     45918
     45920     45919     45921     45923     45922     45924     45926     45925     45927
     45929     45928     45930     45932     45931     45933     45935     45934     45936
     45938     45937     45939     45941     45940     45942     45944     45943     45945
     45947     45946     45948     45950     45949     45951     45953     45952     45954
     45956     45955     45957     45959     45958     45960     45962     45961     45963
     45965     45964     45966     45968     45967     45969     45971     45970     45972
     45974     45973     45975     45977     45976     45978     45980     45979     45981
     45983     45982     45984     45986     45985     45987     45989     45988     45990
     45992     45991     45993     45995     45994     45996     45998     45997     45999
     46001     46000     46002     46004     46003     46005     46007     46006     46008
     46010     46009     46011     46013     46012     46014     46016     46015     46017
     46019     46018     46020     46022     46021     46023     46025     46024     46026
     46028     46027     46029     46031     46030     46032     46034     46033     46035
     46037     46036     46038     46040     46039     46041     46043     46042     46044
     46046     46045     46047     46049     46048     46050     46052     46051     46053
     46055     46054     46056     46058     46057     46059     46061     46060     46062
     46064     46063     46065     46067     46066     46068     46070     46069     46071
     46073     46072     46074     46076     46075     46077     46079     46078     46080
     46082     46081     46083     46085     46084     46086     46088     46087     46089
     46091     46090     46092     46094     46093     46095     46097     46096     46098
     46100     46099     46101     46103     46102     46104     46106     46105     46107
     46109     46108     46110     46112     46111     46113     46115     46114     46116
     46118     46117     46119     46121     46120     46122     46124     46123     46125
     46127     46126     46128     46130     46129     46131     46133     46132     46134
     46136     46135     46137     46139     46138     46140     46142     46141     46143
     46145     46144     46146     46148     46147     46149     46151     46150     46152
     46154     46153     46155     46157     46156     46158     46160     46159     46161
     46163     46162     46164     46166     46165     46167     46169     46168     46170
     46172     46171     46173     46175     46174     46176     46178     46177     46179
     46181     46180     46182     46184     46183     46185     46187     46186     46188
     46190     46189     46191     46193     46192     46194     46196     46195     46197
     46199     46198     46200     46202     46201     46203     46205     46204     46206
     46208     46207     46209     46211     46210     46212     46214     46213     46215
     46217     46216     46218     46220     46219     46221     46223     46222     46224
     46226     46225     46227     46229     46228     46230     46232     46231     46233
     46235     46234     46236     46238     46237     46239     46241     46240     46242
     46244     46243     46245     46247     46246     46248     46250     46249     46251
     46253     46252     46254     46256     46255     46257     46259     46258     46260
     46262     46261     46263     46265     46264     46266     46268     46267     46269
     46271     46270     46272     46274     46273     46275     46277     46276     46278
     46280     46279     46281     46283     46282     46284     46286     46285     46287
     46289     46288     46290     46292     46291     46293     46295     46294     46296
     46298     46297     46299     46301     46300     46302     46304     46303     46305
     46307     46306     46308     46310     46309     46311     46313     46312     46314
     46316     46315     46317     46319     46318     46320     46322     46321     46323
     46325     46324     46326     46328     46327     46329     46331     46330     46332
     46334     46333     46335     46337     46336     46338     46340     46339     46341
     46343     46342     46344     46346     46345     46347     46349     46348     46350
     46352     46351     46353     46355     46354     46356     46358     46357     46359
     46361     46360     46362     46364     46363     46365     46367     46366     46368
     46370     46369     46371     46373     46372     46374     46376     46375     46377
     46379     46378     46380     46382     46381     46383     46385     46384     46386
     46388     46387     46389     46391     46390     46392     46394     46393     46395
     46397     46396     46398     46400     46399     46401     46403     46402     46404
     46406     46405     46407     46409     46408     46410     46412     46411     46413
     46415     46414     46416     46418     46417     46419     46421     46420     46422
     46424     46423     46425     46427     46426     46428     46430     46429     46431
     46433     46432     46434     46436     46435     46437     46439     46438     46440
     46442     46441     46443     46445     46444     46446     46448     46447     46449
     46451     46450     46452     46454     46453     46455     46457     46456     46458
     46460     46459     46461     46463     46462     46464     46466     46465     46467
     46469     46468     46470     46472     46471     46473     46475     46474     46476
     46478     46477     46479     46481     46480     46482     46484     46483     46485
     46487     46486     46488     46490     46489     46491     46493     46492     46494
     46496     46495     46497     46499     46498     46500     46502     46501     46503
     46505     46504     46506     46508     46507     46509     46511     46510     46512
     46514     46513     46515     46517     46516     46518     46520     46519     46521
     46523     46522     46524     46526     46525     46527     46529     46528     46530
     46532     46531     46533     46535     46534     46536     46538     46537     46539
     46541     46540     46542     46544     46543     46545     46547     46546     46548
     46550     46549     46551     46553     46552     46554     46556     46555     46557
     46559     46558     46560     46562     46561     46563     46565     46564     46566
     46568     46567     46569     46571     46570     46572     46574     46573     46575
     46577     46576     46578     46580     46579     46581     46583     46582     46584
     46586     46585     46587     46589     46588     46590     46592     46591     46593
     46595     46594     46596     46598     46597     46599     46601     46600     46602
     46604     46603     46605     46607     46606     46608     46610     46609     46611
     46613     46612     46614     46616     46615     46617     46619     46618     46620
     46622     46621     46623     46625     46624     46626     46628     46627     46629
     46631     46630     46632     46634     46633     46635     46637     46636     46638
     46640     46639     46641     46643     46642     46644     46646     46645     46647
     46649     46648     46650     46652     46651     46653     46655     46654     46656
     46658     46657     46659     46661     46660     46662     46664     46663     46665
     46667     46666     46668     46670     46669     46671     46673     46672     46674
     46676     46675     46677     46679     46678     46680     46682     46681     46683
     46685     46684     46686     46688     46687     46689     46691     46690     46692
     46694     46693     46695     46697     46696     46698     46700     46699     46701
     46703     46702     46704     46706     46705     46707     46709     46708     46710
     46712     46711     46713     46715     46714     46716     46718     46717     46719
     46721     46720     46722     46724     46723     46725     46727     46726     46728
     46730     46729     46731     46733     46732     46734     46736     46735     46737
     46739     46738     46740     46742     46741     46743     46745     46744     46746
     46748     46747     46749     46751     46750     46752     46754     46753     46755
     46757     46756     46758     46760     46759     46761     46763     46762     46764
     46766     46765     46767     46769     46768     46770     46772     46771     46773
     46775     46774     46776     46778     46777     46779     46781     46780     46782
     46784     46783     46785     46787     46786     46788     46790     46789     46791
     46793     46792     46794     46796     46795     46797     46799     46798     46800
     46802     46801     46803     46805     46804     46806     46808     46807     46809
     46811     46810     46812     46814     46813     46815     46817     46816     46818
     46820     46819     46821     46823     46822     46824     46826     46825     46827
     46829     46828     46830     46832     46831     46833     46835     46834     46836
     46838     46837     46839     46841     46840     46842     46844     46843     46845
     46847     46846     46848     46850     46849     46851     46853     46852     46854
     46856     46855     46857     46859     46858     46860     46862     46861     46863
     46865     46864     46866     46868     46867     46869     46871     46870     46872
     46874     46873     46875     46877     46876     46878     46880     46879     46881
     46883     46882     46884     46886     46885     46887     46889     46888     46890
     46892     46891     46893     46895     46894     46896     46898     46897     46899
     46901     46900     46902     46904     46903     46905     46907     46906     46908
     46910     46909     46911     46913     46912     46914     46916     46915     46917
     46919     46918     46920     46922     46921     46923     46925     46924     46926
     46928     46927     46929     46931     46930     46932     46934     46933     46935
     46937     46936     46938     46940     46939     46941     46943     46942     46944
     46946     46945     46947     46949     46948     46950     46952     46951     46953
     46955     46954     46956     46958     46957     46959     46961     46960     46962
     46964     46963     46965     46967     46966     46968     46970     46969     46971
     46973     46972     46974     46976     46975     46977     46979     46978     46980
     46982     46981     46983     46985     46984     46986     46988     46987     46989
     46991     46990     46992     46994     46993     46995     46997     46996     46998
     47000     46999     47001     47003     47002     47004     47006     47005     47007
     47009     47008     47010     47012     47011     47013     47015     47014     47016
     47018     47017     47019     47021     47020     47022     47024     47023     47025
     47027     47026     47028     47030     47029     47031     47033     47032     47034
     47036     47035     47037     47039     47038     47040     47042     47041     47043
     47045     47044     47046     47048     47047     47049     47051     47050     47052
     47054     47053     47055     47057     47056     47058     47060     47059     47061
     47063     47062     47064     47066     47065     47067     47069     47068     47070
     47072     47071     47073     47075     47074     47076     47078     47077     47079
     47081     47080     47082     47084     47083     47085     47087     47086     47088
     47090     47089     47091     47093     47092     47094     47096     47095     47097
     47099     47098     47100     47102     47101     47103     47105     47104     47106
     47108     47107     47109     47111     47110     47112     47114     47113     47115
     47117     47116     47118     47120     47119     47121     47123     47122     47124
     47126     47125     47127     47129     47128     47130     47132     47131     47133
     47135     47134     47136     47138     47137     47139     47141     47140     47142
     47144     47143     47145     47147     47146     47148     47150     47149     47151
     47153     47152     47154     47156     47155     47157     47159     47158     47160
     47162     47161     47163     47165     47164     47166     47168     47167     47169
     47171     47170     47172     47174     47173     47175     47177     47176     47178
     47180     47179     47181     47183     47182     47184     47186     47185     47187
     47189     47188     47190     47192     47191     47193     47195     47194     47196
     47198     47197     47199     47201     47200     47202     47204     47203     47205
     47207     47206     47208     47210     47209     47211     47213     47212     47214
     47216     47215     47217     47219     47218     47220     47222     47221     47223
     47225     47224     47226     47228     47227     47229     47231     47230     47232
     47234     47233     47235     47237     47236     47238     47240     47239     47241
     47243     47242     47244     47246     47245     47247     47249     47248     47250
     47252     47251     47253     47255     47254     47256     47258     47257     47259
     47261     47260     47262     47264     47263     47265     47267     47266     47268
     47270     47269     47271     47273     47272     47274     47276     47275     47277
     47279     47278     47280     47282     47281     47283     47285     47284     47286
     47288     47287     47289     47291     47290     47292     47294     47293     47295
     47297     47296     47298     47300     47299     47301     47303     47302     47304
     47306     47305     47307     47309     47308     47310     47312     47311     47313
     47315     47314     47316     47318     47317     47319     47321     47320     47322
     47324     47323     47325     47327     47326     47328     47330     47329     47331
     47333     47332     47334     47336     47335     47337     47339     47338     47340
     47342     47341     47343     47345     47344     47346     47348     47347     47349
     47351     47350     47352     47354     47353     47355     47357     47356     47358
     47360     47359     47361     47363     47362     47364     47366     47365     47367
     47369     47368     47370     47372     47371     47373     47375     47374     47376
     47378     47377     47379     47381     47380     47382     47384     47383     47385
     47387     47386     47388     47390     47389     47391     47393     47392     47394
     47396     47395     47397     47399     47398     47400     47402     47401     47403
     47405     47404     47406     47408     47407     47409     47411     47410     47412
     47414     47413     47415     47417     47416     47418     47420     47419     47421
     47423     47422     47424     47426     47425     47427     47429     47428     47430
     47432     47431     47433     47435     47434     47436     47438     47437     47439
     47441     47440     47442     47444     47443     47445     47447     47446     47448
     47450     47449     47451     47453     47452     47454     47456     47455     47457
     47459     47458     47460     47462     47461     47463     47465     47464     47466
     47468     47467     47469     47471     47470     47472     47474     47473     47475
     47477     47476     47478     47480     47479     47481     47483     47482     47484
     47486     47485     47487     47489     47488     47490     47492     47491     47493
     47495     47494     47496     47498     47497     47499     47501     47500     47502
     47504     47503     47505     47507     47506     47508     47510     47509     47511
     47513     47512     47514     47516     47515     47517     47519     47518     47520
     47522     47521     47523     47525     47524     47526     47528     47527     47529
     47531     47530     47532     47534     47533     47535     47537     47536     47538
     47540     47539     47541     47543     47542     47544     47546     47545     47547
     47549     47548     47550     47552     47551     47553     47555     47554     47556
     47558     47557     47559     47561     47560     47562     47564     47563     47565
     47567     47566     47568     47570     47569     47571     47573     47572     47574
     47576     47575     47577     47579     47578     47580     47582     47581     47583
     47585     47584     47586     47588     47587     47589     47591     47590     47592
     47594     47593     47595     47597     47596     47598     47600     47599     47601
     47603     47602     47604     47606     47605     47607     47609     47608     47610
     47612     47611     47613     47615     47614     47616     47618     47617     47619
     47621     47620     47622     47624     47623     47625     47627     47626     47628
     47630     47629     47631     47633     47632     47634     47636     47635     47637
     47639     47638     47640     47642     47641     47643     47645     47644     47646
     47648     47647     47649     47651     47650     47652     47654     47653     47655
     47657     47656     47658     47660     47659     47661     47663     47662     47664
     47666     47665     47667     47669     47668     47670     47672     47671     47673
     47675     47674     47676     47678     47677     47679     47681     47680     47682
     47684     47683     47685     47687     47686     47688     47690     47689     47691
     47693     47692     47694     47696     47695     47697     47699     47698     47700
     47702     47701     47703     47705     47704     47706     47708     47707     47709
     47711     47710     47712     47714     47713     47715     47717     47716     47718
     47720     47719     47721     47723     47722     47724     47726     47725     47727
     47729     47728     47730     47732     47731     47733     47735     47734     47736
     47738     47737     47739     47741     47740     47742     47744     47743     47745
     47747     47746     47748     47750     47749     47751     47753     47752     47754
     47756     47755     47757     47759     47758     47760     47762     47761     47763
     47765     47764     47766     47768     47767     47769     47771     47770     47772
     47774     47773     47775     47777     47776     47778     47780     47779     47781
     47783     47782     47784     47786     47785     47787     47789     47788     47790
     47792     47791     47793     47795     47794     47796     47798     47797     47799
     47801     47800     47802     47804     47803     47805     47807     47806     47808
     47810     47809     47811     47813     47812     47814     47816     47815     47817
     47819     47818     47820     47822     47821     47823     47825     47824     47826
     47828     47827     47829     47831     47830     47832     47834     47833     47835
     47837     47836     47838     47840     47839     47841     47843     47842     47844
     47846     47845     47847     47849     47848     47850     47852     47851     47853
     47855     47854     47856     47858     47857     47859     47861     47860     47862
     47864     47863     47865     47867     47866     47868     47870     47869     47871
     47873     47872     47874     47876     47875     47877     47879     47878     47880
     47882     47881     47883     47885     47884     47886     47888     47887     47889
     47891     47890     47892     47894     47893     47895     47897     47896     47898
     47900     47899     47901     47903     47902     47904     47906     47905     47907
     47909     47908     47910     47912     47911     47913     47915     47914     47916
     47918     47917     47919     47921     47920     47922     47924     47923     47925
     47927     47926     47928     47930     47929     47931     47933     47932     47934
     47936     47935     47937     47939     47938     47940     47942     47941     47943
     47945     47944     47946     47948     47947     47949     47951     47950     47952
     47954     47953     47955     47957     47956     47958     47960     47959     47961
     47963     47962     47964     47966     47965     47967     47969     47968     47970
     47972     47971     47973     47975     47974     47976     47978     47977     47979
     47981     47980     47982     47984     47983     47985     47987     47986     47988
     47990     47989     47991     47993     47992     47994     47996     47995     47997
     47999     47998     48000     48002     48001     48003     48005     48004     48006
     48008     48007     48009     48011     48010     48012     48014     48013     48015
     48017     48016     48018     48020     48019     48021     48023     48022     48024
     48026     48025     48027     48029     48028     48030     48032     48031     48033
     48035     48034     48036     48038     48037     48039     48041     48040     48042
     48044     48043     48045     48047     48046     48048     48050     48049     48051
     48053     48052     48054     48056     48055     48057     48059     48058     48060
     48062     48061     48063     48065     48064     48066     48068     48067     48069
     48071     48070     48072     48074     48073     48075     48077     48076     48078
     48080     48079     48081     48083     48082     48084     48086     48085     48087
     48089     48088     48090     48092     48091     48093     48095     48094     48096
     48098     48097     48099     48101     48100     48102     48104     48103     48105
     48107     48106     48108     48110     48109     48111     48113     48112     48114
     48116     48115     48117     48119     48118     48120     48122     48121     48123
     48125     48124     48126     48128     48127     48129     48131     48130     48132
     48134     48133     48135     48137     48136     48138     48140     48139     48141
     48143     48142     48144     48146     48145     48147     48149     48148     48150
     48152     48151     48153     48155     48154     48156     48158     48157     48159
     48161     48160     48162     48164     48163     48165     48167     48166     48168
     48170     48169     48171     48173     48172     48174     48176     48175     48177
     48179     48178     48180     48182     48181     48183     48185     48184     48186
     48188     48187     48189     48191     48190     48192     48194     48193     48195
     48197     48196     48198     48200     48199     48201     48203     48202     48204
     48206     48205     48207     48209     48208     48210     48212     48211     48213
     48215     48214     48216     48218     48217     48219     48221     48220     48222
     48224     48223     48225     48227     48226     48228     48230     48229     48231
     48233     48232     48234     48236     48235     48237     48239     48238     48240
     48242     48241     48243     48245     48244     48246     48248     48247     48249
     48251     48250     48252     48254     48253     48255     48257     48256     48258
     48260     48259     48261     48263     48262     48264     48266     48265     48267
     48269     48268     48270     48272     48271     48273     48275     48274     48276
     48278     48277     48279     48281     48280     48282     48284     48283     48285
     48287     48286     48288     48290     48289     48291     48293     48292     48294
     48296     48295     48297     48299     48298     48300     48302     48301     48303
     48305     48304     48306     48308     48307     48309     48311     48310     48312
     48314     48313     48315     48317     48316     48318     48320     48319     48321
     48323     48322     48324     48326     48325     48327     48329     48328     48330
     48332     48331     48333     48335     48334     48336     48338     48337     48339
     48341     48340     48342     48344     48343     48345     48347     48346     48348
     48350     48349     48351     48353     48352     48354     48356     48355     48357
     48359     48358     48360     48362     48361     48363     48365     48364     48366
     48368     48367     48369     48371     48370     48372     48374     48373     48375
     48377     48376     48378     48380     48379     48381     48383     48382     48384
     48386     48385     48387     48389     48388     48390     48392     48391     48393
     48395     48394     48396     48398     48397     48399     48401     48400     48402
     48404     48403     48405     48407     48406     48408     48410     48409     48411
     48413     48412     48414     48416     48415     48417     48419     48418     48420
     48422     48421     48423     48425     48424     48426     48428     48427     48429
     48431     48430     48432     48434     48433     48435     48437     48436     48438
     48440     48439     48441     48443     48442     48444     48446     48445     48447
     48449     48448     48450     48452     48451     48453     48455     48454     48456
     48458     48457     48459     48461     48460     48462     48464     48463     48465
     48467     48466     48468     48470     48469     48471     48473     48472     48474
     48476     48475     48477     48479     48478     48480     48482     48481     48483
     48485     48484     48486     48488     48487     48489     48491     48490     48492
     48494     48493     48495     48497     48496     48498     48500     48499     48501
     48503     48502     48504     48506     48505     48507     48509     48508     48510
     48512     48511     48513     48515     48514     48516     48518     48517     48519
     48521     48520     48522     48524     48523     48525     48527     48526     48528
     48530     48529     48531     48533     48532     48534     48536     48535     48537
     48539     48538     48540     48542     48541     48543     48545     48544     48546
     48548     48547     48549     48551     48550     48552     48554     48553     48555
     48557     48556     48558     48560     48559     48561     48563     48562     48564
     48566     48565     48567     48569     48568     48570     48572     48571     48573
     48575     48574     48576     48578     48577     48579     48581     48580     48582
     48584     48583     48585     48587     48586     48588     48590     48589     48591
     48593     48592     48594     48596     48595     48597     48599     48598     48600
     48602     48601     48603     48605     48604     48606     48608     48607     48609
     48611     48610     48612     48614     48613     48615     48617     48616     48618
     48620     48619     48621     48623     48622     48624     48626     48625     48627
     48629     48628     48630     48632     48631     48633     48635     48634     48636
     48638     48637     48639     48641     48640     48642     48644     48643     48645
     48647     48646     48648     48650     48649     48651     48653     48652     48654
     48656     48655     48657     48659     48658     48660     48662     48661     48663
     48665     48664     48666     48668     48667     48669     48671     48670     48672
     48674     48673     48675     48677     48676     48678     48680     48679     48681
     48683     48682     48684     48686     48685     48687     48689     48688     48690
     48692     48691     48693     48695     48694     48696     48698     48697     48699
     48701     48700     48702     48704     48703     48705     48707     48706     48708
     48710     48709     48711     48713     48712     48714     48716     48715     48717
     48719     48718     48720     48722     48721     48723     48725     48724     48726
     48728     48727     48729     48731     48730     48732     48734     48733     48735
     48737     48736     48738     48740     48739     48741     48743     48742     48744
     48746     48745     48747     48749     48748     48750     48752     48751     48753
     48755     48754     48756     48758     48757     48759     48761     48760     48762
     48764     48763     48765     48767     48766     48768     48770     48769     48771
     48773     48772     48774     48776     48775     48777     48779     48778     48780
     48782     48781     48783     48785     48784     48786     48788     48787     48789
     48791     48790     48792     48794     48793     48795     48797     48796     48798
     48800     48799     48801     48803     48802     48804     48806     48805     48807
     48809     48808     48810     48812     48811     48813     48815     48814     48816
     48818     48817     48819     48821     48820     48822     48824     48823     48825
     48827     48826     48828     48830     48829     48831     48833     48832     48834
     48836     48835     48837     48839     48838     48840     48842     48841     48843
     48845     48844     48846     48848     48847     48849     48851     48850     48852
     48854     48853     48855     48857     48856     48858     48860     48859     48861
     48863     48862     48864     48866     48865     48867     48869     48868     48870
     48872     48871     48873     48875     48874     48876     48878     48877     48879
     48881     48880     48882     48884     48883     48885     48887     48886     48888
     48890     48889     48891     48893     48892     48894     48896     48895     48897
     48899     48898     48900     48902     48901     48903     48905     48904     48906
     48908     48907     48909     48911     48910     48912     48914     48913     48915
     48917     48916     48918     48920     48919     48921     48923     48922     48924
     48926     48925     48927     48929     48928     48930     48932     48931     48933
     48935     48934     48936     48938     48937     48939     48941     48940     48942
     48944     48943     48945     48947     48946     48948     48950     48949     48951
     48953     48952     48954     48956     48955     48957     48959     48958     48960
     48962     48961     48963     48965     48964     48966     48968     48967     48969
     48971     48970     48972     48974     48973     48975     48977     48976     48978
     48980     48979     48981     48983     48982     48984     48986     48985     48987
     48989     48988     48990     48992     48991     48993     48995     48994     48996
     48998     48997     48999     49001     49000     49002     49004     49003     49005
     49007     49006     49008     49010     49009     49011     49013     49012     49014
     49016     49015     49017     49019     49018     49020     49022     49021     49023
     49025     49024     49026     49028     49027     49029     49031     49030     49032
     49034     49033     49035     49037     49036     49038     49040     49039     49041
     49043     49042     49044     49046     49045     49047     49049     49048     49050
     49052     49051     49053     49055     49054     49056     49058     49057     49059
     49061     49060     49062     49064     49063     49065     49067     49066     49068
     49070     49069     49071     49073     49072     49074     49076     49075     49077
     49079     49078     49080     49082     49081     49083     49085     49084     49086
     49088     49087     49089     49091     49090     49092     49094     49093     49095
     49097     49096     49098     49100     49099     49101     49103     49102     49104
     49106     49105     49107     49109     49108     49110     49112     49111     49113
     49115     49114     49116     49118     49117     49119     49121     49120     49122
     49124     49123     49125     49127     49126     49128     49130     49129     49131
     49133     49132     49134     49136     49135     49137     49139     49138     49140
     49142     49141     49143     49145     49144     49146     49148     49147     49149
     49151     49150     49152     49154     49153     49155     49157     49156     49158
     49160     49159     49161     49163     49162     49164     49166     49165     49167
     49169     49168     49170     49172     49171     49173     49175     49174     49176
     49178     49177     49179     49181     49180     49182     49184     49183     49185
     49187     49186     49188     49190     49189     49191     49193     49192     49194
     49196     49195     49197     49199     49198     49200     49202     49201     49203
     49205     49204     49206     49208     49207     49209     49211     49210     49212
     49214     49213     49215     49217     49216     49218     49220     49219     49221
     49223     49222     49224     49226     49225     49227     49229     49228     49230
     49232     49231     49233     49235     49234     49236     49238     49237     49239
     49241     49240     49242     49244     49243     49245     49247     49246     49248
     49250     49249     49251     49253     49252     49254     49256     49255     49257
     49259     49258     49260     49262     49261     49263     49265     49264     49266
     49268     49267     49269     49271     49270     49272     49274     49273     49275
     49277     49276     49278     49280     49279     49281     49283     49282     49284
     49286     49285     49287     49289     49288     49290     49292     49291     49293
     49295     49294     49296     49298     49297     49299     49301     49300     49302
     49304     49303     49305     49307     49306     49308     49310     49309     49311
     49313     49312     49314     49316     49315     49317     49319     49318     49320
     49322     49321     49323     49325     49324     49326     49328     49327     49329
     49331     49330     49332     49334     49333     49335     49337     49336     49338
     49340     49339     49341     49343     49342     49344     49346     49345     49347
     49349     49348     49350     49352     49351     49353     49355     49354     49356
     49358     49357     49359     49361     49360     49362     49364     49363     49365
     49367     49366     49368     49370     49369     49371     49373     49372     49374
     49376     49375     49377     49379     49378     49380     49382     49381     49383
     49385     49384     49386     49388     49387     49389     49391     49390     49392
     49394     49393     49395     49397     49396     49398     49400     49399     49401
     49403     49402     49404     49406     49405     49407     49409     49408     49410
     49412     49411     49413     49415     49414     49416     49418     49417     49419
     49421     49420     49422     49424     49423     49425     49427     49426     49428
     49430     49429     49431     49433     49432     49434     49436     49435     49437
     49439     49438     49440     49442     49441     49443     49445     49444     49446
     49448     49447     49449     49451     49450     49452     49454     49453     49455
     49457     49456     49458     49460     49459     49461     49463     49462     49464
     49466     49465     49467     49469     49468     49470     49472     49471     49473
     49475     49474     49476     49478     49477     49479     49481     49480     49482
     49484     49483     49485     49487     49486     49488     49490     49489     49491
     49493     49492     49494     49496     49495     49497     49499     49498     49500
     49502     49501     49503     49505     49504     49506     49508     49507     49509
     49511     49510     49512     49514     49513     49515     49517     49516     49518
     49520     49519     49521     49523     49522     49524     49526     49525     49527
     49529     49528     49530     49532     49531     49533     49535     49534     49536
     49538     49537     49539     49541     49540     49542     49544     49543     49545
     49547     49546     49548     49550     49549     49551     49553     49552     49554
     49556     49555     49557     49559     49558     49560     49562     49561     49563
     49565     49564     49566     49568     49567     49569     49571     49570     49572
     49574     49573     49575     49577     49576     49578     49580     49579     49581
     49583     49582     49584     49586     49585     49587     49589     49588     49590
     49592     49591     49593     49595     49594     49596     49598     49597     49599
     49601     49600     49602     49604     49603     49605     49607     49606     49608
     49610     49609     49611     49613     49612     49614     49616     49615     49617
     49619     49618     49620     49622     49621     49623     49625     49624     49626
     49628     49627     49629     49631     49630     49632     49634     49633     49635
     49637     49636     49638     49640     49639     49641     49643     49642     49644
     49646     49645     49647     49649     49648     49650     49652     49651     49653
     49655     49654     49656     49658     49657     49659     49661     49660     49662
     49664     49663     49665     49667     49666     49668     49670     49669     49671
     49673     49672     49674     49676     49675     49677     49679     49678     49680
     49682     49681     49683     49685     49684     49686     49688     49687     49689
     49691     49690     49692     49694     49693     49695     49697     49696     49698
     49700     49699     49701     49703     49702     49704     49706     49705     49707
     49709     49708     49710     49712     49711     49713     49715     49714     49716
     49718     49717     49719     49721     49720     49722     49724     49723     49725
     49727     49726     49728     49730     49729     49731     49733     49732     49734
     49736     49735     49737     49739     49738     49740     49742     49741     49743
     49745     49744     49746     49748     49747     49749     49751     49750     49752
     49754     49753     49755     49757     49756     49758     49760     49759     49761
     49763     49762     49764     49766     49765     49767     49769     49768     49770
     49772     49771     49773     49775     49774     49776     49778     49777     49779
     49781     49780     49782     49784     49783     49785     49787     49786     49788
     49790     49789     49791     49793     49792     49794     49796     49795     49797
     49799     49798     49800     49802     49801     49803     49805     49804     49806
     49808     49807     49809     49811     49810     49812     49814     49813     49815
     49817     49816     49818     49820     49819     49821     49823     49822     49824
     49826     49825     49827     49829     49828     49830     49832     49831     49833
     49835     49834     49836     49838     49837     49839     49841     49840     49842
     49844     49843     49845     49847     49846     49848     49850     49849     49851
     49853     49852     49854     49856     49855     49857     49859     49858     49860
     49862     49861     49863     49865     49864     49866     49868     49867     49869
     49871     49870     49872     49874     49873     49875     49877     49876     49878
     49880     49879     49881     49883     49882     49884     49886     49885     49887
     49889     49888     49890     49892     49891     49893     49895     49894     49896
     49898     49897     49899     49901     49900     49902     49904     49903     49905
     49907     49906     49908     49910     49909     49911     49913     49912     49914
     49916     49915     49917     49919     49918     49920     49922     49921     49923
     49925     49924     49926     49928     49927     49929     49931     49930     49932
     49934     49933     49935     49937     49936     49938     49940     49939     49941
     49943     49942     49944     49946     49945     49947     49949     49948     49950
     49952     49951     49953     49955     49954     49956     49958     49957     49959
     49961     49960     49962     49964     49963     49965     49967     49966     49968
     49970     49969     49971     49973     49972     49974     49976     49975     49977
     49979     49978     49980     49982     49981     49983     49985     49984     49986
     49988     49987     49989     49991     49990     49992     49994     49993     49995
     49997     49996     49998     50000     49999     50001     50003     50002     50004
     50006     50005     50007     50009     50008     50010     50012     50011     50013
     50015     50014     50016     50018     50017     50019     50021     50020     50022
     50024     50023     50025     50027     50026     50028     50030     50029     50031
     50033     50032     50034     50036     50035     50037     50039     50038     50040
     50042     50041     50043     50045     50044     50046     50048     50047     50049
     50051     50050     50052     50054     50053     50055     50057     50056     50058
     50060     50059     50061     50063     50062     50064     50066     50065     50067
     50069     50068     50070     50072     50071     50073     50075     50074     50076
     50078     50077     50079     50081     50080     50082     50084     50083     50085
     50087     50086     50088     50090     50089     50091     50093     50092     50094
     50096     50095     50097     50099     50098     50100     50102     50101     50103
     50105     50104     50106     50108     50107     50109     50111     50110     50112
     50114     50113     50115     50117     50116     50118     50120     50119     50121
     50123     50122     50124     50126     50125     50127     50129     50128     50130
     50132     50131     50133     50135     50134     50136     50138     50137     50139
     50141     50140     50142     50144     50143     50145     50147     50146     50148
     50150     50149     50151     50153     50152     50154     50156     50155     50157
     50159     50158     50160     50162     50161     50163     50165     50164     50166
     50168     50167     50169     50171     50170     50172     50174     50173     50175
     50177     50176     50178     50180     50179     50181     50183     50182     50184
     50186     50185     50187     50189     50188     50190     50192     50191     50193
     50195     50194     50196     50198     50197     50199     50201     50200     50202
     50204     50203     50205     50207     50206     50208     50210     50209     50211
     50213     50212     50214     50216     50215     50217     50219     50218     50220
     50222     50221     50223     50225     50224     50226     50228     50227     50229
     50231     50230     50232     50234     50233     50235     50237     50236     50238
     50240     50239     50241     50243     50242     50244     50246     50245     50247
     50249     50248     50250     50252     50251     50253     50255     50254     50256
     50258     50257     50259     50261     50260     50262     50264     50263     50265
     50267     50266     50268     50270     50269     50271     50273     50272     50274
     50276     50275     50277     50279     50278     50280     50282     50281     50283
     50285     50284     50286     50288     50287     50289     50291     50290     50292
     50294     50293     50295     50297     50296     50298     50300     50299     50301
     50303     50302     50304     50306     50305     50307     50309     50308     50310
     50312     50311     50313     50315     50314     50316     50318     50317     50319
     50321     50320     50322     50324     50323     50325     50327     50326     50328
     50330     50329     50331     50333     50332     50334     50336     50335     50337
     50339     50338     50340     50342     50341     50343     50345     50344     50346
     50348     50347     50349     50351     50350     50352     50354     50353     50355
     50357     50356     50358     50360     50359     50361     50363     50362     50364
     50366     50365     50367     50369     50368     50370     50372     50371     50373
     50375     50374     50376     50378     50377     50379     50381     50380     50382
     50384     50383     50385     50387     50386     50388     50390     50389     50391
     50393     50392     50394     50396     50395     50397     50399     50398     50400
     50402     50401     50403     50405     50404     50406     50408     50407     50409
     50411     50410     50412     50414     50413     50415     50417     50416     50418
     50420     50419     50421     50423     50422     50424     50426     50425     50427
     50429     50428     50430     50432     50431     50433     50435     50434     50436
     50438     50437     50439     50441     50440     50442     50444     50443     50445
     50447     50446     50448     50450     50449     50451     50453     50452     50454
     50456     50455     50457     50459     50458     50460     50462     50461     50463
     50465     50464     50466     50468     50467     50469     50471     50470     50472
     50474     50473     50475     50477     50476     50478     50480     50479     50481
     50483     50482     50484     50486     50485     50487     50489     50488     50490
     50492     50491     50493     50495     50494     50496     50498     50497     50499
     50501     50500     50502     50504     50503     50505     50507     50506     50508
     50510     50509     50511     50513     50512     50514     50516     50515     50517
     50519     50518     50520     50522     50521     50523     50525     50524     50526
     50528     50527     50529     50531     50530     50532     50534     50533     50535
     50537     50536     50538     50540     50539     50541     50543     50542     50544
     50546     50545     50547     50549     50548     50550     50552     50551     50553
     50555     50554     50556     50558     50557     50559     50561     50560     50562
     50564     50563     50565     50567     50566     50568     50570     50569     50571
     50573     50572     50574     50576     50575     50577     50579     50578     50580
     50582     50581     50583     50585     50584     50586     50588     50587     50589
     50591     50590     50592     50594     50593     50595     50597     50596     50598
     50600     50599     50601     50603     50602     50604     50606     50605     50607
     50609     50608     50610     50612     50611     50613     50615     50614     50616
     50618     50617     50619     50621     50620     50622     50624     50623     50625
     50627     50626     50628     50630     50629     50631     50633     50632     50634
     50636     50635     50637     50639     50638     50640     50642     50641     50643
     50645     50644     50646     50648     50647     50649     50651     50650     50652
     50654     50653     50655     50657     50656     50658     50660     50659     50661
     50663     50662     50664     50666     50665     50667     50669     50668     50670
     50672     50671     50673     50675     50674     50676     50678     50677     50679
     50681     50680     50682     50684     50683     50685     50687     50686     50688
     50690     50689     50691     50693     50692     50694     50696     50695     50697
     50699     50698     50700     50702     50701     50703     50705     50704     50706
     50708     50707     50709     50711     50710     50712     50714     50713     50715
     50717     50716     50718     50720     50719     50721     50723     50722     50724
     50726     50725     50727     50729     50728     50730     50732     50731     50733
     50735     50734     50736     50738     50737     50739     50741     50740     50742
     50744     50743     50745     50747     50746     50748     50750     50749     50751
     50753     50752     50754     50756     50755     50757     50759     50758     50760
     50762     50761     50763     50765     50764     50766     50768     50767     50769
     50771     50770     50772     50774     50773     50775     50777     50776     50778
     50780     50779     50781     50783     50782     50784     50786     50785     50787
     50789     50788     50790     50792     50791     50793     50795     50794     50796
     50798     50797     50799     50801     50800     50802     50804     50803     50805
     50807     50806     50808     50810     50809     50811     50813     50812     50814
     50816     50815     50817     50819     50818     50820     50822     50821     50823
     50825     50824     50826     50828     50827     50829     50831     50830     50832
     50834     50833     50835     50837     50836     50838     50840     50839     50841
     50843     50842     50844     50846     50845     50847     50849     50848     50850
     50852     50851     50853     50855     50854     50856     50858     50857     50859
     50861     50860     50862     50864     50863     50865     50867     50866     50868
     50870     50869     50871     50873     50872     50874     50876     50875     50877
     50879     50878     50880     50882     50881     50883     50885     50884     50886
     50888     50887     50889     50891     50890     50892     50894     50893     50895
     50897     50896     50898     50900     50899     50901     50903     50902     50904
     50906     50905     50907     50909     50908     50910     50912     50911     50913
     50915     50914     50916     50918     50917     50919     50921     50920     50922
     50924     50923     50925     50927     50926     50928     50930     50929     50931
     50933     50932     50934     50936     50935     50937     50939     50938     50940
     50942     50941     50943     50945     50944     50946     50948     50947     50949
     50951     50950     50952     50954     50953     50955     50957     50956     50958
     50960     50959     50961     50963     50962     50964     50966     50965     50967
     50969     50968     50970     50972     50971     50973     50975     50974     50976
     50978     50977     50979     50981     50980     50982     50984     50983     50985
     50987     50986     50988     50990     50989     50991     50993     50992     50994
     50996     50995     50997     50999     50998     51000     51002     51001     51003
     51005     51004     51006     51008     51007     51009     51011     51010     51012
     51014     51013     51015     51017     51016     51018     51020     51019     51021
     51023     51022     51024     51026     51025     51027     51029     51028     51030
     51032     51031     51033     51035     51034     51036     51038     51037     51039
     51041     51040     51042     51044     51043     51045     51047     51046     51048
     51050     51049     51051     51053     51052     51054     51056     51055     51057
     51059     51058     51060     51062     51061     51063     51065     51064     51066
     51068     51067     51069     51071     51070     51072     51074     51073     51075
     51077     51076     51078     51080     51079     51081     51083     51082     51084
     51086     51085     51087     51089     51088     51090     51092     51091     51093
     51095     51094     51096     51098     51097     51099     51101     51100     51102
     51104     51103     51105     51107     51106     51108     51110     51109     51111
     51113     51112     51114     51116     51115     51117     51119     51118     51120
     51122     51121     51123     51125     51124     51126     51128     51127     51129
     51131     51130     51132     51134     51133     51135     51137     51136     51138
     51140     51139     51141     51143     51142     51144     51146     51145     51147
     51149     51148     51150     51152     51151     51153     51155     51154     51156
     51158     51157     51159     51161     51160     51162     51164     51163     51165
     51167     51166     51168     51170     51169     51171     51173     51172     51174
     51176     51175     51177     51179     51178     51180     51182     51181     51183
     51185     51184     51186     51188     51187     51189     51191     51190     51192
     51194     51193     51195     51197     51196     51198     51200     51199     51201
     51203     51202     51204     51206     51205     51207     51209     51208     51210
     51212     51211     51213     51215     51214     51216     51218     51217     51219
     51221     51220     51222     51224     51223     51225     51227     51226     51228
     51230     51229     51231     51233     51232     51234     51236     51235     51237
     51239     51238     51240     51242     51241     51243     51245     51244     51246
     51248     51247     51249     51251     51250     51252     51254     51253     51255
     51257     51256     51258     51260     51259     51261     51263     51262     51264
     51266     51265     51267     51269     51268     51270     51272     51271     51273
     51275     51274     51276     51278     51277     51279     51281     51280     51282
     51284     51283     51285     51287     51286     51288     51290     51289     51291
     51293     51292     51294     51296     51295     51297     51299     51298     51300
     51302     51301     51303     51305     51304     51306     51308     51307     51309
     51311     51310     51312     51314     51313     51315     51317     51316     51318
     51320     51319     51321     51323     51322     51324     51326     51325     51327
     51329     51328     51330     51332     51331     51333     51335     51334     51336
     51338     51337     51339     51341     51340     51342     51344     51343     51345
     51347     51346     51348     51350     51349     51351     51353     51352     51354
     51356     51355     51357     51359     51358     51360     51362     51361     51363
     51365     51364     51366     51368     51367     51369     51371     51370     51372
     51374     51373     51375     51377     51376     51378     51380     51379     51381
     51383     51382     51384     51386     51385     51387     51389     51388     51390
     51392     51391     51393     51395     51394     51396     51398     51397     51399
     51401     51400     51402     51404     51403     51405     51407     51406     51408
     51410     51409     51411     51413     51412     51414     51416     51415     51417
     51419     51418     51420     51422     51421     51423     51425     51424     51426
     51428     51427     51429     51431     51430     51432     51434     51433     51435
     51437     51436     51438     51440     51439     51441     51443     51442     51444
     51446     51445     51447     51449     51448     51450     51452     51451     51453
     51455     51454     51456     51458     51457     51459     51461     51460     51462
     51464     51463     51465     51467     51466     51468     51470     51469     51471
     51473     51472     51474     51476     51475     51477     51479     51478     51480
     51482     51481     51483     51485     51484     51486     51488     51487     51489
     51491     51490     51492     51494     51493     51495     51497     51496     51498
     51500     51499     51501     51503     51502     51504     51506     51505     51507
     51509     51508     51510     51512     51511     51513     51515     51514     51516
     51518     51517     51519     51521     51520     51522     51524     51523     51525
     51527     51526     51528     51530     51529     51531     51533     51532     51534
     51536     51535     51537     51539     51538     51540     51542     51541     51543
     51545     51544     51546     51548     51547     51549     51551     51550     51552
     51554     51553     51555     51557     51556     51558     51560     51559     51561
     51563     51562     51564     51566     51565     51567     51569     51568     51570
     51572     51571     51573     51575     51574     51576     51578     51577     51579
     51581     51580     51582     51584     51583     51585     51587     51586     51588
     51590     51589     51591     51593     51592     51594     51596     51595     51597
     51599     51598     51600     51602     51601     51603     51605     51604     51606
     51608     51607     51609     51611     51610     51612     51614     51613     51615
     51617     51616     51618     51620     51619     51621     51623     51622     51624
     51626     51625     51627     51629     51628     51630     51632     51631     51633
     51635     51634     51636     51638     51637     51639     51641     51640     51642
     51644     51643     51645     51647     51646     51648     51650     51649     51651
     51653     51652     51654     51656     51655     51657     51659     51658     51660
     51662     51661     51663     51665     51664     51666     51668     51667     51669
     51671     51670     51672     51674     51673     51675     51677     51676     51678
     51680     51679     51681     51683     51682     51684     51686     51685     51687
     51689     51688     51690     51692     51691     51693     51695     51694     51696
     51698     51697     51699     51701     51700     51702     51704     51703     51705
     51707     51706     51708     51710     51709     51711     51713     51712     51714
     51716     51715     51717     51719     51718     51720     51722     51721     51723
     51725     51724     51726     51728     51727     51729     51731     51730     51732
     51734     51733     51735     51737     51736     51738     51740     51739     51741
     51743     51742     51744     51746     51745     51747     51749     51748     51750
     51752     51751     51753     51755     51754     51756     51758     51757     51759
     51761     51760     51762     51764     51763     51765     51767     51766     51768
     51770     51769     51771     51773     51772     51774     51776     51775     51777
     51779     51778     51780     51782     51781     51783     51785     51784     51786
     51788     51787     51789     51791     51790     51792     51794     51793     51795
     51797     51796     51798     51800     51799     51801     51803     51802     51804
     51806     51805     51807     51809     51808     51810     51812     51811     51813
     51815     51814     51816     51818     51817     51819     51821     51820     51822
     51824     51823     51825     51827     51826     51828     51830     51829     51831
     51833     51832     51834     51836     51835     51837     51839     51838     51840
     51842     51841     51843     51845     51844     51846     51848     51847     51849
     51851     51850     51852     51854     51853     51855     51857     51856     51858
     51860     51859     51861     51863     51862     51864     51866     51865     51867
     51869     51868     51870     51872     51871     51873     51875     51874     51876
     51878     51877     51879     51881     51880     51882     51884     51883     51885
     51887     51886     51888     51890     51889     51891     51893     51892     51894
     51896     51895     51897     51899     51898     51900     51902     51901     51903
     51905     51904     51906     51908     51907     51909     51911     51910     51912
     51914     51913     51915     51917     51916     51918     51920     51919     51921
     51923     51922     51924     51926     51925     51927     51929     51928     51930
     51932     51931     51933     51935     51934     51936     51938     51937     51939
     51941     51940     51942     51944     51943     51945     51947     51946     51948
     51950     51949     51951     51953     51952     51954     51956     51955     51957
     51959     51958     51960     51962     51961     51963     51965     51964     51966
     51968     51967     51969     51971     51970     51972     51974     51973     51975
     51977     51976     51978     51980     51979     51981     51983     51982     51984
     51986     51985     51987     51989     51988     51990     51992     51991     51993
     51995     51994     51996     51998     51997     51999     52001     52000     52002
     52004     52003     52005     52007     52006     52008     52010     52009     52011
     52013     52012     52014     52016     52015     52017     52019     52018     52020
     52022     52021     52023     52025     52024     52026     52028     52027     52029
     52031     52030     52032     52034     52033     52035     52037     52036     52038
     52040     52039     52041     52043     52042     52044     52046     52045     52047
     52049     52048     52050     52052     52051     52053     52055     52054     52056
     52058     52057     52059     52061     52060     52062     52064     52063     52065
     52067     52066     52068     52070     52069     52071     52073     52072     52074
     52076     52075     52077     52079     52078     52080     52082     52081     52083
     52085     52084     52086     52088     52087     52089     52091     52090     52092
     52094     52093     52095     52097     52096     52098     52100     52099     52101
     52103     52102     52104     52106     52105     52107     52109     52108     52110
     52112     52111     52113     52115     52114     52116     52118     52117     52119
     52121     52120     52122     52124     52123     52125     52127     52126     52128
     52130     52129     52131     52133     52132     52134     52136     52135     52137
     52139     52138     52140     52142     52141     52143     52145     52144     52146
     52148     52147     52149     52151     52150     52152     52154     52153     52155
     52157     52156     52158     52160     52159     52161     52163     52162     52164
     52166     52165     52167     52169     52168     52170     52172     52171     52173
     52175     52174     52176     52178     52177     52179     52181     52180     52182
     52184     52183     52185     52187     52186     52188     52190     52189     52191
     52193     52192     52194     52196     52195     52197     52199     52198     52200
     52202     52201     52203     52205     52204     52206     52208     52207     52209
     52211     52210     52212     52214     52213     52215     52217     52216     52218
     52220     52219     52221     52223     52222     52224     52226     52225     52227
     52229     52228     52230     52232     52231     52233     52235     52234     52236
     52238     52237     52239     52241     52240     52242     52244     52243     52245
     52247     52246     52248     52250     52249     52251     52253     52252     52254
     52256     52255     52257     52259     52258     52260     52262     52261     52263
     52265     52264     52266     52268     52267     52269     52271     52270     52272
     52274     52273     52275     52277     52276     52278     52280     52279     52281
     52283     52282     52284     52286     52285     52287     52289     52288     52290
     52292     52291     52293     52295     52294     52296     52298     52297     52299
     52301     52300     52302     52304     52303     52305     52307     52306     52308
     52310     52309     52311     52313     52312     52314     52316     52315     52317
     52319     52318     52320     52322     52321     52323     52325     52324     52326
     52328     52327     52329     52331     52330     52332     52334     52333     52335
     52337     52336     52338     52340     52339     52341     52343     52342     52344
     52346     52345     52347     52349     52348     52350     52352     52351     52353
     52355     52354     52356     52358     52357     52359     52361     52360     52362
     52364     52363     52365     52367     52366     52368     52370     52369     52371
     52373     52372     52374     52376     52375     52377     52379     52378     52380
     52382     52381     52383     52385     52384     52386     52388     52387     52389
     52391     52390     52392     52394     52393     52395     52397     52396     52398
     52400     52399     52401     52403     52402     52404     52406     52405     52407
     52409     52408     52410     52412     52411     52413     52415     52414     52416
     52418     52417     52419     52421     52420     52422     52424     52423     52425
     52427     52426     52428     52430     52429     52431     52433     52432     52434
     52436     52435     52437     52439     52438     52440     52442     52441     52443
     52445     52444     52446     52448     52447     52449     52451     52450     52452
     52454     52453     52455     52457     52456     52458     52460     52459     52461
     52463     52462     52464     52466     52465     52467     52469     52468     52470
     52472     52471     52473     52475     52474     52476     52478     52477     52479
     52481     52480     52482     52484     52483     52485     52487     52486     52488
     52490     52489     52491     52493     52492     52494     52496     52495     52497
     52499     52498     52500     52502     52501     52503     52505     52504     52506
     52508     52507     52509     52511     52510     52512     52514     52513     52515
     52517     52516     52518     52520     52519     52521     52523     52522     52524
     52526     52525     52527     52529     52528     52530     52532     52531     52533
     52535     52534     52536     52538     52537     52539     52541     52540     52542
     52544     52543     52545     52547     52546     52548     52550     52549     52551
     52553     52552     52554     52556     52555     52557     52559     52558     52560
     52562     52561     52563     52565     52564     52566     52568     52567     52569
     52571     52570     52572     52574     52573     52575     52577     52576     52578
     52580     52579     52581     52583     52582     52584     52586     52585     52587
     52589     52588     52590     52592     52591     52593     52595     52594     52596
     52598     52597     52599     52601     52600     52602     52604     52603     52605
     52607     52606     52608     52610     52609     52611     52613     52612     52614
     52616     52615     52617     52619     52618     52620     52622     52621     52623
     52625     52624     52626     52628     52627     52629     52631     52630     52632
     52634     52633     52635     52637     52636     52638     52640     52639     52641
     52643     52642     52644     52646     52645     52647     52649     52648     52650
     52652     52651     52653     52655     52654     52656     52658     52657     52659
     52661     52660     52662     52664     52663     52665     52667     52666     52668
     52670     52669     52671     52673     52672     52674     52676     52675     52677
     52679     52678     52680     52682     52681     52683     52685     52684     52686
     52688     52687     52689     52691     52690     52692     52694     52693     52695
     52697     52696     52698     52700     52699     52701     52703     52702     52704
     52706     52705     52707     52709     52708     52710     52712     52711     52713
     52715     52714     52716     52718     52717     52719     52721     52720     52722
     52724     52723     52725     52727     52726     52728     52730     52729     52731
     52733     52732     52734     52736     52735     52737     52739     52738     52740
     52742     52741     52743     52745     52744     52746     52748     52747     52749
     52751     52750     52752     52754     52753     52755     52757     52756     52758
     52760     52759     52761     52763     52762     52764     52766     52765     52767
     52769     52768     52770     52772     52771     52773     52775     52774     52776
     52778     52777     52779     52781     52780     52782     52784     52783     52785
     52787     52786     52788     52790     52789     52791     52793     52792     52794
     52796     52795     52797     52799     52798     52800     52802     52801     52803
     52805     52804     52806     52808     52807     52809     52811     52810     52812
     52814     52813     52815     52817     52816     52818     52820     52819     52821
     52823     52822     52824     52826     52825     52827     52829     52828     52830
     52832     52831     52833     52835     52834     52836     52838     52837     52839
     52841     52840     52842     52844     52843     52845     52847     52846     52848
     52850     52849     52851     52853     52852     52854     52856     52855     52857
     52859     52858     52860     52862     52861     52863     52865     52864     52866
     52868     52867     52869     52871     52870     52872     52874     52873     52875
     52877     52876     52878     52880     52879     52881     52883     52882     52884
     52886     52885     52887     52889     52888     52890     52892     52891     52893
     52895     52894     52896     52898     52897     52899     52901     52900     52902
     52904     52903     52905     52907     52906     52908     52910     52909     52911
     52913     52912     52914     52916     52915     52917     52919     52918     52920
     52922     52921     52923     52925     52924     52926     52928     52927     52929
     52931     52930     52932     52934     52933     52935     52937     52936     52938
     52940     52939     52941     52943     52942     52944     52946     52945     52947
     52949     52948     52950     52952     52951     52953     52955     52954     52956
     52958     52957     52959     52961     52960     52962     52964     52963     52965
     52967     52966     52968     52970     52969     52971     52973     52972     52974
     52976     52975     52977     52979     52978     52980     52982     52981     52983
     52985     52984     52986     52988     52987     52989     52991     52990     52992
     52994     52993     52995     52997     52996     52998     53000     52999     53001
     53003     53002     53004     53006     53005     53007     53009     53008     53010
     53012     53011     53013     53015     53014     53016     53018     53017     53019
     53021     53020     53022     53024     53023     53025     53027     53026     53028
     53030     53029     53031     53033     53032     53034     53036     53035     53037
     53039     53038     53040     53042     53041     53043     53045     53044     53046
     53048     53047     53049     53051     53050     53052     53054     53053     53055
     53057     53056     53058     53060     53059     53061     53063     53062     53064
     53066     53065     53067     53069     53068     53070     53072     53071     53073
     53075     53074     53076     53078     53077     53079     53081     53080     53082
     53084     53083     53085     53087     53086     53088     53090     53089     53091
     53093     53092     53094     53096     53095     53097     53099     53098     53100
     53102     53101     53103     53105     53104     53106     53108     53107     53109
     53111     53110     53112     53114     53113     53115     53117     53116     53118
     53120     53119     53121     53123     53122     53124     53126     53125     53127
     53129     53128     53130     53132     53131     53133     53135     53134     53136
     53138     53137     53139     53141     53140     53142     53144     53143     53145
     53147     53146     53148     53150     53149     53151     53153     53152     53154
     53156     53155     53157     53159     53158     53160     53162     53161     53163
     53165     53164     53166     53168     53167     53169     53171     53170     53172
     53174     53173     53175     53177     53176     53178     53180     53179     53181
     53183     53182     53184     53186     53185     53187     53189     53188     53190
     53192     53191     53193     53195     53194     53196     53198     53197     53199
     53201     53200     53202     53204     53203     53205     53207     53206     53208
     53210     53209     53211     53213     53212     53214     53216     53215     53217
     53219     53218     53220     53222     53221     53223     53225     53224     53226
     53228     53227     53229     53231     53230     53232     53234     53233     53235
     53237     53236     53238     53240     53239     53241     53243     53242     53244
     53246     53245     53247     53249     53248     53250     53252     53251     53253
     53255     53254     53256     53258     53257     53259     53261     53260     53262
     53264     53263     53265     53267     53266     53268     53270     53269     53271
     53273     53272     53274     53276     53275     53277     53279     53278     53280
     53282     53281     53283     53285     53284     53286     53288     53287     53289
     53291     53290     53292     53294     53293     53295     53297     53296     53298
     53300     53299     53301     53303     53302     53304     53306     53305     53307
     53309     53308     53310     53312     53311     53313     53315     53314     53316
     53318     53317     53319     53321     53320     53322     53324     53323     53325
     53327     53326     53328     53330     53329     53331     53333     53332     53334
     53336     53335     53337     53339     53338     53340     53342     53341     53343
     53345     53344     53346     53348     53347     53349     53351     53350     53352
     53354     53353     53355     53357     53356     53358     53360     53359     53361
     53363     53362     53364     53366     53365     53367     53369     53368     53370
     53372     53371     53373     53375     53374     53376     53378     53377     53379
     53381     53380     53382     53384     53383     53385     53387     53386     53388
     53390     53389     53391     53393     53392     53394     53396     53395     53397
     53399     53398     53400     53402     53401     53403     53405     53404     53406
     53408     53407     53409     53411     53410     53412     53414     53413     53415
     53417     53416     53418     53420     53419     53421     53423     53422     53424
     53426     53425     53427     53429     53428     53430     53432     53431     53433
     53435     53434     53436     53438     53437     53439     53441     53440     53442
     53444     53443     53445     53447     53446     53448     53450     53449     53451
     53453     53452     53454     53456     53455     53457     53459     53458     53460
     53462     53461     53463     53465     53464     53466     53468     53467     53469
     53471     53470     53472     53474     53473     53475     53477     53476     53478
     53480     53479     53481     53483     53482     53484     53486     53485     53487
     53489     53488     53490     53492     53491     53493     53495     53494     53496
     53498     53497     53499     53501     53500     53502     53504     53503     53505
     53507     53506     53508     53510     53509     53511     53513     53512     53514
     53516     53515     53517     53519     53518     53520     53522     53521     53523
     53525     53524     53526     53528     53527     53529     53531     53530     53532
     53534     53533     53535     53537     53536     53538     53540     53539     53541
     53543     53542     53544     53546     53545     53547     53549     53548     53550
     53552     53551     53553     53555     53554     53556     53558     53557     53559
     53561     53560     53562     53564     53563     53565     53567     53566     53568
     53570     53569     53571     53573     53572     53574     53576     53575     53577
     53579     53578     53580     53582     53581     53583     53585     53584     53586
     53588     53587     53589     53591     53590     53592     53594     53593     53595
     53597     53596     53598     53600     53599     53601     53603     53602     53604
     53606     53605     53607     53609     53608     53610     53612     53611     53613
     53615     53614     53616     53618     53617     53619     53621     53620     53622
     53624     53623     53625     53627     53626     53628     53630     53629     53631
     53633     53632     53634     53636     53635     53637     53639     53638     53640
     53642     53641     53643     53645     53644     53646     53648     53647     53649
     53651     53650     53652     53654     53653     53655     53657     53656     53658
     53660     53659     53661     53663     53662     53664     53666     53665     53667
     53669     53668     53670     53672     53671     53673     53675     53674     53676
     53678     53677     53679     53681     53680     53682     53684     53683     53685
     53687     53686     53688     53690     53689     53691     53693     53692     53694
     53696     53695     53697     53699     53698     53700     53702     53701     53703
     53705     53704     53706     53708     53707     53709     53711     53710     53712
     53714     53713     53715     53717     53716     53718     53720     53719     53721
     53723     53722     53724     53726     53725     53727     53729     53728     53730
     53732     53731     53733     53735     53734     53736     53738     53737     53739
     53741     53740     53742     53744     53743     53745     53747     53746     53748
     53750     53749     53751     53753     53752     53754     53756     53755     53757
     53759     53758     53760     53762     53761     53763     53765     53764     53766
     53768     53767     53769     53771     53770     53772     53774     53773     53775
     53777     53776     53778     53780     53779     53781     53783     53782     53784
     53786     53785     53787     53789     53788     53790     53792     53791     53793
     53795     53794     53796     53798     53797     53799     53801     53800     53802
     53804     53803     53805     53807     53806     53808     53810     53809     53811
     53813     53812     53814     53816     53815     53817     53819     53818     53820
     53822     53821     53823     53825     53824     53826     53828     53827     53829
     53831     53830     53832     53834     53833     53835     53837     53836     53838
     53840     53839     53841     53843     53842     53844     53846     53845     53847
     53849     53848     53850     53852     53851     53853     53855     53854     53856
     53858     53857     53859     53861     53860     53862     53864     53863     53865
     53867     53866     53868     53870     53869     53871     53873     53872     53874
     53876     53875     53877     53879     53878     53880     53882     53881     53883
     53885     53884     53886     53888     53887     53889     53891     53890     53892
     53894     53893     53895     53897     53896     53898     53900     53899     53901
     53903     53902     53904     53906     53905     53907     53909     53908     53910
     53912     53911     53913     53915     53914     53916     53918     53917     53919
     53921     53920     53922     53924     53923     53925     53927     53926     53928
     53930     53929     53931     53933     53932     53934     53936     53935     53937
     53939     53938     53940     53942     53941     53943     53945     53944     53946
     53948     53947     53949     53951     53950     53952     53954     53953     53955
     53957     53956     53958     53960     53959     53961     53963     53962     53964
     53966     53965     53967     53969     53968     53970     53972     53971     53973
     53975     53974     53976     53978     53977     53979     53981     53980     53982
     53984     53983     53985     53987     53986     53988     53990     53989     53991
     53993     53992     53994     53996     53995     53997     53999     53998     54000
     54002     54001     54003     54005     54004     54006     54008     54007     54009
     54011     54010     54012     54014     54013     54015     54017     54016     54018
     54020     54019     54021     54023     54022     54024     54026     54025     54027
     54029     54028     54030     54032     54031     54033     54035     54034     54036
     54038     54037     54039     54041     54040     54042     54044     54043     54045
     54047     54046     54048     54050     54049     54051     54053     54052     54054
     54056     54055     54057     54059     54058     54060     54062     54061     54063
     54065     54064     54066     54068     54067     54069     54071     54070     54072
     54074     54073     54075     54077     54076     54078     54080     54079     54081
     54083     54082     54084     54086     54085     54087     54089     54088     54090
     54092     54091     54093     54095     54094     54096     54098     54097     54099
     54101     54100     54102     54104     54103     54105     54107     54106     54108
     54110     54109     54111     54113     54112     54114     54116     54115     54117
     54119     54118     54120     54122     54121     54123     54125     54124     54126
     54128     54127     54129     54131     54130     54132     54134     54133     54135
     54137     54136     54138     54140     54139     54141     54143     54142     54144
     54146     54145     54147     54149     54148     54150     54152     54151     54153
     54155     54154     54156     54158     54157     54159     54161     54160     54162
     54164     54163     54165     54167     54166     54168     54170     54169     54171
     54173     54172     54174     54176     54175     54177     54179     54178     54180
     54182     54181     54183     54185     54184     54186     54188     54187     54189
     54191     54190     54192     54194     54193     54195     54197     54196     54198
     54200     54199     54201     54203     54202     54204     54206     54205     54207
     54209     54208     54210     54212     54211     54213     54215     54214     54216
     54218     54217     54219     54221     54220     54222     54224     54223     54225
     54227     54226     54228     54230     54229     54231     54233     54232     54234
     54236     54235     54237     54239     54238     54240     54242     54241     54243
     54245     54244     54246     54248     54247     54249     54251     54250     54252
     54254     54253     54255     54257     54256     54258     54260     54259     54261
     54263     54262     54264     54266     54265     54267     54269     54268     54270
     54272     54271     54273     54275     54274     54276     54278     54277     54279
     54281     54280     54282     54284     54283     54285     54287     54286     54288
     54290     54289     54291     54293     54292     54294     54296     54295     54297
     54299     54298     54300     54302     54301     54303     54305     54304     54306
     54308     54307     54309     54311     54310     54312     54314     54313     54315
     54317     54316     54318     54320     54319     54321     54323     54322     54324
     54326     54325     54327     54329     54328     54330     54332     54331     54333
     54335     54334     54336     54338     54337     54339     54341     54340     54342
     54344     54343     54345     54347     54346     54348     54350     54349     54351
     54353     54352     54354     54356     54355     54357     54359     54358     54360
     54362     54361     54363     54365     54364     54366     54368     54367     54369
     54371     54370     54372     54374     54373     54375     54377     54376     54378
     54380     54379     54381     54383     54382     54384     54386     54385     54387
     54389     54388     54390     54392     54391     54393     54395     54394     54396
     54398     54397     54399     54401     54400     54402     54404     54403     54405
     54407     54406     54408     54410     54409     54411     54413     54412     54414
     54416     54415     54417     54419     54418     54420     54422     54421     54423
     54425     54424     54426     54428     54427     54429     54431     54430     54432
     54434     54433     54435     54437     54436     54438     54440     54439     54441
     54443     54442     54444     54446     54445     54447     54449     54448     54450
     54452     54451     54453     54455     54454     54456     54458     54457     54459
     54461     54460     54462     54464     54463     54465     54467     54466     54468
     54470     54469     54471     54473     54472     54474     54476     54475     54477
     54479     54478     54480     54482     54481     54483     54485     54484     54486
     54488     54487     54489     54491     54490     54492     54494     54493     54495
     54497     54496     54498     54500     54499     54501     54503     54502     54504
     54506     54505     54507     54509     54508     54510     54512     54511     54513
     54515     54514     54516     54518     54517     54519     54521     54520     54522
     54524     54523     54525     54527     54526     54528     54530     54529     54531
     54533     54532     54534     54536     54535     54537     54539     54538     54540
     54542     54541     54543     54545     54544     54546     54548     54547     54549
     54551     54550     54552     54554     54553     54555     54557     54556     54558
     54560     54559     54561     54563     54562     54564     54566     54565     54567
     54569     54568     54570     54572     54571     54573     54575     54574     54576
     54578     54577     54579     54581     54580     54582     54584     54583     54585
     54587     54586     54588     54590     54589     54591     54593     54592     54594
     54596     54595     54597     54599     54598     54600     54602     54601     54603
     54605     54604     54606     54608     54607     54609     54611     54610     54612
     54614     54613     54615     54617     54616     54618     54620     54619     54621
     54623     54622     54624     54626     54625     54627     54629     54628     54630
     54632     54631     54633     54635     54634     54636     54638     54637     54639
     54641     54640     54642     54644     54643     54645     54647     54646     54648
     54650     54649     54651     54653     54652     54654     54656     54655     54657
     54659     54658     54660     54662     54661     54663     54665     54664     54666
     54668     54667     54669     54671     54670     54672     54674     54673     54675
     54677     54676     54678     54680     54679     54681     54683     54682     54684
     54686     54685     54687     54689     54688     54690     54692     54691     54693
     54695     54694     54696     54698     54697     54699     54701     54700     54702
     54704     54703     54705     54707     54706     54708     54710     54709     54711
     54713     54712     54714     54716     54715     54717     54719     54718     54720
     54722     54721     54723     54725     54724     54726     54728     54727     54729
     54731     54730     54732     54734     54733     54735     54737     54736     54738
     54740     54739     54741     54743     54742     54744     54746     54745     54747
     54749     54748     54750     54752     54751     54753     54755     54754     54756
     54758     54757     54759     54761     54760     54762     54764     54763     54765
     54767     54766     54768     54770     54769     54771     54773     54772     54774
     54776     54775     54777     54779     54778     54780     54782     54781     54783
     54785     54784     54786     54788     54787     54789     54791     54790     54792
     54794     54793     54795     54797     54796     54798     54800     54799     54801
     54803     54802     54804     54806     54805     54807     54809     54808     54810
     54812     54811     54813     54815     54814     54816     54818     54817     54819
     54821     54820     54822     54824     54823     54825     54827     54826     54828
     54830     54829     54831     54833     54832     54834     54836     54835     54837
     54839     54838     54840     54842     54841     54843     54845     54844     54846
     54848     54847     54849     54851     54850     54852     54854     54853     54855
     54857     54856     54858     54860     54859     54861     54863     54862     54864
     54866     54865     54867     54869     54868     54870     54872     54871     54873
     54875     54874     54876     54878     54877     54879     54881     54880     54882
     54884     54883     54885     54887     54886     54888     54890     54889     54891
     54893     54892     54894     54896     54895     54897     54899     54898     54900
     54902     54901     54903     54905     54904     54906     54908     54907     54909
     54911     54910     54912     54914     54913     54915     54917     54916     54918
     54920     54919     54921     54923     54922     54924     54926     54925     54927
     54929     54928     54930     54932     54931     54933     54935     54934     54936
     54938     54937     54939     54941     54940     54942     54944     54943     54945
     54947     54946     54948     54950     54949     54951     54953     54952     54954
     54956     54955     54957     54959     54958     54960     54962     54961     54963
     54965     54964     54966     54968     54967     54969     54971     54970     54972
     54974     54973     54975     54977     54976     54978     54980     54979     54981
     54983     54982     54984     54986     54985     54987     54989     54988     54990
     54992     54991     54993     54995     54994     54996     54998     54997     54999
     55001     55000     55002     55004     55003     55005     55007     55006     55008
     55010     55009     55011     55013     55012     55014     55016     55015     55017
     55019     55018     55020     55022     55021     55023     55025     55024     55026
     55028     55027     55029     55031     55030     55032     55034     55033     55035
     55037     55036     55038     55040     55039     55041     55043     55042     55044
     55046     55045     55047     55049     55048     55050     55052     55051     55053
     55055     55054     55056     55058     55057     55059     55061     55060     55062
     55064     55063     55065     55067     55066     55068     55070     55069     55071
     55073     55072     55074     55076     55075     55077     55079     55078     55080
     55082     55081     55083     55085     55084     55086     55088     55087     55089
     55091     55090     55092     55094     55093     55095     55097     55096     55098
     55100     55099     55101     55103     55102     55104     55106     55105     55107
     55109     55108     55110     55112     55111     55113     55115     55114     55116
     55118     55117     55119     55121     55120     55122     55124     55123     55125
     55127     55126     55128     55130     55129     55131     55133     55132     55134
     55136     55135     55137     55139     55138     55140     55142     55141     55143
     55145     55144     55146     55148     55147     55149     55151     55150     55152
     55154     55153     55155     55157     55156     55158     55160     55159     55161
     55163     55162     55164     55166     55165     55167     55169     55168     55170
     55172     55171     55173     55175     55174     55176     55178     55177     55179
     55181     55180     55182     55184     55183     55185     55187     55186     55188
     55190     55189     55191     55193     55192     55194     55196     55195     55197
     55199     55198     55200     55202     55201     55203     55205     55204     55206
     55208     55207     55209     55211     55210     55212     55214     55213     55215
     55217     55216     55218     55220     55219     55221     55223     55222     55224
     55226     55225     55227     55229     55228     55230     55232     55231     55233
     55235     55234     55236     55238     55237     55239     55241     55240     55242
     55244     55243     55245     55247     55246     55248     55250     55249     55251
     55253     55252     55254     55256     55255     55257     55259     55258     55260
     55262     55261     55263     55265     55264     55266     55268     55267     55269
     55271     55270     55272     55274     55273     55275     55277     55276     55278
     55280     55279     55281     55283     55282     55284     55286     55285     55287
     55289     55288     55290     55292     55291     55293     55295     55294     55296
     55298     55297     55299     55301     55300     55302     55304     55303     55305
     55307     55306     55308     55310     55309     55311     55313     55312     55314
     55316     55315     55317     55319     55318     55320     55322     55321     55323
     55325     55324     55326     55328     55327     55329     55331     55330     55332
     55334     55333     55335     55337     55336     55338     55340     55339     55341
     55343     55342     55344     55346     55345     55347     55349     55348     55350
     55352     55351     55353     55355     55354     55356     55358     55357     55359
     55361     55360     55362     55364     55363     55365     55367     55366     55368
     55370     55369     55371     55373     55372     55374     55376     55375     55377
     55379     55378     55380     55382     55381     55383     55385     55384     55386
     55388     55387     55389     55391     55390     55392     55394     55393     55395
     55397     55396     55398     55400     55399     55401     55403     55402     55404
     55406     55405     55407     55409     55408     55410     55412     55411     55413
     55415     55414     55416     55418     55417     55419     55421     55420     55422
     55424     55423     55425     55427     55426     55428     55430     55429     55431
     55433     55432     55434     55436     55435     55437     55439     55438     55440
     55442     55441     55443     55445     55444     55446     55448     55447     55449
     55451     55450     55452     55454     55453     55455     55457     55456     55458
     55460     55459     55461     55463     55462     55464     55466     55465     55467
     55469     55468     55470     55472     55471     55473     55475     55474     55476
     55478     55477     55479     55481     55480     55482     55484     55483     55485
     55487     55486     55488     55490     55489     55491     55493     55492     55494
     55496     55495     55497     55499     55498     55500     55502     55501     55503
     55505     55504     55506     55508     55507     55509     55511     55510     55512
     55514     55513     55515     55517     55516     55518     55520     55519     55521
     55523     55522     55524     55526     55525     55527     55529     55528     55530
     55532     55531     55533     55535     55534     55536     55538     55537     55539
     55541     55540     55542     55544     55543     55545     55547     55546     55548
     55550     55549     55551     55553     55552     55554     55556     55555     55557
     55559     55558     55560     55562     55561     55563     55565     55564     55566
     55568     55567     55569     55571     55570     55572     55574     55573     55575
     55577     55576     55578     55580     55579     55581     55583     55582     55584
     55586     55585     55587     55589     55588     55590     55592     55591     55593
     55595     55594     55596     55598     55597     55599     55601     55600     55602
     55604     55603     55605     55607     55606     55608     55610     55609     55611
     55613     55612     55614     55616     55615     55617     55619     55618     55620
     55622     55621     55623     55625     55624     55626     55628     55627     55629
     55631     55630     55632     55634     55633     55635     55637     55636     55638
     55640     55639     55641     55643     55642     55644     55646     55645     55647
     55649     55648     55650     55652     55651     55653     55655     55654     55656
     55658     55657     55659     55661     55660     55662     55664     55663     55665
     55667     55666     55668     55670     55669     55671     55673     55672     55674
     55676     55675     55677     55679     55678     55680     55682     55681     55683
     55685     55684     55686     55688     55687     55689     55691     55690     55692
     55694     55693     55695     55697     55696     55698     55700     55699     55701
     55703     55702     55704     55706     55705     55707     55709     55708     55710
     55712     55711     55713     55715     55714     55716     55718     55717     55719
     55721     55720     55722     55724     55723     55725     55727     55726     55728
     55730     55729     55731     55733     55732     55734     55736     55735     55737
     55739     55738     55740     55742     55741     55743     55745     55744     55746
     55748     55747     55749     55751     55750     55752     55754     55753     55755
     55757     55756     55758     55760     55759     55761     55763     55762     55764
     55766     55765     55767     55769     55768     55770     55772     55771     55773
     55775     55774     55776     55778     55777     55779     55781     55780     55782
     55784     55783     55785     55787     55786     55788     55790     55789     55791
     55793     55792     55794     55796     55795     55797     55799     55798     55800
     55802     55801     55803     55805     55804     55806     55808     55807     55809
     55811     55810     55812     55814     55813     55815     55817     55816     55818
     55820     55819     55821     55823     55822     55824     55826     55825     55827
     55829     55828     55830     55832     55831     55833     55835     55834     55836
     55838     55837     55839     55841     55840     55842     55844     55843     55845
     55847     55846     55848     55850     55849     55851     55853     55852     55854
     55856     55855     55857     55859     55858     55860     55862     55861     55863
     55865     55864     55866     55868     55867     55869     55871     55870     55872
     55874     55873     55875     55877     55876     55878     55880     55879     55881
     55883     55882     55884     55886     55885     55887     55889     55888     55890
     55892     55891     55893     55895     55894     55896     55898     55897     55899
     55901     55900     55902     55904     55903     55905     55907     55906     55908
     55910     55909     55911     55913     55912     55914     55916     55915     55917
     55919     55918     55920     55922     55921     55923     55925     55924     55926
     55928     55927     55929     55931     55930     55932     55934     55933     55935
     55937     55936     55938     55940     55939     55941     55943     55942     55944
     55946     55945     55947     55949     55948     55950     55952     55951     55953
     55955     55954     55956     55958     55957     55959     55961     55960     55962
     55964     55963     55965     55967     55966     55968     55970     55969     55971
     55973     55972     55974     55976     55975     55977     55979     55978     55980
     55982     55981     55983     55985     55984     55986     55988     55987     55989
     55991     55990     55992     55994     55993     55995     55997     55996     55998
     56000     55999     56001     56003     56002     56004     56006     56005     56007
     56009     56008     56010     56012     56011     56013     56015     56014     56016
     56018     56017     56019     56021     56020     56022     56024     56023     56025
     56027     56026     56028     56030     56029     56031     56033     56032     56034
     56036     56035     56037     56039     56038     56040     56042     56041     56043
     56045     56044     56046     56048     56047     56049     56051     56050     56052
     56054     56053     56055     56057     56056     56058     56060     56059     56061
     56063     56062     56064     56066     56065     56067     56069     56068     56070
     56072     56071     56073     56075     56074     56076     56078     56077     56079
     56081     56080     56082     56084     56083     56085     56087     56086     56088
     56090     56089     56091     56093     56092     56094     56096     56095     56097
     56099     56098     56100     56102     56101     56103     56105     56104     56106
     56108     56107     56109     56111     56110     56112     56114     56113     56115
     56117     56116     56118     56120     56119     56121     56123     56122     56124
     56126     56125     56127     56129     56128     56130     56132     56131     56133
     56135     56134     56136     56138     56137     56139     56141     56140     56142
     56144     56143     56145     56147     56146     56148     56150     56149     56151
     56153     56152     56154     56156     56155     56157     56159     56158     56160
     56162     56161     56163     56165     56164     56166     56168     56167     56169
     56171     56170     56172     56174     56173     56175     56177     56176     56178
     56180     56179     56181     56183     56182     56184     56186     56185     56187
     56189     56188     56190     56192     56191     56193     56195     56194     56196
     56198     56197     56199     56201     56200     56202     56204     56203     56205
     56207     56206     56208     56210     56209     56211     56213     56212     56214
     56216     56215     56217     56219     56218     56220     56222     56221     56223
     56225     56224     56226     56228     56227     56229     56231     56230     56232
     56234     56233     56235     56237     56236     56238     56240     56239     56241
     56243     56242     56244     56246     56245     56247     56249     56248     56250
     56252     56251     56253     56255     56254     56256     56258     56257     56259
     56261     56260     56262     56264     56263     56265     56267     56266     56268
     56270     56269     56271     56273     56272     56274     56276     56275     56277
     56279     56278     56280     56282     56281     56283     56285     56284     56286
     56288     56287     56289     56291     56290     56292     56294     56293     56295
     56297     56296     56298     56300     56299     56301     56303     56302     56304
     56306     56305     56307     56309     56308     56310     56312     56311     56313
     56315     56314     56316     56318     56317     56319     56321     56320     56322
     56324     56323     56325     56327     56326     56328     56330     56329     56331
     56333     56332     56334     56336     56335     56337     56339     56338     56340
     56342     56341     56343     56345     56344     56346     56348     56347     56349
     56351     56350     56352     56354     56353     56355     56357     56356     56358
     56360     56359     56361     56363     56362     56364     56366     56365     56367
     56369     56368     56370     56372     56371     56373     56375     56374     56376
     56378     56377     56379     56381     56380     56382     56384     56383     56385
     56387     56386     56388     56390     56389     56391     56393     56392     56394
     56396     56395     56397     56399     56398     56400     56402     56401     56403
     56405     56404     56406     56408     56407     56409     56411     56410     56412
     56414     56413     56415     56417     56416     56418     56420     56419     56421
     56423     56422     56424     56426     56425     56427     56429     56428     56430
     56432     56431     56433     56435     56434     56436     56438     56437     56439
     56441     56440     56442     56444     56443     56445     56447     56446     56448
     56450     56449     56451     56453     56452     56454     56456     56455     56457
     56459     56458     56460     56462     56461     56463     56465     56464     56466
     56468     56467     56469     56471     56470     56472     56474     56473     56475
     56477     56476     56478     56480     56479     56481     56483     56482     56484
     56486     56485     56487     56489     56488     56490     56492     56491     56493
     56495     56494     56496     56498     56497     56499     56501     56500     56502
     56504     56503     56505     56507     56506     56508     56510     56509     56511
     56513     56512     56514     56516     56515     56517     56519     56518     56520
     56522     56521     56523     56525     56524     56526     56528     56527     56529
     56531     56530     56532     56534     56533     56535     56537     56536     56538
     56540     56539     56541     56543     56542     56544     56546     56545     56547
     56549     56548     56550     56552     56551     56553     56555     56554     56556
     56558     56557     56559     56561     56560     56562     56564     56563     56565
     56567     56566     56568     56570     56569     56571     56573     56572     56574
     56576     56575     56577     56579     56578     56580     56582     56581     56583
     56585     56584     56586     56588     56587     56589     56591     56590     56592
     56594     56593     56595     56597     56596     56598     56600     56599     56601
     56603     56602     56604     56606     56605     56607     56609     56608     56610
     56612     56611     56613     56615     56614     56616     56618     56617     56619
     56621     56620     56622     56624     56623     56625     56627     56626     56628
     56630     56629     56631     56633     56632     56634     56636     56635     56637
     56639     56638     56640     56642     56641     56643     56645     56644     56646
     56648     56647     56649     56651     56650     56652     56654     56653     56655
     56657     56656     56658     56660     56659     56661     56663     56662     56664
     56666     56665     56667     56669     56668     56670     56672     56671     56673
     56675     56674     56676     56678     56677     56679     56681     56680     56682
     56684     56683     56685     56687     56686     56688     56690     56689     56691
     56693     56692     56694     56696     56695     56697     56699     56698     56700
     56702     56701     56703     56705     56704     56706     56708     56707     56709
     56711     56710     56712     56714     56713     56715     56717     56716     56718
     56720     56719     56721     56723     56722     56724     56726     56725     56727
     56729     56728     56730     56732     56731     56733     56735     56734     56736
     56738     56737     56739     56741     56740     56742     56744     56743     56745
     56747     56746     56748     56750     56749     56751     56753     56752     56754
     56756     56755     56757     56759     56758     56760     56762     56761     56763
     56765     56764     56766     56768     56767     56769     56771     56770     56772
     56774     56773     56775     56777     56776     56778     56780     56779     56781
     56783     56782     56784     56786     56785     56787     56789     56788     56790
     56792     56791     56793     56795     56794     56796     56798     56797     56799
     56801     56800     56802     56804     56803     56805     56807     56806     56808
     56810     56809     56811     56813     56812     56814     56816     56815     56817
     56819     56818     56820     56822     56821     56823     56825     56824     56826
     56828     56827     56829     56831     56830     56832     56834     56833     56835
     56837     56836     56838     56840     56839     56841     56843     56842     56844
     56846     56845     56847     56849     56848     56850     56852     56851     56853
     56855     56854     56856     56858     56857     56859     56861     56860     56862
     56864     56863     56865     56867     56866     56868     56870     56869     56871
     56873     56872     56874     56876     56875     56877     56879     56878     56880
     56882     56881     56883     56885     56884     56886     56888     56887     56889
     56891     56890     56892     56894     56893     56895     56897     56896     56898
     56900     56899     56901     56903     56902     56904     56906     56905     56907
     56909     56908     56910     56912     56911     56913     56915     56914     56916
     56918     56917     56919     56921     56920     56922     56924     56923     56925
     56927     56926     56928     56930     56929     56931     56933     56932     56934
     56936     56935     56937     56939     56938     56940     56942     56941     56943
     56945     56944     56946     56948     56947     56949     56951     56950     56952
     56954     56953     56955     56957     56956     56958     56960     56959     56961
     56963     56962     56964     56966     56965     56967     56969     56968     56970
     56972     56971     56973     56975     56974     56976     56978     56977     56979
     56981     56980     56982     56984     56983     56985     56987     56986     56988
     56990     56989     56991     56993     56992     56994     56996     56995     56997
     56999     56998     57000     57002     57001     57003     57005     57004     57006
     57008     57007     57009     57011     57010     57012     57014     57013     57015
     57017     57016     57018     57020     57019     57021     57023     57022     57024
     57026     57025     57027     57029     57028     57030     57032     57031     57033
     57035     57034     57036     57038     57037     57039     57041     57040     57042
     57044     57043     57045     57047     57046     57048     57050     57049     57051
     57053     57052     57054     57056     57055     57057     57059     57058     57060
     57062     57061     57063     57065     57064     57066     57068     57067     57069
     57071     57070     57072     57074     57073     57075     57077     57076     57078
     57080     57079     57081     57083     57082     57084     57086     57085     57087
     57089     57088     57090     57092     57091     57093     57095     57094     57096
     57098     57097     57099     57101     57100     57102     57104     57103     57105
     57107     57106     57108     57110     57109     57111     57113     57112     57114
     57116     57115     57117     57119     57118     57120     57122     57121     57123
     57125     57124     57126     57128     57127     57129     57131     57130     57132
     57134     57133     57135     57137     57136     57138     57140     57139     57141
     57143     57142     57144     57146     57145     57147     57149     57148     57150
     57152     57151     57153     57155     57154     57156     57158     57157     57159
     57161     57160     57162     57164     57163     57165     57167     57166     57168
     57170     57169     57171     57173     57172     57174     57176     57175     57177
     57179     57178     57180     57182     57181     57183     57185     57184     57186
     57188     57187     57189     57191     57190     57192     57194     57193     57195
     57197     57196     57198     57200     57199     57201     57203     57202     57204
     57206     57205     57207     57209     57208     57210     57212     57211     57213
     57215     57214     57216     57218     57217     57219     57221     57220     57222
     57224     57223     57225     57227     57226     57228     57230     57229     57231
     57233     57232     57234     57236     57235     57237     57239     57238     57240
     57242     57241     57243     57245     57244     57246     57248     57247     57249
     57251     57250     57252     57254     57253     57255     57257     57256     57258
     57260     57259     57261     57263     57262     57264     57266     57265     57267
     57269     57268     57270     57272     57271     57273     57275     57274     57276
     57278     57277     57279     57281     57280     57282     57284     57283     57285
     57287     57286     57288     57290     57289     57291     57293     57292     57294
     57296     57295     57297     57299     57298     57300     57302     57301     57303
     57305     57304     57306     57308     57307     57309     57311     57310     57312
     57314     57313     57315     57317     57316     57318     57320     57319     57321
     57323     57322     57324     57326     57325     57327     57329     57328     57330
     57332     57331     57333     57335     57334     57336     57338     57337     57339
     57341     57340     57342     57344     57343     57345     57347     57346     57348
     57350     57349     57351     57353     57352     57354     57356     57355     57357
     57359     57358     57360     57362     57361     57363     57365     57364     57366
     57368     57367     57369     57371     57370     57372     57374     57373     57375
     57377     57376     57378     57380     57379     57381     57383     57382     57384
     57386     57385     57387     57389     57388     57390     57392     57391     57393
     57395     57394     57396     57398     57397     57399     57401     57400     57402
     57404     57403     57405     57407     57406     57408     57410     57409     57411
     57413     57412     57414     57416     57415     57417     57419     57418     57420
     57422     57421     57423     57425     57424     57426     57428     57427     57429
     57431     57430     57432     57434     57433     57435     57437     57436     57438
     57440     57439     57441     57443     57442     57444     57446     57445     57447
     57449     57448     57450     57452     57451     57453     57455     57454     57456
     57458     57457     57459     57461     57460     57462     57464     57463     57465
     57467     57466     57468     57470     57469     57471     57473     57472     57474
     57476     57475     57477     57479     57478     57480     57482     57481     57483
     57485     57484     57486     57488     57487     57489     57491     57490     57492
     57494     57493     57495     57497     57496     57498     57500     57499     57501
     57503     57502     57504     57506     57505     57507     57509     57508     57510
     57512     57511     57513     57515     57514     57516     57518     57517     57519
     57521     57520     57522     57524     57523     57525     57527     57526     57528
     57530     57529     57531     57533     57532     57534     57536     57535     57537
     57539     57538     57540     57542     57541     57543     57545     57544     57546
     57548     57547     57549     57551     57550     57552     57554     57553     57555
     57557     57556     57558     57560     57559     57561     57563     57562     57564
     57566     57565     57567     57569     57568     57570     57572     57571     57573
     57575     57574     57576     57578     57577     57579     57581     57580     57582
     57584     57583     57585     57587     57586     57588     57590     57589     57591
     57593     57592     57594     57596     57595     57597     57599     57598     57600
     57602     57601     57603     57605     57604     57606     57608     57607     57609
     57611     57610     57612     57614     57613     57615     57617     57616     57618
     57620     57619     57621     57623     57622     57624     57626     57625     57627
     57629     57628     57630     57632     57631     57633     57635     57634     57636
     57638     57637     57639     57641     57640     57642     57644     57643     57645
     57647     57646     57648     57650     57649     57651     57653     57652     57654
     57656     57655     57657     57659     57658     57660     57662     57661     57663
     57665     57664     57666     57668     57667     57669     57671     57670     57672
     57674     57673     57675     57677     57676     57678     57680     57679     57681
     57683     57682     57684     57686     57685     57687     57689     57688     57690
     57692     57691     57693     57695     57694     57696     57698     57697     57699
     57701     57700     57702     57704     57703     57705     57707     57706     57708
     57710     57709     57711     57713     57712     57714     57716     57715     57717
     57719     57718     57720     57722     57721     57723     57725     57724     57726
     57728     57727     57729     57731     57730     57732     57734     57733     57735
     57737     57736     57738     57740     57739     57741     57743     57742     57744
     57746     57745     57747     57749     57748     57750     57752     57751     57753
     57755     57754     57756     57758     57757     57759     57761     57760     57762
     57764     57763     57765     57767     57766     57768     57770     57769     57771
     57773     57772     57774     57776     57775     57777     57779     57778     57780
     57782     57781     57783     57785     57784     57786     57788     57787     57789
     57791     57790     57792     57794     57793     57795     57797     57796     57798
     57800     57799     57801     57803     57802     57804     57806     57805     57807
     57809     57808     57810     57812     57811     57813     57815     57814     57816
     57818     57817     57819     57821     57820     57822     57824     57823     57825
     57827     57826     57828     57830     57829     57831     57833     57832     57834
     57836     57835     57837     57839     57838     57840     57842     57841     57843
     57845     57844     57846     57848     57847     57849     57851     57850     57852
     57854     57853     57855     57857     57856     57858     57860     57859     57861
     57863     57862     57864     57866     57865     57867     57869     57868     57870
     57872     57871     57873     57875     57874     57876     57878     57877     57879
     57881     57880     57882     57884     57883     57885     57887     57886     57888
     57890     57889     57891     57893     57892     57894     57896     57895     57897
     57899     57898     57900     57902     57901     57903     57905     57904     57906
     57908     57907     57909     57911     57910     57912     57914     57913     57915
     57917     57916     57918     57920     57919     57921     57923     57922     57924
     57926     57925     57927     57929     57928     57930     57932     57931     57933
     57935     57934     57936     57938     57937     57939     57941     57940     57942
     57944     57943     57945     57947     57946     57948     57950     57949     57951
     57953     57952     57954     57956     57955     57957     57959     57958     57960
     57962     57961     57963     57965     57964     57966     57968     57967     57969
     57971     57970     57972     57974     57973     57975     57977     57976     57978
     57980     57979     57981     57983     57982     57984     57986     57985     57987
     57989     57988     57990     57992     57991     57993     57995     57994     57996
     57998     57997     57999     58001     58000     58002     58004     58003     58005
     58007     58006     58008     58010     58009     58011     58013     58012     58014
     58016     58015     58017     58019     58018     58020     58022     58021     58023
     58025     58024     58026     58028     58027     58029     58031     58030     58032
     58034     58033     58035     58037     58036     58038     58040     58039     58041
     58043     58042     58044     58046     58045     58047     58049     58048     58050
     58052     58051     58053     58055     58054     58056     58058     58057     58059
     58061     58060     58062     58064     58063     58065     58067     58066     58068
     58070     58069     58071     58073     58072     58074     58076     58075     58077
     58079     58078     58080     58082     58081     58083     58085     58084     58086
     58088     58087     58089     58091     58090     58092     58094     58093     58095
     58097     58096     58098     58100     58099     58101     58103     58102     58104
     58106     58105     58107     58109     58108     58110     58112     58111     58113
     58115     58114     58116     58118     58117     58119     58121     58120     58122
     58124     58123     58125     58127     58126     58128     58130     58129     58131
     58133     58132     58134     58136     58135     58137     58139     58138     58140
     58142     58141     58143     58145     58144     58146     58148     58147     58149
     58151     58150     58152     58154     58153     58155     58157     58156     58158
     58160     58159     58161     58163     58162     58164     58166     58165     58167
     58169     58168     58170     58172     58171     58173     58175     58174     58176
     58178     58177     58179     58181     58180     58182     58184     58183     58185
     58187     58186     58188     58190     58189     58191     58193     58192     58194
     58196     58195     58197     58199     58198     58200     58202     58201     58203
     58205     58204     58206     58208     58207     58209     58211     58210     58212
     58214     58213     58215     58217     58216     58218     58220     58219     58221
     58223     58222     58224     58226     58225     58227     58229     58228     58230
     58232     58231     58233     58235     58234     58236     58238     58237     58239
     58241     58240     58242     58244     58243     58245     58247     58246     58248
     58250     58249     58251     58253     58252     58254     58256     58255     58257
     58259     58258     58260     58262     58261     58263     58265     58264     58266
     58268     58267     58269     58271     58270     58272     58274     58273     58275
     58277     58276     58278     58280     58279     58281     58283     58282     58284
     58286     58285     58287     58289     58288     58290     58292     58291     58293
     58295     58294     58296     58298     58297     58299     58301     58300     58302
     58304     58303     58305     58307     58306     58308     58310     58309     58311
     58313     58312     58314     58316     58315     58317     58319     58318     58320
     58322     58321     58323     58325     58324     58326     58328     58327     58329
     58331     58330     58332     58334     58333     58335     58337     58336     58338
     58340     58339     58341     58343     58342     58344     58346     58345     58347
     58349     58348     58350     58352     58351     58353     58355     58354     58356
     58358     58357     58359     58361     58360     58362     58364     58363     58365
     58367     58366     58368     58370     58369     58371     58373     58372     58374
     58376     58375     58377     58379     58378     58380     58382     58381     58383
     58385     58384     58386     58388     58387     58389     58391     58390     58392
     58394     58393     58395     58397     58396     58398     58400     58399     58401
     58403     58402     58404     58406     58405     58407     58409     58408     58410
     58412     58411     58413     58415     58414     58416     58418     58417     58419
     58421     58420     58422     58424     58423     58425     58427     58426     58428
     58430     58429     58431     58433     58432     58434     58436     58435     58437
     58439     58438     58440     58442     58441     58443     58445     58444     58446
     58448     58447     58449     58451     58450     58452     58454     58453     58455
     58457     58456     58458     58460     58459     58461     58463     58462     58464
     58466     58465     58467     58469     58468     58470     58472     58471     58473
     58475     58474     58476     58478     58477     58479     58481     58480     58482
     58484     58483     58485     58487     58486     58488     58490     58489     58491
     58493     58492     58494     58496     58495     58497     58499     58498     58500
     58502     58501     58503     58505     58504     58506     58508     58507     58509
     58511     58510     58512     58514     58513     58515     58517     58516     58518
     58520     58519     58521     58523     58522     58524     58526     58525     58527
     58529     58528     58530     58532     58531     58533     58535     58534     58536
     58538     58537     58539     58541     58540     58542     58544     58543     58545
     58547     58546     58548     58550     58549     58551     58553     58552     58554
     58556     58555     58557     58559     58558     58560     58562     58561     58563
     58565     58564     58566     58568     58567     58569     58571     58570     58572
     58574     58573     58575     58577     58576     58578     58580     58579     58581
     58583     58582     58584     58586     58585     58587     58589     58588     58590
     58592     58591     58593     58595     58594     58596     58598     58597     58599
     58601     58600     58602     58604     58603     58605     58607     58606     58608
     58610     58609     58611     58613     58612     58614     58616     58615     58617
     58619     58618     58620     58622     58621     58623     58625     58624     58626
     58628     58627     58629     58631     58630     58632     58634     58633     58635
     58637     58636     58638     58640     58639     58641     58643     58642     58644
     58646     58645     58647     58649     58648     58650     58652     58651     58653
     58655     58654     58656     58658     58657     58659     58661     58660     58662
     58664     58663     58665     58667     58666     58668     58670     58669     58671
     58673     58672     58674     58676     58675     58677     58679     58678     58680
     58682     58681     58683     58685     58684     58686     58688     58687     58689
     58691     58690     58692     58694     58693     58695     58697     58696     58698
     58700     58699     58701     58703     58702     58704     58706     58705     58707
     58709     58708     58710     58712     58711     58713     58715     58714     58716
     58718     58717     58719     58721     58720     58722     58724     58723     58725
     58727     58726     58728     58730     58729     58731     58733     58732     58734
     58736     58735     58737     58739     58738     58740     58742     58741     58743
     58745     58744     58746     58748     58747     58749     58751     58750     58752
     58754     58753     58755     58757     58756     58758     58760     58759     58761
     58763     58762     58764     58766     58765     58767     58769     58768     58770
     58772     58771     58773     58775     58774     58776     58778     58777     58779
     58781     58780     58782     58784     58783     58785     58787     58786     58788
     58790     58789     58791     58793     58792     58794     58796     58795     58797
     58799     58798     58800     58802     58801     58803     58805     58804     58806
     58808     58807     58809     58811     58810     58812     58814     58813     58815
     58817     58816     58818     58820     58819     58821     58823     58822     58824
     58826     58825     58827     58829     58828     58830     58832     58831     58833
     58835     58834     58836     58838     58837     58839     58841     58840     58842
     58844     58843     58845     58847     58846     58848     58850     58849     58851
     58853     58852     58854     58856     58855     58857     58859     58858     58860
     58862     58861     58863     58865     58864     58866     58868     58867     58869
     58871     58870     58872     58874     58873     58875     58877     58876     58878
     58880     58879     58881     58883     58882     58884     58886     58885     58887
     58889     58888     58890     58892     58891     58893     58895     58894     58896
     58898     58897     58899     58901     58900     58902     58904     58903     58905
     58907     58906     58908     58910     58909     58911     58913     58912     58914
     58916     58915     58917     58919     58918     58920     58922     58921     58923
     58925     58924     58926     58928     58927     58929     58931     58930     58932
     58934     58933     58935     58937     58936     58938     58940     58939     58941
     58943     58942     58944     58946     58945     58947     58949     58948     58950
     58952     58951     58953     58955     58954     58956     58958     58957     58959
     58961     58960     58962     58964     58963     58965     58967     58966     58968
     58970     58969     58971     58973     58972     58974     58976     58975     58977
     58979     58978     58980     58982     58981     58983     58985     58984     58986
     58988     58987     58989     58991     58990     58992     58994     58993     58995
     58997     58996     58998     59000     58999     59001     59003     59002     59004
     59006     59005     59007     59009     59008     59010     59012     59011     59013
     59015     59014     59016     59018     59017     59019     59021     59020     59022
     59024     59023     59025     59027     59026     59028     59030     59029     59031
     59033     59032     59034     59036     59035     59037     59039     59038     59040
     59042     59041     59043     59045     59044     59046     59048     59047     59049
     59051     59050     59052     59054     59053     59055     59057     59056     59058
     59060     59059     59061     59063     59062     59064     59066     59065     59067
     59069     59068     59070     59072     59071     59073     59075     59074     59076
     59078     59077     59079     59081     59080     59082     59084     59083     59085
     59087     59086     59088     59090     59089     59091     59093     59092     59094
     59096     59095     59097     59099     59098     59100     59102     59101     59103
     59105     59104     59106     59108     59107     59109     59111     59110     59112
     59114     59113     59115     59117     59116     59118     59120     59119     59121
     59123     59122     59124     59126     59125     59127     59129     59128     59130
     59132     59131     59133     59135     59134     59136     59138     59137     59139
     59141     59140     59142     59144     59143     59145     59147     59146     59148
     59150     59149     59151     59153     59152     59154     59156     59155     59157
     59159     59158     59160     59162     59161     59163     59165     59164     59166
     59168     59167     59169     59171     59170     59172     59174     59173     59175
     59177     59176     59178     59180     59179     59181     59183     59182     59184
     59186     59185     59187     59189     59188     59190     59192     59191     59193
     59195     59194     59196     59198     59197     59199     59201     59200     59202
     59204     59203     59205     59207     59206     59208     59210     59209     59211
     59213     59212     59214     59216     59215     59217     59219     59218     59220
     59222     59221     59223     59225     59224     59226     59228     59227     59229
     59231     59230     59232     59234     59233     59235     59237     59236     59238
     59240     59239     59241     59243     59242     59244     59246     59245     59247
     59249     59248     59250     59252     59251     59253     59255     59254     59256
     59258     59257     59259     59261     59260     59262     59264     59263     59265
     59267     59266     59268     59270     59269     59271     59273     59272     59274
     59276     59275     59277     59279     59278     59280     59282     59281     59283
     59285     59284     59286     59288     59287     59289     59291     59290     59292
     59294     59293     59295     59297     59296     59298     59300     59299     59301
     59303     59302     59304     59306     59305     59307     59309     59308     59310
     59312     59311     59313     59315     59314     59316     59318     59317     59319
     59321     59320     59322     59324     59323     59325     59327     59326     59328
     59330     59329     59331     59333     59332     59334     59336     59335     59337
     59339     59338     59340     59342     59341     59343     59345     59344     59346
     59348     59347     59349     59351     59350     59352     59354     59353     59355
     59357     59356     59358     59360     59359     59361     59363     59362     59364
     59366     59365     59367     59369     59368     59370     59372     59371     59373
     59375     59374     59376     59378     59377     59379     59381     59380     59382
     59384     59383     59385     59387     59386     59388     59390     59389     59391
     59393     59392     59394     59396     59395     59397     59399     59398     59400
     59402     59401     59403     59405     59404     59406     59408     59407     59409
     59411     59410     59412     59414     59413     59415     59417     59416     59418
     59420     59419     59421     59423     59422     59424     59426     59425     59427
     59429     59428     59430     59432     59431     59433     59435     59434     59436
     59438     59437     59439     59441     59440     59442     59444     59443     59445
     59447     59446     59448     59450     59449     59451     59453     59452     59454
     59456     59455     59457     59459     59458     59460     59462     59461     59463
     59465     59464     59466     59468     59467     59469     59471     59470     59472
     59474     59473     59475     59477     59476     59478     59480     59479     59481
     59483     59482     59484     59486     59485     59487     59489     59488     59490
     59492     59491     59493     59495     59494     59496     59498     59497     59499
     59501     59500     59502     59504     59503     59505     59507     59506     59508
     59510     59509     59511     59513     59512     59514     59516     59515     59517
     59519     59518     59520     59522     59521     59523     59525     59524     59526
     59528     59527     59529     59531     59530     59532     59534     59533     59535
     59537     59536     59538     59540     59539     59541     59543     59542     59544
     59546     59545     59547     59549     59548     59550     59552     59551     59553
     59555     59554     59556     59558     59557     59559     59561     59560     59562
     59564     59563     59565     59567     59566     59568     59570     59569     59571
     59573     59572     59574     59576     59575     59577     59579     59578     59580
     59582     59581     59583     59585     59584     59586     59588     59587     59589
     59591     59590     59592     59594     59593     59595     59597     59596     59598
     59600     59599     59601     59603     59602     59604     59606     59605     59607
     59609     59608     59610     59612     59611     59613     59615     59614     59616
     59618     59617     59619     59621     59620     59622     59624     59623     59625
     59627     59626     59628     59630     59629     59631     59633     59632     59634
     59636     59635     59637     59639     59638     59640     59642     59641     59643
     59645     59644     59646     59648     59647     59649     59651     59650     59652
     59654     59653     59655     59657     59656     59658     59660     59659     59661
     59663     59662     59664     59666     59665     59667     59669     59668     59670
     59672     59671     59673     59675     59674     59676     59678     59677     59679
     59681     59680     59682     59684     59683     59685     59687     59686     59688
     59690     59689     59691     59693     59692     59694     59696     59695     59697
     59699     59698     59700     59702     59701     59703     59705     59704     59706
     59708     59707     59709     59711     59710     59712     59714     59713     59715
     59717     59716     59718     59720     59719     59721     59723     59722     59724
     59726     59725     59727     59729     59728     59730     59732     59731     59733
     59735     59734     59736     59738     59737     59739     59741     59740     59742
     59744     59743     59745     59747     59746     59748     59750     59749     59751
     59753     59752     59754     59756     59755     59757     59759     59758     59760
     59762     59761     59763     59765     59764     59766     59768     59767     59769
     59771     59770     59772     59774     59773     59775     59777     59776     59778
     59780     59779     59781     59783     59782     59784     59786     59785     59787
     59789     59788     59790     59792     59791     59793     59795     59794     59796
     59798     59797     59799     59801     59800     59802     59804     59803     59805
     59807     59806     59808     59810     59809     59811     59813     59812     59814
     59816     59815     59817     59819     59818     59820     59822     59821     59823
     59825     59824     59826     59828     59827     59829     59831     59830     59832
     59834     59833     59835     59837     59836     59838     59840     59839     59841
     59843     59842     59844     59846     59845     59847     59849     59848     59850
     59852     59851     59853     59855     59854     59856     59858     59857     59859
     59861     59860     59862     59864     59863     59865     59867     59866     59868
     59870     59869     59871     59873     59872     59874     59876     59875     59877
     59879     59878     59880     59882     59881     59883     59885     59884     59886
     59888     59887     59889     59891     59890     59892     59894     59893     59895
     59897     59896     59898     59900     59899     59901     59903     59902     59904
     59906     59905     59907     59909     59908     59910     59912     59911     59913
     59915     59914     59916     59918     59917     59919     59921     59920     59922
     59924     59923     59925     59927     59926     59928     59930     59929     59931
     59933     59932     59934     59936     59935     59937     59939     59938     59940
     59942     59941     59943     59945     59944     59946     59948     59947     59949
     59951     59950     59952     59954     59953     59955     59957     59956     59958
     59960     59959     59961     59963     59962     59964     59966     59965     59967
     59969     59968     59970     59972     59971     59973     59975     59974     59976
     59978     59977     59979     59981     59980     59982     59984     59983     59985
     59987     59986     59988     59990     59989     59991     59993     59992     59994
     59996     59995     59997     59999     59998     60000     60002     60001     60003
     60005     60004     60006     60008     60007     60009     60011     60010     60012
     60014     60013     60015     60017     60016     60018     60020     60019     60021
     60023     60022     60024     60026     60025     60027     60029     60028     60030
     60032     60031     60033     60035     60034     60036     60038     60037     60039
     60041     60040     60042     60044     60043     60045     60047     60046     60048
     60050     60049     60051     60053     60052     60054     60056     60055     60057
     60059     60058     60060     60062     60061     60063     60065     60064     60066
     60068     60067     60069     60071     60070     60072     60074     60073     60075
     60077     60076     60078     60080     60079     60081     60083     60082     60084
     60086     60085     60087     60089     60088     60090     60092     60091     60093
     60095     60094     60096     60098     60097     60099     60101     60100     60102
     60104     60103     60105     60107     60106     60108     60110     60109     60111
     60113     60112     60114     60116     60115     60117     60119     60118     60120
     60122     60121     60123     60125     60124     60126     60128     60127     60129
     60131     60130     60132     60134     60133     60135     60137     60136     60138
     60140     60139     60141     60143     60142     60144     60146     60145     60147
     60149     60148     60150     60152     60151     60153     60155     60154     60156
     60158     60157     60159     60161     60160     60162     60164     60163     60165
     60167     60166     60168     60170     60169     60171     60173     60172     60174
     60176     60175     60177     60179     60178     60180     60182     60181     60183
     60185     60184     60186     60188     60187     60189     60191     60190     60192
     60194     60193     60195     60197     60196     60198     60200     60199     60201
     60203     60202     60204     60206     60205     60207     60209     60208     60210
     60212     60211     60213     60215     60214     60216     60218     60217     60219
     60221     60220     60222     60224     60223     60225     60227     60226     60228
     60230     60229     60231     60233     60232     60234     60236     60235     60237
     60239     60238     60240     60242     60241     60243     60245     60244     60246
     60248     60247     60249     60251     60250     60252     60254     60253     60255
     60257     60256     60258     60260     60259     60261     60263     60262     60264
     60266     60265     60267     60269     60268     60270     60272     60271     60273
     60275     60274     60276     60278     60277     60279     60281     60280     60282
     60284     60283     60285     60287     60286     60288     60290     60289     60291
     60293     60292     60294     60296     60295     60297     60299     60298     60300
     60302     60301     60303     60305     60304     60306     60308     60307     60309
     60311     60310     60312     60314     60313     60315     60317     60316     60318
     60320     60319     60321     60323     60322     60324     60326     60325     60327
     60329     60328     60330     60332     60331     60333     60335     60334     60336
     60338     60337     60339     60341     60340     60342     60344     60343     60345
     60347     60346     60348     60350     60349     60351     60353     60352     60354
     60356     60355     60357     60359     60358     60360     60362     60361     60363
     60365     60364     60366     60368     60367     60369     60371     60370     60372
     60374     60373     60375     60377     60376     60378     60380     60379     60381
     60383     60382     60384     60386     60385     60387     60389     60388     60390
     60392     60391     60393     60395     60394     60396     60398     60397     60399
     60401     60400     60402     60404     60403     60405     60407     60406     60408
     60410     60409     60411     60413     60412     60414     60416     60415     60417
     60419     60418     60420     60422     60421     60423     60425     60424     60426
     60428     60427     60429     60431     60430     60432     60434     60433     60435
     60437     60436     60438     60440     60439     60441     60443     60442     60444
     60446     60445     60447     60449     60448     60450     60452     60451     60453
     60455     60454     60456     60458     60457     60459     60461     60460     60462
     60464     60463     60465     60467     60466     60468     60470     60469     60471
     60473     60472     60474     60476     60475     60477     60479     60478     60480
     60482     60481     60483     60485     60484     60486     60488     60487     60489
     60491     60490     60492     60494     60493     60495     60497     60496     60498
     60500     60499     60501     60503     60502     60504     60506     60505     60507
     60509     60508     60510     60512     60511     60513     60515     60514     60516
     60518     60517     60519     60521     60520     60522     60524     60523     60525
     60527     60526     60528     60530     60529     60531     60533     60532     60534
     60536     60535     60537     60539     60538     60540     60542     60541     60543
     60545     60544     60546     60548     60547     60549     60551     60550     60552
     60554     60553     60555     60557     60556     60558     60560     60559     60561
     60563     60562     60564     60566     60565     60567     60569     60568     60570
     60572     60571     60573     60575     60574     60576     60578     60577     60579
     60581     60580     60582     60584     60583     60585     60587     60586     60588
     60590     60589     60591     60593     60592     60594     60596     60595     60597
     60599     60598     60600     60602     60601     60603     60605     60604     60606
     60608     60607     60609     60611     60610     60612     60614     60613     60615
     60617     60616     60618     60620     60619     60621     60623     60622     60624
     60626     60625     60627     60629     60628     60630     60632     60631     60633
     60635     60634     60636     60638     60637     60639     60641     60640     60642
     60644     60643     60645     60647     60646     60648     60650     60649     60651
     60653     60652     60654     60656     60655     60657     60659     60658     60660
     60662     60661     60663     60665     60664     60666     60668     60667     60669
     60671     60670     60672     60674     60673     60675     60677     60676     60678
     60680     60679     60681     60683     60682     60684     60686     60685     60687
     60689     60688     60690     60692     60691     60693     60695     60694     60696
     60698     60697     60699     60701     60700     60702     60704     60703     60705
     60707     60706     60708     60710     60709     60711     60713     60712     60714
     60716     60715     60717     60719     60718     60720     60722     60721     60723
     60725     60724     60726     60728     60727     60729     60731     60730     60732
     60734     60733     60735     60737     60736     60738     60740     60739     60741
     60743     60742     60744     60746     60745     60747     60749     60748     60750
     60752     60751     60753     60755     60754     60756     60758     60757     60759
     60761     60760     60762     60764     60763     60765     60767     60766     60768
     60770     60769     60771     60773     60772     60774     60776     60775     60777
     60779     60778     60780     60782     60781     60783     60785     60784     60786
     60788     60787     60789     60791     60790     60792     60794     60793     60795
     60797     60796     60798     60800     60799     60801     60803     60802     60804
     60806     60805     60807     60809     60808     60810     60812     60811     60813
     60815     60814     60816     60818     60817     60819     60821     60820     60822
     60824     60823     60825     60827     60826     60828     60830     60829     60831
     60833     60832     60834     60836     60835     60837     60839     60838     60840
     60842     60841     60843     60845     60844     60846     60848     60847     60849
     60851     60850     60852     60854     60853     60855     60857     60856     60858
     60860     60859     60861     60863     60862     60864     60866     60865     60867
     60869     60868     60870     60872     60871     60873     60875     60874     60876
     60878     60877     60879     60881     60880     60882     60884     60883     60885
     60887     60886     60888     60890     60889     60891     60893     60892     60894
     60896     60895     60897     60899     60898     60900     60902     60901     60903
     60905     60904     60906     60908     60907     60909     60911     60910     60912
     60914     60913     60915     60917     60916     60918     60920     60919     60921
     60923     60922     60924     60926     60925     60927     60929     60928     60930
     60932     60931     60933     60935     60934     60936     60938     60937     60939
     60941     60940     60942     60944     60943     60945     60947     60946     60948
     60950     60949     60951     60953     60952     60954     60956     60955     60957
     60959     60958     60960     60962     60961     60963     60965     60964     60966
     60968     60967     60969     60971     60970     60972     60974     60973     60975
     60977     60976     60978     60980     60979     60981     60983     60982     60984
     60986     60985     60987     60989     60988     60990     60992     60991     60993
     60995     60994     60996     60998     60997     60999     61001     61000     61002
     61004     61003     61005     61007     61006     61008     61010     61009     61011
     61013     61012     61014     61016     61015     61017     61019     61018     61020
     61022     61021     61023     61025     61024     61026     61028     61027     61029
     61031     61030     61032     61034     61033     61035     61037     61036     61038
     61040     61039     61041     61043     61042     61044     61046     61045     61047
     61049     61048     61050     61052     61051     61053     61055     61054     61056
     61058     61057     61059     61061     61060     61062     61064     61063     61065
     61067     61066     61068     61070     61069     61071     61073     61072     61074
     61076     61075     61077     61079     61078     61080     61082     61081     61083
     61085     61084     61086     61088     61087     61089     61091     61090     61092
     61094     61093     61095     61097     61096     61098     61100     61099     61101
     61103     61102     61104     61106     61105     61107     61109     61108     61110
     61112     61111     61113     61115     61114     61116     61118     61117     61119
     61121     61120     61122     61124     61123     61125     61127     61126     61128
     61130     61129     61131     61133     61132     61134     61136     61135     61137
     61139     61138     61140     61142     61141     61143     61145     61144     61146
     61148     61147     61149     61151     61150     61152     61154     61153     61155
     61157     61156     61158     61160     61159     61161     61163     61162     61164
     61166     61165     61167     61169     61168     61170     61172     61171     61173
     61175     61174     61176     61178     61177     61179     61181     61180     61182
     61184     61183     61185     61187     61186     61188     61190     61189     61191
     61193     61192     61194     61196     61195     61197     61199     61198     61200
     61202     61201     61203     61205     61204     61206     61208     61207     61209
     61211     61210     61212     61214     61213     61215     61217     61216     61218
     61220     61219     61221     61223     61222     61224     61226     61225     61227
     61229     61228     61230     61232     61231     61233     61235     61234     61236
     61238     61237     61239     61241     61240     61242     61244     61243     61245
     61247     61246     61248     61250     61249     61251     61253     61252     61254
     61256     61255     61257     61259     61258     61260     61262     61261     61263
     61265     61264     61266     61268     61267     61269     61271     61270     61272
     61274     61273     61275     61277     61276     61278     61280     61279     61281
     61283     61282     61284     61286     61285     61287     61289     61288     61290
     61292     61291     61293     61295     61294     61296     61298     61297     61299
     61301     61300     61302     61304     61303     61305     61307     61306     61308
     61310     61309     61311     61313     61312     61314     61316     61315     61317
     61319     61318     61320     61322     61321     61323     61325     61324     61326
     61328     61327     61329     61331     61330     61332     61334     61333     61335
     61337     61336     61338     61340     61339     61341     61343     61342     61344
     61346     61345     61347     61349     61348     61350     61352     61351     61353
     61355     61354     61356     61358     61357     61359     61361     61360     61362
     61364     61363     61365     61367     61366     61368     61370     61369     61371
     61373     61372     61374     61376     61375     61377     61379     61378     61380
     61382     61381     61383     61385     61384     61386     61388     61387     61389
     61391     61390     61392     61394     61393     61395     61397     61396     61398
     61400     61399     61401     61403     61402     61404     61406     61405     61407
     61409     61408     61410     61412     61411     61413     61415     61414     61416
     61418     61417     61419     61421     61420     61422     61424     61423     61425
     61427     61426     61428     61430     61429     61431     61433     61432     61434
     61436     61435     61437     61439     61438     61440     61442     61441     61443
     61445     61444     61446     61448     61447     61449     61451     61450     61452
     61454     61453     61455     61457     61456     61458     61460     61459     61461
     61463     61462     61464     61466     61465     61467     61469     61468     61470
     61472     61471     61473     61475     61474     61476     61478     61477     61479
     61481     61480     61482     61484     61483     61485     61487     61486     61488
     61490     61489     61491     61493     61492     61494     61496     61495     61497
     61499     61498     61500     61502     61501     61503     61505     61504     61506
     61508     61507     61509     61511     61510     61512     61514     61513     61515
     61517     61516     61518     61520     61519     61521     61523     61522     61524
     61526     61525     61527     61529     61528     61530     61532     61531     61533
     61535     61534     61536     61538     61537     61539     61541     61540     61542
     61544     61543     61545     61547     61546     61548     61550     61549     61551
     61553     61552     61554     61556     61555     61557     61559     61558     61560
     61562     61561     61563     61565     61564     61566     61568     61567     61569
     61571     61570     61572     61574     61573     61575     61577     61576     61578
     61580     61579     61581     61583     61582     61584     61586     61585     61587
     61589     61588     61590     61592     61591     61593     61595     61594     61596
     61598     61597     61599     61601     61600     61602     61604     61603     61605
     61607     61606     61608     61610     61609     61611     61613     61612     61614
     61616     61615     61617     61619     61618     61620     61622     61621     61623
     61625     61624     61626     61628     61627     61629     61631     61630     61632
     61634     61633     61635     61637     61636     61638     61640     61639     61641
     61643     61642     61644     61646     61645     61647     61649     61648     61650
     61652     61651     61653     61655     61654     61656     61658     61657     61659
     61661     61660     61662     61664     61663     61665     61667     61666     61668
     61670     61669     61671     61673     61672     61674     61676     61675     61677
     61679     61678     61680     61682     61681     61683     61685     61684     61686
     61688     61687     61689     61691     61690     61692     61694     61693     61695
     61697     61696     61698     61700     61699     61701     61703     61702     61704
     61706     61705     61707     61709     61708     61710     61712     61711     61713
     61715     61714     61716     61718     61717     61719     61721     61720     61722
     61724     61723     61725     61727     61726     61728     61730     61729     61731
     61733     61732     61734     61736     61735     61737     61739     61738     61740
     61742     61741     61743     61745     61744     61746     61748     61747     61749
     61751     61750     61752     61754     61753     61755     61757     61756     61758
     61760     61759     61761     61763     61762     61764     61766     61765     61767
     61769     61768     61770     61772     61771     61773     61775     61774     61776
     61778     61777     61779     61781     61780     61782     61784     61783     61785
     61787     61786     61788     61790     61789     61791     61793     61792     61794
     61796     61795     61797     61799     61798     61800     61802     61801     61803
     61805     61804     61806     61808     61807     61809     61811     61810     61812
     61814     61813     61815     61817     61816     61818     61820     61819     61821
     61823     61822     61824     61826     61825     61827     61829     61828     61830
     61832     61831     61833     61835     61834     61836     61838     61837     61839
     61841     61840     61842     61844     61843     61845     61847     61846     61848
     61850     61849     61851     61853     61852     61854     61856     61855     61857
     61859     61858     61860     61862     61861     61863     61865     61864     61866
     61868     61867     61869     61871     61870     61872     61874     61873     61875
     61877     61876     61878     61880     61879     61881     61883     61882     61884
     61886     61885     61887     61889     61888     61890     61892     61891     61893
     61895     61894     61896     61898     61897     61899     61901     61900     61902
     61904     61903     61905     61907     61906     61908     61910     61909     61911
     61913     61912     61914     61916     61915     61917     61919     61918     61920
     61922     61921     61923     61925     61924     61926     61928     61927     61929
     61931     61930     61932     61934     61933     61935     61937     61936     61938
     61940     61939     61941     61943     61942     61944     61946     61945     61947
     61949     61948     61950     61952     61951     61953     61955     61954     61956
     61958     61957     61959     61961     61960     61962     61964     61963     61965
     61967     61966     61968     61970     61969     61971     61973     61972     61974
     61976     61975     61977     61979     61978     61980     61982     61981     61983
     61985     61984     61986     61988     61987     61989     61991     61990     61992
     61994     61993     61995     61997     61996     61998     62000     61999     62001
     62003     62002     62004     62006     62005     62007     62009     62008     62010
     62012     62011     62013     62015     62014     62016     62018     62017     62019
     62021     62020     62022     62024     62023     62025     62027     62026     62028
     62030     62029     62031     62033     62032     62034     62036     62035     62037
     62039     62038     62040     62042     62041     62043     62045     62044     62046
     62048     62047     62049     62051     62050     62052     62054     62053     62055
     62057     62056     62058     62060     62059     62061     62063     62062     62064
     62066     62065     62067     62069     62068     62070     62072     62071     62073
     62075     62074     62076     62078     62077     62079     62081     62080     62082
     62084     62083     62085     62087     62086     62088     62090     62089     62091
     62093     62092     62094     62096     62095     62097     62099     62098     62100
     62102     62101     62103     62105     62104     62106     62108     62107     62109
     62111     62110     62112     62114     62113     62115     62117     62116     62118
     62120     62119     62121     62123     62122     62124     62126     62125     62127
     62129     62128     62130     62132     62131     62133     62135     62134     62136
     62138     62137     62139     62141     62140     62142     62144     62143     62145
     62147     62146     62148     62150     62149     62151     62153     62152     62154
     62156     62155     62157     62159     62158     62160     62162     62161     62163
     62165     62164     62166     62168     62167     62169     62171     62170     62172
     62174     62173     62175     62177     62176     62178     62180     62179     62181
     62183     62182     62184     62186     62185     62187     62189     62188     62190
     62192     62191     62193     62195     62194     62196     62198     62197     62199
     62201     62200     62202     62204     62203     62205     62207     62206     62208
     62210     62209     62211     62213     62212     62214     62216     62215     62217
     62219     62218     62220     62222     62221     62223     62225     62224     62226
     62228     62227     62229     62231     62230     62232     62234     62233     62235
     62237     62236     62238     62240     62239     62241     62243     62242     62244
     62246     62245     62247     62249     62248     62250     62252     62251     62253
     62255     62254     62256     62258     62257     62259     62261     62260     62262
     62264     62263     62265     62267     62266     62268     62270     62269     62271
     62273     62272     62274     62276     62275     62277     62279     62278     62280
     62282     62281     62283     62285     62284     62286     62288     62287     62289
     62291     62290     62292     62294     62293     62295     62297     62296     62298
     62300     62299     62301     62303     62302     62304     62306     62305     62307
     62309     62308     62310     62312     62311     62313     62315     62314     62316
     62318     62317     62319     62321     62320     62322     62324     62323     62325
     62327     62326     62328     62330     62329     62331     62333     62332     62334
     62336     62335     62337     62339     62338     62340     62342     62341     62343
     62345     62344     62346     62348     62347     62349     62351     62350     62352
     62354     62353     62355     62357     62356     62358     62360     62359     62361
     62363     62362     62364     62366     62365     62367     62369     62368     62370
     62372     62371     62373     62375     62374     62376     62378     62377     62379
     62381     62380     62382     62384     62383     62385     62387     62386     62388
     62390     62389     62391     62393     62392     62394     62396     62395     62397
     62399     62398     62400     62402     62401     62403     62405     62404     62406
     62408     62407     62409     62411     62410     62412     62414     62413     62415
     62417     62416     62418     62420     62419     62421     62423     62422     62424
     62426     62425     62427     62429     62428     62430     62432     62431     62433
     62435     62434     62436     62438     62437     62439     62441     62440     62442
     62444     62443     62445     62447     62446     62448     62450     62449     62451
     62453     62452     62454     62456     62455     62457     62459     62458     62460
     62462     62461     62463     62465     62464     62466     62468     62467     62469
     62471     62470     62472     62474     62473     62475     62477     62476     62478
     62480     62479     62481     62483     62482     62484     62486     62485     62487
     62489     62488     62490     62492     62491     62493     62495     62494     62496
     62498     62497     62499     62501     62500     62502     62504     62503     62505
     62507     62506     62508     62510     62509     62511     62513     62512     62514
     62516     62515     62517     62519     62518     62520     62522     62521     62523
     62525     62524     62526     62528     62527     62529     62531     62530     62532
     62534     62533     62535     62537     62536     62538     62540     62539     62541
     62543     62542     62544     62546     62545     62547     62549     62548     62550
     62552     62551     62553     62555     62554     62556     62558     62557     62559
     62561     62560     62562     62564     62563     62565     62567     62566     62568
     62570     62569     62571     62573     62572     62574     62576     62575     62577
     62579     62578     62580     62582     62581     62583     62585     62584     62586
     62588     62587     62589     62591     62590     62592     62594     62593     62595
     62597     62596     62598     62600     62599     62601     62603     62602     62604
     62606     62605     62607     62609     62608     62610     62612     62611     62613
     62615     62614     62616     62618     62617     62619     62621     62620     62622
     62624     62623     62625     62627     62626     62628     62630     62629     62631
     62633     62632     62634     62636     62635     62637     62639     62638     62640
     62642     62641     62643     62645     62644     62646     62648     62647     62649
     62651     62650     62652     62654     62653     62655     62657     62656     62658
     62660     62659     62661     62663     62662     62664     62666     62665     62667
     62669     62668     62670     62672     62671     62673     62675     62674     62676
     62678     62677     62679     62681     62680     62682     62684     62683     62685
     62687     62686     62688     62690     62689     62691     62693     62692     62694
     62696     62695     62697     62699     62698     62700     62702     62701     62703
     62705     62704     62706     62708     62707     62709     62711     62710     62712
     62714     62713     62715     62717     62716     62718     62720     62719     62721
     62723     62722     62724     62726     62725     62727     62729     62728     62730
     62732     62731     62733     62735     62734     62736     62738     62737     62739
     62741     62740     62742     62744     62743     62745     62747     62746     62748
     62750     62749     62751     62753     62752     62754     62756     62755     62757
     62759     62758     62760     62762     62761     62763     62765     62764     62766
     62768     62767     62769     62771     62770     62772     62774     62773     62775
     62777     62776     62778     62780     62779     62781     62783     62782     62784
     62786     62785     62787     62789     62788     62790     62792     62791     62793
     62795     62794     62796     62798     62797     62799     62801     62800     62802
     62804     62803     62805     62807     62806     62808     62810     62809     62811
     62813     62812     62814     62816     62815     62817     62819     62818     62820
     62822     62821     62823     62825     62824     62826     62828     62827     62829
     62831     62830     62832     62834     62833     62835     62837     62836     62838
     62840     62839     62841     62843     62842     62844     62846     62845     62847
     62849     62848     62850     62852     62851     62853     62855     62854     62856
     62858     62857     62859     62861     62860     62862     62864     62863     62865
     62867     62866     62868     62870     62869     62871     62873     62872     62874
     62876     62875     62877     62879     62878     62880     62882     62881     62883
     62885     62884     62886     62888     62887     62889     62891     62890     62892
     62894     62893     62895     62897     62896     62898     62900     62899     62901
     62903     62902     62904     62906     62905     62907     62909     62908     62910
     62912     62911     62913     62915     62914     62916     62918     62917     62919
     62921     62920     62922     62924     62923     62925     62927     62926     62928
     62930     62929     62931     62933     62932     62934     62936     62935     62937
     62939     62938     62940     62942     62941     62943     62945     62944     62946
     62948     62947     62949     62951     62950     62952     62954     62953     62955
     62957     62956     62958     62960     62959     62961     62963     62962     62964
     62966     62965     62967     62969     62968     62970     62972     62971     62973
     62975     62974     62976     62978     62977     62979     62981     62980     62982
     62984     62983     62985     62987     62986     62988     62990     62989     62991
     62993     62992     62994     62996     62995     62997     62999     62998     63000
     63002     63001     63003     63005     63004     63006     63008     63007     63009
     63011     63010     63012     63014     63013     63015     63017     63016     63018
     63020     63019     63021     63023     63022     63024     63026     63025     63027
     63029     63028     63030     63032     63031     63033     63035     63034     63036
     63038     63037     63039     63041     63040     63042     63044     63043     63045
     63047     63046     63048     63050     63049     63051     63053     63052     63054
     63056     63055     63057     63059     63058     63060     63062     63061     63063
     63065     63064     63066     63068     63067     63069     63071     63070     63072
     63074     63073     63075     63077     63076     63078     63080     63079     63081
     63083     63082     63084     63086     63085     63087     63089     63088     63090
     63092     63091     63093     63095     63094     63096     63098     63097     63099
     63101     63100     63102     63104     63103     63105     63107     63106     63108
     63110     63109     63111     63113     63112     63114     63116     63115     63117
     63119     63118     63120     63122     63121     63123     63125     63124     63126
     63128     63127     63129     63131     63130     63132     63134     63133     63135
     63137     63136     63138     63140     63139     63141     63143     63142     63144
     63146     63145     63147     63149     63148     63150     63152     63151     63153
     63155     63154     63156     63158     63157     63159     63161     63160     63162
     63164     63163     63165     63167     63166     63168     63170     63169     63171
     63173     63172     63174     63176     63175     63177     63179     63178     63180
     63182     63181     63183     63185     63184     63186     63188     63187     63189
     63191     63190     63192     63194     63193     63195     63197     63196     63198
     63200     63199     63201     63203     63202     63204     63206     63205     63207
     63209     63208     63210     63212     63211     63213     63215     63214     63216
     63218     63217     63219     63221     63220     63222     63224     63223     63225
     63227     63226     63228     63230     63229     63231     63233     63232     63234
     63236     63235     63237     63239     63238     63240     63242     63241     63243
     63245     63244     63246     63248     63247     63249     63251     63250     63252
     63254     63253     63255     63257     63256     63258     63260     63259     63261
     63263     63262     63264     63266     63265     63267     63269     63268     63270
     63272     63271     63273     63275     63274     63276     63278     63277     63279
     63281     63280     63282     63284     63283     63285     63287     63286     63288
     63290     63289     63291     63293     63292     63294     63296     63295     63297
     63299     63298     63300     63302     63301     63303     63305     63304     63306
     63308     63307     63309     63311     63310     63312     63314     63313     63315
     63317     63316     63318     63320     63319     63321     63323     63322     63324
     63326     63325     63327     63329     63328     63330     63332     63331     63333
     63335     63334     63336     63338     63337     63339     63341     63340     63342
     63344     63343     63345     63347     63346     63348     63350     63349     63351
     63353     63352     63354     63356     63355     63357     63359     63358     63360
     63362     63361     63363     63365     63364     63366     63368     63367     63369
     63371     63370     63372     63374     63373     63375     63377     63376     63378
     63380     63379     63381     63383     63382     63384     63386     63385     63387
     63389     63388     63390     63392     63391     63393     63395     63394     63396
     63398     63397     63399     63401     63400     63402     63404     63403     63405
     63407     63406     63408     63410     63409     63411     63413     63412     63414
     63416     63415     63417     63419     63418     63420     63422     63421     63423
     63425     63424     63426     63428     63427     63429     63431     63430     63432
     63434     63433     63435     63437     63436     63438     63440     63439     63441
     63443     63442     63444     63446     63445     63447     63449     63448     63450
     63452     63451     63453     63455     63454     63456     63458     63457     63459
     63461     63460     63462     63464     63463     63465     63467     63466     63468
     63470     63469     63471     63473     63472     63474     63476     63475     63477
     63479     63478     63480     63482     63481     63483     63485     63484     63486
     63488     63487     63489     63491     63490     63492     63494     63493     63495
     63497     63496     63498     63500     63499     63501     63503     63502     63504
     63506     63505     63507     63509     63508     63510     63512     63511     63513
     63515     63514     63516     63518     63517     63519     63521     63520     63522
     63524     63523     63525     63527     63526     63528     63530     63529     63531
     63533     63532     63534     63536     63535     63537     63539     63538     63540
     63542     63541     63543     63545     63544     63546     63548     63547     63549
     63551     63550     63552     63554     63553     63555     63557     63556     63558
     63560     63559     63561     63563     63562     63564     63566     63565     63567
     63569     63568     63570     63572     63571     63573     63575     63574     63576
     63578     63577     63579     63581     63580     63582     63584     63583     63585
     63587     63586     63588     63590     63589     63591     63593     63592     63594
     63596     63595     63597     63599     63598     63600     63602     63601     63603
     63605     63604     63606     63608     63607     63609     63611     63610     63612
     63614     63613     63615     63617     63616     63618     63620     63619     63621
     63623     63622     63624     63626     63625     63627     63629     63628     63630
     63632     63631     63633     63635     63634     63636     63638     63637     63639
     63641     63640     63642     63644     63643     63645     63647     63646     63648
     63650     63649     63651     63653     63652     63654     63656     63655     63657
     63659     63658     63660     63662     63661     63663     63665     63664     63666
     63668     63667     63669     63671     63670     63672     63674     63673     63675
     63677     63676     63678     63680     63679     63681     63683     63682     63684
     63686     63685     63687     63689     63688     63690     63692     63691     63693
     63695     63694     63696     63698     63697     63699     63701     63700     63702
     63704     63703     63705     63707     63706     63708     63710     63709     63711
     63713     63712     63714     63716     63715     63717     63719     63718     63720
     63722     63721     63723     63725     63724     63726     63728     63727     63729
     63731     63730     63732     63734     63733     63735     63737     63736     63738
     63740     63739     63741     63743     63742     63744     63746     63745     63747
     63749     63748     63750     63752     63751     63753     63755     63754     63756
     63758     63757     63759     63761     63760     63762     63764     63763     63765
     63767     63766     63768     63770     63769     63771     63773     63772     63774
     63776     63775     63777     63779     63778     63780     63782     63781     63783
     63785     63784     63786     63788     63787     63789     63791     63790     63792
     63794     63793     63795     63797     63796     63798     63800     63799     63801
     63803     63802     63804     63806     63805     63807     63809     63808     63810
     63812     63811     63813     63815     63814     63816     63818     63817     63819
     63821     63820     63822     63824     63823     63825     63827     63826     63828
     63830     63829     63831     63833     63832     63834     63836     63835     63837
     63839     63838     63840     63842     63841     63843     63845     63844     63846
     63848     63847     63849     63851     63850     63852     63854     63853     63855
     63857     63856     63858     63860     63859     63861     63863     63862     63864
     63866     63865     63867     63869     63868     63870     63872     63871     63873
     63875     63874     63876     63878     63877     63879     63881     63880     63882
     63884     63883     63885     63887     63886     63888     63890     63889     63891
     63893     63892     63894     63896     63895     63897     63899     63898     63900
     63902     63901     63903     63905     63904     63906     63908     63907     63909
     63911     63910     63912     63914     63913     63915     63917     63916     63918
     63920     63919     63921     63923     63922     63924     63926     63925     63927
     63929     63928     63930     63932     63931     63933     63935     63934     63936
     63938     63937     63939     63941     63940     63942     63944     63943     63945
     63947     63946     63948     63950     63949     63951     63953     63952     63954
     63956     63955     63957     63959     63958     63960     63962     63961     63963
     63965     63964     63966     63968     63967     63969     63971     63970     63972
     63974     63973     63975     63977     63976     63978     63980     63979     63981
     63983     63982     63984     63986     63985     63987     63989     63988     63990
     63992     63991     63993     63995     63994     63996     63998     63997     63999
     64001     64000     64002     64004     64003     64005     64007     64006     64008
     64010     64009     64011     64013     64012     64014     64016     64015     64017
     64019     64018     64020     64022     64021     64023     64025     64024     64026
     64028     64027     64029     64031     64030     64032     64034     64033     64035
     64037     64036     64038     64040     64039     64041     64043     64042     64044
     64046     64045     64047     64049     64048     64050     64052     64051     64053
     64055     64054     64056     64058     64057     64059     64061     64060     64062
     64064     64063     64065     64067     64066     64068     64070     64069     64071
     64073     64072     64074     64076     64075     64077     64079     64078     64080
     64082     64081     64083     64085     64084     64086     64088     64087     64089
     64091     64090     64092     64094     64093     64095     64097     64096     64098
     64100     64099     64101     64103     64102     64104     64106     64105     64107
     64109     64108     64110     64112     64111     64113     64115     64114     64116
     64118     64117     64119     64121     64120     64122     64124     64123     64125
     64127     64126     64128     64130     64129     64131     64133     64132     64134
     64136     64135     64137     64139     64138     64140     64142     64141     64143
     64145     64144     64146     64148     64147     64149     64151     64150     64152
     64154     64153     64155     64157     64156     64158     64160     64159     64161
     64163     64162     64164     64166     64165     64167     64169     64168     64170
     64172     64171     64173     64175     64174     64176     64178     64177     64179
     64181     64180     64182     64184     64183     64185     64187     64186     64188
     64190     64189     64191     64193     64192     64194     64196     64195     64197
     64199     64198     64200     64202     64201     64203     64205     64204     64206
     64208     64207     64209     64211     64210     64212     64214     64213     64215
     64217     64216     64218     64220     64219     64221     64223     64222     64224
     64226     64225     64227     64229     64228     64230     64232     64231     64233
     64235     64234     64236     64238     64237     64239     64241     64240     64242
     64244     64243     64245     64247     64246     64248     64250     64249     64251
     64253     64252     64254     64256     64255     64257     64259     64258     64260
     64262     64261     64263     64265     64264     64266     64268     64267     64269
     64271     64270     64272     64274     64273     64275     64277     64276     64278
     64280     64279     64281     64283     64282     64284     64286     64285     64287
     64289     64288     64290     64292     64291     64293     64295     64294     64296
     64298     64297     64299     64301     64300     64302     64304     64303     64305
     64307     64306     64308     64310     64309     64311     64313     64312     64314
     64316     64315     64317     64319     64318     64320     64322     64321     64323
     64325     64324     64326     64328     64327     64329     64331     64330     64332
     64334     64333     64335     64337     64336     64338     64340     64339     64341
     64343     64342     64344     64346     64345     64347     64349     64348     64350
     64352     64351     64353     64355     64354     64356     64358     64357     64359
     64361     64360     64362     64364     64363     64365     64367     64366     64368
     64370     64369     64371     64373     64372     64374     64376     64375     64377
     64379     64378     64380     64382     64381     64383     64385     64384     64386
     64388     64387     64389     64391     64390     64392     64394     64393     64395
     64397     64396     64398     64400     64399     64401     64403     64402     64404
     64406     64405     64407     64409     64408     64410     64412     64411     64413
     64415     64414     64416     64418     64417     64419     64421     64420     64422
     64424     64423     64425     64427     64426     64428     64430     64429     64431
     64433     64432     64434     64436     64435     64437     64439     64438     64440
     64442     64441     64443     64445     64444     64446     64448     64447     64449
     64451     64450     64452     64454     64453     64455     64457     64456     64458
     64460     64459     64461     64463     64462     64464     64466     64465     64467
     64469     64468     64470     64472     64471     64473     64475     64474     64476
     64478     64477     64479     64481     64480     64482     64484     64483     64485
     64487     64486     64488     64490     64489     64491     64493     64492     64494
     64496     64495     64497     64499     64498     64500     64502     64501     64503
     64505     64504     64506     64508     64507     64509     64511     64510     64512
     64514     64513     64515     64517     64516     64518     64520     64519     64521
     64523     64522     64524     64526     64525     64527     64529     64528     64530
     64532     64531     64533     64535     64534     64536     64538     64537     64539
     64541     64540     64542     64544     64543     64545     64547     64546     64548
     64550     64549     64551     64553     64552     64554     64556     64555     64557
     64559     64558     64560     64562     64561     64563     64565     64564     64566
     64568     64567     64569     64571     64570     64572     64574     64573     64575
     64577     64576     64578     64580     64579     64581     64583     64582     64584
     64586     64585     64587     64589     64588     64590     64592     64591     64593
     64595     64594     64596     64598     64597     64599     64601     64600     64602
     64604     64603     64605     64607     64606     64608     64610     64609     64611
     64613     64612     64614     64616     64615     64617     64619     64618     64620
     64622     64621     64623     64625     64624     64626     64628     64627     64629
     64631     64630     64632     64634     64633     64635     64637     64636     64638
     64640     64639     64641     64643     64642     64644     64646     64645     64647
     64649     64648     64650     64652     64651     64653     64655     64654     64656
     64658     64657     64659     64661     64660     64662     64664     64663     64665
     64667     64666     64668     64670     64669     64671     64673     64672     64674
     64676     64675     64677     64679     64678     64680     64682     64681     64683
     64685     64684     64686     64688     64687     64689     64691     64690     64692
     64694     64693     64695     64697     64696     64698     64700     64699     64701
     64703     64702     64704     64706     64705     64707     64709     64708     64710
     64712     64711     64713     64715     64714     64716     64718     64717     64719
     64721     64720     64722     64724     64723     64725     64727     64726     64728
     64730     64729     64731     64733     64732     64734     64736     64735     64737
     64739     64738     64740     64742     64741     64743     64745     64744     64746
     64748     64747     64749     64751     64750     64752     64754     64753     64755
     64757     64756     64758     64760     64759     64761     64763     64762     64764
     64766     64765     64767     64769     64768     64770     64772     64771     64773
     64775     64774     64776     64778     64777     64779     64781     64780     64782
     64784     64783     64785     64787     64786     64788     64790     64789     64791
     64793     64792     64794     64796     64795     64797     64799     64798     64800
     64802     64801     64803     64805     64804     64806     64808     64807     64809
     64811     64810     64812     64814     64813     64815     64817     64816     64818
     64820     64819     64821     64823     64822     64824     64826     64825     64827
     64829     64828     64830     64832     64831     64833     64835     64834     64836
     64838     64837     64839     64841     64840     64842     64844     64843     64845
     64847     64846     64848     64850     64849     64851     64853     64852     64854
     64856     64855     64857     64859     64858     64860     64862     64861     64863
     64865     64864     64866     64868     64867     64869     64871     64870     64872
     64874     64873     64875     64877     64876     64878     64880     64879     64881
     64883     64882     64884     64886     64885     64887     64889     64888     64890
     64892     64891     64893     64895     64894     64896     64898     64897     64899
     64901     64900     64902     64904     64903     64905     64907     64906     64908
     64910     64909     64911     64913     64912     64914     64916     64915     64917
     64919     64918     64920     64922     64921     64923     64925     64924     64926
     64928     64927     64929     64931     64930     64932     64934     64933     64935
     64937     64936     64938     64940     64939     64941     64943     64942     64944
     64946     64945     64947     64949     64948     64950     64952     64951     64953
     64955     64954     64956     64958     64957     64959     64961     64960     64962
     64964     64963     64965     64967     64966     64968     64970     64969     64971
     64973     64972     64974     64976     64975     64977     64979     64978     64980
     64982     64981     64983     64985     64984     64986     64988     64987     64989
     64991     64990     64992     64994     64993     64995     64997     64996     64998
     65000     64999     65001     65003     65002     65004     65006     65005     65007
     65009     65008     65010     65012     65011     65013     65015     65014     65016
     65018     65017     65019     65021     65020     65022     65024     65023     65025
     65027     65026     65028     65030     65029     65031     65033     65032     65034
     65036     65035     65037     65039     65038     65040     65042     65041     65043
     65045     65044     65046     65048     65047     65049     65051     65050     65052
     65054     65053     65055     65057     65056     65058     65060     65059     65061
     65063     65062     65064     65066     65065     65067     65069     65068     65070
     65072     65071     65073     65075     65074     65076     65078     65077     65079
     65081     65080     65082     65084     65083     65085     65087     65086     65088
     65090     65089     65091     65093     65092     65094     65096     65095     65097
     65099     65098     65100     65102     65101     65103     65105     65104     65106
     65108     65107     65109     65111     65110     65112     65114     65113     65115
     65117     65116     65118     65120     65119     65121     65123     65122     65124
     65126     65125     65127     65129     65128     65130     65132     65131     65133
     65135     65134     65136     65138     65137     65139     65141     65140     65142
     65144     65143     65145     65147     65146     65148     65150     65149     65151
     65153     65152     65154     65156     65155     65157     65159     65158     65160
     65162     65161     65163     65165     65164     65166     65168     65167     65169
     65171     65170     65172     65174     65173     65175     65177     65176     65178
     65180     65179     65181     65183     65182     65184     65186     65185     65187
     65189     65188     65190     65192     65191     65193     65195     65194     65196
     65198     65197     65199     65201     65200     65202     65204     65203     65205
     65207     65206     65208     65210     65209     65211     65213     65212     65214
     65216     65215     65217     65219     65218     65220     65222     65221     65223
     65225     65224     65226     65228     65227     65229     65231     65230     65232
     65234     65233     65235     65237     65236     65238     65240     65239     65241
     65243     65242     65244     65246     65245     65247     65249     65248     65250
     65252     65251     65253     65255     65254     65256     65258     65257     65259
     65261     65260     65262     65264     65263     65265     65267     65266     65268
     65270     65269     65271     65273     65272     65274     65276     65275     65277
     65279     65278     65280     65282     65281     65283     65285     65284     65286
     65288     65287     65289     65291     65290     65292     65294     65293     65295
     65297     65296     65298     65300     65299     65301     65303     65302     65304
     65306     65305     65307     65309     65308     65310     65312     65311     65313
     65315     65314     65316     65318     65317     65319     65321     65320     65322
     65324     65323     65325     65327     65326     65328     65330     65329     65331
     65333     65332     65334     65336     65335     65337     65339     65338     65340
     65342     65341     65343     65345     65344     65346     65348     65347     65349
     65351     65350     65352     65354     65353     65355     65357     65356     65358
     65360     65359     65361     65363     65362     65364     65366     65365     65367
     65369     65368     65370     65372     65371     65373     65375     65374     65376
     65378     65377     65379     65381     65380     65382     65384     65383     65385
     65387     65386     65388     65390     65389     65391     65393     65392     65394
     65396     65395     65397     65399     65398     65400     65402     65401     65403
     65405     65404     65406     65408     65407     65409     65411     65410     65412
     65414     65413     65415     65417     65416     65418     65420     65419     65421
     65423     65422     65424     65426     65425     65427     65429     65428     65430
     65432     65431     65433     65435     65434     65436     65438     65437     65439
     65441     65440     65442     65444     65443     65445     65447     65446     65448
     65450     65449     65451     65453     65452     65454     65456     65455     65457
     65459     65458     65460     65462     65461     65463     65465     65464     65466
     65468     65467     65469     65471     65470     65472     65474     65473     65475
     65477     65476     65478     65480     65479     65481     65483     65482     65484
     65486     65485     65487     65489     65488     65490     65492     65491     65493
     65495     65494     65496     65498     65497     65499     65501     65500     65502
     65504     65503     65505     65507     65506     65508     65510     65509     65511
     65513     65512     65514     65516     65515     65517     65519     65518     65520
     65522     65521     65523     65525     65524     65526     65528     65527     65529
     65531     65530     65532     65534     65533     65535     65537     65536     65538
     65540     65539     65541     65543     65542     65544     65546     65545     65547
     65549     65548     65550     65552     65551     65553     65555     65554     65556
     65558     65557     65559     65561     65560     65562     65564     65563     65565
     65567     65566     65568     65570     65569     65571     65573     65572     65574
     65576     65575     65577     65579     65578     65580     65582     65581     65583
     65585     65584     65586     65588     65587     65589     65591     65590     65592
     65594     65593     65595     65597     65596     65598     65600     65599     65601
     65603     65602     65604     65606     65605     65607     65609     65608     65610
     65612     65611     65613     65615     65614     65616     65618     65617     65619
     65621     65620     65622     65624     65623     65625     65627     65626     65628
     65630     65629     65631     65633     65632     65634     65636     65635     65637
     65639     65638     65640     65642     65641     65643     65645     65644     65646
     65648     65647     65649     65651     65650     65652     65654     65653     65655
     65657     65656     65658     65660     65659     65661     65663     65662     65664
     65666     65665     65667     65669     65668     65670     65672     65671     65673
     65675     65674     65676     65678     65677     65679     65681     65680     65682
     65684     65683     65685     65687     65686     65688     65690     65689     65691
     65693     65692     65694     65696     65695     65697     65699     65698     65700
     65702     65701     65703     65705     65704     65706     65708     65707     65709
     65711     65710     65712     65714     65713     65715     65717     65716     65718
     65720     65719     65721     65723     65722     65724     65726     65725     65727
     65729     65728     65730     65732     65731     65733     65735     65734     65736
     65738     65737     65739     65741     65740     65742     65744     65743     65745
     65747     65746     65748     65750     65749     65751     65753     65752     65754
     65756     65755     65757     65759     65758     65760     65762     65761     65763
     65765     65764     65766     65768     65767     65769     65771     65770     65772
     65774     65773     65775     65777     65776     65778     65780     65779     65781
     65783     65782     65784     65786     65785     65787     65789     65788     65790
     65792     65791     65793     65795     65794     65796     65798     65797     65799
     65801     65800     65802     65804     65803     65805     65807     65806     65808
     65810     65809     65811     65813     65812     65814     65816     65815     65817
     65819     65818     65820     65822     65821     65823     65825     65824     65826
     65828     65827     65829     65831     65830     65832     65834     65833     65835
     65837     65836     65838     65840     65839     65841     65843     65842     65844
     65846     65845     65847     65849     65848     65850     65852     65851     65853
     65855     65854     65856     65858     65857     65859     65861     65860     65862
     65864     65863     65865     65867     65866     65868     65870     65869     65871
     65873     65872     65874     65876     65875     65877     65879     65878     65880
     65882     65881     65883     65885     65884     65886     65888     65887     65889
     65891     65890     65892     65894     65893     65895     65897     65896     65898
     65900     65899     65901     65903     65902     65904     65906     65905     65907
     65909     65908     65910     65912     65911     65913     65915     65914     65916
     65918     65917     65919     65921     65920     65922     65924     65923     65925
     65927     65926     65928     65930     65929     65931     65933     65932     65934
     65936     65935     65937     65939     65938     65940     65942     65941     65943
     65945     65944     65946     65948     65947     65949     65951     65950     65952
     65954     65953     65955     65957     65956     65958     65960     65959     65961
     65963     65962     65964     65966     65965     65967     65969     65968     65970
     65972     65971     65973     65975     65974     65976     65978     65977     65979
     65981     65980     65982     65984     65983     65985     65987     65986     65988
     65990     65989     65991     65993     65992     65994     65996     65995     65997
     65999     65998     66000     66002     66001     66003     66005     66004     66006
     66008     66007     66009     66011     66010     66012     66014     66013     66015
     66017     66016     66018     66020     66019     66021     66023     66022     66024
     66026     66025     66027     66029     66028     66030     66032     66031     66033
     66035     66034     66036     66038     66037     66039     66041     66040     66042
     66044     66043     66045     66047     66046     66048     66050     66049     66051
     66053     66052     66054     66056     66055     66057     66059     66058     66060
     66062     66061     66063     66065     66064     66066     66068     66067     66069
     66071     66070     66072     66074     66073     66075     66077     66076     66078
     66080     66079     66081     66083     66082     66084     66086     66085     66087
     66089     66088     66090     66092     66091     66093     66095     66094     66096
     66098     66097     66099     66101     66100     66102     66104     66103     66105
     66107     66106     66108     66110     66109     66111     66113     66112     66114
     66116     66115     66117     66119     66118     66120     66122     66121     66123
     66125     66124     66126     66128     66127     66129     66131     66130     66132
     66134     66133     66135     66137     66136     66138     66140     66139     66141
     66143     66142     66144     66146     66145     66147     66149     66148     66150
     66152     66151     66153     66155     66154     66156     66158     66157     66159
     66161     66160     66162     66164     66163     66165     66167     66166     66168
     66170     66169     66171     66173     66172     66174     66176     66175     66177
     66179     66178     66180     66182     66181     66183     66185     66184     66186
     66188     66187     66189     66191     66190     66192     66194     66193     66195
     66197     66196     66198     66200     66199     66201     66203     66202     66204
     66206     66205     66207     66209     66208     66210     66212     66211     66213
     66215     66214     66216     66218     66217     66219     66221     66220     66222
     66224     66223     66225     66227     66226     66228     66230     66229     66231
     66233     66232     66234     66236     66235     66237     66239     66238     66240
     66242     66241     66243     66245     66244     66246     66248     66247     66249
     66251     66250     66252     66254     66253     66255     66257     66256     66258
     66260     66259     66261     66263     66262     66264     66266     66265     66267
     66269     66268     66270     66272     66271     66273     66275     66274     66276
     66278     66277     66279     66281     66280     66282     66284     66283     66285
     66287     66286     66288     66290     66289     66291     66293     66292     66294
     66296     66295     66297     66299     66298     66300     66302     66301     66303
     66305     66304     66306     66308     66307     66309     66311     66310     66312
     66314     66313     66315     66317     66316     66318     66320     66319     66321
     66323     66322     66324     66326     66325     66327     66329     66328     66330
     66332     66331     66333     66335     66334     66336     66338     66337     66339
     66341     66340     66342     66344     66343     66345     66347     66346     66348
     66350     66349     66351     66353     66352     66354     66356     66355     66357
     66359     66358     66360     66362     66361     66363     66365     66364     66366
     66368     66367     66369     66371     66370     66372     66374     66373     66375
     66377     66376     66378     66380     66379     66381     66383     66382     66384
     66386     66385     66387     66389     66388     66390     66392     66391     66393
     66395     66394     66396     66398     66397     66399     66401     66400     66402
     66404     66403     66405     66407     66406     66408     66410     66409     66411
     66413     66412     66414     66416     66415     66417     66419     66418     66420
     66422     66421     66423     66425     66424     66426     66428     66427     66429
     66431     66430     66432     66434     66433     66435     66437     66436     66438
     66440     66439     66441     66443     66442     66444     66446     66445     66447
     66449     66448     66450     66452     66451     66453     66455     66454     66456
     66458     66457     66459     66461     66460     66462     66464     66463     66465
     66467     66466     66468     66470     66469     66471     66473     66472     66474
     66476     66475     66477     66479     66478     66480     66482     66481     66483
     66485     66484     66486     66488     66487     66489     66491     66490     66492
     66494     66493     66495     66497     66496     66498     66500     66499     66501
     66503     66502     66504     66506     66505     66507     66509     66508     66510
     66512     66511     66513     66515     66514     66516     66518     66517     66519
     66521     66520     66522     66524     66523     66525     66527     66526     66528
     66530     66529     66531     66533     66532     66534     66536     66535     66537
     66539     66538     66540     66542     66541     66543     66545     66544     66546
     66548     66547     66549     66551     66550     66552     66554     66553     66555
     66557     66556     66558     66560     66559     66561     66563     66562     66564
     66566     66565     66567     66569     66568     66570     66572     66571     66573
     66575     66574     66576     66578     66577     66579     66581     66580     66582
     66584     66583     66585     66587     66586     66588     66590     66589     66591
     66593     66592     66594     66596     66595     66597     66599     66598     66600
     66602     66601     66603     66605     66604     66606     66608     66607     66609
     66611     66610     66612     66614     66613     66615     66617     66616     66618
     66620     66619     66621     66623     66622     66624     66626     66625     66627
     66629     66628     66630     66632     66631     66633     66635     66634     66636
     66638     66637     66639     66641     66640     66642     66644     66643     66645
     66647     66646     66648     66650     66649     66651     66653     66652     66654
     66656     66655     66657     66659     66658     66660     66662     66661     66663
     66665     66664     66666     66668     66667     66669     66671     66670     66672
     66674     66673     66675     66677     66676     66678     66680     66679     66681
     66683     66682     66684     66686     66685     66687     66689     66688     66690
     66692     66691     66693     66695     66694     66696     66698     66697     66699
     66701     66700     66702     66704     66703     66705     66707     66706     66708
     66710     66709     66711     66713     66712     66714     66716     66715     66717
     66719     66718     66720     66722     66721     66723     66725     66724     66726
     66728     66727     66729     66731     66730     66732     66734     66733     66735
     66737     66736     66738     66740     66739     66741     66743     66742     66744
     66746     66745     66747     66749     66748     66750     66752     66751     66753
     66755     66754     66756     66758     66757     66759     66761     66760     66762
     66764     66763     66765     66767     66766     66768     66770     66769     66771
     66773     66772     66774     66776     66775     66777     66779     66778     66780
     66782     66781     66783     66785     66784     66786     66788     66787     66789
     66791     66790     66792     66794     66793     66795     66797     66796     66798
     66800     66799     66801     66803     66802     66804     66806     66805     66807
     66809     66808     66810     66812     66811     66813     66815     66814     66816
     66818     66817     66819     66821     66820     66822     66824     66823     66825
     66827     66826     66828     66830     66829     66831     66833     66832     66834
     66836     66835     66837     66839     66838     66840     66842     66841     66843
     66845     66844     66846     66848     66847     66849     66851     66850     66852
     66854     66853     66855     66857     66856     66858     66860     66859     66861
     66863     66862     66864     66866     66865     66867     66869     66868     66870
     66872     66871     66873     66875     66874     66876     66878     66877     66879
     66881     66880     66882     66884     66883     66885     66887     66886     66888
     66890     66889     66891     66893     66892     66894     66896     66895     66897
     66899     66898     66900     66902     66901     66903     66905     66904     66906
     66908     66907     66909     66911     66910     66912     66914     66913     66915
     66917     66916     66918     66920     66919     66921     66923     66922     66924
     66926     66925     66927     66929     66928     66930     66932     66931     66933
     66935     66934     66936     66938     66937     66939     66941     66940     66942
     66944     66943     66945     66947     66946     66948     66950     66949     66951
     66953     66952     66954     66956     66955     66957     66959     66958     66960
     66962     66961     66963     66965     66964     66966     66968     66967     66969
     66971     66970     66972     66974     66973     66975     66977     66976     66978
     66980     66979     66981     66983     66982     66984     66986     66985     66987
     66989     66988     66990     66992     66991     66993     66995     66994     66996
     66998     66997     66999     67001     67000     67002     67004     67003     67005
     67007     67006     67008     67010     67009     67011     67013     67012     67014
     67016     67015     67017     67019     67018     67020     67022     67021     67023
     67025     67024     67026     67028     67027     67029     67031     67030     67032
     67034     67033     67035     67037     67036     67038     67040     67039     67041
     67043     67042     67044     67046     67045     67047     67049     67048     67050
     67052     67051     67053     67055     67054     67056     67058     67057     67059
     67061     67060     67062     67064     67063     67065     67067     67066     67068
     67070     67069     67071     67073     67072     67074     67076     67075     67077
     67079     67078     67080     67082     67081     67083     67085     67084     67086
     67088     67087     67089     67091     67090     67092     67094     67093     67095
     67097     67096     67098     67100     67099     67101     67103     67102     67104
     67106     67105     67107     67109     67108     67110     67112     67111     67113
     67115     67114     67116     67118     67117     67119     67121     67120     67122
     67124     67123     67125     67127     67126     67128     67130     67129     67131
     67133     67132     67134     67136     67135     67137     67139     67138     67140
     67142     67141     67143     67145     67144     67146     67148     67147     67149
     67151     67150     67152     67154     67153     67155     67157     67156     67158
     67160     67159     67161     67163     67162     67164     67166     67165     67167
     67169     67168     67170     67172     67171     67173     67175     67174     67176
     67178     67177     67179     67181     67180     67182     67184     67183     67185
     67187     67186     67188     67190     67189     67191     67193     67192     67194
     67196     67195     67197     67199     67198     67200     67202     67201     67203
     67205     67204     67206     67208     67207     67209     67211     67210     67212
     67214     67213     67215     67217     67216     67218     67220     67219     67221
     67223     67222     67224     67226     67225     67227     67229     67228     67230
     67232     67231     67233     67235     67234     67236     67238     67237     67239
     67241     67240     67242     67244     67243     67245     67247     67246     67248
     67250     67249     67251     67253     67252     67254     67256     67255     67257
     67259     67258     67260     67262     67261     67263     67265     67264     67266
     67268     67267     67269     67271     67270     67272     67274     67273     67275
     67277     67276     67278     67280     67279     67281     67283     67282     67284
     67286     67285     67287     67289     67288     67290     67292     67291     67293
     67295     67294     67296     67298     67297     67299     67301     67300     67302
     67304     67303     67305     67307     67306     67308     67310     67309     67311
     67313     67312     67314     67316     67315     67317     67319     67318     67320
     67322     67321     67323     67325     67324     67326     67328     67327     67329
     67331     67330     67332     67334     67333     67335     67337     67336     67338
     67340     67339     67341     67343     67342     67344     67346     67345     67347
     67349     67348     67350     67352     67351     67353     67355     67354     67356
     67358     67357     67359     67361     67360     67362     67364     67363     67365
     67367     67366     67368     67370     67369     67371     67373     67372     67374
     67376     67375     67377     67379     67378     67380     67382     67381     67383
     67385     67384     67386     67388     67387     67389     67391     67390     67392
     67394     67393     67395     67397     67396     67398     67400     67399     67401
     67403     67402     67404     67406     67405     67407     67409     67408     67410
     67412     67411     67413     67415     67414     67416     67418     67417     67419
     67421     67420     67422     67424     67423     67425     67427     67426     67428
     67430     67429     67431     67433     67432     67434     67436     67435     67437
     67439     67438     67440     67442     67441     67443     67445     67444     67446
     67448     67447     67449     67451     67450     67452     67454     67453     67455
     67457     67456     67458     67460     67459     67461     67463     67462     67464
     67466     67465     67467     67469     67468     67470     67472     67471     67473
     67475     67474     67476     67478     67477     67479     67481     67480     67482
     67484     67483     67485     67487     67486     67488     67490     67489     67491
     67493     67492     67494     67496     67495     67497     67499     67498     67500
     67502     67501     67503     67505     67504     67506     67508     67507     67509
     67511     67510     67512     67514     67513     67515     67517     67516     67518
     67520     67519     67521     67523     67522     67524     67526     67525     67527
     67529     67528     67530     67532     67531     67533     67535     67534     67536
     67538     67537     67539     67541     67540     67542     67544     67543     67545
     67547     67546     67548     67550     67549     67551     67553     67552     67554
     67556     67555     67557     67559     67558     67560     67562     67561     67563
     67565     67564     67566     67568     67567     67569     67571     67570     67572
     67574     67573     67575     67577     67576     67578     67580     67579     67581
     67583     67582     67584     67586     67585     67587     67589     67588     67590
     67592     67591     67593     67595     67594     67596     67598     67597     67599
     67601     67600     67602     67604     67603     67605     67607     67606     67608
     67610     67609     67611     67613     67612     67614     67616     67615     67617
     67619     67618     67620     67622     67621     67623     67625     67624     67626
     67628     67627     67629     67631     67630     67632     67634     67633     67635
     67637     67636     67638     67640     67639     67641     67643     67642     67644
     67646     67645     67647     67649     67648     67650     67652     67651     67653
     67655     67654     67656     67658     67657     67659     67661     67660     67662
     67664     67663     67665     67667     67666     67668     67670     67669     67671
     67673     67672     67674     67676     67675     67677     67679     67678     67680
     67682     67681     67683     67685     67684     67686     67688     67687     67689
     67691     67690     67692     67694     67693     67695     67697     67696     67698
     67700     67699     67701     67703     67702     67704     67706     67705     67707
     67709     67708     67710     67712     67711     67713     67715     67714     67716
     67718     67717     67719     67721     67720     67722     67724     67723     67725
     67727     67726     67728     67730     67729     67731     67733     67732     67734
     67736     67735     67737     67739     67738     67740     67742     67741     67743
     67745     67744     67746     67748     67747     67749     67751     67750     67752
     67754     67753     67755     67757     67756     67758     67760     67759     67761
     67763     67762     67764     67766     67765     67767     67769     67768     67770
     67772     67771     67773     67775     67774     67776     67778     67777     67779
     67781     67780     67782     67784     67783     67785     67787     67786     67788
     67790     67789     67791     67793     67792     67794     67796     67795     67797
     67799     67798     67800     67802     67801     67803     67805     67804     67806
     67808     67807     67809     67811     67810     67812     67814     67813     67815
     67817     67816     67818     67820     67819     67821     67823     67822     67824
     67826     67825     67827     67829     67828     67830     67832     67831     67833
     67835     67834     67836     67838     67837     67839     67841     67840     67842
     67844     67843     67845     67847     67846     67848     67850     67849     67851
     67853     67852     67854     67856     67855     67857     67859     67858     67860
     67862     67861     67863     67865     67864     67866     67868     67867     67869
     67871     67870     67872     67874     67873     67875     67877     67876     67878
     67880     67879     67881     67883     67882     67884     67886     67885     67887
     67889     67888     67890     67892     67891     67893     67895     67894     67896
     67898     67897     67899     67901     67900     67902     67904     67903     67905
     67907     67906     67908     67910     67909     67911     67913     67912     67914
     67916     67915     67917     67919     67918     67920     67922     67921     67923
     67925     67924     67926     67928     67927     67929     67931     67930     67932
     67934     67933     67935     67937     67936     67938     67940     67939     67941
     67943     67942     67944     67946     67945     67947     67949     67948     67950
     67952     67951     67953     67955     67954     67956     67958     67957     67959
     67961     67960     67962     67964     67963     67965     67967     67966     67968
     67970     67969     67971     67973     67972     67974     67976     67975     67977
     67979     67978     67980     67982     67981     67983     67985     67984     67986
     67988     67987     67989     67991     67990     67992     67994     67993     67995
     67997     67996     67998     68000     67999     68001     68003     68002     68004
     68006     68005     68007     68009     68008     68010     68012     68011     68013
     68015     68014     68016     68018     68017     68019     68021     68020     68022
     68024     68023     68025     68027     68026     68028     68030     68029     68031
     68033     68032     68034     68036     68035     68037     68039     68038     68040
     68042     68041     68043     68045     68044     68046     68048     68047     68049
     68051     68050     68052     68054     68053     68055     68057     68056     68058
     68060     68059     68061     68063     68062     68064     68066     68065     68067
     68069     68068     68070     68072     68071     68073     68075     68074     68076
     68078     68077     68079     68081     68080     68082     68084     68083     68085
     68087     68086     68088     68090     68089     68091     68093     68092     68094
     68096     68095     68097     68099     68098     68100     68102     68101     68103
     68105     68104     68106     68108     68107     68109     68111     68110     68112
     68114     68113     68115     68117     68116     68118     68120     68119     68121
     68123     68122     68124     68126     68125     68127     68129     68128     68130
     68132     68131     68133     68135     68134     68136     68138     68137     68139
     68141     68140     68142     68144     68143     68145     68147     68146     68148
     68150     68149     68151     68153     68152     68154     68156     68155     68157
     68159     68158     68160     68162     68161     68163     68165     68164     68166
     68168     68167     68169     68171     68170     68172     68174     68173     68175
     68177     68176     68178     68180     68179     68181     68183     68182     68184
     68186     68185     68187     68189     68188     68190     68192     68191     68193
     68195     68194     68196     68198     68197     68199     68201     68200     68202
     68204     68203     68205     68207     68206     68208     68210     68209     68211
     68213     68212     68214     68216     68215     68217     68219     68218     68220
     68222     68221     68223     68225     68224     68226     68228     68227     68229
     68231     68230     68232     68234     68233     68235     68237     68236     68238
     68240     68239     68241     68243     68242     68244     68246     68245     68247
     68249     68248     68250     68252     68251     68253     68255     68254     68256
     68258     68257     68259     68261     68260     68262     68264     68263     68265
     68267     68266     68268     68270     68269     68271     68273     68272     68274
     68276     68275     68277     68279     68278     68280     68282     68281     68283
     68285     68284     68286     68288     68287     68289     68291     68290     68292
     68294     68293     68295     68297     68296     68298     68300     68299     68301
     68303     68302     68304     68306     68305     68307     68309     68308     68310
     68312     68311     68313     68315     68314     68316     68318     68317     68319
     68321     68320     68322     68324     68323     68325     68327     68326     68328
     68330     68329     68331     68333     68332     68334     68336     68335     68337
     68339     68338     68340     68342     68341     68343     68345     68344     68346
     68348     68347     68349     68351     68350     68352     68354     68353     68355
     68357     68356     68358     68360     68359     68361     68363     68362     68364
     68366     68365     68367     68369     68368     68370     68372     68371     68373
     68375     68374     68376     68378     68377     68379     68381     68380     68382
     68384     68383     68385     68387     68386     68388     68390     68389     68391
     68393     68392     68394     68396     68395     68397     68399     68398     68400
     68402     68401     68403     68405     68404     68406     68408     68407     68409
     68411     68410     68412     68414     68413     68415     68417     68416     68418
     68420     68419     68421     68423     68422     68424     68426     68425     68427
     68429     68428     68430     68432     68431     68433     68435     68434     68436
     68438     68437     68439     68441     68440     68442     68444     68443     68445
     68447     68446     68448     68450     68449     68451     68453     68452     68454
     68456     68455     68457     68459     68458     68460     68462     68461     68463
     68465     68464     68466     68468     68467     68469     68471     68470     68472
     68474     68473     68475     68477     68476     68478     68480     68479     68481
     68483     68482     68484     68486     68485     68487     68489     68488     68490
     68492     68491     68493     68495     68494     68496     68498     68497     68499
     68501     68500     68502     68504     68503     68505     68507     68506     68508
     68510     68509     68511     68513     68512     68514     68516     68515     68517
     68519     68518     68520     68522     68521     68523     68525     68524     68526
     68528     68527     68529     68531     68530     68532     68534     68533     68535
     68537     68536     68538     68540     68539     68541     68543     68542     68544
     68546     68545     68547     68549     68548     68550     68552     68551     68553
     68555     68554     68556     68558     68557     68559     68561     68560     68562
     68564     68563     68565     68567     68566     68568     68570     68569     68571
     68573     68572     68574     68576     68575     68577     68579     68578     68580
     68582     68581     68583     68585     68584     68586     68588     68587     68589
     68591     68590     68592     68594     68593     68595     68597     68596     68598
     68600     68599     68601     68603     68602     68604     68606     68605     68607
     68609     68608     68610     68612     68611     68613     68615     68614     68616
     68618     68617     68619     68621     68620     68622     68624     68623     68625
     68627     68626     68628     68630     68629     68631     68633     68632     68634
     68636     68635     68637     68639     68638     68640     68642     68641     68643
     68645     68644     68646     68648     68647     68649     68651     68650     68652
     68654     68653     68655     68657     68656     68658     68660     68659     68661
     68663     68662     68664     68666     68665     68667     68669     68668     68670
     68672     68671     68673     68675     68674     68676     68678     68677     68679
     68681     68680     68682     68684     68683     68685     68687     68686     68688
     68690     68689     68691     68693     68692     68694     68696     68695     68697
     68699     68698     68700     68702     68701     68703     68705     68704     68706
     68708     68707     68709     68711     68710     68712     68714     68713     68715
     68717     68716     68718     68720     68719     68721     68723     68722     68724
     68726     68725     68727     68729     68728     68730     68732     68731     68733
     68735     68734     68736     68738     68737     68739     68741     68740     68742
     68744     68743     68745     68747     68746     68748     68750     68749     68751
     68753     68752     68754     68756     68755     68757     68759     68758     68760
     68762     68761     68763     68765     68764     68766     68768     68767     68769
     68771     68770     68772     68774     68773     68775     68777     68776     68778
     68780     68779     68781     68783     68782     68784     68786     68785     68787
     68789     68788     68790     68792     68791     68793     68795     68794     68796
     68798     68797     68799     68801     68800     68802     68804     68803     68805
     68807     68806     68808     68810     68809     68811     68813     68812     68814
     68816     68815     68817     68819     68818     68820     68822     68821     68823
     68825     68824     68826     68828     68827     68829     68831     68830     68832
     68834     68833     68835     68837     68836     68838     68840     68839     68841
     68843     68842     68844     68846     68845     68847     68849     68848     68850
     68852     68851     68853     68855     68854     68856     68858     68857     68859
     68861     68860     68862     68864     68863     68865     68867     68866     68868
     68870     68869     68871     68873     68872     68874     68876     68875     68877
     68879     68878     68880     68882     68881     68883     68885     68884     68886
     68888     68887     68889     68891     68890     68892     68894     68893     68895
     68897     68896     68898     68900     68899     68901     68903     68902     68904
     68906     68905     68907     68909     68908     68910     68912     68911     68913
     68915     68914     68916     68918     68917     68919     68921     68920     68922
     68924     68923     68925     68927     68926     68928     68930     68929     68931
     68933     68932     68934     68936     68935     68937     68939     68938     68940
     68942     68941     68943     68945     68944     68946     68948     68947     68949
     68951     68950     68952     68954     68953     68955     68957     68956     68958
     68960     68959     68961     68963     68962     68964     68966     68965     68967
     68969     68968     68970     68972     68971     68973     68975     68974     68976
     68978     68977     68979     68981     68980     68982     68984     68983     68985
     68987     68986     68988     68990     68989     68991     68993     68992     68994
     68996     68995     68997     68999     68998     69000     69002     69001     69003
     69005     69004     69006     69008     69007     69009     69011     69010     69012
     69014     69013     69015     69017     69016     69018     69020     69019     69021
     69023     69022     69024     69026     69025     69027     69029     69028     69030
     69032     69031     69033     69035     69034     69036     69038     69037     69039
     69041     69040     69042     69044     69043     69045     69047     69046     69048
     69050     69049     69051     69053     69052     69054     69056     69055     69057
     69059     69058     69060     69062     69061     69063     69065     69064     69066
     69068     69067     69069     69071     69070     69072     69074     69073     69075
     69077     69076     69078     69080     69079     69081     69083     69082     69084
     69086     69085     69087     69089     69088     69090     69092     69091     69093
     69095     69094     69096     69098     69097     69099     69101     69100     69102
     69104     69103     69105     69107     69106     69108     69110     69109     69111
     69113     69112     69114     69116     69115     69117     69119     69118     69120
     69122     69121     69123     69125     69124     69126     69128     69127     69129
     69131     69130     69132     69134     69133     69135     69137     69136     69138
     69140     69139     69141     69143     69142     69144     69146     69145     69147
     69149     69148     69150     69152     69151     69153     69155     69154     69156
     69158     69157     69159     69161     69160     69162     69164     69163     69165
     69167     69166     69168     69170     69169     69171     69173     69172     69174
     69176     69175     69177     69179     69178     69180     69182     69181     69183
     69185     69184     69186     69188     69187     69189     69191     69190     69192
     69194     69193     69195     69197     69196     69198     69200     69199     69201
     69203     69202     69204     69206     69205     69207     69209     69208     69210
     69212     69211     69213     69215     69214     69216     69218     69217     69219
     69221     69220     69222     69224     69223     69225     69227     69226     69228
     69230     69229     69231     69233     69232     69234     69236     69235     69237
     69239     69238     69240     69242     69241     69243     69245     69244     69246
     69248     69247     69249     69251     69250     69252     69254     69253     69255
     69257     69256     69258     69260     69259     69261     69263     69262     69264
     69266     69265     69267     69269     69268     69270     69272     69271     69273
     69275     69274     69276     69278     69277     69279     69281     69280     69282
     69284     69283     69285     69287     69286     69288     69290     69289     69291
     69293     69292     69294     69296     69295     69297     69299     69298     69300
     69302     69301     69303     69305     69304     69306     69308     69307     69309
     69311     69310     69312     69314     69313     69315     69317     69316     69318
     69320     69319     69321     69323     69322     69324     69326     69325     69327
     69329     69328     69330     69332     69331     69333     69335     69334     69336
     69338     69337     69339     69341     69340     69342     69344     69343     69345
     69347     69346     69348     69350     69349     69351     69353     69352     69354
     69356     69355     69357     69359     69358     69360     69362     69361     69363
     69365     69364     69366     69368     69367     69369     69371     69370     69372
     69374     69373     69375     69377     69376     69378     69380     69379     69381
     69383     69382     69384     69386     69385     69387     69389     69388     69390
     69392     69391     69393     69395     69394     69396     69398     69397     69399
     69401     69400     69402     69404     69403     69405     69407     69406     69408
     69410     69409     69411     69413     69412     69414     69416     69415     69417
     69419     69418     69420     69422     69421     69423     69425     69424     69426
     69428     69427     69429     69431     69430     69432     69434     69433     69435
     69437     69436     69438     69440     69439     69441     69443     69442     69444
     69446     69445     69447     69449     69448     69450     69452     69451     69453
     69455     69454     69456     69458     69457     69459     69461     69460     69462
     69464     69463     69465     69467     69466     69468     69470     69469     69471
     69473     69472     69474     69476     69475     69477     69479     69478     69480
     69482     69481     69483     69485     69484     69486     69488     69487     69489
     69491     69490     69492     69494     69493     69495     69497     69496     69498
     69500     69499     69501     69503     69502     69504     69506     69505     69507
     69509     69508     69510     69512     69511     69513     69515     69514     69516
     69518     69517     69519     69521     69520     69522     69524     69523     69525
     69527     69526     69528     69530     69529     69531     69533     69532     69534
     69536     69535     69537     69539     69538     69540     69542     69541     69543
     69545     69544     69546     69548     69547     69549     69551     69550     69552
     69554     69553     69555     69557     69556     69558     69560     69559     69561
     69563     69562     69564     69566     69565     69567     69569     69568     69570
     69572     69571     69573     69575     69574     69576     69578     69577     69579
     69581     69580     69582     69584     69583     69585     69587     69586     69588
     69590     69589     69591     69593     69592     69594     69596     69595     69597
     69599     69598     69600     69602     69601     69603     69605     69604     69606
     69608     69607     69609     69611     69610     69612     69614     69613     69615
     69617     69616     69618     69620     69619     69621     69623     69622     69624
     69626     69625     69627     69629     69628     69630     69632     69631     69633
     69635     69634     69636     69638     69637     69639     69641     69640     69642
     69644     69643     69645     69647     69646     69648     69650     69649     69651
     69653     69652     69654     69656     69655     69657     69659     69658     69660
     69662     69661     69663     69665     69664     69666     69668     69667     69669
     69671     69670     69672     69674     69673     69675     69677     69676     69678
     69680     69679     69681     69683     69682     69684     69686     69685     69687
     69689     69688     69690     69692     69691     69693     69695     69694     69696
     69698     69697     69699     69701     69700     69702     69704     69703     69705
     69707     69706     69708     69710     69709     69711     69713     69712     69714
     69716     69715     69717     69719     69718     69720     69722     69721     69723
     69725     69724     69726     69728     69727     69729     69731     69730     69732
     69734     69733     69735     69737     69736     69738     69740     69739     69741
     69743     69742     69744     69746     69745     69747     69749     69748     69750
     69752     69751     69753     69755     69754     69756     69758     69757     69759
     69761     69760     69762     69764     69763     69765     69767     69766     69768
     69770     69769     69771     69773     69772     69774     69776     69775     69777
     69779     69778     69780     69782     69781     69783     69785     69784     69786
     69788     69787     69789     69791     69790     69792     69794     69793     69795
     69797     69796     69798     69800     69799     69801     69803     69802     69804
     69806     69805     69807     69809     69808     69810     69812     69811     69813
     69815     69814     69816     69818     69817     69819     69821     69820     69822
     69824     69823     69825     69827     69826     69828     69830     69829     69831
     69833     69832     69834     69836     69835     69837     69839     69838     69840
     69842     69841     69843     69845     69844     69846     69848     69847     69849
     69851     69850     69852     69854     69853     69855     69857     69856     69858
     69860     69859     69861     69863     69862     69864     69866     69865     69867
     69869     69868     69870     69872     69871     69873     69875     69874     69876
     69878     69877     69879     69881     69880     69882     69884     69883     69885
     69887     69886     69888     69890     69889     69891     69893     69892     69894
     69896     69895     69897     69899     69898     69900     69902     69901     69903
     69905     69904     69906     69908     69907     69909     69911     69910     69912
     69914     69913     69915     69917     69916     69918     69920     69919     69921
     69923     69922     69924     69926     69925     69927     69929     69928     69930
     69932     69931     69933     69935     69934     69936     69938     69937     69939
     69941     69940     69942     69944     69943     69945     69947     69946     69948
     69950     69949     69951     69953     69952     69954     69956     69955     69957
     69959     69958     69960     69962     69961     69963     69965     69964     69966
     69968     69967     69969     69971     69970     69972     69974     69973     69975
     69977     69976     69978     69980     69979     69981     69983     69982     69984
     69986     69985     69987     69989     69988     69990     69992     69991     69993
     69995     69994     69996     69998     69997     69999     70001     70000     70002
     70004     70003     70005     70007     70006     70008     70010     70009     70011
     70013     70012     70014     70016     70015     70017     70019     70018     70020
     70022     70021     70023     70025     70024     70026     70028     70027     70029
     70031     70030     70032     70034     70033     70035     70037     70036     70038
     70040     70039     70041     70043     70042     70044     70046     70045     70047
     70049     70048     70050     70052     70051     70053     70055     70054     70056
     70058     70057     70059     70061     70060     70062     70064     70063     70065
     70067     70066     70068     70070     70069     70071     70073     70072     70074
     70076     70075     70077     70079     70078     70080     70082     70081     70083
     70085     70084     70086     70088     70087     70089     70091     70090     70092
     70094     70093     70095     70097     70096     70098     70100     70099     70101
     70103     70102     70104     70106     70105     70107     70109     70108     70110
     70112     70111     70113     70115     70114     70116     70118     70117     70119
     70121     70120     70122     70124     70123     70125     70127     70126     70128
     70130     70129     70131     70133     70132     70134     70136     70135     70137
     70139     70138     70140     70142     70141     70143     70145     70144     70146
     70148     70147     70149     70151     70150     70152     70154     70153     70155
     70157     70156     70158     70160     70159     70161     70163     70162     70164
     70166     70165     70167     70169     70168     70170     70172     70171     70173
     70175     70174     70176     70178     70177     70179     70181     70180     70182
     70184     70183     70185     70187     70186     70188     70190     70189     70191
     70193     70192     70194     70196     70195     70197     70199     70198     70200
     70202     70201     70203     70205     70204     70206     70208     70207     70209
     70211     70210     70212     70214     70213     70215     70217     70216     70218
     70220     70219     70221     70223     70222     70224     70226     70225     70227
     70229     70228     70230     70232     70231     70233     70235     70234     70236
     70238     70237     70239     70241     70240     70242     70244     70243     70245
     70247     70246     70248     70250     70249     70251     70253     70252     70254
     70256     70255     70257     70259     70258     70260     70262     70261     70263
     70265     70264     70266     70268     70267     70269     70271     70270     70272
     70274     70273     70275     70277     70276     70278     70280     70279     70281
     70283     70282     70284     70286     70285     70287     70289     70288     70290
     70292     70291     70293     70295     70294     70296     70298     70297     70299
     70301     70300     70302     70304     70303     70305     70307     70306     70308
     70310     70309     70311     70313     70312     70314     70316     70315     70317
     70319     70318     70320     70322     70321     70323     70325     70324     70326
     70328     70327     70329     70331     70330     70332     70334     70333     70335
     70337     70336     70338     70340     70339     70341     70343     70342     70344
     70346     70345     70347     70349     70348     70350     70352     70351     70353
     70355     70354     70356     70358     70357     70359     70361     70360     70362
     70364     70363     70365     70367     70366     70368     70370     70369     70371
     70373     70372     70374     70376     70375     70377     70379     70378     70380
     70382     70381     70383     70385     70384     70386     70388     70387     70389
     70391     70390     70392     70394     70393     70395     70397     70396     70398
     70400     70399     70401     70403     70402     70404     70406     70405     70407
     70409     70408     70410     70412     70411     70413     70415     70414     70416
     70418     70417     70419     70421     70420     70422     70424     70423     70425
     70427     70426     70428     70430     70429     70431     70433     70432     70434
     70436     70435     70437     70439     70438     70440     70442     70441     70443
     70445     70444     70446     70448     70447     70449     70451     70450     70452
     70454     70453     70455     70457     70456     70458     70460     70459     70461
     70463     70462     70464     70466     70465     70467     70469     70468     70470
     70472     70471     70473     70475     70474     70476     70478     70477     70479
     70481     70480     70482     70484     70483     70485     70487     70486     70488
     70490     70489     70491     70493     70492     70494     70496     70495     70497
     70499     70498     70500     70502     70501     70503     70505     70504     70506
     70508     70507     70509     70511     70510     70512     70514     70513     70515
     70517     70516     70518     70520     70519     70521     70523     70522     70524
     70526     70525     70527     70529     70528     70530     70532     70531     70533
     70535     70534     70536     70538     70537     70539     70541     70540     70542
     70544     70543     70545     70547     70546     70548     70550     70549     70551
     70553     70552     70554     70556     70555     70557     70559     70558     70560
     70562     70561     70563     70565     70564     70566     70568     70567     70569
     70571     70570     70572     70574     70573     70575     70577     70576     70578
     70580     70579     70581     70583     70582     70584     70586     70585     70587
     70589     70588     70590     70592     70591     70593     70595     70594     70596
     70598     70597     70599     70601     70600     70602     70604     70603     70605
     70607     70606     70608     70610     70609     70611     70613     70612     70614
     70616     70615     70617     70619     70618     70620     70622     70621     70623
     70625     70624     70626     70628     70627     70629     70631     70630     70632
     70634     70633     70635     70637     70636     70638     70640     70639     70641
     70643     70642     70644     70646     70645     70647     70649     70648     70650
     70652     70651     70653     70655     70654     70656     70658     70657     70659
     70661     70660     70662     70664     70663     70665     70667     70666     70668
     70670     70669     70671     70673     70672     70674     70676     70675     70677
     70679     70678     70680     70682     70681     70683     70685     70684     70686
     70688     70687     70689     70691     70690     70692     70694     70693     70695
     70697     70696     70698     70700     70699     70701     70703     70702     70704
     70706     70705     70707     70709     70708     70710     70712     70711     70713
     70715     70714     70716     70718     70717     70719     70721     70720     70722
     70724     70723     70725     70727     70726     70728     70730     70729     70731
     70733     70732     70734     70736     70735     70737     70739     70738     70740
     70742     70741     70743     70745     70744     70746     70748     70747     70749
     70751     70750     70752     70754     70753     70755     70757     70756     70758
     70760     70759     70761     70763     70762     70764     70766     70765     70767
     70769     70768     70770     70772     70771     70773     70775     70774     70776
     70778     70777     70779     70781     70780     70782     70784     70783     70785
     70787     70786     70788     70790     70789     70791     70793     70792     70794
     70796     70795     70797     70799     70798     70800     70802     70801     70803
     70805     70804     70806     70808     70807     70809     70811     70810     70812
     70814     70813     70815     70817     70816     70818     70820     70819     70821
     70823     70822     70824     70826     70825     70827     70829     70828     70830
     70832     70831     70833     70835     70834     70836     70838     70837     70839
     70841     70840     70842     70844     70843     70845     70847     70846     70848
     70850     70849     70851     70853     70852     70854     70856     70855     70857
     70859     70858     70860     70862     70861     70863     70865     70864     70866
     70868     70867     70869     70871     70870     70872     70874     70873     70875
     70877     70876     70878     70880     70879     70881     70883     70882     70884
     70886     70885     70887     70889     70888     70890     70892     70891     70893
     70895     70894     70896     70898     70897     70899     70901     70900     70902
     70904     70903     70905     70907     70906     70908     70910     70909     70911
     70913     70912     70914     70916     70915     70917     70919     70918     70920
     70922     70921     70923     70925     70924     70926     70928     70927     70929
     70931     70930     70932     70934     70933     70935     70937     70936     70938
     70940     70939     70941     70943     70942     70944     70946     70945     70947
     70949     70948     70950     70952     70951     70953     70955     70954     70956
     70958     70957     70959     70961     70960     70962     70964     70963     70965
     70967     70966     70968     70970     70969     70971     70973     70972     70974
     70976     70975     70977     70979     70978     70980     70982     70981     70983
     70985     70984     70986     70988     70987     70989     70991     70990     70992
     70994     70993     70995     70997     70996     70998     71000     70999     71001
     71003     71002     71004     71006     71005     71007     71009     71008     71010
     71012     71011     71013     71015     71014     71016     71018     71017     71019
     71021     71020     71022     71024     71023     71025     71027     71026     71028
     71030     71029     71031     71033     71032     71034     71036     71035     71037
     71039     71038     71040     71042     71041     71043     71045     71044     71046
     71048     71047     71049     71051     71050     71052     71054     71053     71055
     71057     71056     71058     71060     71059     71061     71063     71062     71064
     71066     71065     71067     71069     71068     71070     71072     71071     71073
     71075     71074     71076     71078     71077     71079     71081     71080     71082
     71084     71083     71085     71087     71086     71088     71090     71089     71091
     71093     71092     71094     71096     71095     71097     71099     71098     71100
     71102     71101     71103     71105     71104     71106     71108     71107     71109
     71111     71110     71112     71114     71113     71115     71117     71116     71118
     71120     71119     71121     71123     71122     71124     71126     71125     71127
     71129     71128     71130     71132     71131     71133     71135     71134     71136
     71138     71137     71139     71141     71140     71142     71144     71143     71145
     71147     71146     71148     71150     71149     71151     71153     71152     71154
     71156     71155     71157     71159     71158     71160     71162     71161     71163
     71165     71164     71166     71168     71167     71169     71171     71170     71172
     71174     71173     71175     71177     71176     71178     71180     71179     71181
     71183     71182     71184     71186     71185     71187     71189     71188     71190
     71192     71191     71193     71195     71194     71196     71198     71197     71199
     71201     71200     71202     71204     71203     71205     71207     71206     71208
     71210     71209     71211     71213     71212     71214     71216     71215     71217
     71219     71218     71220     71222     71221     71223     71225     71224     71226
     71228     71227     71229     71231     71230     71232     71234     71233     71235
     71237     71236     71238     71240     71239     71241     71243     71242     71244
     71246     71245     71247     71249     71248     71250     71252     71251     71253
     71255     71254     71256     71258     71257     71259     71261     71260     71262
     71264     71263     71265     71267     71266     71268     71270     71269     71271
     71273     71272     71274     71276     71275     71277     71279     71278     71280
     71282     71281     71283     71285     71284     71286     71288     71287     71289
     71291     71290     71292     71294     71293     71295     71297     71296     71298
     71300     71299     71301     71303     71302     71304     71306     71305     71307
     71309     71308     71310     71312     71311     71313     71315     71314     71316
     71318     71317     71319     71321     71320     71322     71324     71323     71325
     71327     71326     71328     71330     71329     71331     71333     71332     71334
     71336     71335     71337     71339     71338     71340     71342     71341     71343
     71345     71344     71346     71348     71347     71349     71351     71350     71352
     71354     71353     71355     71357     71356     71358     71360     71359     71361
     71363     71362     71364     71366     71365     71367     71369     71368     71370
     71372     71371     71373     71375     71374     71376     71378     71377     71379
     71381     71380     71382     71384     71383     71385     71387     71386     71388
     71390     71389     71391     71393     71392     71394     71396     71395     71397
     71399     71398     71400     71402     71401     71403     71405     71404     71406
     71408     71407     71409     71411     71410     71412     71414     71413     71415
     71417     71416     71418     71420     71419     71421     71423     71422     71424
     71426     71425     71427     71429     71428     71430     71432     71431     71433
     71435     71434     71436     71438     71437     71439     71441     71440     71442
     71444     71443     71445     71447     71446     71448     71450     71449     71451
     71453     71452     71454     71456     71455     71457     71459     71458     71460
     71462     71461     71463     71465     71464     71466     71468     71467     71469
     71471     71470     71472     71474     71473     71475     71477     71476     71478
     71480     71479     71481     71483     71482     71484     71486     71485     71487
     71489     71488     71490     71492     71491     71493     71495     71494     71496
     71498     71497     71499     71501     71500     71502     71504     71503     71505
     71507     71506     71508     71510     71509     71511     71513     71512     71514
     71516     71515     71517     71519     71518     71520     71522     71521     71523
     71525     71524     71526     71528     71527     71529     71531     71530     71532
     71534     71533     71535     71537     71536     71538     71540     71539     71541
     71543     71542     71544     71546     71545     71547     71549     71548     71550
     71552     71551     71553     71555     71554     71556     71558     71557     71559
     71561     71560     71562     71564     71563     71565     71567     71566     71568
     71570     71569     71571     71573     71572     71574     71576     71575     71577
     71579     71578     71580     71582     71581     71583     71585     71584     71586
     71588     71587     71589     71591     71590     71592     71594     71593     71595
     71597     71596     71598     71600     71599     71601     71603     71602     71604
     71606     71605     71607     71609     71608     71610     71612     71611     71613
     71615     71614     71616     71618     71617     71619     71621     71620     71622
     71624     71623     71625     71627     71626     71628     71630     71629     71631
     71633     71632     71634     71636     71635     71637     71639     71638     71640
     71642     71641     71643     71645     71644     71646     71648     71647     71649
     71651     71650     71652     71654     71653     71655     71657     71656     71658
     71660     71659     71661     71663     71662     71664     71666     71665     71667
     71669     71668     71670     71672     71671     71673     71675     71674     71676
     71678     71677     71679     71681     71680     71682     71684     71683     71685
     71687     71686     71688     71690     71689     71691     71693     71692     71694
     71696     71695     71697     71699     71698     71700     71702     71701     71703
     71705     71704     71706     71708     71707     71709     71711     71710     71712
     71714     71713     71715     71717     71716     71718     71720     71719     71721
     71723     71722     71724     71726     71725     71727     71729     71728     71730
     71732     71731     71733     71735     71734     71736     71738     71737     71739
     71741     71740     71742     71744     71743     71745     71747     71746     71748
     71750     71749     71751     71753     71752     71754     71756     71755     71757
     71759     71758     71760     71762     71761     71763     71765     71764     71766
     71768     71767     71769     71771     71770     71772     71774     71773     71775
     71777     71776     71778     71780     71779     71781     71783     71782     71784
     71786     71785     71787     71789     71788     71790     71792     71791     71793
     71795     71794     71796     71798     71797     71799     71801     71800     71802
     71804     71803     71805     71807     71806     71808     71810     71809     71811
     71813     71812     71814     71816     71815     71817     71819     71818     71820
     71822     71821     71823     71825     71824     71826     71828     71827     71829
     71831     71830     71832     71834     71833     71835     71837     71836     71838
     71840     71839     71841     71843     71842     71844     71846     71845     71847
     71849     71848     71850     71852     71851     71853     71855     71854     71856
     71858     71857     71859     71861     71860     71862     71864     71863     71865
     71867     71866     71868     71870     71869     71871     71873     71872     71874
     71876     71875     71877     71879     71878     71880     71882     71881     71883
     71885     71884     71886     71888     71887     71889     71891     71890     71892
     71894     71893     71895     71897     71896     71898     71900     71899     71901
     71903     71902     71904     71906     71905     71907     71909     71908     71910
     71912     71911     71913     71915     71914     71916     71918     71917     71919
     71921     71920     71922     71924     71923     71925     71927     71926     71928
     71930     71929     71931     71933     71932     71934     71936     71935     71937
     71939     71938     71940     71942     71941     71943     71945     71944     71946
     71948     71947     71949     71951     71950     71952     71954     71953     71955
     71957     71956     71958     71960     71959     71961     71963     71962     71964
     71966     71965     71967     71969     71968     71970     71972     71971     71973
     71975     71974     71976     71978     71977     71979     71981     71980     71982
     71984     71983     71985     71987     71986     71988     71990     71989     71991
     71993     71992     71994     71996     71995     71997     71999     71998     72000
     72002     72001     72003     72005     72004     72006     72008     72007     72009
     72011     72010     72012     72014     72013     72015     72017     72016     72018
     72020     72019     72021     72023     72022     72024     72026     72025     72027
     72029     72028     72030     72032     72031     72033     72035     72034     72036
     72038     72037     72039     72041     72040     72042     72044     72043     72045
     72047     72046     72048     72050     72049     72051     72053     72052     72054
     72056     72055     72057     72059     72058     72060     72062     72061     72063
     72065     72064     72066     72068     72067     72069     72071     72070     72072
     72074     72073     72075     72077     72076     72078     72080     72079     72081
     72083     72082     72084     72086     72085     72087     72089     72088     72090
     72092     72091     72093     72095     72094     72096     72098     72097     72099
     72101     72100     72102     72104     72103     72105     72107     72106     72108
     72110     72109     72111     72113     72112     72114     72116     72115     72117
     72119     72118     72120     72122     72121     72123     72125     72124     72126
     72128     72127     72129     72131     72130     72132     72134     72133     72135
     72137     72136     72138     72140     72139     72141     72143     72142     72144
     72146     72145     72147     72149     72148     72150     72152     72151     72153
     72155     72154     72156     72158     72157     72159     72161     72160     72162
     72164     72163     72165     72167     72166     72168     72170     72169     72171
     72173     72172     72174     72176     72175     72177     72179     72178     72180
     72182     72181     72183     72185     72184     72186     72188     72187     72189
     72191     72190     72192     72194     72193     72195     72197     72196     72198
     72200     72199     72201     72203     72202     72204     72206     72205     72207
     72209     72208     72210     72212     72211     72213     72215     72214     72216
     72218     72217     72219     72221     72220     72222     72224     72223     72225
     72227     72226     72228     72230     72229     72231     72233     72232     72234
     72236     72235     72237     72239     72238     72240     72242     72241     72243
     72245     72244     72246     72248     72247     72249     72251     72250     72252
     72254     72253     72255     72257     72256     72258     72260     72259     72261
     72263     72262     72264     72266     72265     72267     72269     72268     72270
     72272     72271     72273     72275     72274     72276     72278     72277     72279
     72281     72280     72282     72284     72283     72285     72287     72286     72288
     72290     72289     72291     72293     72292     72294     72296     72295     72297
     72299     72298     72300     72302     72301     72303     72305     72304     72306
     72308     72307     72309     72311     72310     72312     72314     72313     72315
     72317     72316     72318     72320     72319     72321     72323     72322     72324
     72326     72325     72327     72329     72328     72330     72332     72331     72333
     72335     72334     72336     72338     72337     72339     72341     72340     72342
     72344     72343     72345     72347     72346     72348     72350     72349     72351
     72353     72352     72354     72356     72355     72357     72359     72358     72360
     72362     72361     72363     72365     72364     72366     72368     72367     72369
     72371     72370     72372     72374     72373     72375     72377     72376     72378
     72380     72379     72381     72383     72382     72384     72386     72385     72387
     72389     72388     72390     72392     72391     72393     72395     72394     72396
     72398     72397     72399     72401     72400     72402     72404     72403     72405
     72407     72406     72408     72410     72409     72411     72413     72412     72414
     72416     72415     72417     72419     72418     72420     72422     72421     72423
     72425     72424     72426     72428     72427     72429     72431     72430     72432
     72434     72433     72435     72437     72436     72438     72440     72439     72441
     72443     72442     72444     72446     72445     72447     72449     72448     72450
     72452     72451     72453     72455     72454     72456     72458     72457     72459
     72461     72460     72462     72464     72463     72465     72467     72466     72468
     72470     72469     72471     72473     72472     72474     72476     72475     72477
     72479     72478     72480     72482     72481     72483     72485     72484     72486
     72488     72487     72489     72491     72490     72492     72494     72493     72495
     72497     72496     72498     72500     72499     72501     72503     72502     72504
     72506     72505     72507     72509     72508     72510     72512     72511     72513
     72515     72514     72516     72518     72517     72519     72521     72520     72522
     72524     72523     72525     72527     72526     72528     72530     72529     72531
     72533     72532     72534     72536     72535     72537     72539     72538     72540
     72542     72541     72543     72545     72544     72546     72548     72547     72549
     72551     72550     72552     72554     72553     72555     72557     72556     72558
     72560     72559     72561     72563     72562     72564     72566     72565     72567
     72569     72568     72570     72572     72571     72573     72575     72574     72576
     72578     72577     72579     72581     72580     72582     72584     72583     72585
     72587     72586     72588     72590     72589     72591     72593     72592     72594
     72596     72595     72597     72599     72598     72600     72602     72601     72603
     72605     72604     72606     72608     72607     72609     72611     72610     72612
     72614     72613     72615     72617     72616     72618     72620     72619     72621
     72623     72622     72624     72626     72625     72627     72629     72628     72630
     72632     72631     72633     72635     72634     72636     72638     72637     72639
     72641     72640     72642     72644     72643     72645     72647     72646     72648
     72650     72649     72651     72653     72652     72654     72656     72655     72657
     72659     72658     72660     72662     72661     72663     72665     72664     72666
     72668     72667     72669     72671     72670     72672     72674     72673     72675
     72677     72676     72678     72680     72679     72681     72683     72682     72684
     72686     72685     72687     72689     72688     72690     72692     72691     72693
     72695     72694     72696     72698     72697     72699     72701     72700     72702
     72704     72703     72705     72707     72706     72708     72710     72709     72711
     72713     72712     72714     72716     72715     72717     72719     72718     72720
     72722     72721     72723     72725     72724     72726     72728     72727     72729
     72731     72730     72732     72734     72733     72735     72737     72736     72738
     72740     72739     72741     72743     72742     72744     72746     72745     72747
     72749     72748     72750     72752     72751     72753     72755     72754     72756
     72758     72757     72759     72761     72760     72762     72764     72763     72765
     72767     72766     72768     72770     72769     72771     72773     72772     72774
     72776     72775     72777     72779     72778     72780     72782     72781     72783
     72785     72784     72786     72788     72787     72789     72791     72790     72792
     72794     72793     72795     72797     72796     72798     72800     72799     72801
     72803     72802     72804     72806     72805     72807     72809     72808     72810
     72812     72811     72813     72815     72814     72816     72818     72817     72819
     72821     72820     72822     72824     72823     72825     72827     72826     72828
     72830     72829     72831     72833     72832     72834     72836     72835     72837
     72839     72838     72840     72842     72841     72843     72845     72844     72846
     72848     72847     72849     72851     72850     72852     72854     72853     72855
     72857     72856     72858     72860     72859     72861     72863     72862     72864
     72866     72865     72867     72869     72868     72870     72872     72871     72873
     72875     72874     72876     72878     72877     72879     72881     72880     72882
     72884     72883     72885     72887     72886     72888     72890     72889     72891
     72893     72892     72894     72896     72895     72897     72899     72898     72900
     72902     72901     72903     72905     72904     72906     72908     72907     72909
     72911     72910     72912     72914     72913     72915     72917     72916     72918
     72920     72919     72921     72923     72922     72924     72926     72925     72927
     72929     72928     72930     72932     72931     72933     72935     72934     72936
     72938     72937     72939     72941     72940     72942     72944     72943     72945
     72947     72946     72948     72950     72949     72951     72953     72952     72954
     72956     72955     72957     72959     72958     72960     72962     72961     72963
     72965     72964     72966     72968     72967     72969     72971     72970     72972
     72974     72973     72975     72977     72976     72978     72980     72979     72981
     72983     72982     72984     72986     72985     72987     72989     72988     72990
     72992     72991     72993     72995     72994     72996     72998     72997     72999
     73001     73000     73002     73004     73003     73005     73007     73006     73008
     73010     73009     73011     73013     73012     73014     73016     73015     73017
     73019     73018     73020     73022     73021     73023     73025     73024     73026
     73028     73027     73029     73031     73030     73032     73034     73033     73035
     73037     73036     73038     73040     73039     73041     73043     73042     73044
     73046     73045     73047     73049     73048     73050     73052     73051     73053
     73055     73054     73056     73058     73057     73059     73061     73060     73062
     73064     73063     73065     73067     73066     73068     73070     73069     73071
     73073     73072     73074     73076     73075     73077     73079     73078     73080
     73082     73081     73083     73085     73084     73086     73088     73087     73089
     73091     73090     73092     73094     73093     73095     73097     73096     73098
     73100     73099     73101     73103     73102     73104     73106     73105     73107
     73109     73108     73110     73112     73111     73113     73115     73114     73116
     73118     73117     73119     73121     73120     73122     73124     73123     73125
     73127     73126     73128     73130     73129     73131     73133     73132     73134
     73136     73135     73137     73139     73138     73140     73142     73141     73143
     73145     73144     73146     73148     73147     73149     73151     73150     73152
     73154     73153     73155     73157     73156     73158     73160     73159     73161
     73163     73162     73164     73166     73165     73167     73169     73168     73170
     73172     73171     73173     73175     73174     73176     73178     73177     73179
     73181     73180     73182     73184     73183     73185     73187     73186     73188
     73190     73189     73191     73193     73192     73194     73196     73195     73197
     73199     73198     73200     73202     73201     73203     73205     73204     73206
     73208     73207     73209     73211     73210     73212     73214     73213     73215
     73217     73216     73218     73220     73219     73221     73223     73222     73224
     73226     73225     73227     73229     73228     73230     73232     73231     73233
     73235     73234     73236     73238     73237     73239     73241     73240     73242
     73244     73243     73245     73247     73246     73248     73250     73249     73251
     73253     73252     73254     73256     73255     73257     73259     73258     73260
     73262     73261     73263     73265     73264     73266     73268     73267     73269
     73271     73270     73272     73274     73273     73275     73277     73276     73278
     73280     73279     73281     73283     73282     73284     73286     73285     73287
     73289     73288     73290     73292     73291     73293     73295     73294     73296
     73298     73297     73299     73301     73300     73302     73304     73303     73305
     73307     73306     73308     73310     73309     73311     73313     73312     73314
     73316     73315     73317     73319     73318     73320     73322     73321     73323
     73325     73324     73326     73328     73327     73329     73331     73330     73332
     73334     73333     73335     73337     73336     73338     73340     73339     73341
     73343     73342     73344     73346     73345     73347     73349     73348     73350
     73352     73351     73353     73355     73354     73356     73358     73357     73359
     73361     73360     73362     73364     73363     73365     73367     73366     73368
     73370     73369     73371     73373     73372     73374     73376     73375     73377
     73379     73378     73380     73382     73381     73383     73385     73384     73386
     73388     73387     73389     73391     73390     73392     73394     73393     73395
     73397     73396     73398     73400     73399     73401     73403     73402     73404
     73406     73405     73407     73409     73408     73410     73412     73411     73413
     73415     73414     73416     73418     73417     73419     73421     73420     73422
     73424     73423     73425     73427     73426     73428     73430     73429     73431
     73433     73432     73434     73436     73435     73437     73439     73438     73440
     73442     73441     73443     73445     73444     73446     73448     73447     73449
     73451     73450     73452     73454     73453     73455     73457     73456     73458
     73460     73459     73461     73463     73462     73464     73466     73465     73467
     73469     73468     73470     73472     73471     73473     73475     73474     73476
     73478     73477     73479     73481     73480     73482     73484     73483     73485
     73487     73486     73488     73490     73489     73491     73493     73492     73494
     73496     73495     73497     73499     73498     73500     73502     73501     73503
     73505     73504     73506     73508     73507     73509     73511     73510     73512
     73514     73513     73515     73517     73516     73518     73520     73519     73521
     73523     73522     73524     73526     73525     73527     73529     73528     73530
     73532     73531     73533     73535     73534     73536     73538     73537     73539
     73541     73540     73542     73544     73543     73545     73547     73546     73548
     73550     73549     73551     73553     73552     73554     73556     73555     73557
     73559     73558     73560     73562     73561     73563     73565     73564     73566
     73568     73567     73569     73571     73570     73572     73574     73573     73575
     73577     73576     73578     73580     73579     73581     73583     73582     73584
     73586     73585     73587     73589     73588     73590     73592     73591     73593
     73595     73594     73596     73598     73597     73599     73601     73600     73602
     73604     73603     73605     73607     73606     73608     73610     73609     73611
     73613     73612     73614     73616     73615     73617     73619     73618     73620
     73622     73621     73623     73625     73624     73626     73628     73627     73629
     73631     73630     73632     73634     73633     73635     73637     73636     73638
     73640     73639     73641     73643     73642     73644     73646     73645     73647
     73649     73648     73650     73652     73651     73653     73655     73654     73656
     73658     73657     73659     73661     73660     73662     73664     73663     73665
     73667     73666     73668     73670     73669     73671     73673     73672     73674
     73676     73675     73677     73679     73678     73680     73682     73681     73683
     73685     73684     73686     73688     73687     73689     73691     73690     73692
     73694     73693     73695     73697     73696     73698     73700     73699     73701
     73703     73702     73704     73706     73705     73707     73709     73708     73710
     73712     73711     73713     73715     73714     73716     73718     73717     73719
     73721     73720     73722     73724     73723     73725     73727     73726     73728
     73730     73729     73731     73733     73732     73734     73736     73735     73737
     73739     73738     73740     73742     73741     73743     73745     73744     73746
     73748     73747     73749     73751     73750     73752     73754     73753     73755
     73757     73756     73758     73760     73759     73761     73763     73762     73764
     73766     73765     73767     73769     73768     73770     73772     73771     73773
     73775     73774     73776     73778     73777     73779     73781     73780     73782
     73784     73783     73785     73787     73786     73788     73790     73789     73791
     73793     73792     73794     73796     73795     73797     73799     73798     73800
     73802     73801     73803     73805     73804     73806     73808     73807     73809
     73811     73810     73812     73814     73813     73815     73817     73816     73818
     73820     73819     73821     73823     73822     73824     73826     73825     73827
     73829     73828     73830     73832     73831     73833     73835     73834     73836
     73838     73837     73839     73841     73840     73842     73844     73843     73845
     73847     73846     73848     73850     73849     73851     73853     73852     73854
     73856     73855     73857     73859     73858     73860     73862     73861     73863
     73865     73864     73866     73868     73867     73869     73871     73870     73872
     73874     73873     73875     73877     73876     73878     73880     73879     73881
     73883     73882     73884     73886     73885     73887     73889     73888     73890
     73892     73891     73893     73895     73894     73896     73898     73897     73899
     73901     73900     73902     73904     73903     73905     73907     73906     73908
     73910     73909     73911     73913     73912     73914     73916     73915     73917
     73919     73918     73920     73922     73921     73923     73925     73924     73926
     73928     73927     73929     73931     73930     73932     73934     73933     73935
     73937     73936     73938     73940     73939     73941     73943     73942     73944
     73946     73945     73947     73949     73948     73950     73952     73951     73953
     73955     73954     73956     73958     73957     73959     73961     73960     73962
     73964     73963     73965     73967     73966     73968     73970     73969     73971
     73973     73972     73974     73976     73975     73977     73979     73978     73980
     73982     73981     73983     73985     73984     73986     73988     73987     73989
     73991     73990     73992     73994     73993     73995     73997     73996     73998
     74000     73999     74001     74003     74002     74004     74006     74005     74007
     74009     74008     74010     74012     74011     74013     74015     74014     74016
     74018     74017     74019     74021     74020     74022     74024     74023     74025
     74027     74026     74028     74030     74029     74031     74033     74032     74034
     74036     74035     74037     74039     74038     74040     74042     74041     74043
     74045     74044     74046     74048     74047     74049     74051     74050     74052
     74054     74053     74055     74057     74056     74058     74060     74059     74061
     74063     74062     74064     74066     74065     74067     74069     74068     74070
     74072     74071     74073     74075     74074     74076     74078     74077     74079
     74081     74080     74082     74084     74083     74085     74087     74086     74088
     74090     74089     74091     74093     74092     74094     74096     74095     74097
     74099     74098     74100     74102     74101     74103     74105     74104     74106
     74108     74107     74109     74111     74110     74112     74114     74113     74115
     74117     74116     74118     74120     74119     74121     74123     74122     74124
     74126     74125     74127     74129     74128     74130     74132     74131     74133
     74135     74134     74136     74138     74137     74139     74141     74140     74142
     74144     74143     74145     74147     74146     74148     74150     74149     74151
     74153     74152     74154     74156     74155     74157     74159     74158     74160
     74162     74161     74163     74165     74164     74166     74168     74167     74169
     74171     74170     74172     74174     74173     74175     74177     74176     74178
     74180     74179     74181     74183     74182     74184     74186     74185     74187
     74189     74188     74190     74192     74191     74193     74195     74194     74196
     74198     74197     74199     74201     74200     74202     74204     74203     74205
     74207     74206     74208     74210     74209     74211     74213     74212     74214
     74216     74215     74217     74219     74218     74220     74222     74221     74223
     74225     74224     74226     74228     74227     74229     74231     74230     74232
     74234     74233     74235     74237     74236     74238     74240     74239     74241
     74243     74242     74244     74246     74245     74247     74249     74248     74250
     74252     74251     74253     74255     74254     74256     74258     74257     74259
     74261     74260     74262     74264     74263     74265     74267     74266     74268
     74270     74269     74271     74273     74272     74274     74276     74275     74277
     74279     74278     74280     74282     74281     74283     74285     74284     74286
     74288     74287     74289     74291     74290     74292     74294     74293     74295
     74297     74296     74298     74300     74299     74301     74303     74302     74304
     74306     74305     74307     74309     74308     74310     74312     74311     74313
     74315     74314     74316     74318     74317     74319     74321     74320     74322
     74324     74323     74325     74327     74326     74328     74330     74329     74331
     74333     74332     74334     74336     74335     74337     74339     74338     74340
     74342     74341     74343     74345     74344     74346     74348     74347     74349
     74351     74350     74352     74354     74353     74355     74357     74356     74358
     74360     74359     74361     74363     74362     74364     74366     74365     74367
     74369     74368     74370     74372     74371     74373     74375     74374     74376
     74378     74377     74379     74381     74380     74382     74384     74383     74385
     74387     74386     74388     74390     74389     74391     74393     74392     74394
     74396     74395     74397     74399     74398     74400     74402     74401     74403
     74405     74404     74406     74408     74407     74409     74411     74410     74412
     74414     74413     74415     74417     74416     74418     74420     74419     74421
     74423     74422     74424     74426     74425     74427     74429     74428     74430
     74432     74431     74433     74435     74434     74436     74438     74437     74439
     74441     74440     74442     74444     74443     74445     74447     74446     74448
     74450     74449     74451     74453     74452     74454     74456     74455     74457
     74459     74458     74460     74462     74461     74463     74465     74464     74466
     74468     74467     74469     74471     74470     74472     74474     74473     74475
     74477     74476     74478     74480     74479     74481     74483     74482     74484
     74486     74485     74487     74489     74488     74490     74492     74491     74493
     74495     74494     74496     74498     74497     74499     74501     74500     74502
     74504     74503     74505     74507     74506     74508     74510     74509     74511
     74513     74512     74514     74516     74515     74517     74519     74518     74520
     74522     74521     74523     74525     74524     74526     74528     74527     74529
     74531     74530     74532     74534     74533     74535     74537     74536     74538
     74540     74539     74541     74543     74542     74544     74546     74545     74547
     74549     74548     74550     74552     74551     74553     74555     74554     74556
     74558     74557     74559     74561     74560     74562     74564     74563     74565
     74567     74566     74568     74570     74569     74571     74573     74572     74574
     74576     74575     74577     74579     74578     74580     74582     74581     74583
     74585     74584     74586     74588     74587     74589     74591     74590     74592
     74594     74593     74595     74597     74596     74598     74600     74599     74601
     74603     74602     74604     74606     74605     74607     74609     74608     74610
     74612     74611     74613     74615     74614     74616     74618     74617     74619
     74621     74620     74622     74624     74623     74625     74627     74626     74628
     74630     74629     74631     74633     74632     74634     74636     74635     74637
     74639     74638     74640     74642     74641     74643     74645     74644     74646
     74648     74647     74649     74651     74650     74652     74654     74653     74655
     74657     74656     74658     74660     74659     74661     74663     74662     74664
     74666     74665     74667     74669     74668     74670     74672     74671     74673
     74675     74674     74676     74678     74677     74679     74681     74680     74682
     74684     74683     74685     74687     74686     74688     74690     74689     74691
     74693     74692     74694     74696     74695     74697     74699     74698     74700
     74702     74701     74703     74705     74704     74706     74708     74707     74709
     74711     74710     74712     74714     74713     74715     74717     74716     74718
     74720     74719     74721     74723     74722     74724     74726     74725     74727
     74729     74728     74730     74732     74731     74733     74735     74734     74736
     74738     74737     74739     74741     74740     74742     74744     74743     74745
     74747     74746     74748     74750     74749     74751     74753     74752     74754
     74756     74755     74757     74759     74758     74760     74762     74761     74763
     74765     74764     74766     74768     74767     74769     74771     74770     74772
     74774     74773     74775     74777     74776     74778     74780     74779     74781
     74783     74782     74784     74786     74785     74787     74789     74788     74790
     74792     74791     74793     74795     74794     74796     74798     74797     74799
     74801     74800     74802     74804     74803     74805     74807     74806     74808
     74810     74809     74811     74813     74812     74814     74816     74815     74817
     74819     74818     74820     74822     74821     74823     74825     74824     74826
     74828     74827     74829     74831     74830     74832     74834     74833     74835
     74837     74836     74838     74840     74839     74841     74843     74842     74844
     74846     74845     74847     74849     74848     74850     74852     74851     74853
     74855     74854     74856     74858     74857     74859     74861     74860     74862
     74864     74863     74865     74867     74866     74868     74870     74869     74871
     74873     74872     74874     74876     74875     74877     74879     74878     74880
     74882     74881     74883     74885     74884     74886     74888     74887     74889
     74891     74890     74892     74894     74893     74895     74897     74896     74898
     74900     74899     74901     74903     74902     74904     74906     74905     74907
     74909     74908     74910     74912     74911     74913     74915     74914     74916
     74918     74917     74919     74921     74920     74922     74924     74923     74925
     74927     74926     74928     74930     74929     74931     74933     74932     74934
     74936     74935     74937     74939     74938     74940     74942     74941     74943
     74945     74944     74946     74948     74947     74949     74951     74950     74952
     74954     74953     74955     74957     74956     74958     74960     74959     74961
     74963     74962     74964     74966     74965     74967     74969     74968     74970
     74972     74971     74973     74975     74974     74976     74978     74977     74979
     74981     74980     74982     74984     74983     74985     74987     74986     74988
     74990     74989     74991     74993     74992     74994     74996     74995     74997
     74999     74998     75000     75002     75001     75003     75005     75004     75006
     75008     75007     75009     75011     75010     75012     75014     75013     75015
     75017     75016     75018     75020     75019     75021     75023     75022     75024
     75026     75025     75027     75029     75028     75030     75032     75031     75033
     75035     75034     75036     75038     75037     75039     75041     75040     75042
     75044     75043     75045     75047     75046     75048     75050     75049     75051
     75053     75052     75054     75056     75055     75057     75059     75058     75060
     75062     75061     75063     75065     75064     75066     75068     75067     75069
     75071     75070     75072     75074     75073     75075     75077     75076     75078
     75080     75079     75081     75083     75082     75084     75086     75085     75087
     75089     75088     75090     75092     75091     75093     75095     75094     75096
     75098     75097     75099     75101     75100     75102     75104     75103     75105
     75107     75106     75108     75110     75109     75111     75113     75112     75114
     75116     75115     75117     75119     75118     75120     75122     75121     75123
     75125     75124     75126     75128     75127     75129     75131     75130     75132
     75134     75133     75135     75137     75136     75138     75140     75139     75141
     75143     75142     75144     75146     75145     75147     75149     75148     75150
     75152     75151     75153     75155     75154     75156     75158     75157     75159
     75161     75160     75162     75164     75163     75165     75167     75166     75168
     75170     75169     75171     75173     75172     75174     75176     75175     75177
     75179     75178     75180     75182     75181     75183     75185     75184     75186
     75188     75187     75189     75191     75190     75192     75194     75193     75195
     75197     75196     75198     75200     75199     75201     75203     75202     75204
     75206     75205     75207     75209     75208     75210     75212     75211     75213
     75215     75214     75216     75218     75217     75219     75221     75220     75222
     75224     75223     75225     75227     75226     75228     75230     75229     75231
     75233     75232     75234     75236     75235     75237     75239     75238     75240
     75242     75241     75243     75245     75244     75246     75248     75247     75249
     75251     75250     75252     75254     75253     75255     75257     75256     75258
     75260     75259     75261     75263     75262     75264     75266     75265     75267
     75269     75268     75270     75272     75271     75273     75275     75274     75276
     75278     75277     75279     75281     75280     75282     75284     75283     75285
     75287     75286     75288     75290     75289     75291     75293     75292     75294
     75296     75295     75297     75299     75298     75300     75302     75301     75303
     75305     75304     75306     75308     75307     75309     75311     75310     75312
     75314     75313     75315     75317     75316     75318     75320     75319     75321
     75323     75322     75324     75326     75325     75327     75329     75328     75330
     75332     75331     75333     75335     75334     75336     75338     75337     75339
     75341     75340     75342     75344     75343     75345     75347     75346     75348
     75350     75349     75351     75353     75352     75354     75356     75355     75357
     75359     75358     75360     75362     75361     75363     75365     75364     75366
     75368     75367     75369     75371     75370     75372     75374     75373     75375
     75377     75376     75378     75380     75379     75381     75383     75382     75384
     75386     75385     75387     75389     75388     75390     75392     75391     75393
     75395     75394     75396     75398     75397     75399     75401     75400     75402
     75404     75403     75405     75407     75406     75408     75410     75409     75411
     75413     75412     75414     75416     75415     75417     75419     75418     75420
     75422     75421     75423     75425     75424     75426     75428     75427     75429
     75431     75430     75432     75434     75433     75435     75437     75436     75438
     75440     75439     75441     75443     75442     75444     75446     75445     75447
     75449     75448     75450     75452     75451     75453     75455     75454     75456
     75458     75457     75459     75461     75460     75462     75464     75463     75465
     75467     75466     75468     75470     75469     75471     75473     75472     75474
     75476     75475     75477     75479     75478     75480     75482     75481     75483
     75485     75484     75486     75488     75487     75489     75491     75490     75492
     75494     75493     75495     75497     75496     75498     75500     75499     75501
     75503     75502     75504     75506     75505     75507     75509     75508     75510
     75512     75511     75513     75515     75514     75516     75518     75517     75519
     75521     75520     75522     75524     75523     75525     75527     75526     75528
     75530     75529     75531     75533     75532     75534     75536     75535     75537
     75539     75538     75540     75542     75541     75543     75545     75544     75546
     75548     75547     75549     75551     75550     75552     75554     75553     75555
     75557     75556     75558     75560     75559     75561     75563     75562     75564
     75566     75565     75567     75569     75568     75570     75572     75571     75573
     75575     75574     75576     75578     75577     75579     75581     75580     75582
     75584     75583     75585     75587     75586     75588     75590     75589     75591
     75593     75592     75594     75596     75595     75597     75599     75598     75600
     75602     75601     75603     75605     75604     75606     75608     75607     75609
     75611     75610     75612     75614     75613     75615     75617     75616     75618
     75620     75619     75621     75623     75622     75624     75626     75625     75627
     75629     75628     75630     75632     75631     75633     75635     75634     75636
     75638     75637     75639     75641     75640     75642     75644     75643     75645
     75647     75646     75648     75650     75649     75651     75653     75652     75654
     75656     75655     75657     75659     75658     75660     75662     75661     75663
     75665     75664     75666     75668     75667     75669     75671     75670     75672
     75674     75673     75675     75677     75676     75678     75680     75679     75681
     75683     75682     75684     75686     75685     75687     75689     75688     75690
     75692     75691     75693     75695     75694     75696     75698     75697     75699
     75701     75700     75702     75704     75703     75705     75707     75706     75708
     75710     75709     75711     75713     75712     75714     75716     75715     75717
     75719     75718     75720     75722     75721     75723     75725     75724     75726
     75728     75727     75729     75731     75730     75732     75734     75733     75735
     75737     75736     75738     75740     75739     75741     75743     75742     75744
     75746     75745     75747     75749     75748     75750     75752     75751     75753
     75755     75754     75756     75758     75757     75759     75761     75760     75762
     75764     75763     75765     75767     75766     75768     75770     75769     75771
     75773     75772     75774     75776     75775     75777     75779     75778     75780
     75782     75781     75783     75785     75784     75786     75788     75787     75789
     75791     75790     75792     75794     75793     75795     75797     75796     75798
     75800     75799     75801     75803     75802     75804     75806     75805     75807
     75809     75808     75810     75812     75811     75813     75815     75814     75816
     75818     75817     75819     75821     75820     75822     75824     75823     75825
     75827     75826     75828     75830     75829     75831     75833     75832     75834
     75836     75835     75837     75839     75838     75840     75842     75841     75843
     75845     75844     75846     75848     75847     75849     75851     75850     75852
     75854     75853     75855     75857     75856     75858     75860     75859     75861
     75863     75862     75864     75866     75865     75867     75869     75868     75870
     75872     75871     75873     75875     75874     75876     75878     75877     75879
     75881     75880     75882     75884     75883     75885     75887     75886     75888
     75890     75889     75891     75893     75892     75894     75896     75895     75897
     75899     75898     75900     75902     75901     75903     75905     75904     75906
     75908     75907     75909     75911     75910     75912     75914     75913     75915
     75917     75916     75918     75920     75919     75921     75923     75922     75924
     75926     75925     75927     75929     75928     75930     75932     75931     75933
     75935     75934     75936     75938     75937     75939     75941     75940     75942
     75944     75943     75945     75947     75946     75948     75950     75949     75951
     75953     75952     75954     75956     75955     75957     75959     75958     75960
     75962     75961     75963     75965     75964     75966     75968     75967     75969
     75971     75970     75972     75974     75973     75975     75977     75976     75978
     75980     75979     75981     75983     75982     75984     75986     75985     75987
     75989     75988     75990     75992     75991     75993     75995     75994     75996
     75998     75997     75999     76001     76000     76002     76004     76003     76005
     76007     76006     76008     76010     76009     76011     76013     76012     76014
     76016     76015     76017     76019     76018     76020     76022     76021     76023
     76025     76024     76026     76028     76027     76029     76031     76030     76032
     76034     76033     76035     76037     76036     76038     76040     76039     76041
     76043     76042     76044     76046     76045     76047     76049     76048     76050
     76052     76051     76053     76055     76054     76056     76058     76057     76059
     76061     76060     76062     76064     76063     76065     76067     76066     76068
     76070     76069     76071     76073     76072     76074     76076     76075     76077
     76079     76078     76080     76082     76081     76083     76085     76084     76086
     76088     76087     76089     76091     76090     76092     76094     76093     76095
     76097     76096     76098     76100     76099     76101     76103     76102     76104
     76106     76105     76107     76109     76108     76110     76112     76111     76113
     76115     76114     76116     76118     76117     76119     76121     76120     76122
     76124     76123     76125     76127     76126     76128     76130     76129     76131
     76133     76132     76134     76136     76135     76137     76139     76138     76140
     76142     76141     76143     76145     76144     76146     76148     76147     76149
     76151     76150     76152     76154     76153     76155     76157     76156     76158
     76160     76159     76161     76163     76162     76164     76166     76165     76167
     76169     76168     76170     76172     76171     76173     76175     76174     76176
     76178     76177     76179     76181     76180     76182     76184     76183     76185
     76187     76186     76188     76190     76189     76191     76193     76192     76194
     76196     76195     76197     76199     76198     76200     76202     76201     76203
     76205     76204     76206     76208     76207     76209     76211     76210     76212
     76214     76213     76215     76217     76216     76218     76220     76219     76221
     76223     76222     76224     76226     76225     76227     76229     76228     76230
     76232     76231     76233     76235     76234     76236     76238     76237     76239
     76241     76240     76242     76244     76243     76245     76247     76246     76248
     76250     76249     76251     76253     76252     76254     76256     76255     76257
     76259     76258     76260     76262     76261     76263     76265     76264     76266
     76268     76267     76269     76271     76270     76272     76274     76273     76275
     76277     76276     76278     76280     76279     76281     76283     76282     76284
     76286     76285     76287     76289     76288     76290     76292     76291     76293
     76295     76294     76296     76298     76297     76299     76301     76300     76302
     76304     76303     76305     76307     76306     76308     76310     76309     76311
     76313     76312     76314     76316     76315     76317     76319     76318     76320
     76322     76321     76323     76325     76324     76326     76328     76327     76329
     76331     76330     76332     76334     76333     76335     76337     76336     76338
     76340     76339     76341     76343     76342     76344     76346     76345     76347
     76349     76348     76350     76352     76351     76353     76355     76354     76356
     76358     76357     76359     76361     76360     76362     76364     76363     76365
     76367     76366     76368     76370     76369     76371     76373     76372     76374
     76376     76375     76377     76379     76378     76380     76382     76381     76383
     76385     76384     76386     76388     76387     76389     76391     76390     76392
     76394     76393     76395     76397     76396     76398     76400     76399     76401
     76403     76402     76404     76406     76405     76407     76409     76408     76410
     76412     76411     76413     76415     76414     76416     76418     76417     76419
     76421     76420     76422     76424     76423     76425     76427     76426     76428
     76430     76429     76431     76433     76432     76434     76436     76435     76437
     76439     76438     76440     76442     76441     76443     76445     76444     76446
     76448     76447     76449     76451     76450     76452     76454     76453     76455
     76457     76456     76458     76460     76459     76461     76463     76462     76464
     76466     76465     76467     76469     76468     76470     76472     76471     76473
     76475     76474     76476     76478     76477     76479     76481     76480     76482
     76484     76483     76485     76487     76486     76488     76490     76489     76491
     76493     76492     76494     76496     76495     76497     76499     76498     76500
     76502     76501     76503     76505     76504     76506     76508     76507     76509
     76511     76510     76512     76514     76513     76515     76517     76516     76518
     76520     76519     76521     76523     76522     76524     76526     76525     76527
     76529     76528     76530     76532     76531     76533     76535     76534     76536
     76538     76537     76539     76541     76540     76542     76544     76543     76545
     76547     76546     76548     76550     76549     76551     76553     76552     76554
     76556     76555     76557     76559     76558     76560     76562     76561     76563
     76565     76564     76566     76568     76567     76569     76571     76570     76572
     76574     76573     76575     76577     76576     76578     76580     76579     76581
     76583     76582     76584     76586     76585     76587     76589     76588     76590
     76592     76591     76593     76595     76594     76596     76598     76597     76599
     76601     76600     76602     76604     76603     76605     76607     76606     76608
     76610     76609     76611     76613     76612     76614     76616     76615     76617
     76619     76618     76620     76622     76621     76623     76625     76624     76626
     76628     76627     76629     76631     76630     76632     76634     76633     76635
     76637     76636     76638     76640     76639     76641     76643     76642     76644
     76646     76645     76647     76649     76648     76650     76652     76651     76653
     76655     76654     76656     76658     76657     76659     76661     76660     76662
     76664     76663     76665     76667     76666     76668     76670     76669     76671
     76673     76672     76674     76676     76675     76677     76679     76678     76680
     76682     76681     76683     76685     76684     76686     76688     76687     76689
     76691     76690     76692     76694     76693     76695     76697     76696     76698
     76700     76699     76701     76703     76702     76704     76706     76705     76707
     76709     76708     76710     76712     76711     76713     76715     76714     76716
     76718     76717     76719     76721     76720     76722     76724     76723     76725
     76727     76726     76728     76730     76729     76731     76733     76732     76734
     76736     76735     76737     76739     76738     76740     76742     76741     76743
     76745     76744     76746     76748     76747     76749     76751     76750     76752
     76754     76753     76755     76757     76756     76758     76760     76759     76761
     76763     76762     76764     76766     76765     76767     76769     76768     76770
     76772     76771     76773     76775     76774     76776     76778     76777     76779
     76781     76780     76782     76784     76783     76785     76787     76786     76788
     76790     76789     76791     76793     76792     76794     76796     76795     76797
     76799     76798     76800     76802     76801     76803     76805     76804     76806
     76808     76807     76809     76811     76810     76812     76814     76813     76815
     76817     76816     76818     76820     76819     76821     76823     76822     76824
     76826     76825     76827     76829     76828     76830     76832     76831     76833
     76835     76834     76836     76838     76837     76839     76841     76840     76842
     76844     76843     76845     76847     76846     76848     76850     76849     76851
     76853     76852     76854     76856     76855     76857     76859     76858     76860
     76862     76861     76863     76865     76864     76866     76868     76867     76869
     76871     76870     76872     76874     76873     76875     76877     76876     76878
     76880     76879     76881     76883     76882     76884     76886     76885     76887
     76889     76888     76890     76892     76891     76893     76895     76894     76896
     76898     76897     76899     76901     76900     76902     76904     76903     76905
     76907     76906     76908     76910     76909     76911     76913     76912     76914
     76916     76915     76917     76919     76918     76920     76922     76921     76923
     76925     76924     76926     76928     76927     76929     76931     76930     76932
     76934     76933     76935     76937     76936     76938     76940     76939     76941
     76943     76942     76944     76946     76945     76947     76949     76948     76950
     76952     76951     76953     76955     76954     76956     76958     76957     76959
     76961     76960     76962     76964     76963     76965     76967     76966     76968
     76970     76969     76971     76973     76972     76974     76976     76975     76977
     76979     76978     76980     76982     76981     76983     76985     76984     76986
     76988     76987     76989     76991     76990     76992     76994     76993     76995
     76997     76996     76998     77000     76999     77001     77003     77002     77004
     77006     77005     77007     77009     77008     77010     77012     77011     77013
     77015     77014     77016     77018     77017     77019     77021     77020     77022
     77024     77023     77025     77027     77026     77028     77030     77029     77031
     77033     77032     77034     77036     77035     77037     77039     77038     77040
     77042     77041     77043     77045     77044     77046     77048     77047     77049
     77051     77050     77052     77054     77053     77055     77057     77056     77058
     77060     77059     77061     77063     77062     77064     77066     77065     77067
     77069     77068     77070     77072     77071     77073     77075     77074     77076
     77078     77077     77079     77081     77080     77082     77084     77083     77085
     77087     77086     77088     77090     77089     77091     77093     77092     77094
     77096     77095     77097     77099     77098     77100     77102     77101     77103
     77105     77104     77106     77108     77107     77109     77111     77110     77112
     77114     77113     77115     77117     77116     77118     77120     77119     77121
     77123     77122     77124     77126     77125     77127     77129     77128     77130
     77132     77131     77133     77135     77134     77136     77138     77137     77139
     77141     77140     77142     77144     77143     77145     77147     77146     77148
     77150     77149     77151     77153     77152     77154     77156     77155     77157
     77159     77158     77160     77162     77161     77163     77165     77164     77166
     77168     77167     77169     77171     77170     77172     77174     77173     77175
     77177     77176     77178     77180     77179     77181     77183     77182     77184
     77186     77185     77187     77189     77188     77190     77192     77191     77193
     77195     77194     77196     77198     77197     77199     77201     77200     77202
     77204     77203     77205     77207     77206     77208     77210     77209     77211
     77213     77212     77214     77216     77215     77217     77219     77218     77220
     77222     77221     77223     77225     77224     77226     77228     77227     77229
     77231     77230     77232     77234     77233     77235     77237     77236     77238
     77240     77239     77241     77243     77242     77244     77246     77245     77247
     77249     77248     77250     77252     77251     77253     77255     77254     77256
     77258     77257     77259     77261     77260     77262     77264     77263     77265
     77267     77266     77268     77270     77269     77271     77273     77272     77274
     77276     77275     77277     77279     77278     77280     77282     77281     77283
     77285     77284     77286     77288     77287     77289     77291     77290     77292
     77294     77293     77295     77297     77296     77298     77300     77299     77301
     77303     77302     77304     77306     77305     77307     77309     77308     77310
     77312     77311     77313     77315     77314     77316     77318     77317     77319
     77321     77320     77322     77324     77323     77325     77327     77326     77328
     77330     77329     77331     77333     77332     77334     77336     77335     77337
     77339     77338     77340     77342     77341     77343     77345     77344     77346
     77348     77347     77349     77351     77350     77352     77354     77353     77355
     77357     77356     77358     77360     77359     77361     77363     77362     77364
     77366     77365     77367     77369     77368     77370     77372     77371     77373
     77375     77374     77376     77378     77377     77379     77381     77380     77382
     77384     77383     77385     77387     77386     77388     77390     77389     77391
     77393     77392     77394     77396     77395     77397     77399     77398     77400
     77402     77401     77403     77405     77404     77406     77408     77407     77409
     77411     77410     77412     77414     77413     77415     77417     77416     77418
     77420     77419     77421     77423     77422     77424     77426     77425     77427
     77429     77428     77430     77432     77431     77433     77435     77434     77436
     77438     77437     77439     77441     77440     77442     77444     77443     77445
     77447     77446     77448     77450     77449     77451     77453     77452     77454
     77456     77455     77457     77459     77458     77460     77462     77461     77463
     77465     77464     77466     77468     77467     77469     77471     77470     77472
     77474     77473     77475     77477     77476     77478     77480     77479     77481
     77483     77482     77484     77486     77485     77487     77489     77488     77490
     77492     77491     77493     77495     77494     77496     77498     77497     77499
     77501     77500     77502     77504     77503     77505     77507     77506     77508
     77510     77509     77511     77513     77512     77514     77516     77515     77517
     77519     77518     77520     77522     77521     77523     77525     77524     77526
     77528     77527     77529     77531     77530     77532     77534     77533     77535
     77537     77536     77538     77540     77539     77541     77543     77542     77544
     77546     77545     77547     77549     77548     77550     77552     77551     77553
     77555     77554     77556     77558     77557     77559     77561     77560     77562
     77564     77563     77565     77567     77566     77568     77570     77569     77571
     77573     77572     77574     77576     77575     77577     77579     77578     77580
     77582     77581     77583     77585     77584     77586     77588     77587     77589
     77591     77590     77592     77594     77593     77595     77597     77596     77598
     77600     77599     77601     77603     77602     77604     77606     77605     77607
     77609     77608     77610     77612     77611     77613     77615     77614     77616
     77618     77617     77619     77621     77620     77622     77624     77623     77625
     77627     77626     77628     77630     77629     77631     77633     77632     77634
     77636     77635     77637     77639     77638     77640     77642     77641     77643
     77645     77644     77646     77648     77647     77649     77651     77650     77652
     77654     77653     77655     77657     77656     77658     77660     77659     77661
     77663     77662     77664     77666     77665     77667     77669     77668     77670
     77672     77671     77673     77675     77674     77676     77678     77677     77679
     77681     77680     77682     77684     77683     77685     77687     77686     77688
     77690     77689     77691     77693     77692     77694     77696     77695     77697
     77699     77698     77700     77702     77701     77703     77705     77704     77706
     77708     77707     77709     77711     77710     77712     77714     77713     77715
     77717     77716     77718     77720     77719     77721     77723     77722     77724
     77726     77725     77727     77729     77728     77730     77732     77731     77733
     77735     77734     77736     77738     77737     77739     77741     77740     77742
     77744     77743     77745     77747     77746     77748     77750     77749     77751
     77753     77752     77754     77756     77755     77757     77759     77758     77760
     77762     77761     77763     77765     77764     77766     77768     77767     77769
     77771     77770     77772     77774     77773     77775     77777     77776     77778
     77780     77779     77781     77783     77782     77784     77786     77785     77787
     77789     77788     77790     77792     77791     77793     77795     77794     77796
     77798     77797     77799     77801     77800     77802     77804     77803     77805
     77807     77806     77808     77810     77809     77811     77813     77812     77814
     77816     77815     77817     77819     77818     77820     77822     77821     77823
     77825     77824     77826     77828     77827     77829     77831     77830     77832
     77834     77833     77835     77837     77836     77838     77840     77839     77841
     77843     77842     77844     77846     77845     77847     77849     77848     77850
     77852     77851     77853     77855     77854     77856     77858     77857     77859
     77861     77860     77862     77864     77863     77865     77867     77866     77868
     77870     77869     77871     77873     77872     77874     77876     77875     77877
     77879     77878     77880     77882     77881     77883     77885     77884     77886
     77888     77887     77889     77891     77890     77892     77894     77893     77895
     77897     77896     77898     77900     77899     77901     77903     77902     77904
     77906     77905     77907     77909     77908     77910     77912     77911     77913
     77915     77914     77916     77918     77917     77919     77921     77920     77922
     77924     77923     77925     77927     77926     77928     77930     77929     77931
     77933     77932     77934     77936     77935     77937     77939     77938     77940
     77942     77941     77943     77945     77944     77946     77948     77947     77949
     77951     77950     77952     77954     77953     77955     77957     77956     77958
     77960     77959     77961     77963     77962     77964     77966     77965     77967
     77969     77968     77970     77972     77971     77973     77975     77974     77976
     77978     77977     77979     77981     77980     77982     77984     77983     77985
     77987     77986     77988     77990     77989     77991     77993     77992     77994
     77996     77995     77997     77999     77998     78000     78002     78001     78003
     78005     78004     78006     78008     78007     78009     78011     78010     78012
     78014     78013     78015     78017     78016     78018     78020     78019     78021
     78023     78022     78024     78026     78025     78027     78029     78028     78030
     78032     78031     78033     78035     78034     78036     78038     78037     78039
     78041     78040     78042     78044     78043     78045     78047     78046     78048
     78050     78049     78051     78053     78052     78054     78056     78055     78057
     78059     78058     78060     78062     78061     78063     78065     78064     78066
     78068     78067     78069     78071     78070     78072     78074     78073     78075
     78077     78076     78078     78080     78079     78081     78083     78082     78084
     78086     78085     78087     78089     78088     78090     78092     78091     78093
     78095     78094     78096     78098     78097     78099     78101     78100     78102
     78104     78103     78105     78107     78106     78108     78110     78109     78111
     78113     78112     78114     78116     78115     78117     78119     78118     78120
     78122     78121     78123     78125     78124     78126     78128     78127     78129
     78131     78130     78132     78134     78133     78135     78137     78136     78138
     78140     78139     78141     78143     78142     78144     78146     78145     78147
     78149     78148     78150     78152     78151     78153     78155     78154     78156
     78158     78157     78159     78161     78160     78162     78164     78163     78165
     78167     78166     78168     78170     78169     78171     78173     78172     78174
     78176     78175     78177     78179     78178     78180     78182     78181     78183
     78185     78184     78186     78188     78187     78189     78191     78190     78192
     78194     78193     78195     78197     78196     78198     78200     78199     78201
     78203     78202     78204     78206     78205     78207     78209     78208     78210
     78212     78211     78213     78215     78214     78216     78218     78217     78219
     78221     78220     78222     78224     78223     78225     78227     78226     78228
     78230     78229     78231     78233     78232     78234     78236     78235     78237
     78239     78238     78240     78242     78241     78243     78245     78244     78246
     78248     78247     78249     78251     78250     78252     78254     78253     78255
     78257     78256     78258     78260     78259     78261     78263     78262     78264
     78266     78265     78267     78269     78268     78270     78272     78271     78273
     78275     78274     78276     78278     78277     78279     78281     78280     78282
     78284     78283     78285     78287     78286     78288     78290     78289     78291
     78293     78292     78294     78296     78295     78297     78299     78298     78300
     78302     78301     78303     78305     78304     78306     78308     78307     78309
     78311     78310     78312     78314     78313     78315     78317     78316     78318
     78320     78319     78321     78323     78322     78324     78326     78325     78327
     78329     78328     78330     78332     78331     78333     78335     78334     78336
     78338     78337     78339     78341     78340     78342     78344     78343     78345
     78347     78346     78348     78350     78349     78351     78353     78352     78354
     78356     78355     78357     78359     78358     78360     78362     78361     78363
     78365     78364     78366     78368     78367     78369     78371     78370     78372
     78374     78373     78375     78377     78376     78378     78380     78379     78381
     78383     78382     78384     78386     78385     78387     78389     78388     78390
     78392     78391     78393     78395     78394     78396     78398     78397     78399
     78401     78400     78402     78404     78403     78405     78407     78406     78408
     78410     78409     78411     78413     78412     78414     78416     78415     78417
     78419     78418     78420     78422     78421     78423     78425     78424     78426
     78428     78427     78429     78431     78430     78432     78434     78433     78435
     78437     78436     78438     78440     78439     78441     78443     78442     78444
     78446     78445     78447     78449     78448     78450     78452     78451     78453
     78455     78454     78456     78458     78457     78459     78461     78460     78462
     78464     78463     78465     78467     78466     78468     78470     78469     78471
     78473     78472     78474     78476     78475     78477     78479     78478     78480
     78482     78481     78483     78485     78484     78486     78488     78487     78489
     78491     78490     78492     78494     78493     78495     78497     78496     78498
     78500     78499     78501     78503     78502     78504     78506     78505     78507
     78509     78508     78510     78512     78511     78513     78515     78514     78516
     78518     78517     78519     78521     78520     78522     78524     78523     78525
     78527     78526     78528     78530     78529     78531     78533     78532     78534
     78536     78535     78537     78539     78538     78540     78542     78541     78543
     78545     78544     78546     78548     78547     78549     78551     78550     78552
     78554     78553     78555     78557     78556     78558     78560     78559     78561
     78563     78562     78564     78566     78565     78567     78569     78568     78570
     78572     78571     78573     78575     78574     78576     78578     78577     78579
     78581     78580     78582     78584     78583     78585     78587     78586     78588
     78590     78589     78591     78593     78592     78594     78596     78595     78597
     78599     78598     78600     78602     78601     78603     78605     78604     78606
     78608     78607     78609     78611     78610     78612     78614     78613     78615
     78617     78616     78618     78620     78619     78621     78623     78622     78624
     78626     78625     78627     78629     78628     78630     78632     78631     78633
     78635     78634     78636     78638     78637     78639     78641     78640     78642
     78644     78643     78645     78647     78646     78648     78650     78649     78651
     78653     78652     78654     78656     78655     78657     78659     78658     78660
     78662     78661     78663     78665     78664     78666     78668     78667     78669
     78671     78670     78672     78674     78673     78675     78677     78676     78678
     78680     78679     78681     78683     78682     78684     78686     78685     78687
     78689     78688     78690     78692     78691     78693     78695     78694     78696
     78698     78697     78699     78701     78700     78702     78704     78703     78705
     78707     78706     78708     78710     78709     78711     78713     78712     78714
     78716     78715     78717     78719     78718     78720     78722     78721     78723
     78725     78724     78726     78728     78727     78729     78731     78730     78732
     78734     78733     78735     78737     78736     78738     78740     78739     78741
     78743     78742     78744     78746     78745     78747     78749     78748     78750
     78752     78751     78753     78755     78754     78756     78758     78757     78759
     78761     78760     78762     78764     78763     78765     78767     78766     78768
     78770     78769     78771     78773     78772     78774     78776     78775     78777
     78779     78778     78780     78782     78781     78783     78785     78784     78786
     78788     78787     78789     78791     78790     78792     78794     78793     78795
     78797     78796     78798     78800     78799     78801     78803     78802     78804
     78806     78805     78807     78809     78808     78810     78812     78811     78813
     78815     78814     78816     78818     78817     78819     78821     78820     78822
     78824     78823     78825     78827     78826     78828     78830     78829     78831
     78833     78832     78834     78836     78835     78837     78839     78838     78840
     78842     78841     78843     78845     78844     78846     78848     78847     78849
     78851     78850     78852     78854     78853     78855     78857     78856     78858
     78860     78859     78861     78863     78862     78864     78866     78865     78867
     78869     78868     78870     78872     78871     78873     78875     78874     78876
     78878     78877     78879     78881     78880     78882     78884     78883     78885
     78887     78886     78888     78890     78889     78891     78893     78892     78894
     78896     78895     78897     78899     78898     78900     78902     78901     78903
     78905     78904     78906     78908     78907     78909     78911     78910     78912
     78914     78913     78915     78917     78916     78918     78920     78919     78921
     78923     78922     78924     78926     78925     78927     78929     78928     78930
     78932     78931     78933     78935     78934     78936     78938     78937     78939
     78941     78940     78942     78944     78943     78945     78947     78946     78948
     78950     78949     78951     78953     78952     78954     78956     78955     78957
     78959     78958     78960     78962     78961     78963     78965     78964     78966
     78968     78967     78969     78971     78970     78972     78974     78973     78975
     78977     78976     78978     78980     78979     78981     78983     78982     78984
     78986     78985     78987     78989     78988     78990     78992     78991     78993
     78995     78994     78996     78998     78997     78999     79001     79000     79002
     79004     79003     79005     79007     79006     79008     79010     79009     79011
     79013     79012     79014     79016     79015     79017     79019     79018     79020
     79022     79021     79023     79025     79024     79026     79028     79027     79029
     79031     79030     79032     79034     79033     79035     79037     79036     79038
     79040     79039     79041     79043     79042     79044     79046     79045     79047
     79049     79048     79050     79052     79051     79053     79055     79054     79056
     79058     79057     79059     79061     79060     79062     79064     79063     79065
     79067     79066     79068     79070     79069     79071     79073     79072     79074
     79076     79075     79077     79079     79078     79080     79082     79081     79083
     79085     79084     79086     79088     79087     79089     79091     79090     79092
     79094     79093     79095     79097     79096     79098     79100     79099     79101
     79103     79102     79104     79106     79105     79107     79109     79108     79110
     79112     79111     79113     79115     79114     79116     79118     79117     79119
     79121     79120     79122     79124     79123     79125     79127     79126     79128
     79130     79129     79131     79133     79132     79134     79136     79135     79137
     79139     79138     79140     79142     79141     79143     79145     79144     79146
     79148     79147     79149     79151     79150     79152     79154     79153     79155
     79157     79156     79158     79160     79159     79161     79163     79162     79164
     79166     79165     79167     79169     79168     79170     79172     79171     79173
     79175     79174     79176     79178     79177     79179     79181     79180     79182
     79184     79183     79185     79187     79186     79188     79190     79189     79191
     79193     79192     79194     79196     79195     79197     79199     79198     79200
     79202     79201     79203     79205     79204     79206     79208     79207     79209
     79211     79210     79212     79214     79213     79215     79217     79216     79218
     79220     79219     79221     79223     79222     79224     79226     79225     79227
     79229     79228     79230     79232     79231     79233     79235     79234     79236
     79238     79237     79239     79241     79240     79242     79244     79243     79245
     79247     79246     79248     79250     79249     79251     79253     79252     79254
     79256     79255     79257     79259     79258     79260     79262     79261     79263
     79265     79264     79266     79268     79267     79269     79271     79270     79272
     79274     79273     79275     79277     79276     79278     79280     79279     79281
     79283     79282     79284     79286     79285     79287     79289     79288     79290
     79292     79291     79293     79295     79294     79296     79298     79297     79299
     79301     79300     79302     79304     79303     79305     79307     79306     79308
     79310     79309     79311     79313     79312     79314     79316     79315     79317
     79319     79318     79320     79322     79321     79323     79325     79324     79326
     79328     79327     79329     79331     79330     79332     79334     79333     79335
     79337     79336     79338     79340     79339     79341     79343     79342     79344
     79346     79345     79347     79349     79348     79350     79352     79351     79353
     79355     79354     79356     79358     79357     79359     79361     79360     79362
     79364     79363     79365     79367     79366     79368     79370     79369     79371
     79373     79372     79374     79376     79375     79377     79379     79378     79380
     79382     79381     79383     79385     79384     79386     79388     79387     79389
     79391     79390     79392     79394     79393     79395     79397     79396     79398
     79400     79399     79401     79403     79402     79404     79406     79405     79407
     79409     79408     79410     79412     79411     79413     79415     79414     79416
     79418     79417     79419     79421     79420     79422     79424     79423     79425
     79427     79426     79428     79430     79429     79431     79433     79432     79434
     79436     79435     79437     79439     79438     79440     79442     79441     79443
     79445     79444     79446     79448     79447     79449     79451     79450     79452
     79454     79453     79455     79457     79456     79458     79460     79459     79461
     79463     79462     79464     79466     79465     79467     79469     79468     79470
     79472     79471     79473     79475     79474     79476     79478     79477     79479
     79481     79480     79482     79484     79483     79485     79487     79486     79488
     79490     79489     79491     79493     79492     79494     79496     79495     79497
     79499     79498     79500     79502     79501     79503     79505     79504     79506
     79508     79507     79509     79511     79510     79512     79514     79513     79515
     79517     79516     79518     79520     79519     79521     79523     79522     79524
     79526     79525     79527     79529     79528     79530     79532     79531     79533
     79535     79534     79536     79538     79537     79539     79541     79540     79542
     79544     79543     79545     79547     79546     79548     79550     79549     79551
     79553     79552     79554     79556     79555     79557     79559     79558     79560
     79562     79561     79563     79565     79564     79566     79568     79567     79569
     79571     79570     79572     79574     79573     79575     79577     79576     79578
     79580     79579     79581     79583     79582     79584     79586     79585     79587
     79589     79588     79590     79592     79591     79593     79595     79594     79596
     79598     79597     79599     79601     79600     79602     79604     79603     79605
     79607     79606     79608     79610     79609     79611     79613     79612     79614
     79616     79615     79617     79619     79618     79620     79622     79621     79623
     79625     79624     79626     79628     79627     79629     79631     79630     79632
     79634     79633     79635     79637     79636     79638     79640     79639     79641
     79643     79642     79644     79646     79645     79647     79649     79648     79650
     79652     79651     79653     79655     79654     79656     79658     79657     79659
     79661     79660     79662     79664     79663     79665     79667     79666     79668
     79670     79669     79671     79673     79672     79674     79676     79675     79677
     79679     79678     79680     79682     79681     79683     79685     79684     79686
     79688     79687     79689     79691     79690     79692     79694     79693     79695
     79697     79696     79698     79700     79699     79701     79703     79702     79704
     79706     79705     79707     79709     79708     79710     79712     79711     79713
     79715     79714     79716     79718     79717     79719     79721     79720     79722
     79724     79723     79725     79727     79726     79728     79730     79729     79731
     79733     79732     79734     79736     79735     79737     79739     79738     79740
     79742     79741     79743     79745     79744     79746     79748     79747     79749
     79751     79750     79752     79754     79753     79755     79757     79756     79758
     79760     79759     79761     79763     79762     79764     79766     79765     79767
     79769     79768     79770     79772     79771     79773     79775     79774     79776
     79778     79777     79779     79781     79780     79782     79784     79783     79785
     79787     79786     79788     79790     79789     79791     79793     79792     79794
     79796     79795     79797     79799     79798     79800     79802     79801     79803
     79805     79804     79806     79808     79807     79809     79811     79810     79812
     79814     79813     79815     79817     79816     79818     79820     79819     79821
     79823     79822     79824     79826     79825     79827     79829     79828     79830
     79832     79831     79833     79835     79834     79836     79838     79837     79839
     79841     79840     79842     79844     79843     79845     79847     79846     79848
     79850     79849     79851     79853     79852     79854     79856     79855     79857
     79859     79858     79860     79862     79861     79863     79865     79864     79866
     79868     79867     79869     79871     79870     79872     79874     79873     79875
     79877     79876     79878     79880     79879     79881     79883     79882     79884
     79886     79885     79887     79889     79888     79890     79892     79891     79893
     79895     79894     79896     79898     79897     79899     79901     79900     79902
     79904     79903     79905     79907     79906     79908     79910     79909     79911
     79913     79912     79914     79916     79915     79917     79919     79918     79920
     79922     79921     79923     79925     79924     79926     79928     79927     79929
     79931     79930     79932     79934     79933     79935     79937     79936     79938
     79940     79939     79941     79943     79942     79944     79946     79945     79947
     79949     79948     79950     79952     79951     79953     79955     79954     79956
     79958     79957     79959     79961     79960     79962     79964     79963     79965
     79967     79966     79968     79970     79969     79971     79973     79972     79974
     79976     79975     79977     79979     79978     79980     79982     79981     79983
     79985     79984     79986     79988     79987     79989     79991     79990     79992
     79994     79993     79995     79997     79996     79998     80000     79999     80001
     80003     80002     80004     80006     80005     80007     80009     80008     80010
     80012     80011     80013     80015     80014     80016     80018     80017     80019
     80021     80020     80022     80024     80023     80025     80027     80026     80028
     80030     80029     80031     80033     80032     80034     80036     80035     80037
     80039     80038     80040     80042     80041     80043     80045     80044     80046
     80048     80047     80049     80051     80050     80052     80054     80053     80055
     80057     80056     80058     80060     80059     80061     80063     80062     80064
     80066     80065     80067     80069     80068     80070     80072     80071     80073
     80075     80074     80076     80078     80077     80079     80081     80080     80082
     80084     80083     80085     80087     80086     80088     80090     80089     80091
     80093     80092     80094     80096     80095     80097     80099     80098     80100
     80102     80101     80103     80105     80104     80106     80108     80107     80109
     80111     80110     80112     80114     80113     80115     80117     80116     80118
     80120     80119     80121     80123     80122     80124     80126     80125     80127
     80129     80128     80130     80132     80131     80133     80135     80134     80136
     80138     80137     80139     80141     80140     80142     80144     80143     80145
     80147     80146     80148     80150     80149     80151     80153     80152     80154
     80156     80155     80157     80159     80158     80160     80162     80161     80163
     80165     80164     80166     80168     80167     80169     80171     80170     80172
     80174     80173     80175     80177     80176     80178     80180     80179     80181
     80183     80182     80184     80186     80185     80187     80189     80188     80190
     80192     80191     80193     80195     80194     80196     80198     80197     80199
     80201     80200     80202     80204     80203     80205     80207     80206     80208
     80210     80209     80211     80213     80212     80214     80216     80215     80217
     80219     80218     80220     80222     80221     80223     80225     80224     80226
     80228     80227     80229     80231     80230     80232     80234     80233     80235
     80237     80236     80238     80240     80239     80241     80243     80242     80244
     80246     80245     80247     80249     80248     80250     80252     80251     80253
     80255     80254     80256     80258     80257     80259     80261     80260     80262
     80264     80263     80265     80267     80266     80268     80270     80269     80271
     80273     80272     80274     80276     80275     80277     80279     80278     80280
     80282     80281     80283     80285     80284     80286     80288     80287     80289
     80291     80290     80292     80294     80293     80295     80297     80296     80298
     80300     80299     80301     80303     80302     80304     80306     80305     80307
     80309     80308     80310     80312     80311     80313     80315     80314     80316
     80318     80317     80319     80321     80320     80322     80324     80323     80325
     80327     80326     80328     80330     80329     80331     80333     80332     80334
     80336     80335     80337     80339     80338     80340     80342     80341     80343
     80345     80344     80346     80348     80347     80349     80351     80350     80352
     80354     80353     80355     80357     80356     80358     80360     80359     80361
     80363     80362     80364     80366     80365     80367     80369     80368     80370
     80372     80371     80373     80375     80374     80376     80378     80377     80379
     80381     80380     80382     80384     80383     80385     80387     80386     80388
     80390     80389     80391     80393     80392     80394     80396     80395     80397
     80399     80398     80400     80402     80401     80403     80405     80404     80406
     80408     80407     80409     80411     80410     80412     80414     80413     80415
     80417     80416     80418     80420     80419     80421     80423     80422     80424
     80426     80425     80427     80429     80428     80430     80432     80431     80433
     80435     80434     80436     80438     80437     80439     80441     80440     80442
     80444     80443     80445     80447     80446     80448     80450     80449     80451
     80453     80452     80454     80456     80455     80457     80459     80458     80460
     80462     80461     80463     80465     80464     80466     80468     80467     80469
     80471     80470     80472     80474     80473     80475     80477     80476     80478
     80480     80479     80481     80483     80482     80484     80486     80485     80487
     80489     80488     80490     80492     80491     80493     80495     80494     80496
     80498     80497     80499     80501     80500     80502     80504     80503     80505
     80507     80506     80508     80510     80509     80511     80513     80512     80514
     80516     80515     80517     80519     80518     80520     80522     80521     80523
     80525     80524     80526     80528     80527     80529     80531     80530     80532
     80534     80533     80535     80537     80536     80538     80540     80539     80541
     80543     80542     80544     80546     80545     80547     80549     80548     80550
     80552     80551     80553     80555     80554     80556     80558     80557     80559
     80561     80560     80562     80564     80563     80565     80567     80566     80568
     80570     80569     80571     80573     80572     80574     80576     80575     80577
     80579     80578     80580     80582     80581     80583     80585     80584     80586
     80588     80587     80589     80591     80590     80592     80594     80593     80595
     80597     80596     80598     80600     80599     80601     80603     80602     80604
     80606     80605     80607     80609     80608     80610     80612     80611     80613
     80615     80614     80616     80618     80617     80619     80621     80620     80622
     80624     80623     80625     80627     80626     80628     80630     80629     80631
     80633     80632     80634     80636     80635     80637     80639     80638     80640
     80642     80641     80643     80645     80644     80646     80648     80647     80649
     80651     80650     80652     80654     80653     80655     80657     80656     80658
     80660     80659     80661     80663     80662     80664     80666     80665     80667
     80669     80668     80670     80672     80671     80673     80675     80674     80676
     80678     80677     80679     80681     80680     80682     80684     80683     80685
     80687     80686     80688     80690     80689     80691     80693     80692     80694
     80696     80695     80697     80699     80698     80700     80702     80701     80703
     80705     80704     80706     80708     80707     80709     80711     80710     80712
     80714     80713     80715     80717     80716     80718     80720     80719     80721
     80723     80722     80724     80726     80725     80727     80729     80728     80730
     80732     80731     80733     80735     80734     80736     80738     80737     80739
     80741     80740     80742     80744     80743     80745     80747     80746     80748
     80750     80749     80751     80753     80752     80754     80756     80755     80757
     80759     80758     80760     80762     80761     80763     80765     80764     80766
     80768     80767     80769     80771     80770     80772     80774     80773     80775
     80777     80776     80778     80780     80779     80781     80783     80782     80784
     80786     80785     80787     80789     80788     80790     80792     80791     80793
     80795     80794     80796     80798     80797     80799     80801     80800     80802
     80804     80803     80805     80807     80806     80808     80810     80809     80811
     80813     80812     80814     80816     80815     80817     80819     80818     80820
     80822     80821     80823     80825     80824     80826     80828     80827     80829
     80831     80830     80832     80834     80833     80835     80837     80836     80838
     80840     80839     80841     80843     80842     80844     80846     80845     80847
     80849     80848     80850     80852     80851     80853     80855     80854     80856
     80858     80857     80859     80861     80860     80862     80864     80863     80865
     80867     80866     80868     80870     80869     80871     80873     80872     80874
     80876     80875     80877     80879     80878     80880     80882     80881     80883

         0 !NPHI: dihedrals


         0 !NIMPHI: impropers


     53922 !NDON: donors
         1         2         1         3         4         5         4         6
         7         8         7         9        10        11        10        12
        13        14        13        15        16        17        16        18
        19        20        19        21        22        23        22        24
        25        26        25        27        28        29        28        30
        31        32        31        33        34        35        34        36
        37        38        37        39        40        41        40        42
        43        44        43        45        46        47        46        48
        49        50        49        51        52        53        52        54
        55        56        55        57        58        59        58        60
        61        62        61        63        64        65        64        66
        67        68        67        69        70        71        70        72
        73        74        73        75        76        77        76        78
        79        80        79        81        82        83        82        84
        85        86        85        87        88        89        88        90
        91        92        91        93        94        95        94        96
        97        98        97        99       100       101       100       102
       103       104       103       105       106       107       106       108
       109       110       109       111       112       113       112       114
       115       116       115       117       118       119       118       120
       121       122       121       123       124       125       124       126
       127       128       127       129       130       131       130       132
       133       134       133       135       136       137       136       138
       139       140       139       141       142       143       142       144
       145       146       145       147       148       149       148       150
       151       152       151       153       154       155       154       156
       157       158       157       159       160       161       160       162
       163       164       163       165       166       167       166       168
       169       170       169       171       172       173       172       174
       175       176       175       177       178       179       178       180
       181       182       181       183       184       185       184       186
       187       188       187       189       190       191       190       192
       193       194       193       195       196       197       196       198
       199       200       199       201       202       203       202       204
       205       206       205       207       208       209       208       210
       211       212       211       213       214       215       214       216
       217       218       217       219       220       221       220       222
       223       224       223       225       226       227       226       228
       229       230       229       231       232       233       232       234
       235       236       235       237       238       239       238       240
       241       242       241       243       244       245       244       246
       247       248       247       249       250       251       250       252
       253       254       253       255       256       257       256       258
       259       260       259       261       262       263       262       264
       265       266       265       267       268       269       268       270
       271       272       271       273       274       275       274       276
       277       278       277       279       280       281       280       282
       283       284       283       285       286       287       286       288
       289       290       289       291       292       293       292       294
       295       296       295       297       298       299       298       300
       301       302       301       303       304       305       304       306
       307       308       307       309       310       311       310       312
       313       314       313       315       316       317       316       318
       319       320       319       321       322       323       322       324
       325       326       325       327       328       329       328       330
       331       332       331       333       334       335       334       336
       337       338       337       339       340       341       340       342
       343       344       343       345       346       347       346       348
       349       350       349       351       352       353       352       354
       355       356       355       357       358       359       358       360
       361       362       361       363       364       365       364       366
       367       368       367       369       370       371       370       372
       373       374       373       375       376       377       376       378
       379       380       379       381       382       383       382       384
       385       386       385       387       388       389       388       390
       391       392       391       393       394       395       394       396
       397       398       397       399       400       401       400       402
       403       404       403       405       406       407       406       408
       409       410       409       411       412       413       412       414
       415       416       415       417       418       419       418       420
       421       422       421       423       424       425       424       426
       427       428       427       429       430       431       430       432
       433       434       433       435       436       437       436       438
       439       440       439       441       442       443       442       444
       445       446       445       447       448       449       448       450
       451       452       451       453       454       455       454       456
       457       458       457       459       460       461       460       462
       463       464       463       465       466       467       466       468
       469       470       469       471       472       473       472       474
       475       476       475       477       478       479       478       480
       481       482       481       483       484       485       484       486
       487       488       487       489       490       491       490       492
       493       494       493       495       496       497       496       498
       499       500       499       501       502       503       502       504
       505       506       505       507       508       509       508       510
       511       512       511       513       514       515       514       516
       517       518       517       519       520       521       520       522
       523       524       523       525       526       527       526       528
       529       530       529       531       532       533       532       534
       535       536       535       537       538       539       538       540
       541       542       541       543       544       545       544       546
       547       548       547       549       550       551       550       552
       553       554       553       555       556       557       556       558
       559       560       559       561       562       563       562       564
       565       566       565       567       568       569       568       570
       571       572       571       573       574       575       574       576
       577       578       577       579       580       581       580       582
       583       584       583       585       586       587       586       588
       589       590       589       591       592       593       592       594
       595       596       595       597       598       599       598       600
       601       602       601       603       604       605       604       606
       607       608       607       609       610       611       610       612
       613       614       613       615       616       617       616       618
       619       620       619       621       622       623       622       624
       625       626       625       627       628       629       628       630
       631       632       631       633       634       635       634       636
       637       638       637       639       640       641       640       642
       643       644       643       645       646       647       646       648
       649       650       649       651       652       653       652       654
       655       656       655       657       658       659       658       660
       661       662       661       663       664       665       664       666
       667       668       667       669       670       671       670       672
       673       674       673       675       676       677       676       678
       679       680       679       681       682       683       682       684
       685       686       685       687       688       689       688       690
       691       692       691       693       694       695       694       696
       697       698       697       699       700       701       700       702
       703       704       703       705       706       707       706       708
       709       710       709       711       712       713       712       714
       715       716       715       717       718       719       718       720
       721       722       721       723       724       725       724       726
       727       728       727       729       730       731       730       732
       733       734       733       735       736       737       736       738
       739       740       739       741       742       743       742       744
       745       746       745       747       748       749       748       750
       751       752       751       753       754       755       754       756
       757       758       757       759       760       761       760       762
       763       764       763       765       766       767       766       768
       769       770       769       771       772       773       772       774
       775       776       775       777       778       779       778       780
       781       782       781       783       784       785       784       786
       787       788       787       789       790       791       790       792
       793       794       793       795       796       797       796       798
       799       800       799       801       802       803       802       804
       805       806       805       807       808       809       808       810
       811       812       811       813       814       815       814       816
       817       818       817       819       820       821       820       822
       823       824       823       825       826       827       826       828
       829       830       829       831       832       833       832       834
       835       836       835       837       838       839       838       840
       841       842       841       843       844       845       844       846
       847       848       847       849       850       851       850       852
       853       854       853       855       856       857       856       858
       859       860       859       861       862       863       862       864
       865       866       865       867       868       869       868       870
       871       872       871       873       874       875       874       876
       877       878       877       879       880       881       880       882
       883       884       883       885       886       887       886       888
       889       890       889       891       892       893       892       894
       895       896       895       897       898       899       898       900
       901       902       901       903       904       905       904       906
       907       908       907       909       910       911       910       912
       913       914       913       915       916       917       916       918
       919       920       919       921       922       923       922       924
       925       926       925       927       928       929       928       930
       931       932       931       933       934       935       934       936
       937       938       937       939       940       941       940       942
       943       944       943       945       946       947       946       948
       949       950       949       951       952       953       952       954
       955       956       955       957       958       959       958       960
       961       962       961       963       964       965       964       966
       967       968       967       969       970       971       970       972
       973       974       973       975       976       977       976       978
       979       980       979       981       982       983       982       984
       985       986       985       987       988       989       988       990
       991       992       991       993       994       995       994       996
       997       998       997       999      1000      1001      1000      1002
      1003      1004      1003      1005      1006      1007      1006      1008
      1009      1010      1009      1011      1012      1013      1012      1014
      1015      1016      1015      1017      1018      1019      1018      1020
      1021      1022      1021      1023      1024      1025      1024      1026
      1027      1028      1027      1029      1030      1031      1030      1032
      1033      1034      1033      1035      1036      1037      1036      1038
      1039      1040      1039      1041      1042      1043      1042      1044
      1045      1046      1045      1047      1048      1049      1048      1050
      1051      1052      1051      1053      1054      1055      1054      1056
      1057      1058      1057      1059      1060      1061      1060      1062
      1063      1064      1063      1065      1066      1067      1066      1068
      1069      1070      1069      1071      1072      1073      1072      1074
      1075      1076      1075      1077      1078      1079      1078      1080
      1081      1082      1081      1083      1084      1085      1084      1086
      1087      1088      1087      1089      1090      1091      1090      1092
      1093      1094      1093      1095      1096      1097      1096      1098
      1099      1100      1099      1101      1102      1103      1102      1104
      1105      1106      1105      1107      1108      1109      1108      1110
      1111      1112      1111      1113      1114      1115      1114      1116
      1117      1118      1117      1119      1120      1121      1120      1122
      1123      1124      1123      1125      1126      1127      1126      1128
      1129      1130      1129      1131      1132      1133      1132      1134
      1135      1136      1135      1137      1138      1139      1138      1140
      1141      1142      1141      1143      1144      1145      1144      1146
      1147      1148      1147      1149      1150      1151      1150      1152
      1153      1154      1153      1155      1156      1157      1156      1158
      1159      1160      1159      1161      1162      1163      1162      1164
      1165      1166      1165      1167      1168      1169      1168      1170
      1171      1172      1171      1173      1174      1175      1174      1176
      1177      1178      1177      1179      1180      1181      1180      1182
      1183      1184      1183      1185      1186      1187      1186      1188
      1189      1190      1189      1191      1192      1193      1192      1194
      1195      1196      1195      1197      1198      1199      1198      1200
      1201      1202      1201      1203      1204      1205      1204      1206
      1207      1208      1207      1209      1210      1211      1210      1212
      1213      1214      1213      1215      1216      1217      1216      1218
      1219      1220      1219      1221      1222      1223      1222      1224
      1225      1226      1225      1227      1228      1229      1228      1230
      1231      1232      1231      1233      1234      1235      1234      1236
      1237      1238      1237      1239      1240      1241      1240      1242
      1243      1244      1243      1245      1246      1247      1246      1248
      1249      1250      1249      1251      1252      1253      1252      1254
      1255      1256      1255      1257      1258      1259      1258      1260
      1261      1262      1261      1263      1264      1265      1264      1266
      1267      1268      1267      1269      1270      1271      1270      1272
      1273      1274      1273      1275      1276      1277      1276      1278
      1279      1280      1279      1281      1282      1283      1282      1284
      1285      1286      1285      1287      1288      1289      1288      1290
      1291      1292      1291      1293      1294      1295      1294      1296
      1297      1298      1297      1299      1300      1301      1300      1302
      1303      1304      1303      1305      1306      1307      1306      1308
      1309      1310      1309      1311      1312      1313      1312      1314
      1315      1316      1315      1317      1318      1319      1318      1320
      1321      1322      1321      1323      1324      1325      1324      1326
      1327      1328      1327      1329      1330      1331      1330      1332
      1333      1334      1333      1335      1336      1337      1336      1338
      1339      1340      1339      1341      1342      1343      1342      1344
      1345      1346      1345      1347      1348      1349      1348      1350
      1351      1352      1351      1353      1354      1355      1354      1356
      1357      1358      1357      1359      1360      1361      1360      1362
      1363      1364      1363      1365      1366      1367      1366      1368
      1369      1370      1369      1371      1372      1373      1372      1374
      1375      1376      1375      1377      1378      1379      1378      1380
      1381      1382      1381      1383      1384      1385      1384      1386
      1387      1388      1387      1389      1390      1391      1390      1392
      1393      1394      1393      1395      1396      1397      1396      1398
      1399      1400      1399      1401      1402      1403      1402      1404
      1405      1406      1405      1407      1408      1409      1408      1410
      1411      1412      1411      1413      1414      1415      1414      1416
      1417      1418      1417      1419      1420      1421      1420      1422
      1423      1424      1423      1425      1426      1427      1426      1428
      1429      1430      1429      1431      1432      1433      1432      1434
      1435      1436      1435      1437      1438      1439      1438      1440
      1441      1442      1441      1443      1444      1445      1444      1446
      1447      1448      1447      1449      1450      1451      1450      1452
      1453      1454      1453      1455      1456      1457      1456      1458
      1459      1460      1459      1461      1462      1463      1462      1464
      1465      1466      1465      1467      1468      1469      1468      1470
      1471      1472      1471      1473      1474      1475      1474      1476
      1477      1478      1477      1479      1480      1481      1480      1482
      1483      1484      1483      1485      1486      1487      1486      1488
      1489      1490      1489      1491      1492      1493      1492      1494
      1495      1496      1495      1497      1498      1499      1498      1500
      1501      1502      1501      1503      1504      1505      1504      1506
      1507      1508      1507      1509      1510      1511      1510      1512
      1513      1514      1513      1515      1516      1517      1516      1518
      1519      1520      1519      1521      1522      1523      1522      1524
      1525      1526      1525      1527      1528      1529      1528      1530
      1531      1532      1531      1533      1534      1535      1534      1536
      1537      1538      1537      1539      1540      1541      1540      1542
      1543      1544      1543      1545      1546      1547      1546      1548
      1549      1550      1549      1551      1552      1553      1552      1554
      1555      1556      1555      1557      1558      1559      1558      1560
      1561      1562      1561      1563      1564      1565      1564      1566
      1567      1568      1567      1569      1570      1571      1570      1572
      1573      1574      1573      1575      1576      1577      1576      1578
      1579      1580      1579      1581      1582      1583      1582      1584
      1585      1586      1585      1587      1588      1589      1588      1590
      1591      1592      1591      1593      1594      1595      1594      1596
      1597      1598      1597      1599      1600      1601      1600      1602
      1603      1604      1603      1605      1606      1607      1606      1608
      1609      1610      1609      1611      1612      1613      1612      1614
      1615      1616      1615      1617      1618      1619      1618      1620
      1621      1622      1621      1623      1624      1625      1624      1626
      1627      1628      1627      1629      1630      1631      1630      1632
      1633      1634      1633      1635      1636      1637      1636      1638
      1639      1640      1639      1641      1642      1643      1642      1644
      1645      1646      1645      1647      1648      1649      1648      1650
      1651      1652      1651      1653      1654      1655      1654      1656
      1657      1658      1657      1659      1660      1661      1660      1662
      1663      1664      1663      1665      1666      1667      1666      1668
      1669      1670      1669      1671      1672      1673      1672      1674
      1675      1676      1675      1677      1678      1679      1678      1680
      1681      1682      1681      1683      1684      1685      1684      1686
      1687      1688      1687      1689      1690      1691      1690      1692
      1693      1694      1693      1695      1696      1697      1696      1698
      1699      1700      1699      1701      1702      1703      1702      1704
      1705      1706      1705      1707      1708      1709      1708      1710
      1711      1712      1711      1713      1714      1715      1714      1716
      1717      1718      1717      1719      1720      1721      1720      1722
      1723      1724      1723      1725      1726      1727      1726      1728
      1729      1730      1729      1731      1732      1733      1732      1734
      1735      1736      1735      1737      1738      1739      1738      1740
      1741      1742      1741      1743      1744      1745      1744      1746
      1747      1748      1747      1749      1750      1751      1750      1752
      1753      1754      1753      1755      1756      1757      1756      1758
      1759      1760      1759      1761      1762      1763      1762      1764
      1765      1766      1765      1767      1768      1769      1768      1770
      1771      1772      1771      1773      1774      1775      1774      1776
      1777      1778      1777      1779      1780      1781      1780      1782
      1783      1784      1783      1785      1786      1787      1786      1788
      1789      1790      1789      1791      1792      1793      1792      1794
      1795      1796      1795      1797      1798      1799      1798      1800
      1801      1802      1801      1803      1804      1805      1804      1806
      1807      1808      1807      1809      1810      1811      1810      1812
      1813      1814      1813      1815      1816      1817      1816      1818
      1819      1820      1819      1821      1822      1823      1822      1824
      1825      1826      1825      1827      1828      1829      1828      1830
      1831      1832      1831      1833      1834      1835      1834      1836
      1837      1838      1837      1839      1840      1841      1840      1842
      1843      1844      1843      1845      1846      1847      1846      1848
      1849      1850      1849      1851      1852      1853      1852      1854
      1855      1856      1855      1857      1858      1859      1858      1860
      1861      1862      1861      1863      1864      1865      1864      1866
      1867      1868      1867      1869      1870      1871      1870      1872
      1873      1874      1873      1875      1876      1877      1876      1878
      1879      1880      1879      1881      1882      1883      1882      1884
      1885      1886      1885      1887      1888      1889      1888      1890
      1891      1892      1891      1893      1894      1895      1894      1896
      1897      1898      1897      1899      1900      1901      1900      1902
      1903      1904      1903      1905      1906      1907      1906      1908
      1909      1910      1909      1911      1912      1913      1912      1914
      1915      1916      1915      1917      1918      1919      1918      1920
      1921      1922      1921      1923      1924      1925      1924      1926
      1927      1928      1927      1929      1930      1931      1930      1932
      1933      1934      1933      1935      1936      1937      1936      1938
      1939      1940      1939      1941      1942      1943      1942      1944
      1945      1946      1945      1947      1948      1949      1948      1950
      1951      1952      1951      1953      1954      1955      1954      1956
      1957      1958      1957      1959      1960      1961      1960      1962
      1963      1964      1963      1965      1966      1967      1966      1968
      1969      1970      1969      1971      1972      1973      1972      1974
      1975      1976      1975      1977      1978      1979      1978      1980
      1981      1982      1981      1983      1984      1985      1984      1986
      1987      1988      1987      1989      1990      1991      1990      1992
      1993      1994      1993      1995      1996      1997      1996      1998
      1999      2000      1999      2001      2002      2003      2002      2004
      2005      2006      2005      2007      2008      2009      2008      2010
      2011      2012      2011      2013      2014      2015      2014      2016
      2017      2018      2017      2019      2020      2021      2020      2022
      2023      2024      2023      2025      2026      2027      2026      2028
      2029      2030      2029      2031      2032      2033      2032      2034
      2035      2036      2035      2037      2038      2039      2038      2040
      2041      2042      2041      2043      2044      2045      2044      2046
      2047      2048      2047      2049      2050      2051      2050      2052
      2053      2054      2053      2055      2056      2057      2056      2058
      2059      2060      2059      2061      2062      2063      2062      2064
      2065      2066      2065      2067      2068      2069      2068      2070
      2071      2072      2071      2073      2074      2075      2074      2076
      2077      2078      2077      2079      2080      2081      2080      2082
      2083      2084      2083      2085      2086      2087      2086      2088
      2089      2090      2089      2091      2092      2093      2092      2094
      2095      2096      2095      2097      2098      2099      2098      2100
      2101      2102      2101      2103      2104      2105      2104      2106
      2107      2108      2107      2109      2110      2111      2110      2112
      2113      2114      2113      2115      2116      2117      2116      2118
      2119      2120      2119      2121      2122      2123      2122      2124
      2125      2126      2125      2127      2128      2129      2128      2130
      2131      2132      2131      2133      2134      2135      2134      2136
      2137      2138      2137      2139      2140      2141      2140      2142
      2143      2144      2143      2145      2146      2147      2146      2148
      2149      2150      2149      2151      2152      2153      2152      2154
      2155      2156      2155      2157      2158      2159      2158      2160
      2161      2162      2161      2163      2164      2165      2164      2166
      2167      2168      2167      2169      2170      2171      2170      2172
      2173      2174      2173      2175      2176      2177      2176      2178
      2179      2180      2179      2181      2182      2183      2182      2184
      2185      2186      2185      2187      2188      2189      2188      2190
      2191      2192      2191      2193      2194      2195      2194      2196
      2197      2198      2197      2199      2200      2201      2200      2202
      2203      2204      2203      2205      2206      2207      2206      2208
      2209      2210      2209      2211      2212      2213      2212      2214
      2215      2216      2215      2217      2218      2219      2218      2220
      2221      2222      2221      2223      2224      2225      2224      2226
      2227      2228      2227      2229      2230      2231      2230      2232
      2233      2234      2233      2235      2236      2237      2236      2238
      2239      2240      2239      2241      2242      2243      2242      2244
      2245      2246      2245      2247      2248      2249      2248      2250
      2251      2252      2251      2253      2254      2255      2254      2256
      2257      2258      2257      2259      2260      2261      2260      2262
      2263      2264      2263      2265      2266      2267      2266      2268
      2269      2270      2269      2271      2272      2273      2272      2274
      2275      2276      2275      2277      2278      2279      2278      2280
      2281      2282      2281      2283      2284      2285      2284      2286
      2287      2288      2287      2289      2290      2291      2290      2292
      2293      2294      2293      2295      2296      2297      2296      2298
      2299      2300      2299      2301      2302      2303      2302      2304
      2305      2306      2305      2307      2308      2309      2308      2310
      2311      2312      2311      2313      2314      2315      2314      2316
      2317      2318      2317      2319      2320      2321      2320      2322
      2323      2324      2323      2325      2326      2327      2326      2328
      2329      2330      2329      2331      2332      2333      2332      2334
      2335      2336      2335      2337      2338      2339      2338      2340
      2341      2342      2341      2343      2344      2345      2344      2346
      2347      2348      2347      2349      2350      2351      2350      2352
      2353      2354      2353      2355      2356      2357      2356      2358
      2359      2360      2359      2361      2362      2363      2362      2364
      2365      2366      2365      2367      2368      2369      2368      2370
      2371      2372      2371      2373      2374      2375      2374      2376
      2377      2378      2377      2379      2380      2381      2380      2382
      2383      2384      2383      2385      2386      2387      2386      2388
      2389      2390      2389      2391      2392      2393      2392      2394
      2395      2396      2395      2397      2398      2399      2398      2400
      2401      2402      2401      2403      2404      2405      2404      2406
      2407      2408      2407      2409      2410      2411      2410      2412
      2413      2414      2413      2415      2416      2417      2416      2418
      2419      2420      2419      2421      2422      2423      2422      2424
      2425      2426      2425      2427      2428      2429      2428      2430
      2431      2432      2431      2433      2434      2435      2434      2436
      2437      2438      2437      2439      2440      2441      2440      2442
      2443      2444      2443      2445      2446      2447      2446      2448
      2449      2450      2449      2451      2452      2453      2452      2454
      2455      2456      2455      2457      2458      2459      2458      2460
      2461      2462      2461      2463      2464      2465      2464      2466
      2467      2468      2467      2469      2470      2471      2470      2472
      2473      2474      2473      2475      2476      2477      2476      2478
      2479      2480      2479      2481      2482      2483      2482      2484
      2485      2486      2485      2487      2488      2489      2488      2490
      2491      2492      2491      2493      2494      2495      2494      2496
      2497      2498      2497      2499      2500      2501      2500      2502
      2503      2504      2503      2505      2506      2507      2506      2508
      2509      2510      2509      2511      2512      2513      2512      2514
      2515      2516      2515      2517      2518      2519      2518      2520
      2521      2522      2521      2523      2524      2525      2524      2526
      2527      2528      2527      2529      2530      2531      2530      2532
      2533      2534      2533      2535      2536      2537      2536      2538
      2539      2540      2539      2541      2542      2543      2542      2544
      2545      2546      2545      2547      2548      2549      2548      2550
      2551      2552      2551      2553      2554      2555      2554      2556
      2557      2558      2557      2559      2560      2561      2560      2562
      2563      2564      2563      2565      2566      2567      2566      2568
      2569      2570      2569      2571      2572      2573      2572      2574
      2575      2576      2575      2577      2578      2579      2578      2580
      2581      2582      2581      2583      2584      2585      2584      2586
      2587      2588      2587      2589      2590      2591      2590      2592
      2593      2594      2593      2595      2596      2597      2596      2598
      2599      2600      2599      2601      2602      2603      2602      2604
      2605      2606      2605      2607      2608      2609      2608      2610
      2611      2612      2611      2613      2614      2615      2614      2616
      2617      2618      2617      2619      2620      2621      2620      2622
      2623      2624      2623      2625      2626      2627      2626      2628
      2629      2630      2629      2631      2632      2633      2632      2634
      2635      2636      2635      2637      2638      2639      2638      2640
      2641      2642      2641      2643      2644      2645      2644      2646
      2647      2648      2647      2649      2650      2651      2650      2652
      2653      2654      2653      2655      2656      2657      2656      2658
      2659      2660      2659      2661      2662      2663      2662      2664
      2665      2666      2665      2667      2668      2669      2668      2670
      2671      2672      2671      2673      2674      2675      2674      2676
      2677      2678      2677      2679      2680      2681      2680      2682
      2683      2684      2683      2685      2686      2687      2686      2688
      2689      2690      2689      2691      2692      2693      2692      2694
      2695      2696      2695      2697      2698      2699      2698      2700
      2701      2702      2701      2703      2704      2705      2704      2706
      2707      2708      2707      2709      2710      2711      2710      2712
      2713      2714      2713      2715      2716      2717      2716      2718
      2719      2720      2719      2721      2722      2723      2722      2724
      2725      2726      2725      2727      2728      2729      2728      2730
      2731      2732      2731      2733      2734      2735      2734      2736
      2737      2738      2737      2739      2740      2741      2740      2742
      2743      2744      2743      2745      2746      2747      2746      2748
      2749      2750      2749      2751      2752      2753      2752      2754
      2755      2756      2755      2757      2758      2759      2758      2760
      2761      2762      2761      2763      2764      2765      2764      2766
      2767      2768      2767      2769      2770      2771      2770      2772
      2773      2774      2773      2775      2776      2777      2776      2778
      2779      2780      2779      2781      2782      2783      2782      2784
      2785      2786      2785      2787      2788      2789      2788      2790
      2791      2792      2791      2793      2794      2795      2794      2796
      2797      2798      2797      2799      2800      2801      2800      2802
      2803      2804      2803      2805      2806      2807      2806      2808
      2809      2810      2809      2811      2812      2813      2812      2814
      2815      2816      2815      2817      2818      2819      2818      2820
      2821      2822      2821      2823      2824      2825      2824      2826
      2827      2828      2827      2829      2830      2831      2830      2832
      2833      2834      2833      2835      2836      2837      2836      2838
      2839      2840      2839      2841      2842      2843      2842      2844
      2845      2846      2845      2847      2848      2849      2848      2850
      2851      2852      2851      2853      2854      2855      2854      2856
      2857      2858      2857      2859      2860      2861      2860      2862
      2863      2864      2863      2865      2866      2867      2866      2868
      2869      2870      2869      2871      2872      2873      2872      2874
      2875      2876      2875      2877      2878      2879      2878      2880
      2881      2882      2881      2883      2884      2885      2884      2886
      2887      2888      2887      2889      2890      2891      2890      2892
      2893      2894      2893      2895      2896      2897      2896      2898
      2899      2900      2899      2901      2902      2903      2902      2904
      2905      2906      2905      2907      2908      2909      2908      2910
      2911      2912      2911      2913      2914      2915      2914      2916
      2917      2918      2917      2919      2920      2921      2920      2922
      2923      2924      2923      2925      2926      2927      2926      2928
      2929      2930      2929      2931      2932      2933      2932      2934
      2935      2936      2935      2937      2938      2939      2938      2940
      2941      2942      2941      2943      2944      2945      2944      2946
      2947      2948      2947      2949      2950      2951      2950      2952
      2953      2954      2953      2955      2956      2957      2956      2958
      2959      2960      2959      2961      2962      2963      2962      2964
      2965      2966      2965      2967      2968      2969      2968      2970
      2971      2972      2971      2973      2974      2975      2974      2976
      2977      2978      2977      2979      2980      2981      2980      2982
      2983      2984      2983      2985      2986      2987      2986      2988
      2989      2990      2989      2991      2992      2993      2992      2994
      2995      2996      2995      2997      2998      2999      2998      3000
      3001      3002      3001      3003      3004      3005      3004      3006
      3007      3008      3007      3009      3010      3011      3010      3012
      3013      3014      3013      3015      3016      3017      3016      3018
      3019      3020      3019      3021      3022      3023      3022      3024
      3025      3026      3025      3027      3028      3029      3028      3030
      3031      3032      3031      3033      3034      3035      3034      3036
      3037      3038      3037      3039      3040      3041      3040      3042
      3043      3044      3043      3045      3046      3047      3046      3048
      3049      3050      3049      3051      3052      3053      3052      3054
      3055      3056      3055      3057      3058      3059      3058      3060
      3061      3062      3061      3063      3064      3065      3064      3066
      3067      3068      3067      3069      3070      3071      3070      3072
      3073      3074      3073      3075      3076      3077      3076      3078
      3079      3080      3079      3081      3082      3083      3082      3084
      3085      3086      3085      3087      3088      3089      3088      3090
      3091      3092      3091      3093      3094      3095      3094      3096
      3097      3098      3097      3099      3100      3101      3100      3102
      3103      3104      3103      3105      3106      3107      3106      3108
      3109      3110      3109      3111      3112      3113      3112      3114
      3115      3116      3115      3117      3118      3119      3118      3120
      3121      3122      3121      3123      3124      3125      3124      3126
      3127      3128      3127      3129      3130      3131      3130      3132
      3133      3134      3133      3135      3136      3137      3136      3138
      3139      3140      3139      3141      3142      3143      3142      3144
      3145      3146      3145      3147      3148      3149      3148      3150
      3151      3152      3151      3153      3154      3155      3154      3156
      3157      3158      3157      3159      3160      3161      3160      3162
      3163      3164      3163      3165      3166      3167      3166      3168
      3169      3170      3169      3171      3172      3173      3172      3174
      3175      3176      3175      3177      3178      3179      3178      3180
      3181      3182      3181      3183      3184      3185      3184      3186
      3187      3188      3187      3189      3190      3191      3190      3192
      3193      3194      3193      3195      3196      3197      3196      3198
      3199      3200      3199      3201      3202      3203      3202      3204
      3205      3206      3205      3207      3208      3209      3208      3210
      3211      3212      3211      3213      3214      3215      3214      3216
      3217      3218      3217      3219      3220      3221      3220      3222
      3223      3224      3223      3225      3226      3227      3226      3228
      3229      3230      3229      3231      3232      3233      3232      3234
      3235      3236      3235      3237      3238      3239      3238      3240
      3241      3242      3241      3243      3244      3245      3244      3246
      3247      3248      3247      3249      3250      3251      3250      3252
      3253      3254      3253      3255      3256      3257      3256      3258
      3259      3260      3259      3261      3262      3263      3262      3264
      3265      3266      3265      3267      3268      3269      3268      3270
      3271      3272      3271      3273      3274      3275      3274      3276
      3277      3278      3277      3279      3280      3281      3280      3282
      3283      3284      3283      3285      3286      3287      3286      3288
      3289      3290      3289      3291      3292      3293      3292      3294
      3295      3296      3295      3297      3298      3299      3298      3300
      3301      3302      3301      3303      3304      3305      3304      3306
      3307      3308      3307      3309      3310      3311      3310      3312
      3313      3314      3313      3315      3316      3317      3316      3318
      3319      3320      3319      3321      3322      3323      3322      3324
      3325      3326      3325      3327      3328      3329      3328      3330
      3331      3332      3331      3333      3334      3335      3334      3336
      3337      3338      3337      3339      3340      3341      3340      3342
      3343      3344      3343      3345      3346      3347      3346      3348
      3349      3350      3349      3351      3352      3353      3352      3354
      3355      3356      3355      3357      3358      3359      3358      3360
      3361      3362      3361      3363      3364      3365      3364      3366
      3367      3368      3367      3369      3370      3371      3370      3372
      3373      3374      3373      3375      3376      3377      3376      3378
      3379      3380      3379      3381      3382      3383      3382      3384
      3385      3386      3385      3387      3388      3389      3388      3390
      3391      3392      3391      3393      3394      3395      3394      3396
      3397      3398      3397      3399      3400      3401      3400      3402
      3403      3404      3403      3405      3406      3407      3406      3408
      3409      3410      3409      3411      3412      3413      3412      3414
      3415      3416      3415      3417      3418      3419      3418      3420
      3421      3422      3421      3423      3424      3425      3424      3426
      3427      3428      3427      3429      3430      3431      3430      3432
      3433      3434      3433      3435      3436      3437      3436      3438
      3439      3440      3439      3441      3442      3443      3442      3444
      3445      3446      3445      3447      3448      3449      3448      3450
      3451      3452      3451      3453      3454      3455      3454      3456
      3457      3458      3457      3459      3460      3461      3460      3462
      3463      3464      3463      3465      3466      3467      3466      3468
      3469      3470      3469      3471      3472      3473      3472      3474
      3475      3476      3475      3477      3478      3479      3478      3480
      3481      3482      3481      3483      3484      3485      3484      3486
      3487      3488      3487      3489      3490      3491      3490      3492
      3493      3494      3493      3495      3496      3497      3496      3498
      3499      3500      3499      3501      3502      3503      3502      3504
      3505      3506      3505      3507      3508      3509      3508      3510
      3511      3512      3511      3513      3514      3515      3514      3516
      3517      3518      3517      3519      3520      3521      3520      3522
      3523      3524      3523      3525      3526      3527      3526      3528
      3529      3530      3529      3531      3532      3533      3532      3534
      3535      3536      3535      3537      3538      3539      3538      3540
      3541      3542      3541      3543      3544      3545      3544      3546
      3547      3548      3547      3549      3550      3551      3550      3552
      3553      3554      3553      3555      3556      3557      3556      3558
      3559      3560      3559      3561      3562      3563      3562      3564
      3565      3566      3565      3567      3568      3569      3568      3570
      3571      3572      3571      3573      3574      3575      3574      3576
      3577      3578      3577      3579      3580      3581      3580      3582
      3583      3584      3583      3585      3586      3587      3586      3588
      3589      3590      3589      3591      3592      3593      3592      3594
      3595      3596      3595      3597      3598      3599      3598      3600
      3601      3602      3601      3603      3604      3605      3604      3606
      3607      3608      3607      3609      3610      3611      3610      3612
      3613      3614      3613      3615      3616      3617      3616      3618
      3619      3620      3619      3621      3622      3623      3622      3624
      3625      3626      3625      3627      3628      3629      3628      3630
      3631      3632      3631      3633      3634      3635      3634      3636
      3637      3638      3637      3639      3640      3641      3640      3642
      3643      3644      3643      3645      3646      3647      3646      3648
      3649      3650      3649      3651      3652      3653      3652      3654
      3655      3656      3655      3657      3658      3659      3658      3660
      3661      3662      3661      3663      3664      3665      3664      3666
      3667      3668      3667      3669      3670      3671      3670      3672
      3673      3674      3673      3675      3676      3677      3676      3678
      3679      3680      3679      3681      3682      3683      3682      3684
      3685      3686      3685      3687      3688      3689      3688      3690
      3691      3692      3691      3693      3694      3695      3694      3696
      3697      3698      3697      3699      3700      3701      3700      3702
      3703      3704      3703      3705      3706      3707      3706      3708
      3709      3710      3709      3711      3712      3713      3712      3714
      3715      3716      3715      3717      3718      3719      3718      3720
      3721      3722      3721      3723      3724      3725      3724      3726
      3727      3728      3727      3729      3730      3731      3730      3732
      3733      3734      3733      3735      3736      3737      3736      3738
      3739      3740      3739      3741      3742      3743      3742      3744
      3745      3746      3745      3747      3748      3749      3748      3750
      3751      3752      3751      3753      3754      3755      3754      3756
      3757      3758      3757      3759      3760      3761      3760      3762
      3763      3764      3763      3765      3766      3767      3766      3768
      3769      3770      3769      3771      3772      3773      3772      3774
      3775      3776      3775      3777      3778      3779      3778      3780
      3781      3782      3781      3783      3784      3785      3784      3786
      3787      3788      3787      3789      3790      3791      3790      3792
      3793      3794      3793      3795      3796      3797      3796      3798
      3799      3800      3799      3801      3802      3803      3802      3804
      3805      3806      3805      3807      3808      3809      3808      3810
      3811      3812      3811      3813      3814      3815      3814      3816
      3817      3818      3817      3819      3820      3821      3820      3822
      3823      3824      3823      3825      3826      3827      3826      3828
      3829      3830      3829      3831      3832      3833      3832      3834
      3835      3836      3835      3837      3838      3839      3838      3840
      3841      3842      3841      3843      3844      3845      3844      3846
      3847      3848      3847      3849      3850      3851      3850      3852
      3853      3854      3853      3855      3856      3857      3856      3858
      3859      3860      3859      3861      3862      3863      3862      3864
      3865      3866      3865      3867      3868      3869      3868      3870
      3871      3872      3871      3873      3874      3875      3874      3876
      3877      3878      3877      3879      3880      3881      3880      3882
      3883      3884      3883      3885      3886      3887      3886      3888
      3889      3890      3889      3891      3892      3893      3892      3894
      3895      3896      3895      3897      3898      3899      3898      3900
      3901      3902      3901      3903      3904      3905      3904      3906
      3907      3908      3907      3909      3910      3911      3910      3912
      3913      3914      3913      3915      3916      3917      3916      3918
      3919      3920      3919      3921      3922      3923      3922      3924
      3925      3926      3925      3927      3928      3929      3928      3930
      3931      3932      3931      3933      3934      3935      3934      3936
      3937      3938      3937      3939      3940      3941      3940      3942
      3943      3944      3943      3945      3946      3947      3946      3948
      3949      3950      3949      3951      3952      3953      3952      3954
      3955      3956      3955      3957      3958      3959      3958      3960
      3961      3962      3961      3963      3964      3965      3964      3966
      3967      3968      3967      3969      3970      3971      3970      3972
      3973      3974      3973      3975      3976      3977      3976      3978
      3979      3980      3979      3981      3982      3983      3982      3984
      3985      3986      3985      3987      3988      3989      3988      3990
      3991      3992      3991      3993      3994      3995      3994      3996
      3997      3998      3997      3999      4000      4001      4000      4002
      4003      4004      4003      4005      4006      4007      4006      4008
      4009      4010      4009      4011      4012      4013      4012      4014
      4015      4016      4015      4017      4018      4019      4018      4020
      4021      4022      4021      4023      4024      4025      4024      4026
      4027      4028      4027      4029      4030      4031      4030      4032
      4033      4034      4033      4035      4036      4037      4036      4038
      4039      4040      4039      4041      4042      4043      4042      4044
      4045      4046      4045      4047      4048      4049      4048      4050
      4051      4052      4051      4053      4054      4055      4054      4056
      4057      4058      4057      4059      4060      4061      4060      4062
      4063      4064      4063      4065      4066      4067      4066      4068
      4069      4070      4069      4071      4072      4073      4072      4074
      4075      4076      4075      4077      4078      4079      4078      4080
      4081      4082      4081      4083      4084      4085      4084      4086
      4087      4088      4087      4089      4090      4091      4090      4092
      4093      4094      4093      4095      4096      4097      4096      4098
      4099      4100      4099      4101      4102      4103      4102      4104
      4105      4106      4105      4107      4108      4109      4108      4110
      4111      4112      4111      4113      4114      4115      4114      4116
      4117      4118      4117      4119      4120      4121      4120      4122
      4123      4124      4123      4125      4126      4127      4126      4128
      4129      4130      4129      4131      4132      4133      4132      4134
      4135      4136      4135      4137      4138      4139      4138      4140
      4141      4142      4141      4143      4144      4145      4144      4146
      4147      4148      4147      4149      4150      4151      4150      4152
      4153      4154      4153      4155      4156      4157      4156      4158
      4159      4160      4159      4161      4162      4163      4162      4164
      4165      4166      4165      4167      4168      4169      4168      4170
      4171      4172      4171      4173      4174      4175      4174      4176
      4177      4178      4177      4179      4180      4181      4180      4182
      4183      4184      4183      4185      4186      4187      4186      4188
      4189      4190      4189      4191      4192      4193      4192      4194
      4195      4196      4195      4197      4198      4199      4198      4200
      4201      4202      4201      4203      4204      4205      4204      4206
      4207      4208      4207      4209      4210      4211      4210      4212
      4213      4214      4213      4215      4216      4217      4216      4218
      4219      4220      4219      4221      4222      4223      4222      4224
      4225      4226      4225      4227      4228      4229      4228      4230
      4231      4232      4231      4233      4234      4235      4234      4236
      4237      4238      4237      4239      4240      4241      4240      4242
      4243      4244      4243      4245      4246      4247      4246      4248
      4249      4250      4249      4251      4252      4253      4252      4254
      4255      4256      4255      4257      4258      4259      4258      4260
      4261      4262      4261      4263      4264      4265      4264      4266
      4267      4268      4267      4269      4270      4271      4270      4272
      4273      4274      4273      4275      4276      4277      4276      4278
      4279      4280      4279      4281      4282      4283      4282      4284
      4285      4286      4285      4287      4288      4289      4288      4290
      4291      4292      4291      4293      4294      4295      4294      4296
      4297      4298      4297      4299      4300      4301      4300      4302
      4303      4304      4303      4305      4306      4307      4306      4308
      4309      4310      4309      4311      4312      4313      4312      4314
      4315      4316      4315      4317      4318      4319      4318      4320
      4321      4322      4321      4323      4324      4325      4324      4326
      4327      4328      4327      4329      4330      4331      4330      4332
      4333      4334      4333      4335      4336      4337      4336      4338
      4339      4340      4339      4341      4342      4343      4342      4344
      4345      4346      4345      4347      4348      4349      4348      4350
      4351      4352      4351      4353      4354      4355      4354      4356
      4357      4358      4357      4359      4360      4361      4360      4362
      4363      4364      4363      4365      4366      4367      4366      4368
      4369      4370      4369      4371      4372      4373      4372      4374
      4375      4376      4375      4377      4378      4379      4378      4380
      4381      4382      4381      4383      4384      4385      4384      4386
      4387      4388      4387      4389      4390      4391      4390      4392
      4393      4394      4393      4395      4396      4397      4396      4398
      4399      4400      4399      4401      4402      4403      4402      4404
      4405      4406      4405      4407      4408      4409      4408      4410
      4411      4412      4411      4413      4414      4415      4414      4416
      4417      4418      4417      4419      4420      4421      4420      4422
      4423      4424      4423      4425      4426      4427      4426      4428
      4429      4430      4429      4431      4432      4433      4432      4434
      4435      4436      4435      4437      4438      4439      4438      4440
      4441      4442      4441      4443      4444      4445      4444      4446
      4447      4448      4447      4449      4450      4451      4450      4452
      4453      4454      4453      4455      4456      4457      4456      4458
      4459      4460      4459      4461      4462      4463      4462      4464
      4465      4466      4465      4467      4468      4469      4468      4470
      4471      4472      4471      4473      4474      4475      4474      4476
      4477      4478      4477      4479      4480      4481      4480      4482
      4483      4484      4483      4485      4486      4487      4486      4488
      4489      4490      4489      4491      4492      4493      4492      4494
      4495      4496      4495      4497      4498      4499      4498      4500
      4501      4502      4501      4503      4504      4505      4504      4506
      4507      4508      4507      4509      4510      4511      4510      4512
      4513      4514      4513      4515      4516      4517      4516      4518
      4519      4520      4519      4521      4522      4523      4522      4524
      4525      4526      4525      4527      4528      4529      4528      4530
      4531      4532      4531      4533      4534      4535      4534      4536
      4537      4538      4537      4539      4540      4541      4540      4542
      4543      4544      4543      4545      4546      4547      4546      4548
      4549      4550      4549      4551      4552      4553      4552      4554
      4555      4556      4555      4557      4558      4559      4558      4560
      4561      4562      4561      4563      4564      4565      4564      4566
      4567      4568      4567      4569      4570      4571      4570      4572
      4573      4574      4573      4575      4576      4577      4576      4578
      4579      4580      4579      4581      4582      4583      4582      4584
      4585      4586      4585      4587      4588      4589      4588      4590
      4591      4592      4591      4593      4594      4595      4594      4596
      4597      4598      4597      4599      4600      4601      4600      4602
      4603      4604      4603      4605      4606      4607      4606      4608
      4609      4610      4609      4611      4612      4613      4612      4614
      4615      4616      4615      4617      4618      4619      4618      4620
      4621      4622      4621      4623      4624      4625      4624      4626
      4627      4628      4627      4629      4630      4631      4630      4632
      4633      4634      4633      4635      4636      4637      4636      4638
      4639      4640      4639      4641      4642      4643      4642      4644
      4645      4646      4645      4647      4648      4649      4648      4650
      4651      4652      4651      4653      4654      4655      4654      4656
      4657      4658      4657      4659      4660      4661      4660      4662
      4663      4664      4663      4665      4666      4667      4666      4668
      4669      4670      4669      4671      4672      4673      4672      4674
      4675      4676      4675      4677      4678      4679      4678      4680
      4681      4682      4681      4683      4684      4685      4684      4686
      4687      4688      4687      4689      4690      4691      4690      4692
      4693      4694      4693      4695      4696      4697      4696      4698
      4699      4700      4699      4701      4702      4703      4702      4704
      4705      4706      4705      4707      4708      4709      4708      4710
      4711      4712      4711      4713      4714      4715      4714      4716
      4717      4718      4717      4719      4720      4721      4720      4722
      4723      4724      4723      4725      4726      4727      4726      4728
      4729      4730      4729      4731      4732      4733      4732      4734
      4735      4736      4735      4737      4738      4739      4738      4740
      4741      4742      4741      4743      4744      4745      4744      4746
      4747      4748      4747      4749      4750      4751      4750      4752
      4753      4754      4753      4755      4756      4757      4756      4758
      4759      4760      4759      4761      4762      4763      4762      4764
      4765      4766      4765      4767      4768      4769      4768      4770
      4771      4772      4771      4773      4774      4775      4774      4776
      4777      4778      4777      4779      4780      4781      4780      4782
      4783      4784      4783      4785      4786      4787      4786      4788
      4789      4790      4789      4791      4792      4793      4792      4794
      4795      4796      4795      4797      4798      4799      4798      4800
      4801      4802      4801      4803      4804      4805      4804      4806
      4807      4808      4807      4809      4810      4811      4810      4812
      4813      4814      4813      4815      4816      4817      4816      4818
      4819      4820      4819      4821      4822      4823      4822      4824
      4825      4826      4825      4827      4828      4829      4828      4830
      4831      4832      4831      4833      4834      4835      4834      4836
      4837      4838      4837      4839      4840      4841      4840      4842
      4843      4844      4843      4845      4846      4847      4846      4848
      4849      4850      4849      4851      4852      4853      4852      4854
      4855      4856      4855      4857      4858      4859      4858      4860
      4861      4862      4861      4863      4864      4865      4864      4866
      4867      4868      4867      4869      4870      4871      4870      4872
      4873      4874      4873      4875      4876      4877      4876      4878
      4879      4880      4879      4881      4882      4883      4882      4884
      4885      4886      4885      4887      4888      4889      4888      4890
      4891      4892      4891      4893      4894      4895      4894      4896
      4897      4898      4897      4899      4900      4901      4900      4902
      4903      4904      4903      4905      4906      4907      4906      4908
      4909      4910      4909      4911      4912      4913      4912      4914
      4915      4916      4915      4917      4918      4919      4918      4920
      4921      4922      4921      4923      4924      4925      4924      4926
      4927      4928      4927      4929      4930      4931      4930      4932
      4933      4934      4933      4935      4936      4937      4936      4938
      4939      4940      4939      4941      4942      4943      4942      4944
      4945      4946      4945      4947      4948      4949      4948      4950
      4951      4952      4951      4953      4954      4955      4954      4956
      4957      4958      4957      4959      4960      4961      4960      4962
      4963      4964      4963      4965      4966      4967      4966      4968
      4969      4970      4969      4971      4972      4973      4972      4974
      4975      4976      4975      4977      4978      4979      4978      4980
      4981      4982      4981      4983      4984      4985      4984      4986
      4987      4988      4987      4989      4990      4991      4990      4992
      4993      4994      4993      4995      4996      4997      4996      4998
      4999      5000      4999      5001      5002      5003      5002      5004
      5005      5006      5005      5007      5008      5009      5008      5010
      5011      5012      5011      5013      5014      5015      5014      5016
      5017      5018      5017      5019      5020      5021      5020      5022
      5023      5024      5023      5025      5026      5027      5026      5028
      5029      5030      5029      5031      5032      5033      5032      5034
      5035      5036      5035      5037      5038      5039      5038      5040
      5041      5042      5041      5043      5044      5045      5044      5046
      5047      5048      5047      5049      5050      5051      5050      5052
      5053      5054      5053      5055      5056      5057      5056      5058
      5059      5060      5059      5061      5062      5063      5062      5064
      5065      5066      5065      5067      5068      5069      5068      5070
      5071      5072      5071      5073      5074      5075      5074      5076
      5077      5078      5077      5079      5080      5081      5080      5082
      5083      5084      5083      5085      5086      5087      5086      5088
      5089      5090      5089      5091      5092      5093      5092      5094
      5095      5096      5095      5097      5098      5099      5098      5100
      5101      5102      5101      5103      5104      5105      5104      5106
      5107      5108      5107      5109      5110      5111      5110      5112
      5113      5114      5113      5115      5116      5117      5116      5118
      5119      5120      5119      5121      5122      5123      5122      5124
      5125      5126      5125      5127      5128      5129      5128      5130
      5131      5132      5131      5133      5134      5135      5134      5136
      5137      5138      5137      5139      5140      5141      5140      5142
      5143      5144      5143      5145      5146      5147      5146      5148
      5149      5150      5149      5151      5152      5153      5152      5154
      5155      5156      5155      5157      5158      5159      5158      5160
      5161      5162      5161      5163      5164      5165      5164      5166
      5167      5168      5167      5169      5170      5171      5170      5172
      5173      5174      5173      5175      5176      5177      5176      5178
      5179      5180      5179      5181      5182      5183      5182      5184
      5185      5186      5185      5187      5188      5189      5188      5190
      5191      5192      5191      5193      5194      5195      5194      5196
      5197      5198      5197      5199      5200      5201      5200      5202
      5203      5204      5203      5205      5206      5207      5206      5208
      5209      5210      5209      5211      5212      5213      5212      5214
      5215      5216      5215      5217      5218      5219      5218      5220
      5221      5222      5221      5223      5224      5225      5224      5226
      5227      5228      5227      5229      5230      5231      5230      5232
      5233      5234      5233      5235      5236      5237      5236      5238
      5239      5240      5239      5241      5242      5243      5242      5244
      5245      5246      5245      5247      5248      5249      5248      5250
      5251      5252      5251      5253      5254      5255      5254      5256
      5257      5258      5257      5259      5260      5261      5260      5262
      5263      5264      5263      5265      5266      5267      5266      5268
      5269      5270      5269      5271      5272      5273      5272      5274
      5275      5276      5275      5277      5278      5279      5278      5280
      5281      5282      5281      5283      5284      5285      5284      5286
      5287      5288      5287      5289      5290      5291      5290      5292
      5293      5294      5293      5295      5296      5297      5296      5298
      5299      5300      5299      5301      5302      5303      5302      5304
      5305      5306      5305      5307      5308      5309      5308      5310
      5311      5312      5311      5313      5314      5315      5314      5316
      5317      5318      5317      5319      5320      5321      5320      5322
      5323      5324      5323      5325      5326      5327      5326      5328
      5329      5330      5329      5331      5332      5333      5332      5334
      5335      5336      5335      5337      5338      5339      5338      5340
      5341      5342      5341      5343      5344      5345      5344      5346
      5347      5348      5347      5349      5350      5351      5350      5352
      5353      5354      5353      5355      5356      5357      5356      5358
      5359      5360      5359      5361      5362      5363      5362      5364
      5365      5366      5365      5367      5368      5369      5368      5370
      5371      5372      5371      5373      5374      5375      5374      5376
      5377      5378      5377      5379      5380      5381      5380      5382
      5383      5384      5383      5385      5386      5387      5386      5388
      5389      5390      5389      5391      5392      5393      5392      5394
      5395      5396      5395      5397      5398      5399      5398      5400
      5401      5402      5401      5403      5404      5405      5404      5406
      5407      5408      5407      5409      5410      5411      5410      5412
      5413      5414      5413      5415      5416      5417      5416      5418
      5419      5420      5419      5421      5422      5423      5422      5424
      5425      5426      5425      5427      5428      5429      5428      5430
      5431      5432      5431      5433      5434      5435      5434      5436
      5437      5438      5437      5439      5440      5441      5440      5442
      5443      5444      5443      5445      5446      5447      5446      5448
      5449      5450      5449      5451      5452      5453      5452      5454
      5455      5456      5455      5457      5458      5459      5458      5460
      5461      5462      5461      5463      5464      5465      5464      5466
      5467      5468      5467      5469      5470      5471      5470      5472
      5473      5474      5473      5475      5476      5477      5476      5478
      5479      5480      5479      5481      5482      5483      5482      5484
      5485      5486      5485      5487      5488      5489      5488      5490
      5491      5492      5491      5493      5494      5495      5494      5496
      5497      5498      5497      5499      5500      5501      5500      5502
      5503      5504      5503      5505      5506      5507      5506      5508
      5509      5510      5509      5511      5512      5513      5512      5514
      5515      5516      5515      5517      5518      5519      5518      5520
      5521      5522      5521      5523      5524      5525      5524      5526
      5527      5528      5527      5529      5530      5531      5530      5532
      5533      5534      5533      5535      5536      5537      5536      5538
      5539      5540      5539      5541      5542      5543      5542      5544
      5545      5546      5545      5547      5548      5549      5548      5550
      5551      5552      5551      5553      5554      5555      5554      5556
      5557      5558      5557      5559      5560      5561      5560      5562
      5563      5564      5563      5565      5566      5567      5566      5568
      5569      5570      5569      5571      5572      5573      5572      5574
      5575      5576      5575      5577      5578      5579      5578      5580
      5581      5582      5581      5583      5584      5585      5584      5586
      5587      5588      5587      5589      5590      5591      5590      5592
      5593      5594      5593      5595      5596      5597      5596      5598
      5599      5600      5599      5601      5602      5603      5602      5604
      5605      5606      5605      5607      5608      5609      5608      5610
      5611      5612      5611      5613      5614      5615      5614      5616
      5617      5618      5617      5619      5620      5621      5620      5622
      5623      5624      5623      5625      5626      5627      5626      5628
      5629      5630      5629      5631      5632      5633      5632      5634
      5635      5636      5635      5637      5638      5639      5638      5640
      5641      5642      5641      5643      5644      5645      5644      5646
      5647      5648      5647      5649      5650      5651      5650      5652
      5653      5654      5653      5655      5656      5657      5656      5658
      5659      5660      5659      5661      5662      5663      5662      5664
      5665      5666      5665      5667      5668      5669      5668      5670
      5671      5672      5671      5673      5674      5675      5674      5676
      5677      5678      5677      5679      5680      5681      5680      5682
      5683      5684      5683      5685      5686      5687      5686      5688
      5689      5690      5689      5691      5692      5693      5692      5694
      5695      5696      5695      5697      5698      5699      5698      5700
      5701      5702      5701      5703      5704      5705      5704      5706
      5707      5708      5707      5709      5710      5711      5710      5712
      5713      5714      5713      5715      5716      5717      5716      5718
      5719      5720      5719      5721      5722      5723      5722      5724
      5725      5726      5725      5727      5728      5729      5728      5730
      5731      5732      5731      5733      5734      5735      5734      5736
      5737      5738      5737      5739      5740      5741      5740      5742
      5743      5744      5743      5745      5746      5747      5746      5748
      5749      5750      5749      5751      5752      5753      5752      5754
      5755      5756      5755      5757      5758      5759      5758      5760
      5761      5762      5761      5763      5764      5765      5764      5766
      5767      5768      5767      5769      5770      5771      5770      5772
      5773      5774      5773      5775      5776      5777      5776      5778
      5779      5780      5779      5781      5782      5783      5782      5784
      5785      5786      5785      5787      5788      5789      5788      5790
      5791      5792      5791      5793      5794      5795      5794      5796
      5797      5798      5797      5799      5800      5801      5800      5802
      5803      5804      5803      5805      5806      5807      5806      5808
      5809      5810      5809      5811      5812      5813      5812      5814
      5815      5816      5815      5817      5818      5819      5818      5820
      5821      5822      5821      5823      5824      5825      5824      5826
      5827      5828      5827      5829      5830      5831      5830      5832
      5833      5834      5833      5835      5836      5837      5836      5838
      5839      5840      5839      5841      5842      5843      5842      5844
      5845      5846      5845      5847      5848      5849      5848      5850
      5851      5852      5851      5853      5854      5855      5854      5856
      5857      5858      5857      5859      5860      5861      5860      5862
      5863      5864      5863      5865      5866      5867      5866      5868
      5869      5870      5869      5871      5872      5873      5872      5874
      5875      5876      5875      5877      5878      5879      5878      5880
      5881      5882      5881      5883      5884      5885      5884      5886
      5887      5888      5887      5889      5890      5891      5890      5892
      5893      5894      5893      5895      5896      5897      5896      5898
      5899      5900      5899      5901      5902      5903      5902      5904
      5905      5906      5905      5907      5908      5909      5908      5910
      5911      5912      5911      5913      5914      5915      5914      5916
      5917      5918      5917      5919      5920      5921      5920      5922
      5923      5924      5923      5925      5926      5927      5926      5928
      5929      5930      5929      5931      5932      5933      5932      5934
      5935      5936      5935      5937      5938      5939      5938      5940
      5941      5942      5941      5943      5944      5945      5944      5946
      5947      5948      5947      5949      5950      5951      5950      5952
      5953      5954      5953      5955      5956      5957      5956      5958
      5959      5960      5959      5961      5962      5963      5962      5964
      5965      5966      5965      5967      5968      5969      5968      5970
      5971      5972      5971      5973      5974      5975      5974      5976
      5977      5978      5977      5979      5980      5981      5980      5982
      5983      5984      5983      5985      5986      5987      5986      5988
      5989      5990      5989      5991      5992      5993      5992      5994
      5995      5996      5995      5997      5998      5999      5998      6000
      6001      6002      6001      6003      6004      6005      6004      6006
      6007      6008      6007      6009      6010      6011      6010      6012
      6013      6014      6013      6015      6016      6017      6016      6018
      6019      6020      6019      6021      6022      6023      6022      6024
      6025      6026      6025      6027      6028      6029      6028      6030
      6031      6032      6031      6033      6034      6035      6034      6036
      6037      6038      6037      6039      6040      6041      6040      6042
      6043      6044      6043      6045      6046      6047      6046      6048
      6049      6050      6049      6051      6052      6053      6052      6054
      6055      6056      6055      6057      6058      6059      6058      6060
      6061      6062      6061      6063      6064      6065      6064      6066
      6067      6068      6067      6069      6070      6071      6070      6072
      6073      6074      6073      6075      6076      6077      6076      6078
      6079      6080      6079      6081      6082      6083      6082      6084
      6085      6086      6085      6087      6088      6089      6088      6090
      6091      6092      6091      6093      6094      6095      6094      6096
      6097      6098      6097      6099      6100      6101      6100      6102
      6103      6104      6103      6105      6106      6107      6106      6108
      6109      6110      6109      6111      6112      6113      6112      6114
      6115      6116      6115      6117      6118      6119      6118      6120
      6121      6122      6121      6123      6124      6125      6124      6126
      6127      6128      6127      6129      6130      6131      6130      6132
      6133      6134      6133      6135      6136      6137      6136      6138
      6139      6140      6139      6141      6142      6143      6142      6144
      6145      6146      6145      6147      6148      6149      6148      6150
      6151      6152      6151      6153      6154      6155      6154      6156
      6157      6158      6157      6159      6160      6161      6160      6162
      6163      6164      6163      6165      6166      6167      6166      6168
      6169      6170      6169      6171      6172      6173      6172      6174
      6175      6176      6175      6177      6178      6179      6178      6180
      6181      6182      6181      6183      6184      6185      6184      6186
      6187      6188      6187      6189      6190      6191      6190      6192
      6193      6194      6193      6195      6196      6197      6196      6198
      6199      6200      6199      6201      6202      6203      6202      6204
      6205      6206      6205      6207      6208      6209      6208      6210
      6211      6212      6211      6213      6214      6215      6214      6216
      6217      6218      6217      6219      6220      6221      6220      6222
      6223      6224      6223      6225      6226      6227      6226      6228
      6229      6230      6229      6231      6232      6233      6232      6234
      6235      6236      6235      6237      6238      6239      6238      6240
      6241      6242      6241      6243      6244      6245      6244      6246
      6247      6248      6247      6249      6250      6251      6250      6252
      6253      6254      6253      6255      6256      6257      6256      6258
      6259      6260      6259      6261      6262      6263      6262      6264
      6265      6266      6265      6267      6268      6269      6268      6270
      6271      6272      6271      6273      6274      6275      6274      6276
      6277      6278      6277      6279      6280      6281      6280      6282
      6283      6284      6283      6285      6286      6287      6286      6288
      6289      6290      6289      6291      6292      6293      6292      6294
      6295      6296      6295      6297      6298      6299      6298      6300
      6301      6302      6301      6303      6304      6305      6304      6306
      6307      6308      6307      6309      6310      6311      6310      6312
      6313      6314      6313      6315      6316      6317      6316      6318
      6319      6320      6319      6321      6322      6323      6322      6324
      6325      6326      6325      6327      6328      6329      6328      6330
      6331      6332      6331      6333      6334      6335      6334      6336
      6337      6338      6337      6339      6340      6341      6340      6342
      6343      6344      6343      6345      6346      6347      6346      6348
      6349      6350      6349      6351      6352      6353      6352      6354
      6355      6356      6355      6357      6358      6359      6358      6360
      6361      6362      6361      6363      6364      6365      6364      6366
      6367      6368      6367      6369      6370      6371      6370      6372
      6373      6374      6373      6375      6376      6377      6376      6378
      6379      6380      6379      6381      6382      6383      6382      6384
      6385      6386      6385      6387      6388      6389      6388      6390
      6391      6392      6391      6393      6394      6395      6394      6396
      6397      6398      6397      6399      6400      6401      6400      6402
      6403      6404      6403      6405      6406      6407      6406      6408
      6409      6410      6409      6411      6412      6413      6412      6414
      6415      6416      6415      6417      6418      6419      6418      6420
      6421      6422      6421      6423      6424      6425      6424      6426
      6427      6428      6427      6429      6430      6431      6430      6432
      6433      6434      6433      6435      6436      6437      6436      6438
      6439      6440      6439      6441      6442      6443      6442      6444
      6445      6446      6445      6447      6448      6449      6448      6450
      6451      6452      6451      6453      6454      6455      6454      6456
      6457      6458      6457      6459      6460      6461      6460      6462
      6463      6464      6463      6465      6466      6467      6466      6468
      6469      6470      6469      6471      6472      6473      6472      6474
      6475      6476      6475      6477      6478      6479      6478      6480
      6481      6482      6481      6483      6484      6485      6484      6486
      6487      6488      6487      6489      6490      6491      6490      6492
      6493      6494      6493      6495      6496      6497      6496      6498
      6499      6500      6499      6501      6502      6503      6502      6504
      6505      6506      6505      6507      6508      6509      6508      6510
      6511      6512      6511      6513      6514      6515      6514      6516
      6517      6518      6517      6519      6520      6521      6520      6522
      6523      6524      6523      6525      6526      6527      6526      6528
      6529      6530      6529      6531      6532      6533      6532      6534
      6535      6536      6535      6537      6538      6539      6538      6540
      6541      6542      6541      6543      6544      6545      6544      6546
      6547      6548      6547      6549      6550      6551      6550      6552
      6553      6554      6553      6555      6556      6557      6556      6558
      6559      6560      6559      6561      6562      6563      6562      6564
      6565      6566      6565      6567      6568      6569      6568      6570
      6571      6572      6571      6573      6574      6575      6574      6576
      6577      6578      6577      6579      6580      6581      6580      6582
      6583      6584      6583      6585      6586      6587      6586      6588
      6589      6590      6589      6591      6592      6593      6592      6594
      6595      6596      6595      6597      6598      6599      6598      6600
      6601      6602      6601      6603      6604      6605      6604      6606
      6607      6608      6607      6609      6610      6611      6610      6612
      6613      6614      6613      6615      6616      6617      6616      6618
      6619      6620      6619      6621      6622      6623      6622      6624
      6625      6626      6625      6627      6628      6629      6628      6630
      6631      6632      6631      6633      6634      6635      6634      6636
      6637      6638      6637      6639      6640      6641      6640      6642
      6643      6644      6643      6645      6646      6647      6646      6648
      6649      6650      6649      6651      6652      6653      6652      6654
      6655      6656      6655      6657      6658      6659      6658      6660
      6661      6662      6661      6663      6664      6665      6664      6666
      6667      6668      6667      6669      6670      6671      6670      6672
      6673      6674      6673      6675      6676      6677      6676      6678
      6679      6680      6679      6681      6682      6683      6682      6684
      6685      6686      6685      6687      6688      6689      6688      6690
      6691      6692      6691      6693      6694      6695      6694      6696
      6697      6698      6697      6699      6700      6701      6700      6702
      6703      6704      6703      6705      6706      6707      6706      6708
      6709      6710      6709      6711      6712      6713      6712      6714
      6715      6716      6715      6717      6718      6719      6718      6720
      6721      6722      6721      6723      6724      6725      6724      6726
      6727      6728      6727      6729      6730      6731      6730      6732
      6733      6734      6733      6735      6736      6737      6736      6738
      6739      6740      6739      6741      6742      6743      6742      6744
      6745      6746      6745      6747      6748      6749      6748      6750
      6751      6752      6751      6753      6754      6755      6754      6756
      6757      6758      6757      6759      6760      6761      6760      6762
      6763      6764      6763      6765      6766      6767      6766      6768
      6769      6770      6769      6771      6772      6773      6772      6774
      6775      6776      6775      6777      6778      6779      6778      6780
      6781      6782      6781      6783      6784      6785      6784      6786
      6787      6788      6787      6789      6790      6791      6790      6792
      6793      6794      6793      6795      6796      6797      6796      6798
      6799      6800      6799      6801      6802      6803      6802      6804
      6805      6806      6805      6807      6808      6809      6808      6810
      6811      6812      6811      6813      6814      6815      6814      6816
      6817      6818      6817      6819      6820      6821      6820      6822
      6823      6824      6823      6825      6826      6827      6826      6828
      6829      6830      6829      6831      6832      6833      6832      6834
      6835      6836      6835      6837      6838      6839      6838      6840
      6841      6842      6841      6843      6844      6845      6844      6846
      6847      6848      6847      6849      6850      6851      6850      6852
      6853      6854      6853      6855      6856      6857      6856      6858
      6859      6860      6859      6861      6862      6863      6862      6864
      6865      6866      6865      6867      6868      6869      6868      6870
      6871      6872      6871      6873      6874      6875      6874      6876
      6877      6878      6877      6879      6880      6881      6880      6882
      6883      6884      6883      6885      6886      6887      6886      6888
      6889      6890      6889      6891      6892      6893      6892      6894
      6895      6896      6895      6897      6898      6899      6898      6900
      6901      6902      6901      6903      6904      6905      6904      6906
      6907      6908      6907      6909      6910      6911      6910      6912
      6913      6914      6913      6915      6916      6917      6916      6918
      6919      6920      6919      6921      6922      6923      6922      6924
      6925      6926      6925      6927      6928      6929      6928      6930
      6931      6932      6931      6933      6934      6935      6934      6936
      6937      6938      6937      6939      6940      6941      6940      6942
      6943      6944      6943      6945      6946      6947      6946      6948
      6949      6950      6949      6951      6952      6953      6952      6954
      6955      6956      6955      6957      6958      6959      6958      6960
      6961      6962      6961      6963      6964      6965      6964      6966
      6967      6968      6967      6969      6970      6971      6970      6972
      6973      6974      6973      6975      6976      6977      6976      6978
      6979      6980      6979      6981      6982      6983      6982      6984
      6985      6986      6985      6987      6988      6989      6988      6990
      6991      6992      6991      6993      6994      6995      6994      6996
      6997      6998      6997      6999      7000      7001      7000      7002
      7003      7004      7003      7005      7006      7007      7006      7008
      7009      7010      7009      7011      7012      7013      7012      7014
      7015      7016      7015      7017      7018      7019      7018      7020
      7021      7022      7021      7023      7024      7025      7024      7026
      7027      7028      7027      7029      7030      7031      7030      7032
      7033      7034      7033      7035      7036      7037      7036      7038
      7039      7040      7039      7041      7042      7043      7042      7044
      7045      7046      7045      7047      7048      7049      7048      7050
      7051      7052      7051      7053      7054      7055      7054      7056
      7057      7058      7057      7059      7060      7061      7060      7062
      7063      7064      7063      7065      7066      7067      7066      7068
      7069      7070      7069      7071      7072      7073      7072      7074
      7075      7076      7075      7077      7078      7079      7078      7080
      7081      7082      7081      7083      7084      7085      7084      7086
      7087      7088      7087      7089      7090      7091      7090      7092
      7093      7094      7093      7095      7096      7097      7096      7098
      7099      7100      7099      7101      7102      7103      7102      7104
      7105      7106      7105      7107      7108      7109      7108      7110
      7111      7112      7111      7113      7114      7115      7114      7116
      7117      7118      7117      7119      7120      7121      7120      7122
      7123      7124      7123      7125      7126      7127      7126      7128
      7129      7130      7129      7131      7132      7133      7132      7134
      7135      7136      7135      7137      7138      7139      7138      7140
      7141      7142      7141      7143      7144      7145      7144      7146
      7147      7148      7147      7149      7150      7151      7150      7152
      7153      7154      7153      7155      7156      7157      7156      7158
      7159      7160      7159      7161      7162      7163      7162      7164
      7165      7166      7165      7167      7168      7169      7168      7170
      7171      7172      7171      7173      7174      7175      7174      7176
      7177      7178      7177      7179      7180      7181      7180      7182
      7183      7184      7183      7185      7186      7187      7186      7188
      7189      7190      7189      7191      7192      7193      7192      7194
      7195      7196      7195      7197      7198      7199      7198      7200
      7201      7202      7201      7203      7204      7205      7204      7206
      7207      7208      7207      7209      7210      7211      7210      7212
      7213      7214      7213      7215      7216      7217      7216      7218
      7219      7220      7219      7221      7222      7223      7222      7224
      7225      7226      7225      7227      7228      7229      7228      7230
      7231      7232      7231      7233      7234      7235      7234      7236
      7237      7238      7237      7239      7240      7241      7240      7242
      7243      7244      7243      7245      7246      7247      7246      7248
      7249      7250      7249      7251      7252      7253      7252      7254
      7255      7256      7255      7257      7258      7259      7258      7260
      7261      7262      7261      7263      7264      7265      7264      7266
      7267      7268      7267      7269      7270      7271      7270      7272
      7273      7274      7273      7275      7276      7277      7276      7278
      7279      7280      7279      7281      7282      7283      7282      7284
      7285      7286      7285      7287      7288      7289      7288      7290
      7291      7292      7291      7293      7294      7295      7294      7296
      7297      7298      7297      7299      7300      7301      7300      7302
      7303      7304      7303      7305      7306      7307      7306      7308
      7309      7310      7309      7311      7312      7313      7312      7314
      7315      7316      7315      7317      7318      7319      7318      7320
      7321      7322      7321      7323      7324      7325      7324      7326
      7327      7328      7327      7329      7330      7331      7330      7332
      7333      7334      7333      7335      7336      7337      7336      7338
      7339      7340      7339      7341      7342      7343      7342      7344
      7345      7346      7345      7347      7348      7349      7348      7350
      7351      7352      7351      7353      7354      7355      7354      7356
      7357      7358      7357      7359      7360      7361      7360      7362
      7363      7364      7363      7365      7366      7367      7366      7368
      7369      7370      7369      7371      7372      7373      7372      7374
      7375      7376      7375      7377      7378      7379      7378      7380
      7381      7382      7381      7383      7384      7385      7384      7386
      7387      7388      7387      7389      7390      7391      7390      7392
      7393      7394      7393      7395      7396      7397      7396      7398
      7399      7400      7399      7401      7402      7403      7402      7404
      7405      7406      7405      7407      7408      7409      7408      7410
      7411      7412      7411      7413      7414      7415      7414      7416
      7417      7418      7417      7419      7420      7421      7420      7422
      7423      7424      7423      7425      7426      7427      7426      7428
      7429      7430      7429      7431      7432      7433      7432      7434
      7435      7436      7435      7437      7438      7439      7438      7440
      7441      7442      7441      7443      7444      7445      7444      7446
      7447      7448      7447      7449      7450      7451      7450      7452
      7453      7454      7453      7455      7456      7457      7456      7458
      7459      7460      7459      7461      7462      7463      7462      7464
      7465      7466      7465      7467      7468      7469      7468      7470
      7471      7472      7471      7473      7474      7475      7474      7476
      7477      7478      7477      7479      7480      7481      7480      7482
      7483      7484      7483      7485      7486      7487      7486      7488
      7489      7490      7489      7491      7492      7493      7492      7494
      7495      7496      7495      7497      7498      7499      7498      7500
      7501      7502      7501      7503      7504      7505      7504      7506
      7507      7508      7507      7509      7510      7511      7510      7512
      7513      7514      7513      7515      7516      7517      7516      7518
      7519      7520      7519      7521      7522      7523      7522      7524
      7525      7526      7525      7527      7528      7529      7528      7530
      7531      7532      7531      7533      7534      7535      7534      7536
      7537      7538      7537      7539      7540      7541      7540      7542
      7543      7544      7543      7545      7546      7547      7546      7548
      7549      7550      7549      7551      7552      7553      7552      7554
      7555      7556      7555      7557      7558      7559      7558      7560
      7561      7562      7561      7563      7564      7565      7564      7566
      7567      7568      7567      7569      7570      7571      7570      7572
      7573      7574      7573      7575      7576      7577      7576      7578
      7579      7580      7579      7581      7582      7583      7582      7584
      7585      7586      7585      7587      7588      7589      7588      7590
      7591      7592      7591      7593      7594      7595      7594      7596
      7597      7598      7597      7599      7600      7601      7600      7602
      7603      7604      7603      7605      7606      7607      7606      7608
      7609      7610      7609      7611      7612      7613      7612      7614
      7615      7616      7615      7617      7618      7619      7618      7620
      7621      7622      7621      7623      7624      7625      7624      7626
      7627      7628      7627      7629      7630      7631      7630      7632
      7633      7634      7633      7635      7636      7637      7636      7638
      7639      7640      7639      7641      7642      7643      7642      7644
      7645      7646      7645      7647      7648      7649      7648      7650
      7651      7652      7651      7653      7654      7655      7654      7656
      7657      7658      7657      7659      7660      7661      7660      7662
      7663      7664      7663      7665      7666      7667      7666      7668
      7669      7670      7669      7671      7672      7673      7672      7674
      7675      7676      7675      7677      7678      7679      7678      7680
      7681      7682      7681      7683      7684      7685      7684      7686
      7687      7688      7687      7689      7690      7691      7690      7692
      7693      7694      7693      7695      7696      7697      7696      7698
      7699      7700      7699      7701      7702      7703      7702      7704
      7705      7706      7705      7707      7708      7709      7708      7710
      7711      7712      7711      7713      7714      7715      7714      7716
      7717      7718      7717      7719      7720      7721      7720      7722
      7723      7724      7723      7725      7726      7727      7726      7728
      7729      7730      7729      7731      7732      7733      7732      7734
      7735      7736      7735      7737      7738      7739      7738      7740
      7741      7742      7741      7743      7744      7745      7744      7746
      7747      7748      7747      7749      7750      7751      7750      7752
      7753      7754      7753      7755      7756      7757      7756      7758
      7759      7760      7759      7761      7762      7763      7762      7764
      7765      7766      7765      7767      7768      7769      7768      7770
      7771      7772      7771      7773      7774      7775      7774      7776
      7777      7778      7777      7779      7780      7781      7780      7782
      7783      7784      7783      7785      7786      7787      7786      7788
      7789      7790      7789      7791      7792      7793      7792      7794
      7795      7796      7795      7797      7798      7799      7798      7800
      7801      7802      7801      7803      7804      7805      7804      7806
      7807      7808      7807      7809      7810      7811      7810      7812
      7813      7814      7813      7815      7816      7817      7816      7818
      7819      7820      7819      7821      7822      7823      7822      7824
      7825      7826      7825      7827      7828      7829      7828      7830
      7831      7832      7831      7833      7834      7835      7834      7836
      7837      7838      7837      7839      7840      7841      7840      7842
      7843      7844      7843      7845      7846      7847      7846      7848
      7849      7850      7849      7851      7852      7853      7852      7854
      7855      7856      7855      7857      7858      7859      7858      7860
      7861      7862      7861      7863      7864      7865      7864      7866
      7867      7868      7867      7869      7870      7871      7870      7872
      7873      7874      7873      7875      7876      7877      7876      7878
      7879      7880      7879      7881      7882      7883      7882      7884
      7885      7886      7885      7887      7888      7889      7888      7890
      7891      7892      7891      7893      7894      7895      7894      7896
      7897      7898      7897      7899      7900      7901      7900      7902
      7903      7904      7903      7905      7906      7907      7906      7908
      7909      7910      7909      7911      7912      7913      7912      7914
      7915      7916      7915      7917      7918      7919      7918      7920
      7921      7922      7921      7923      7924      7925      7924      7926
      7927      7928      7927      7929      7930      7931      7930      7932
      7933      7934      7933      7935      7936      7937      7936      7938
      7939      7940      7939      7941      7942      7943      7942      7944
      7945      7946      7945      7947      7948      7949      7948      7950
      7951      7952      7951      7953      7954      7955      7954      7956
      7957      7958      7957      7959      7960      7961      7960      7962
      7963      7964      7963      7965      7966      7967      7966      7968
      7969      7970      7969      7971      7972      7973      7972      7974
      7975      7976      7975      7977      7978      7979      7978      7980
      7981      7982      7981      7983      7984      7985      7984      7986
      7987      7988      7987      7989      7990      7991      7990      7992
      7993      7994      7993      7995      7996      7997      7996      7998
      7999      8000      7999      8001      8002      8003      8002      8004
      8005      8006      8005      8007      8008      8009      8008      8010
      8011      8012      8011      8013      8014      8015      8014      8016
      8017      8018      8017      8019      8020      8021      8020      8022
      8023      8024      8023      8025      8026      8027      8026      8028
      8029      8030      8029      8031      8032      8033      8032      8034
      8035      8036      8035      8037      8038      8039      8038      8040
      8041      8042      8041      8043      8044      8045      8044      8046
      8047      8048      8047      8049      8050      8051      8050      8052
      8053      8054      8053      8055      8056      8057      8056      8058
      8059      8060      8059      8061      8062      8063      8062      8064
      8065      8066      8065      8067      8068      8069      8068      8070
      8071      8072      8071      8073      8074      8075      8074      8076
      8077      8078      8077      8079      8080      8081      8080      8082
      8083      8084      8083      8085      8086      8087      8086      8088
      8089      8090      8089      8091      8092      8093      8092      8094
      8095      8096      8095      8097      8098      8099      8098      8100
      8101      8102      8101      8103      8104      8105      8104      8106
      8107      8108      8107      8109      8110      8111      8110      8112
      8113      8114      8113      8115      8116      8117      8116      8118
      8119      8120      8119      8121      8122      8123      8122      8124
      8125      8126      8125      8127      8128      8129      8128      8130
      8131      8132      8131      8133      8134      8135      8134      8136
      8137      8138      8137      8139      8140      8141      8140      8142
      8143      8144      8143      8145      8146      8147      8146      8148
      8149      8150      8149      8151      8152      8153      8152      8154
      8155      8156      8155      8157      8158      8159      8158      8160
      8161      8162      8161      8163      8164      8165      8164      8166
      8167      8168      8167      8169      8170      8171      8170      8172
      8173      8174      8173      8175      8176      8177      8176      8178
      8179      8180      8179      8181      8182      8183      8182      8184
      8185      8186      8185      8187      8188      8189      8188      8190
      8191      8192      8191      8193      8194      8195      8194      8196
      8197      8198      8197      8199      8200      8201      8200      8202
      8203      8204      8203      8205      8206      8207      8206      8208
      8209      8210      8209      8211      8212      8213      8212      8214
      8215      8216      8215      8217      8218      8219      8218      8220
      8221      8222      8221      8223      8224      8225      8224      8226
      8227      8228      8227      8229      8230      8231      8230      8232
      8233      8234      8233      8235      8236      8237      8236      8238
      8239      8240      8239      8241      8242      8243      8242      8244
      8245      8246      8245      8247      8248      8249      8248      8250
      8251      8252      8251      8253      8254      8255      8254      8256
      8257      8258      8257      8259      8260      8261      8260      8262
      8263      8264      8263      8265      8266      8267      8266      8268
      8269      8270      8269      8271      8272      8273      8272      8274
      8275      8276      8275      8277      8278      8279      8278      8280
      8281      8282      8281      8283      8284      8285      8284      8286
      8287      8288      8287      8289      8290      8291      8290      8292
      8293      8294      8293      8295      8296      8297      8296      8298
      8299      8300      8299      8301      8302      8303      8302      8304
      8305      8306      8305      8307      8308      8309      8308      8310
      8311      8312      8311      8313      8314      8315      8314      8316
      8317      8318      8317      8319      8320      8321      8320      8322
      8323      8324      8323      8325      8326      8327      8326      8328
      8329      8330      8329      8331      8332      8333      8332      8334
      8335      8336      8335      8337      8338      8339      8338      8340
      8341      8342      8341      8343      8344      8345      8344      8346
      8347      8348      8347      8349      8350      8351      8350      8352
      8353      8354      8353      8355      8356      8357      8356      8358
      8359      8360      8359      8361      8362      8363      8362      8364
      8365      8366      8365      8367      8368      8369      8368      8370
      8371      8372      8371      8373      8374      8375      8374      8376
      8377      8378      8377      8379      8380      8381      8380      8382
      8383      8384      8383      8385      8386      8387      8386      8388
      8389      8390      8389      8391      8392      8393      8392      8394
      8395      8396      8395      8397      8398      8399      8398      8400
      8401      8402      8401      8403      8404      8405      8404      8406
      8407      8408      8407      8409      8410      8411      8410      8412
      8413      8414      8413      8415      8416      8417      8416      8418
      8419      8420      8419      8421      8422      8423      8422      8424
      8425      8426      8425      8427      8428      8429      8428      8430
      8431      8432      8431      8433      8434      8435      8434      8436
      8437      8438      8437      8439      8440      8441      8440      8442
      8443      8444      8443      8445      8446      8447      8446      8448
      8449      8450      8449      8451      8452      8453      8452      8454
      8455      8456      8455      8457      8458      8459      8458      8460
      8461      8462      8461      8463      8464      8465      8464      8466
      8467      8468      8467      8469      8470      8471      8470      8472
      8473      8474      8473      8475      8476      8477      8476      8478
      8479      8480      8479      8481      8482      8483      8482      8484
      8485      8486      8485      8487      8488      8489      8488      8490
      8491      8492      8491      8493      8494      8495      8494      8496
      8497      8498      8497      8499      8500      8501      8500      8502
      8503      8504      8503      8505      8506      8507      8506      8508
      8509      8510      8509      8511      8512      8513      8512      8514
      8515      8516      8515      8517      8518      8519      8518      8520
      8521      8522      8521      8523      8524      8525      8524      8526
      8527      8528      8527      8529      8530      8531      8530      8532
      8533      8534      8533      8535      8536      8537      8536      8538
      8539      8540      8539      8541      8542      8543      8542      8544
      8545      8546      8545      8547      8548      8549      8548      8550
      8551      8552      8551      8553      8554      8555      8554      8556
      8557      8558      8557      8559      8560      8561      8560      8562
      8563      8564      8563      8565      8566      8567      8566      8568
      8569      8570      8569      8571      8572      8573      8572      8574
      8575      8576      8575      8577      8578      8579      8578      8580
      8581      8582      8581      8583      8584      8585      8584      8586
      8587      8588      8587      8589      8590      8591      8590      8592
      8593      8594      8593      8595      8596      8597      8596      8598
      8599      8600      8599      8601      8602      8603      8602      8604
      8605      8606      8605      8607      8608      8609      8608      8610
      8611      8612      8611      8613      8614      8615      8614      8616
      8617      8618      8617      8619      8620      8621      8620      8622
      8623      8624      8623      8625      8626      8627      8626      8628
      8629      8630      8629      8631      8632      8633      8632      8634
      8635      8636      8635      8637      8638      8639      8638      8640
      8641      8642      8641      8643      8644      8645      8644      8646
      8647      8648      8647      8649      8650      8651      8650      8652
      8653      8654      8653      8655      8656      8657      8656      8658
      8659      8660      8659      8661      8662      8663      8662      8664
      8665      8666      8665      8667      8668      8669      8668      8670
      8671      8672      8671      8673      8674      8675      8674      8676
      8677      8678      8677      8679      8680      8681      8680      8682
      8683      8684      8683      8685      8686      8687      8686      8688
      8689      8690      8689      8691      8692      8693      8692      8694
      8695      8696      8695      8697      8698      8699      8698      8700
      8701      8702      8701      8703      8704      8705      8704      8706
      8707      8708      8707      8709      8710      8711      8710      8712
      8713      8714      8713      8715      8716      8717      8716      8718
      8719      8720      8719      8721      8722      8723      8722      8724
      8725      8726      8725      8727      8728      8729      8728      8730
      8731      8732      8731      8733      8734      8735      8734      8736
      8737      8738      8737      8739      8740      8741      8740      8742
      8743      8744      8743      8745      8746      8747      8746      8748
      8749      8750      8749      8751      8752      8753      8752      8754
      8755      8756      8755      8757      8758      8759      8758      8760
      8761      8762      8761      8763      8764      8765      8764      8766
      8767      8768      8767      8769      8770      8771      8770      8772
      8773      8774      8773      8775      8776      8777      8776      8778
      8779      8780      8779      8781      8782      8783      8782      8784
      8785      8786      8785      8787      8788      8789      8788      8790
      8791      8792      8791      8793      8794      8795      8794      8796
      8797      8798      8797      8799      8800      8801      8800      8802
      8803      8804      8803      8805      8806      8807      8806      8808
      8809      8810      8809      8811      8812      8813      8812      8814
      8815      8816      8815      8817      8818      8819      8818      8820
      8821      8822      8821      8823      8824      8825      8824      8826
      8827      8828      8827      8829      8830      8831      8830      8832
      8833      8834      8833      8835      8836      8837      8836      8838
      8839      8840      8839      8841      8842      8843      8842      8844
      8845      8846      8845      8847      8848      8849      8848      8850
      8851      8852      8851      8853      8854      8855      8854      8856
      8857      8858      8857      8859      8860      8861      8860      8862
      8863      8864      8863      8865      8866      8867      8866      8868
      8869      8870      8869      8871      8872      8873      8872      8874
      8875      8876      8875      8877      8878      8879      8878      8880
      8881      8882      8881      8883      8884      8885      8884      8886
      8887      8888      8887      8889      8890      8891      8890      8892
      8893      8894      8893      8895      8896      8897      8896      8898
      8899      8900      8899      8901      8902      8903      8902      8904
      8905      8906      8905      8907      8908      8909      8908      8910
      8911      8912      8911      8913      8914      8915      8914      8916
      8917      8918      8917      8919      8920      8921      8920      8922
      8923      8924      8923      8925      8926      8927      8926      8928
      8929      8930      8929      8931      8932      8933      8932      8934
      8935      8936      8935      8937      8938      8939      8938      8940
      8941      8942      8941      8943      8944      8945      8944      8946
      8947      8948      8947      8949      8950      8951      8950      8952
      8953      8954      8953      8955      8956      8957      8956      8958
      8959      8960      8959      8961      8962      8963      8962      8964
      8965      8966      8965      8967      8968      8969      8968      8970
      8971      8972      8971      8973      8974      8975      8974      8976
      8977      8978      8977      8979      8980      8981      8980      8982
      8983      8984      8983      8985      8986      8987      8986      8988
      8989      8990      8989      8991      8992      8993      8992      8994
      8995      8996      8995      8997      8998      8999      8998      9000
      9001      9002      9001      9003      9004      9005      9004      9006
      9007      9008      9007      9009      9010      9011      9010      9012
      9013      9014      9013      9015      9016      9017      9016      9018
      9019      9020      9019      9021      9022      9023      9022      9024
      9025      9026      9025      9027      9028      9029      9028      9030
      9031      9032      9031      9033      9034      9035      9034      9036
      9037      9038      9037      9039      9040      9041      9040      9042
      9043      9044      9043      9045      9046      9047      9046      9048
      9049      9050      9049      9051      9052      9053      9052      9054
      9055      9056      9055      9057      9058      9059      9058      9060
      9061      9062      9061      9063      9064      9065      9064      9066
      9067      9068      9067      9069      9070      9071      9070      9072
      9073      9074      9073      9075      9076      9077      9076      9078
      9079      9080      9079      9081      9082      9083      9082      9084
      9085      9086      9085      9087      9088      9089      9088      9090
      9091      9092      9091      9093      9094      9095      9094      9096
      9097      9098      9097      9099      9100      9101      9100      9102
      9103      9104      9103      9105      9106      9107      9106      9108
      9109      9110      9109      9111      9112      9113      9112      9114
      9115      9116      9115      9117      9118      9119      9118      9120
      9121      9122      9121      9123      9124      9125      9124      9126
      9127      9128      9127      9129      9130      9131      9130      9132
      9133      9134      9133      9135      9136      9137      9136      9138
      9139      9140      9139      9141      9142      9143      9142      9144
      9145      9146      9145      9147      9148      9149      9148      9150
      9151      9152      9151      9153      9154      9155      9154      9156
      9157      9158      9157      9159      9160      9161      9160      9162
      9163      9164      9163      9165      9166      9167      9166      9168
      9169      9170      9169      9171      9172      9173      9172      9174
      9175      9176      9175      9177      9178      9179      9178      9180
      9181      9182      9181      9183      9184      9185      9184      9186
      9187      9188      9187      9189      9190      9191      9190      9192
      9193      9194      9193      9195      9196      9197      9196      9198
      9199      9200      9199      9201      9202      9203      9202      9204
      9205      9206      9205      9207      9208      9209      9208      9210
      9211      9212      9211      9213      9214      9215      9214      9216
      9217      9218      9217      9219      9220      9221      9220      9222
      9223      9224      9223      9225      9226      9227      9226      9228
      9229      9230      9229      9231      9232      9233      9232      9234
      9235      9236      9235      9237      9238      9239      9238      9240
      9241      9242      9241      9243      9244      9245      9244      9246
      9247      9248      9247      9249      9250      9251      9250      9252
      9253      9254      9253      9255      9256      9257      9256      9258
      9259      9260      9259      9261      9262      9263      9262      9264
      9265      9266      9265      9267      9268      9269      9268      9270
      9271      9272      9271      9273      9274      9275      9274      9276
      9277      9278      9277      9279      9280      9281      9280      9282
      9283      9284      9283      9285      9286      9287      9286      9288
      9289      9290      9289      9291      9292      9293      9292      9294
      9295      9296      9295      9297      9298      9299      9298      9300
      9301      9302      9301      9303      9304      9305      9304      9306
      9307      9308      9307      9309      9310      9311      9310      9312
      9313      9314      9313      9315      9316      9317      9316      9318
      9319      9320      9319      9321      9322      9323      9322      9324
      9325      9326      9325      9327      9328      9329      9328      9330
      9331      9332      9331      9333      9334      9335      9334      9336
      9337      9338      9337      9339      9340      9341      9340      9342
      9343      9344      9343      9345      9346      9347      9346      9348
      9349      9350      9349      9351      9352      9353      9352      9354
      9355      9356      9355      9357      9358      9359      9358      9360
      9361      9362      9361      9363      9364      9365      9364      9366
      9367      9368      9367      9369      9370      9371      9370      9372
      9373      9374      9373      9375      9376      9377      9376      9378
      9379      9380      9379      9381      9382      9383      9382      9384
      9385      9386      9385      9387      9388      9389      9388      9390
      9391      9392      9391      9393      9394      9395      9394      9396
      9397      9398      9397      9399      9400      9401      9400      9402
      9403      9404      9403      9405      9406      9407      9406      9408
      9409      9410      9409      9411      9412      9413      9412      9414
      9415      9416      9415      9417      9418      9419      9418      9420
      9421      9422      9421      9423      9424      9425      9424      9426
      9427      9428      9427      9429      9430      9431      9430      9432
      9433      9434      9433      9435      9436      9437      9436      9438
      9439      9440      9439      9441      9442      9443      9442      9444
      9445      9446      9445      9447      9448      9449      9448      9450
      9451      9452      9451      9453      9454      9455      9454      9456
      9457      9458      9457      9459      9460      9461      9460      9462
      9463      9464      9463      9465      9466      9467      9466      9468
      9469      9470      9469      9471      9472      9473      9472      9474
      9475      9476      9475      9477      9478      9479      9478      9480
      9481      9482      9481      9483      9484      9485      9484      9486
      9487      9488      9487      9489      9490      9491      9490      9492
      9493      9494      9493      9495      9496      9497      9496      9498
      9499      9500      9499      9501      9502      9503      9502      9504
      9505      9506      9505      9507      9508      9509      9508      9510
      9511      9512      9511      9513      9514      9515      9514      9516
      9517      9518      9517      9519      9520      9521      9520      9522
      9523      9524      9523      9525      9526      9527      9526      9528
      9529      9530      9529      9531      9532      9533      9532      9534
      9535      9536      9535      9537      9538      9539      9538      9540
      9541      9542      9541      9543      9544      9545      9544      9546
      9547      9548      9547      9549      9550      9551      9550      9552
      9553      9554      9553      9555      9556      9557      9556      9558
      9559      9560      9559      9561      9562      9563      9562      9564
      9565      9566      9565      9567      9568      9569      9568      9570
      9571      9572      9571      9573      9574      9575      9574      9576
      9577      9578      9577      9579      9580      9581      9580      9582
      9583      9584      9583      9585      9586      9587      9586      9588
      9589      9590      9589      9591      9592      9593      9592      9594
      9595      9596      9595      9597      9598      9599      9598      9600
      9601      9602      9601      9603      9604      9605      9604      9606
      9607      9608      9607      9609      9610      9611      9610      9612
      9613      9614      9613      9615      9616      9617      9616      9618
      9619      9620      9619      9621      9622      9623      9622      9624
      9625      9626      9625      9627      9628      9629      9628      9630
      9631      9632      9631      9633      9634      9635      9634      9636
      9637      9638      9637      9639      9640      9641      9640      9642
      9643      9644      9643      9645      9646      9647      9646      9648
      9649      9650      9649      9651      9652      9653      9652      9654
      9655      9656      9655      9657      9658      9659      9658      9660
      9661      9662      9661      9663      9664      9665      9664      9666
      9667      9668      9667      9669      9670      9671      9670      9672
      9673      9674      9673      9675      9676      9677      9676      9678
      9679      9680      9679      9681      9682      9683      9682      9684
      9685      9686      9685      9687      9688      9689      9688      9690
      9691      9692      9691      9693      9694      9695      9694      9696
      9697      9698      9697      9699      9700      9701      9700      9702
      9703      9704      9703      9705      9706      9707      9706      9708
      9709      9710      9709      9711      9712      9713      9712      9714
      9715      9716      9715      9717      9718      9719      9718      9720
      9721      9722      9721      9723      9724      9725      9724      9726
      9727      9728      9727      9729      9730      9731      9730      9732
      9733      9734      9733      9735      9736      9737      9736      9738
      9739      9740      9739      9741      9742      9743      9742      9744
      9745      9746      9745      9747      9748      9749      9748      9750
      9751      9752      9751      9753      9754      9755      9754      9756
      9757      9758      9757      9759      9760      9761      9760      9762
      9763      9764      9763      9765      9766      9767      9766      9768
      9769      9770      9769      9771      9772      9773      9772      9774
      9775      9776      9775      9777      9778      9779      9778      9780
      9781      9782      9781      9783      9784      9785      9784      9786
      9787      9788      9787      9789      9790      9791      9790      9792
      9793      9794      9793      9795      9796      9797      9796      9798
      9799      9800      9799      9801      9802      9803      9802      9804
      9805      9806      9805      9807      9808      9809      9808      9810
      9811      9812      9811      9813      9814      9815      9814      9816
      9817      9818      9817      9819      9820      9821      9820      9822
      9823      9824      9823      9825      9826      9827      9826      9828
      9829      9830      9829      9831      9832      9833      9832      9834
      9835      9836      9835      9837      9838      9839      9838      9840
      9841      9842      9841      9843      9844      9845      9844      9846
      9847      9848      9847      9849      9850      9851      9850      9852
      9853      9854      9853      9855      9856      9857      9856      9858
      9859      9860      9859      9861      9862      9863      9862      9864
      9865      9866      9865      9867      9868      9869      9868      9870
      9871      9872      9871      9873      9874      9875      9874      9876
      9877      9878      9877      9879      9880      9881      9880      9882
      9883      9884      9883      9885      9886      9887      9886      9888
      9889      9890      9889      9891      9892      9893      9892      9894
      9895      9896      9895      9897      9898      9899      9898      9900
      9901      9902      9901      9903      9904      9905      9904      9906
      9907      9908      9907      9909      9910      9911      9910      9912
      9913      9914      9913      9915      9916      9917      9916      9918
      9919      9920      9919      9921      9922      9923      9922      9924
      9925      9926      9925      9927      9928      9929      9928      9930
      9931      9932      9931      9933      9934      9935      9934      9936
      9937      9938      9937      9939      9940      9941      9940      9942
      9943      9944      9943      9945      9946      9947      9946      9948
      9949      9950      9949      9951      9952      9953      9952      9954
      9955      9956      9955      9957      9958      9959      9958      9960
      9961      9962      9961      9963      9964      9965      9964      9966
      9967      9968      9967      9969      9970      9971      9970      9972
      9973      9974      9973      9975      9976      9977      9976      9978
      9979      9980      9979      9981      9982      9983      9982      9984
      9985      9986      9985      9987      9988      9989      9988      9990
      9991      9992      9991      9993      9994      9995      9994      9996
      9997      9998      9997      9999     10000     10001     10000     10002
     10003     10004     10003     10005     10006     10007     10006     10008
     10009     10010     10009     10011     10012     10013     10012     10014
     10015     10016     10015     10017     10018     10019     10018     10020
     10021     10022     10021     10023     10024     10025     10024     10026
     10027     10028     10027     10029     10030     10031     10030     10032
     10033     10034     10033     10035     10036     10037     10036     10038
     10039     10040     10039     10041     10042     10043     10042     10044
     10045     10046     10045     10047     10048     10049     10048     10050
     10051     10052     10051     10053     10054     10055     10054     10056
     10057     10058     10057     10059     10060     10061     10060     10062
     10063     10064     10063     10065     10066     10067     10066     10068
     10069     10070     10069     10071     10072     10073     10072     10074
     10075     10076     10075     10077     10078     10079     10078     10080
     10081     10082     10081     10083     10084     10085     10084     10086
     10087     10088     10087     10089     10090     10091     10090     10092
     10093     10094     10093     10095     10096     10097     10096     10098
     10099     10100     10099     10101     10102     10103     10102     10104
     10105     10106     10105     10107     10108     10109     10108     10110
     10111     10112     10111     10113     10114     10115     10114     10116
     10117     10118     10117     10119     10120     10121     10120     10122
     10123     10124     10123     10125     10126     10127     10126     10128
     10129     10130     10129     10131     10132     10133     10132     10134
     10135     10136     10135     10137     10138     10139     10138     10140
     10141     10142     10141     10143     10144     10145     10144     10146
     10147     10148     10147     10149     10150     10151     10150     10152
     10153     10154     10153     10155     10156     10157     10156     10158
     10159     10160     10159     10161     10162     10163     10162     10164
     10165     10166     10165     10167     10168     10169     10168     10170
     10171     10172     10171     10173     10174     10175     10174     10176
     10177     10178     10177     10179     10180     10181     10180     10182
     10183     10184     10183     10185     10186     10187     10186     10188
     10189     10190     10189     10191     10192     10193     10192     10194
     10195     10196     10195     10197     10198     10199     10198     10200
     10201     10202     10201     10203     10204     10205     10204     10206
     10207     10208     10207     10209     10210     10211     10210     10212
     10213     10214     10213     10215     10216     10217     10216     10218
     10219     10220     10219     10221     10222     10223     10222     10224
     10225     10226     10225     10227     10228     10229     10228     10230
     10231     10232     10231     10233     10234     10235     10234     10236
     10237     10238     10237     10239     10240     10241     10240     10242
     10243     10244     10243     10245     10246     10247     10246     10248
     10249     10250     10249     10251     10252     10253     10252     10254
     10255     10256     10255     10257     10258     10259     10258     10260
     10261     10262     10261     10263     10264     10265     10264     10266
     10267     10268     10267     10269     10270     10271     10270     10272
     10273     10274     10273     10275     10276     10277     10276     10278
     10279     10280     10279     10281     10282     10283     10282     10284
     10285     10286     10285     10287     10288     10289     10288     10290
     10291     10292     10291     10293     10294     10295     10294     10296
     10297     10298     10297     10299     10300     10301     10300     10302
     10303     10304     10303     10305     10306     10307     10306     10308
     10309     10310     10309     10311     10312     10313     10312     10314
     10315     10316     10315     10317     10318     10319     10318     10320
     10321     10322     10321     10323     10324     10325     10324     10326
     10327     10328     10327     10329     10330     10331     10330     10332
     10333     10334     10333     10335     10336     10337     10336     10338
     10339     10340     10339     10341     10342     10343     10342     10344
     10345     10346     10345     10347     10348     10349     10348     10350
     10351     10352     10351     10353     10354     10355     10354     10356
     10357     10358     10357     10359     10360     10361     10360     10362
     10363     10364     10363     10365     10366     10367     10366     10368
     10369     10370     10369     10371     10372     10373     10372     10374
     10375     10376     10375     10377     10378     10379     10378     10380
     10381     10382     10381     10383     10384     10385     10384     10386
     10387     10388     10387     10389     10390     10391     10390     10392
     10393     10394     10393     10395     10396     10397     10396     10398
     10399     10400     10399     10401     10402     10403     10402     10404
     10405     10406     10405     10407     10408     10409     10408     10410
     10411     10412     10411     10413     10414     10415     10414     10416
     10417     10418     10417     10419     10420     10421     10420     10422
     10423     10424     10423     10425     10426     10427     10426     10428
     10429     10430     10429     10431     10432     10433     10432     10434
     10435     10436     10435     10437     10438     10439     10438     10440
     10441     10442     10441     10443     10444     10445     10444     10446
     10447     10448     10447     10449     10450     10451     10450     10452
     10453     10454     10453     10455     10456     10457     10456     10458
     10459     10460     10459     10461     10462     10463     10462     10464
     10465     10466     10465     10467     10468     10469     10468     10470
     10471     10472     10471     10473     10474     10475     10474     10476
     10477     10478     10477     10479     10480     10481     10480     10482
     10483     10484     10483     10485     10486     10487     10486     10488
     10489     10490     10489     10491     10492     10493     10492     10494
     10495     10496     10495     10497     10498     10499     10498     10500
     10501     10502     10501     10503     10504     10505     10504     10506
     10507     10508     10507     10509     10510     10511     10510     10512
     10513     10514     10513     10515     10516     10517     10516     10518
     10519     10520     10519     10521     10522     10523     10522     10524
     10525     10526     10525     10527     10528     10529     10528     10530
     10531     10532     10531     10533     10534     10535     10534     10536
     10537     10538     10537     10539     10540     10541     10540     10542
     10543     10544     10543     10545     10546     10547     10546     10548
     10549     10550     10549     10551     10552     10553     10552     10554
     10555     10556     10555     10557     10558     10559     10558     10560
     10561     10562     10561     10563     10564     10565     10564     10566
     10567     10568     10567     10569     10570     10571     10570     10572
     10573     10574     10573     10575     10576     10577     10576     10578
     10579     10580     10579     10581     10582     10583     10582     10584
     10585     10586     10585     10587     10588     10589     10588     10590
     10591     10592     10591     10593     10594     10595     10594     10596
     10597     10598     10597     10599     10600     10601     10600     10602
     10603     10604     10603     10605     10606     10607     10606     10608
     10609     10610     10609     10611     10612     10613     10612     10614
     10615     10616     10615     10617     10618     10619     10618     10620
     10621     10622     10621     10623     10624     10625     10624     10626
     10627     10628     10627     10629     10630     10631     10630     10632
     10633     10634     10633     10635     10636     10637     10636     10638
     10639     10640     10639     10641     10642     10643     10642     10644
     10645     10646     10645     10647     10648     10649     10648     10650
     10651     10652     10651     10653     10654     10655     10654     10656
     10657     10658     10657     10659     10660     10661     10660     10662
     10663     10664     10663     10665     10666     10667     10666     10668
     10669     10670     10669     10671     10672     10673     10672     10674
     10675     10676     10675     10677     10678     10679     10678     10680
     10681     10682     10681     10683     10684     10685     10684     10686
     10687     10688     10687     10689     10690     10691     10690     10692
     10693     10694     10693     10695     10696     10697     10696     10698
     10699     10700     10699     10701     10702     10703     10702     10704
     10705     10706     10705     10707     10708     10709     10708     10710
     10711     10712     10711     10713     10714     10715     10714     10716
     10717     10718     10717     10719     10720     10721     10720     10722
     10723     10724     10723     10725     10726     10727     10726     10728
     10729     10730     10729     10731     10732     10733     10732     10734
     10735     10736     10735     10737     10738     10739     10738     10740
     10741     10742     10741     10743     10744     10745     10744     10746
     10747     10748     10747     10749     10750     10751     10750     10752
     10753     10754     10753     10755     10756     10757     10756     10758
     10759     10760     10759     10761     10762     10763     10762     10764
     10765     10766     10765     10767     10768     10769     10768     10770
     10771     10772     10771     10773     10774     10775     10774     10776
     10777     10778     10777     10779     10780     10781     10780     10782
     10783     10784     10783     10785     10786     10787     10786     10788
     10789     10790     10789     10791     10792     10793     10792     10794
     10795     10796     10795     10797     10798     10799     10798     10800
     10801     10802     10801     10803     10804     10805     10804     10806
     10807     10808     10807     10809     10810     10811     10810     10812
     10813     10814     10813     10815     10816     10817     10816     10818
     10819     10820     10819     10821     10822     10823     10822     10824
     10825     10826     10825     10827     10828     10829     10828     10830
     10831     10832     10831     10833     10834     10835     10834     10836
     10837     10838     10837     10839     10840     10841     10840     10842
     10843     10844     10843     10845     10846     10847     10846     10848
     10849     10850     10849     10851     10852     10853     10852     10854
     10855     10856     10855     10857     10858     10859     10858     10860
     10861     10862     10861     10863     10864     10865     10864     10866
     10867     10868     10867     10869     10870     10871     10870     10872
     10873     10874     10873     10875     10876     10877     10876     10878
     10879     10880     10879     10881     10882     10883     10882     10884
     10885     10886     10885     10887     10888     10889     10888     10890
     10891     10892     10891     10893     10894     10895     10894     10896
     10897     10898     10897     10899     10900     10901     10900     10902
     10903     10904     10903     10905     10906     10907     10906     10908
     10909     10910     10909     10911     10912     10913     10912     10914
     10915     10916     10915     10917     10918     10919     10918     10920
     10921     10922     10921     10923     10924     10925     10924     10926
     10927     10928     10927     10929     10930     10931     10930     10932
     10933     10934     10933     10935     10936     10937     10936     10938
     10939     10940     10939     10941     10942     10943     10942     10944
     10945     10946     10945     10947     10948     10949     10948     10950
     10951     10952     10951     10953     10954     10955     10954     10956
     10957     10958     10957     10959     10960     10961     10960     10962
     10963     10964     10963     10965     10966     10967     10966     10968
     10969     10970     10969     10971     10972     10973     10972     10974
     10975     10976     10975     10977     10978     10979     10978     10980
     10981     10982     10981     10983     10984     10985     10984     10986
     10987     10988     10987     10989     10990     10991     10990     10992
     10993     10994     10993     10995     10996     10997     10996     10998
     10999     11000     10999     11001     11002     11003     11002     11004
     11005     11006     11005     11007     11008     11009     11008     11010
     11011     11012     11011     11013     11014     11015     11014     11016
     11017     11018     11017     11019     11020     11021     11020     11022
     11023     11024     11023     11025     11026     11027     11026     11028
     11029     11030     11029     11031     11032     11033     11032     11034
     11035     11036     11035     11037     11038     11039     11038     11040
     11041     11042     11041     11043     11044     11045     11044     11046
     11047     11048     11047     11049     11050     11051     11050     11052
     11053     11054     11053     11055     11056     11057     11056     11058
     11059     11060     11059     11061     11062     11063     11062     11064
     11065     11066     11065     11067     11068     11069     11068     11070
     11071     11072     11071     11073     11074     11075     11074     11076
     11077     11078     11077     11079     11080     11081     11080     11082
     11083     11084     11083     11085     11086     11087     11086     11088
     11089     11090     11089     11091     11092     11093     11092     11094
     11095     11096     11095     11097     11098     11099     11098     11100
     11101     11102     11101     11103     11104     11105     11104     11106
     11107     11108     11107     11109     11110     11111     11110     11112
     11113     11114     11113     11115     11116     11117     11116     11118
     11119     11120     11119     11121     11122     11123     11122     11124
     11125     11126     11125     11127     11128     11129     11128     11130
     11131     11132     11131     11133     11134     11135     11134     11136
     11137     11138     11137     11139     11140     11141     11140     11142
     11143     11144     11143     11145     11146     11147     11146     11148
     11149     11150     11149     11151     11152     11153     11152     11154
     11155     11156     11155     11157     11158     11159     11158     11160
     11161     11162     11161     11163     11164     11165     11164     11166
     11167     11168     11167     11169     11170     11171     11170     11172
     11173     11174     11173     11175     11176     11177     11176     11178
     11179     11180     11179     11181     11182     11183     11182     11184
     11185     11186     11185     11187     11188     11189     11188     11190
     11191     11192     11191     11193     11194     11195     11194     11196
     11197     11198     11197     11199     11200     11201     11200     11202
     11203     11204     11203     11205     11206     11207     11206     11208
     11209     11210     11209     11211     11212     11213     11212     11214
     11215     11216     11215     11217     11218     11219     11218     11220
     11221     11222     11221     11223     11224     11225     11224     11226
     11227     11228     11227     11229     11230     11231     11230     11232
     11233     11234     11233     11235     11236     11237     11236     11238
     11239     11240     11239     11241     11242     11243     11242     11244
     11245     11246     11245     11247     11248     11249     11248     11250
     11251     11252     11251     11253     11254     11255     11254     11256
     11257     11258     11257     11259     11260     11261     11260     11262
     11263     11264     11263     11265     11266     11267     11266     11268
     11269     11270     11269     11271     11272     11273     11272     11274
     11275     11276     11275     11277     11278     11279     11278     11280
     11281     11282     11281     11283     11284     11285     11284     11286
     11287     11288     11287     11289     11290     11291     11290     11292
     11293     11294     11293     11295     11296     11297     11296     11298
     11299     11300     11299     11301     11302     11303     11302     11304
     11305     11306     11305     11307     11308     11309     11308     11310
     11311     11312     11311     11313     11314     11315     11314     11316
     11317     11318     11317     11319     11320     11321     11320     11322
     11323     11324     11323     11325     11326     11327     11326     11328
     11329     11330     11329     11331     11332     11333     11332     11334
     11335     11336     11335     11337     11338     11339     11338     11340
     11341     11342     11341     11343     11344     11345     11344     11346
     11347     11348     11347     11349     11350     11351     11350     11352
     11353     11354     11353     11355     11356     11357     11356     11358
     11359     11360     11359     11361     11362     11363     11362     11364
     11365     11366     11365     11367     11368     11369     11368     11370
     11371     11372     11371     11373     11374     11375     11374     11376
     11377     11378     11377     11379     11380     11381     11380     11382
     11383     11384     11383     11385     11386     11387     11386     11388
     11389     11390     11389     11391     11392     11393     11392     11394
     11395     11396     11395     11397     11398     11399     11398     11400
     11401     11402     11401     11403     11404     11405     11404     11406
     11407     11408     11407     11409     11410     11411     11410     11412
     11413     11414     11413     11415     11416     11417     11416     11418
     11419     11420     11419     11421     11422     11423     11422     11424
     11425     11426     11425     11427     11428     11429     11428     11430
     11431     11432     11431     11433     11434     11435     11434     11436
     11437     11438     11437     11439     11440     11441     11440     11442
     11443     11444     11443     11445     11446     11447     11446     11448
     11449     11450     11449     11451     11452     11453     11452     11454
     11455     11456     11455     11457     11458     11459     11458     11460
     11461     11462     11461     11463     11464     11465     11464     11466
     11467     11468     11467     11469     11470     11471     11470     11472
     11473     11474     11473     11475     11476     11477     11476     11478
     11479     11480     11479     11481     11482     11483     11482     11484
     11485     11486     11485     11487     11488     11489     11488     11490
     11491     11492     11491     11493     11494     11495     11494     11496
     11497     11498     11497     11499     11500     11501     11500     11502
     11503     11504     11503     11505     11506     11507     11506     11508
     11509     11510     11509     11511     11512     11513     11512     11514
     11515     11516     11515     11517     11518     11519     11518     11520
     11521     11522     11521     11523     11524     11525     11524     11526
     11527     11528     11527     11529     11530     11531     11530     11532
     11533     11534     11533     11535     11536     11537     11536     11538
     11539     11540     11539     11541     11542     11543     11542     11544
     11545     11546     11545     11547     11548     11549     11548     11550
     11551     11552     11551     11553     11554     11555     11554     11556
     11557     11558     11557     11559     11560     11561     11560     11562
     11563     11564     11563     11565     11566     11567     11566     11568
     11569     11570     11569     11571     11572     11573     11572     11574
     11575     11576     11575     11577     11578     11579     11578     11580
     11581     11582     11581     11583     11584     11585     11584     11586
     11587     11588     11587     11589     11590     11591     11590     11592
     11593     11594     11593     11595     11596     11597     11596     11598
     11599     11600     11599     11601     11602     11603     11602     11604
     11605     11606     11605     11607     11608     11609     11608     11610
     11611     11612     11611     11613     11614     11615     11614     11616
     11617     11618     11617     11619     11620     11621     11620     11622
     11623     11624     11623     11625     11626     11627     11626     11628
     11629     11630     11629     11631     11632     11633     11632     11634
     11635     11636     11635     11637     11638     11639     11638     11640
     11641     11642     11641     11643     11644     11645     11644     11646
     11647     11648     11647     11649     11650     11651     11650     11652
     11653     11654     11653     11655     11656     11657     11656     11658
     11659     11660     11659     11661     11662     11663     11662     11664
     11665     11666     11665     11667     11668     11669     11668     11670
     11671     11672     11671     11673     11674     11675     11674     11676
     11677     11678     11677     11679     11680     11681     11680     11682
     11683     11684     11683     11685     11686     11687     11686     11688
     11689     11690     11689     11691     11692     11693     11692     11694
     11695     11696     11695     11697     11698     11699     11698     11700
     11701     11702     11701     11703     11704     11705     11704     11706
     11707     11708     11707     11709     11710     11711     11710     11712
     11713     11714     11713     11715     11716     11717     11716     11718
     11719     11720     11719     11721     11722     11723     11722     11724
     11725     11726     11725     11727     11728     11729     11728     11730
     11731     11732     11731     11733     11734     11735     11734     11736
     11737     11738     11737     11739     11740     11741     11740     11742
     11743     11744     11743     11745     11746     11747     11746     11748
     11749     11750     11749     11751     11752     11753     11752     11754
     11755     11756     11755     11757     11758     11759     11758     11760
     11761     11762     11761     11763     11764     11765     11764     11766
     11767     11768     11767     11769     11770     11771     11770     11772
     11773     11774     11773     11775     11776     11777     11776     11778
     11779     11780     11779     11781     11782     11783     11782     11784
     11785     11786     11785     11787     11788     11789     11788     11790
     11791     11792     11791     11793     11794     11795     11794     11796
     11797     11798     11797     11799     11800     11801     11800     11802
     11803     11804     11803     11805     11806     11807     11806     11808
     11809     11810     11809     11811     11812     11813     11812     11814
     11815     11816     11815     11817     11818     11819     11818     11820
     11821     11822     11821     11823     11824     11825     11824     11826
     11827     11828     11827     11829     11830     11831     11830     11832
     11833     11834     11833     11835     11836     11837     11836     11838
     11839     11840     11839     11841     11842     11843     11842     11844
     11845     11846     11845     11847     11848     11849     11848     11850
     11851     11852     11851     11853     11854     11855     11854     11856
     11857     11858     11857     11859     11860     11861     11860     11862
     11863     11864     11863     11865     11866     11867     11866     11868
     11869     11870     11869     11871     11872     11873     11872     11874
     11875     11876     11875     11877     11878     11879     11878     11880
     11881     11882     11881     11883     11884     11885     11884     11886
     11887     11888     11887     11889     11890     11891     11890     11892
     11893     11894     11893     11895     11896     11897     11896     11898
     11899     11900     11899     11901     11902     11903     11902     11904
     11905     11906     11905     11907     11908     11909     11908     11910
     11911     11912     11911     11913     11914     11915     11914     11916
     11917     11918     11917     11919     11920     11921     11920     11922
     11923     11924     11923     11925     11926     11927     11926     11928
     11929     11930     11929     11931     11932     11933     11932     11934
     11935     11936     11935     11937     11938     11939     11938     11940
     11941     11942     11941     11943     11944     11945     11944     11946
     11947     11948     11947     11949     11950     11951     11950     11952
     11953     11954     11953     11955     11956     11957     11956     11958
     11959     11960     11959     11961     11962     11963     11962     11964
     11965     11966     11965     11967     11968     11969     11968     11970
     11971     11972     11971     11973     11974     11975     11974     11976
     11977     11978     11977     11979     11980     11981     11980     11982
     11983     11984     11983     11985     11986     11987     11986     11988
     11989     11990     11989     11991     11992     11993     11992     11994
     11995     11996     11995     11997     11998     11999     11998     12000
     12001     12002     12001     12003     12004     12005     12004     12006
     12007     12008     12007     12009     12010     12011     12010     12012
     12013     12014     12013     12015     12016     12017     12016     12018
     12019     12020     12019     12021     12022     12023     12022     12024
     12025     12026     12025     12027     12028     12029     12028     12030
     12031     12032     12031     12033     12034     12035     12034     12036
     12037     12038     12037     12039     12040     12041     12040     12042
     12043     12044     12043     12045     12046     12047     12046     12048
     12049     12050     12049     12051     12052     12053     12052     12054
     12055     12056     12055     12057     12058     12059     12058     12060
     12061     12062     12061     12063     12064     12065     12064     12066
     12067     12068     12067     12069     12070     12071     12070     12072
     12073     12074     12073     12075     12076     12077     12076     12078
     12079     12080     12079     12081     12082     12083     12082     12084
     12085     12086     12085     12087     12088     12089     12088     12090
     12091     12092     12091     12093     12094     12095     12094     12096
     12097     12098     12097     12099     12100     12101     12100     12102
     12103     12104     12103     12105     12106     12107     12106     12108
     12109     12110     12109     12111     12112     12113     12112     12114
     12115     12116     12115     12117     12118     12119     12118     12120
     12121     12122     12121     12123     12124     12125     12124     12126
     12127     12128     12127     12129     12130     12131     12130     12132
     12133     12134     12133     12135     12136     12137     12136     12138
     12139     12140     12139     12141     12142     12143     12142     12144
     12145     12146     12145     12147     12148     12149     12148     12150
     12151     12152     12151     12153     12154     12155     12154     12156
     12157     12158     12157     12159     12160     12161     12160     12162
     12163     12164     12163     12165     12166     12167     12166     12168
     12169     12170     12169     12171     12172     12173     12172     12174
     12175     12176     12175     12177     12178     12179     12178     12180
     12181     12182     12181     12183     12184     12185     12184     12186
     12187     12188     12187     12189     12190     12191     12190     12192
     12193     12194     12193     12195     12196     12197     12196     12198
     12199     12200     12199     12201     12202     12203     12202     12204
     12205     12206     12205     12207     12208     12209     12208     12210
     12211     12212     12211     12213     12214     12215     12214     12216
     12217     12218     12217     12219     12220     12221     12220     12222
     12223     12224     12223     12225     12226     12227     12226     12228
     12229     12230     12229     12231     12232     12233     12232     12234
     12235     12236     12235     12237     12238     12239     12238     12240
     12241     12242     12241     12243     12244     12245     12244     12246
     12247     12248     12247     12249     12250     12251     12250     12252
     12253     12254     12253     12255     12256     12257     12256     12258
     12259     12260     12259     12261     12262     12263     12262     12264
     12265     12266     12265     12267     12268     12269     12268     12270
     12271     12272     12271     12273     12274     12275     12274     12276
     12277     12278     12277     12279     12280     12281     12280     12282
     12283     12284     12283     12285     12286     12287     12286     12288
     12289     12290     12289     12291     12292     12293     12292     12294
     12295     12296     12295     12297     12298     12299     12298     12300
     12301     12302     12301     12303     12304     12305     12304     12306
     12307     12308     12307     12309     12310     12311     12310     12312
     12313     12314     12313     12315     12316     12317     12316     12318
     12319     12320     12319     12321     12322     12323     12322     12324
     12325     12326     12325     12327     12328     12329     12328     12330
     12331     12332     12331     12333     12334     12335     12334     12336
     12337     12338     12337     12339     12340     12341     12340     12342
     12343     12344     12343     12345     12346     12347     12346     12348
     12349     12350     12349     12351     12352     12353     12352     12354
     12355     12356     12355     12357     12358     12359     12358     12360
     12361     12362     12361     12363     12364     12365     12364     12366
     12367     12368     12367     12369     12370     12371     12370     12372
     12373     12374     12373     12375     12376     12377     12376     12378
     12379     12380     12379     12381     12382     12383     12382     12384
     12385     12386     12385     12387     12388     12389     12388     12390
     12391     12392     12391     12393     12394     12395     12394     12396
     12397     12398     12397     12399     12400     12401     12400     12402
     12403     12404     12403     12405     12406     12407     12406     12408
     12409     12410     12409     12411     12412     12413     12412     12414
     12415     12416     12415     12417     12418     12419     12418     12420
     12421     12422     12421     12423     12424     12425     12424     12426
     12427     12428     12427     12429     12430     12431     12430     12432
     12433     12434     12433     12435     12436     12437     12436     12438
     12439     12440     12439     12441     12442     12443     12442     12444
     12445     12446     12445     12447     12448     12449     12448     12450
     12451     12452     12451     12453     12454     12455     12454     12456
     12457     12458     12457     12459     12460     12461     12460     12462
     12463     12464     12463     12465     12466     12467     12466     12468
     12469     12470     12469     12471     12472     12473     12472     12474
     12475     12476     12475     12477     12478     12479     12478     12480
     12481     12482     12481     12483     12484     12485     12484     12486
     12487     12488     12487     12489     12490     12491     12490     12492
     12493     12494     12493     12495     12496     12497     12496     12498
     12499     12500     12499     12501     12502     12503     12502     12504
     12505     12506     12505     12507     12508     12509     12508     12510
     12511     12512     12511     12513     12514     12515     12514     12516
     12517     12518     12517     12519     12520     12521     12520     12522
     12523     12524     12523     12525     12526     12527     12526     12528
     12529     12530     12529     12531     12532     12533     12532     12534
     12535     12536     12535     12537     12538     12539     12538     12540
     12541     12542     12541     12543     12544     12545     12544     12546
     12547     12548     12547     12549     12550     12551     12550     12552
     12553     12554     12553     12555     12556     12557     12556     12558
     12559     12560     12559     12561     12562     12563     12562     12564
     12565     12566     12565     12567     12568     12569     12568     12570
     12571     12572     12571     12573     12574     12575     12574     12576
     12577     12578     12577     12579     12580     12581     12580     12582
     12583     12584     12583     12585     12586     12587     12586     12588
     12589     12590     12589     12591     12592     12593     12592     12594
     12595     12596     12595     12597     12598     12599     12598     12600
     12601     12602     12601     12603     12604     12605     12604     12606
     12607     12608     12607     12609     12610     12611     12610     12612
     12613     12614     12613     12615     12616     12617     12616     12618
     12619     12620     12619     12621     12622     12623     12622     12624
     12625     12626     12625     12627     12628     12629     12628     12630
     12631     12632     12631     12633     12634     12635     12634     12636
     12637     12638     12637     12639     12640     12641     12640     12642
     12643     12644     12643     12645     12646     12647     12646     12648
     12649     12650     12649     12651     12652     12653     12652     12654
     12655     12656     12655     12657     12658     12659     12658     12660
     12661     12662     12661     12663     12664     12665     12664     12666
     12667     12668     12667     12669     12670     12671     12670     12672
     12673     12674     12673     12675     12676     12677     12676     12678
     12679     12680     12679     12681     12682     12683     12682     12684
     12685     12686     12685     12687     12688     12689     12688     12690
     12691     12692     12691     12693     12694     12695     12694     12696
     12697     12698     12697     12699     12700     12701     12700     12702
     12703     12704     12703     12705     12706     12707     12706     12708
     12709     12710     12709     12711     12712     12713     12712     12714
     12715     12716     12715     12717     12718     12719     12718     12720
     12721     12722     12721     12723     12724     12725     12724     12726
     12727     12728     12727     12729     12730     12731     12730     12732
     12733     12734     12733     12735     12736     12737     12736     12738
     12739     12740     12739     12741     12742     12743     12742     12744
     12745     12746     12745     12747     12748     12749     12748     12750
     12751     12752     12751     12753     12754     12755     12754     12756
     12757     12758     12757     12759     12760     12761     12760     12762
     12763     12764     12763     12765     12766     12767     12766     12768
     12769     12770     12769     12771     12772     12773     12772     12774
     12775     12776     12775     12777     12778     12779     12778     12780
     12781     12782     12781     12783     12784     12785     12784     12786
     12787     12788     12787     12789     12790     12791     12790     12792
     12793     12794     12793     12795     12796     12797     12796     12798
     12799     12800     12799     12801     12802     12803     12802     12804
     12805     12806     12805     12807     12808     12809     12808     12810
     12811     12812     12811     12813     12814     12815     12814     12816
     12817     12818     12817     12819     12820     12821     12820     12822
     12823     12824     12823     12825     12826     12827     12826     12828
     12829     12830     12829     12831     12832     12833     12832     12834
     12835     12836     12835     12837     12838     12839     12838     12840
     12841     12842     12841     12843     12844     12845     12844     12846
     12847     12848     12847     12849     12850     12851     12850     12852
     12853     12854     12853     12855     12856     12857     12856     12858
     12859     12860     12859     12861     12862     12863     12862     12864
     12865     12866     12865     12867     12868     12869     12868     12870
     12871     12872     12871     12873     12874     12875     12874     12876
     12877     12878     12877     12879     12880     12881     12880     12882
     12883     12884     12883     12885     12886     12887     12886     12888
     12889     12890     12889     12891     12892     12893     12892     12894
     12895     12896     12895     12897     12898     12899     12898     12900
     12901     12902     12901     12903     12904     12905     12904     12906
     12907     12908     12907     12909     12910     12911     12910     12912
     12913     12914     12913     12915     12916     12917     12916     12918
     12919     12920     12919     12921     12922     12923     12922     12924
     12925     12926     12925     12927     12928     12929     12928     12930
     12931     12932     12931     12933     12934     12935     12934     12936
     12937     12938     12937     12939     12940     12941     12940     12942
     12943     12944     12943     12945     12946     12947     12946     12948
     12949     12950     12949     12951     12952     12953     12952     12954
     12955     12956     12955     12957     12958     12959     12958     12960
     12961     12962     12961     12963     12964     12965     12964     12966
     12967     12968     12967     12969     12970     12971     12970     12972
     12973     12974     12973     12975     12976     12977     12976     12978
     12979     12980     12979     12981     12982     12983     12982     12984
     12985     12986     12985     12987     12988     12989     12988     12990
     12991     12992     12991     12993     12994     12995     12994     12996
     12997     12998     12997     12999     13000     13001     13000     13002
     13003     13004     13003     13005     13006     13007     13006     13008
     13009     13010     13009     13011     13012     13013     13012     13014
     13015     13016     13015     13017     13018     13019     13018     13020
     13021     13022     13021     13023     13024     13025     13024     13026
     13027     13028     13027     13029     13030     13031     13030     13032
     13033     13034     13033     13035     13036     13037     13036     13038
     13039     13040     13039     13041     13042     13043     13042     13044
     13045     13046     13045     13047     13048     13049     13048     13050
     13051     13052     13051     13053     13054     13055     13054     13056
     13057     13058     13057     13059     13060     13061     13060     13062
     13063     13064     13063     13065     13066     13067     13066     13068
     13069     13070     13069     13071     13072     13073     13072     13074
     13075     13076     13075     13077     13078     13079     13078     13080
     13081     13082     13081     13083     13084     13085     13084     13086
     13087     13088     13087     13089     13090     13091     13090     13092
     13093     13094     13093     13095     13096     13097     13096     13098
     13099     13100     13099     13101     13102     13103     13102     13104
     13105     13106     13105     13107     13108     13109     13108     13110
     13111     13112     13111     13113     13114     13115     13114     13116
     13117     13118     13117     13119     13120     13121     13120     13122
     13123     13124     13123     13125     13126     13127     13126     13128
     13129     13130     13129     13131     13132     13133     13132     13134
     13135     13136     13135     13137     13138     13139     13138     13140
     13141     13142     13141     13143     13144     13145     13144     13146
     13147     13148     13147     13149     13150     13151     13150     13152
     13153     13154     13153     13155     13156     13157     13156     13158
     13159     13160     13159     13161     13162     13163     13162     13164
     13165     13166     13165     13167     13168     13169     13168     13170
     13171     13172     13171     13173     13174     13175     13174     13176
     13177     13178     13177     13179     13180     13181     13180     13182
     13183     13184     13183     13185     13186     13187     13186     13188
     13189     13190     13189     13191     13192     13193     13192     13194
     13195     13196     13195     13197     13198     13199     13198     13200
     13201     13202     13201     13203     13204     13205     13204     13206
     13207     13208     13207     13209     13210     13211     13210     13212
     13213     13214     13213     13215     13216     13217     13216     13218
     13219     13220     13219     13221     13222     13223     13222     13224
     13225     13226     13225     13227     13228     13229     13228     13230
     13231     13232     13231     13233     13234     13235     13234     13236
     13237     13238     13237     13239     13240     13241     13240     13242
     13243     13244     13243     13245     13246     13247     13246     13248
     13249     13250     13249     13251     13252     13253     13252     13254
     13255     13256     13255     13257     13258     13259     13258     13260
     13261     13262     13261     13263     13264     13265     13264     13266
     13267     13268     13267     13269     13270     13271     13270     13272
     13273     13274     13273     13275     13276     13277     13276     13278
     13279     13280     13279     13281     13282     13283     13282     13284
     13285     13286     13285     13287     13288     13289     13288     13290
     13291     13292     13291     13293     13294     13295     13294     13296
     13297     13298     13297     13299     13300     13301     13300     13302
     13303     13304     13303     13305     13306     13307     13306     13308
     13309     13310     13309     13311     13312     13313     13312     13314
     13315     13316     13315     13317     13318     13319     13318     13320
     13321     13322     13321     13323     13324     13325     13324     13326
     13327     13328     13327     13329     13330     13331     13330     13332
     13333     13334     13333     13335     13336     13337     13336     13338
     13339     13340     13339     13341     13342     13343     13342     13344
     13345     13346     13345     13347     13348     13349     13348     13350
     13351     13352     13351     13353     13354     13355     13354     13356
     13357     13358     13357     13359     13360     13361     13360     13362
     13363     13364     13363     13365     13366     13367     13366     13368
     13369     13370     13369     13371     13372     13373     13372     13374
     13375     13376     13375     13377     13378     13379     13378     13380
     13381     13382     13381     13383     13384     13385     13384     13386
     13387     13388     13387     13389     13390     13391     13390     13392
     13393     13394     13393     13395     13396     13397     13396     13398
     13399     13400     13399     13401     13402     13403     13402     13404
     13405     13406     13405     13407     13408     13409     13408     13410
     13411     13412     13411     13413     13414     13415     13414     13416
     13417     13418     13417     13419     13420     13421     13420     13422
     13423     13424     13423     13425     13426     13427     13426     13428
     13429     13430     13429     13431     13432     13433     13432     13434
     13435     13436     13435     13437     13438     13439     13438     13440
     13441     13442     13441     13443     13444     13445     13444     13446
     13447     13448     13447     13449     13450     13451     13450     13452
     13453     13454     13453     13455     13456     13457     13456     13458
     13459     13460     13459     13461     13462     13463     13462     13464
     13465     13466     13465     13467     13468     13469     13468     13470
     13471     13472     13471     13473     13474     13475     13474     13476
     13477     13478     13477     13479     13480     13481     13480     13482
     13483     13484     13483     13485     13486     13487     13486     13488
     13489     13490     13489     13491     13492     13493     13492     13494
     13495     13496     13495     13497     13498     13499     13498     13500
     13501     13502     13501     13503     13504     13505     13504     13506
     13507     13508     13507     13509     13510     13511     13510     13512
     13513     13514     13513     13515     13516     13517     13516     13518
     13519     13520     13519     13521     13522     13523     13522     13524
     13525     13526     13525     13527     13528     13529     13528     13530
     13531     13532     13531     13533     13534     13535     13534     13536
     13537     13538     13537     13539     13540     13541     13540     13542
     13543     13544     13543     13545     13546     13547     13546     13548
     13549     13550     13549     13551     13552     13553     13552     13554
     13555     13556     13555     13557     13558     13559     13558     13560
     13561     13562     13561     13563     13564     13565     13564     13566
     13567     13568     13567     13569     13570     13571     13570     13572
     13573     13574     13573     13575     13576     13577     13576     13578
     13579     13580     13579     13581     13582     13583     13582     13584
     13585     13586     13585     13587     13588     13589     13588     13590
     13591     13592     13591     13593     13594     13595     13594     13596
     13597     13598     13597     13599     13600     13601     13600     13602
     13603     13604     13603     13605     13606     13607     13606     13608
     13609     13610     13609     13611     13612     13613     13612     13614
     13615     13616     13615     13617     13618     13619     13618     13620
     13621     13622     13621     13623     13624     13625     13624     13626
     13627     13628     13627     13629     13630     13631     13630     13632
     13633     13634     13633     13635     13636     13637     13636     13638
     13639     13640     13639     13641     13642     13643     13642     13644
     13645     13646     13645     13647     13648     13649     13648     13650
     13651     13652     13651     13653     13654     13655     13654     13656
     13657     13658     13657     13659     13660     13661     13660     13662
     13663     13664     13663     13665     13666     13667     13666     13668
     13669     13670     13669     13671     13672     13673     13672     13674
     13675     13676     13675     13677     13678     13679     13678     13680
     13681     13682     13681     13683     13684     13685     13684     13686
     13687     13688     13687     13689     13690     13691     13690     13692
     13693     13694     13693     13695     13696     13697     13696     13698
     13699     13700     13699     13701     13702     13703     13702     13704
     13705     13706     13705     13707     13708     13709     13708     13710
     13711     13712     13711     13713     13714     13715     13714     13716
     13717     13718     13717     13719     13720     13721     13720     13722
     13723     13724     13723     13725     13726     13727     13726     13728
     13729     13730     13729     13731     13732     13733     13732     13734
     13735     13736     13735     13737     13738     13739     13738     13740
     13741     13742     13741     13743     13744     13745     13744     13746
     13747     13748     13747     13749     13750     13751     13750     13752
     13753     13754     13753     13755     13756     13757     13756     13758
     13759     13760     13759     13761     13762     13763     13762     13764
     13765     13766     13765     13767     13768     13769     13768     13770
     13771     13772     13771     13773     13774     13775     13774     13776
     13777     13778     13777     13779     13780     13781     13780     13782
     13783     13784     13783     13785     13786     13787     13786     13788
     13789     13790     13789     13791     13792     13793     13792     13794
     13795     13796     13795     13797     13798     13799     13798     13800
     13801     13802     13801     13803     13804     13805     13804     13806
     13807     13808     13807     13809     13810     13811     13810     13812
     13813     13814     13813     13815     13816     13817     13816     13818
     13819     13820     13819     13821     13822     13823     13822     13824
     13825     13826     13825     13827     13828     13829     13828     13830
     13831     13832     13831     13833     13834     13835     13834     13836
     13837     13838     13837     13839     13840     13841     13840     13842
     13843     13844     13843     13845     13846     13847     13846     13848
     13849     13850     13849     13851     13852     13853     13852     13854
     13855     13856     13855     13857     13858     13859     13858     13860
     13861     13862     13861     13863     13864     13865     13864     13866
     13867     13868     13867     13869     13870     13871     13870     13872
     13873     13874     13873     13875     13876     13877     13876     13878
     13879     13880     13879     13881     13882     13883     13882     13884
     13885     13886     13885     13887     13888     13889     13888     13890
     13891     13892     13891     13893     13894     13895     13894     13896
     13897     13898     13897     13899     13900     13901     13900     13902
     13903     13904     13903     13905     13906     13907     13906     13908
     13909     13910     13909     13911     13912     13913     13912     13914
     13915     13916     13915     13917     13918     13919     13918     13920
     13921     13922     13921     13923     13924     13925     13924     13926
     13927     13928     13927     13929     13930     13931     13930     13932
     13933     13934     13933     13935     13936     13937     13936     13938
     13939     13940     13939     13941     13942     13943     13942     13944
     13945     13946     13945     13947     13948     13949     13948     13950
     13951     13952     13951     13953     13954     13955     13954     13956
     13957     13958     13957     13959     13960     13961     13960     13962
     13963     13964     13963     13965     13966     13967     13966     13968
     13969     13970     13969     13971     13972     13973     13972     13974
     13975     13976     13975     13977     13978     13979     13978     13980
     13981     13982     13981     13983     13984     13985     13984     13986
     13987     13988     13987     13989     13990     13991     13990     13992
     13993     13994     13993     13995     13996     13997     13996     13998
     13999     14000     13999     14001     14002     14003     14002     14004
     14005     14006     14005     14007     14008     14009     14008     14010
     14011     14012     14011     14013     14014     14015     14014     14016
     14017     14018     14017     14019     14020     14021     14020     14022
     14023     14024     14023     14025     14026     14027     14026     14028
     14029     14030     14029     14031     14032     14033     14032     14034
     14035     14036     14035     14037     14038     14039     14038     14040
     14041     14042     14041     14043     14044     14045     14044     14046
     14047     14048     14047     14049     14050     14051     14050     14052
     14053     14054     14053     14055     14056     14057     14056     14058
     14059     14060     14059     14061     14062     14063     14062     14064
     14065     14066     14065     14067     14068     14069     14068     14070
     14071     14072     14071     14073     14074     14075     14074     14076
     14077     14078     14077     14079     14080     14081     14080     14082
     14083     14084     14083     14085     14086     14087     14086     14088
     14089     14090     14089     14091     14092     14093     14092     14094
     14095     14096     14095     14097     14098     14099     14098     14100
     14101     14102     14101     14103     14104     14105     14104     14106
     14107     14108     14107     14109     14110     14111     14110     14112
     14113     14114     14113     14115     14116     14117     14116     14118
     14119     14120     14119     14121     14122     14123     14122     14124
     14125     14126     14125     14127     14128     14129     14128     14130
     14131     14132     14131     14133     14134     14135     14134     14136
     14137     14138     14137     14139     14140     14141     14140     14142
     14143     14144     14143     14145     14146     14147     14146     14148
     14149     14150     14149     14151     14152     14153     14152     14154
     14155     14156     14155     14157     14158     14159     14158     14160
     14161     14162     14161     14163     14164     14165     14164     14166
     14167     14168     14167     14169     14170     14171     14170     14172
     14173     14174     14173     14175     14176     14177     14176     14178
     14179     14180     14179     14181     14182     14183     14182     14184
     14185     14186     14185     14187     14188     14189     14188     14190
     14191     14192     14191     14193     14194     14195     14194     14196
     14197     14198     14197     14199     14200     14201     14200     14202
     14203     14204     14203     14205     14206     14207     14206     14208
     14209     14210     14209     14211     14212     14213     14212     14214
     14215     14216     14215     14217     14218     14219     14218     14220
     14221     14222     14221     14223     14224     14225     14224     14226
     14227     14228     14227     14229     14230     14231     14230     14232
     14233     14234     14233     14235     14236     14237     14236     14238
     14239     14240     14239     14241     14242     14243     14242     14244
     14245     14246     14245     14247     14248     14249     14248     14250
     14251     14252     14251     14253     14254     14255     14254     14256
     14257     14258     14257     14259     14260     14261     14260     14262
     14263     14264     14263     14265     14266     14267     14266     14268
     14269     14270     14269     14271     14272     14273     14272     14274
     14275     14276     14275     14277     14278     14279     14278     14280
     14281     14282     14281     14283     14284     14285     14284     14286
     14287     14288     14287     14289     14290     14291     14290     14292
     14293     14294     14293     14295     14296     14297     14296     14298
     14299     14300     14299     14301     14302     14303     14302     14304
     14305     14306     14305     14307     14308     14309     14308     14310
     14311     14312     14311     14313     14314     14315     14314     14316
     14317     14318     14317     14319     14320     14321     14320     14322
     14323     14324     14323     14325     14326     14327     14326     14328
     14329     14330     14329     14331     14332     14333     14332     14334
     14335     14336     14335     14337     14338     14339     14338     14340
     14341     14342     14341     14343     14344     14345     14344     14346
     14347     14348     14347     14349     14350     14351     14350     14352
     14353     14354     14353     14355     14356     14357     14356     14358
     14359     14360     14359     14361     14362     14363     14362     14364
     14365     14366     14365     14367     14368     14369     14368     14370
     14371     14372     14371     14373     14374     14375     14374     14376
     14377     14378     14377     14379     14380     14381     14380     14382
     14383     14384     14383     14385     14386     14387     14386     14388
     14389     14390     14389     14391     14392     14393     14392     14394
     14395     14396     14395     14397     14398     14399     14398     14400
     14401     14402     14401     14403     14404     14405     14404     14406
     14407     14408     14407     14409     14410     14411     14410     14412
     14413     14414     14413     14415     14416     14417     14416     14418
     14419     14420     14419     14421     14422     14423     14422     14424
     14425     14426     14425     14427     14428     14429     14428     14430
     14431     14432     14431     14433     14434     14435     14434     14436
     14437     14438     14437     14439     14440     14441     14440     14442
     14443     14444     14443     14445     14446     14447     14446     14448
     14449     14450     14449     14451     14452     14453     14452     14454
     14455     14456     14455     14457     14458     14459     14458     14460
     14461     14462     14461     14463     14464     14465     14464     14466
     14467     14468     14467     14469     14470     14471     14470     14472
     14473     14474     14473     14475     14476     14477     14476     14478
     14479     14480     14479     14481     14482     14483     14482     14484
     14485     14486     14485     14487     14488     14489     14488     14490
     14491     14492     14491     14493     14494     14495     14494     14496
     14497     14498     14497     14499     14500     14501     14500     14502
     14503     14504     14503     14505     14506     14507     14506     14508
     14509     14510     14509     14511     14512     14513     14512     14514
     14515     14516     14515     14517     14518     14519     14518     14520
     14521     14522     14521     14523     14524     14525     14524     14526
     14527     14528     14527     14529     14530     14531     14530     14532
     14533     14534     14533     14535     14536     14537     14536     14538
     14539     14540     14539     14541     14542     14543     14542     14544
     14545     14546     14545     14547     14548     14549     14548     14550
     14551     14552     14551     14553     14554     14555     14554     14556
     14557     14558     14557     14559     14560     14561     14560     14562
     14563     14564     14563     14565     14566     14567     14566     14568
     14569     14570     14569     14571     14572     14573     14572     14574
     14575     14576     14575     14577     14578     14579     14578     14580
     14581     14582     14581     14583     14584     14585     14584     14586
     14587     14588     14587     14589     14590     14591     14590     14592
     14593     14594     14593     14595     14596     14597     14596     14598
     14599     14600     14599     14601     14602     14603     14602     14604
     14605     14606     14605     14607     14608     14609     14608     14610
     14611     14612     14611     14613     14614     14615     14614     14616
     14617     14618     14617     14619     14620     14621     14620     14622
     14623     14624     14623     14625     14626     14627     14626     14628
     14629     14630     14629     14631     14632     14633     14632     14634
     14635     14636     14635     14637     14638     14639     14638     14640
     14641     14642     14641     14643     14644     14645     14644     14646
     14647     14648     14647     14649     14650     14651     14650     14652
     14653     14654     14653     14655     14656     14657     14656     14658
     14659     14660     14659     14661     14662     14663     14662     14664
     14665     14666     14665     14667     14668     14669     14668     14670
     14671     14672     14671     14673     14674     14675     14674     14676
     14677     14678     14677     14679     14680     14681     14680     14682
     14683     14684     14683     14685     14686     14687     14686     14688
     14689     14690     14689     14691     14692     14693     14692     14694
     14695     14696     14695     14697     14698     14699     14698     14700
     14701     14702     14701     14703     14704     14705     14704     14706
     14707     14708     14707     14709     14710     14711     14710     14712
     14713     14714     14713     14715     14716     14717     14716     14718
     14719     14720     14719     14721     14722     14723     14722     14724
     14725     14726     14725     14727     14728     14729     14728     14730
     14731     14732     14731     14733     14734     14735     14734     14736
     14737     14738     14737     14739     14740     14741     14740     14742
     14743     14744     14743     14745     14746     14747     14746     14748
     14749     14750     14749     14751     14752     14753     14752     14754
     14755     14756     14755     14757     14758     14759     14758     14760
     14761     14762     14761     14763     14764     14765     14764     14766
     14767     14768     14767     14769     14770     14771     14770     14772
     14773     14774     14773     14775     14776     14777     14776     14778
     14779     14780     14779     14781     14782     14783     14782     14784
     14785     14786     14785     14787     14788     14789     14788     14790
     14791     14792     14791     14793     14794     14795     14794     14796
     14797     14798     14797     14799     14800     14801     14800     14802
     14803     14804     14803     14805     14806     14807     14806     14808
     14809     14810     14809     14811     14812     14813     14812     14814
     14815     14816     14815     14817     14818     14819     14818     14820
     14821     14822     14821     14823     14824     14825     14824     14826
     14827     14828     14827     14829     14830     14831     14830     14832
     14833     14834     14833     14835     14836     14837     14836     14838
     14839     14840     14839     14841     14842     14843     14842     14844
     14845     14846     14845     14847     14848     14849     14848     14850
     14851     14852     14851     14853     14854     14855     14854     14856
     14857     14858     14857     14859     14860     14861     14860     14862
     14863     14864     14863     14865     14866     14867     14866     14868
     14869     14870     14869     14871     14872     14873     14872     14874
     14875     14876     14875     14877     14878     14879     14878     14880
     14881     14882     14881     14883     14884     14885     14884     14886
     14887     14888     14887     14889     14890     14891     14890     14892
     14893     14894     14893     14895     14896     14897     14896     14898
     14899     14900     14899     14901     14902     14903     14902     14904
     14905     14906     14905     14907     14908     14909     14908     14910
     14911     14912     14911     14913     14914     14915     14914     14916
     14917     14918     14917     14919     14920     14921     14920     14922
     14923     14924     14923     14925     14926     14927     14926     14928
     14929     14930     14929     14931     14932     14933     14932     14934
     14935     14936     14935     14937     14938     14939     14938     14940
     14941     14942     14941     14943     14944     14945     14944     14946
     14947     14948     14947     14949     14950     14951     14950     14952
     14953     14954     14953     14955     14956     14957     14956     14958
     14959     14960     14959     14961     14962     14963     14962     14964
     14965     14966     14965     14967     14968     14969     14968     14970
     14971     14972     14971     14973     14974     14975     14974     14976
     14977     14978     14977     14979     14980     14981     14980     14982
     14983     14984     14983     14985     14986     14987     14986     14988
     14989     14990     14989     14991     14992     14993     14992     14994
     14995     14996     14995     14997     14998     14999     14998     15000
     15001     15002     15001     15003     15004     15005     15004     15006
     15007     15008     15007     15009     15010     15011     15010     15012
     15013     15014     15013     15015     15016     15017     15016     15018
     15019     15020     15019     15021     15022     15023     15022     15024
     15025     15026     15025     15027     15028     15029     15028     15030
     15031     15032     15031     15033     15034     15035     15034     15036
     15037     15038     15037     15039     15040     15041     15040     15042
     15043     15044     15043     15045     15046     15047     15046     15048
     15049     15050     15049     15051     15052     15053     15052     15054
     15055     15056     15055     15057     15058     15059     15058     15060
     15061     15062     15061     15063     15064     15065     15064     15066
     15067     15068     15067     15069     15070     15071     15070     15072
     15073     15074     15073     15075     15076     15077     15076     15078
     15079     15080     15079     15081     15082     15083     15082     15084
     15085     15086     15085     15087     15088     15089     15088     15090
     15091     15092     15091     15093     15094     15095     15094     15096
     15097     15098     15097     15099     15100     15101     15100     15102
     15103     15104     15103     15105     15106     15107     15106     15108
     15109     15110     15109     15111     15112     15113     15112     15114
     15115     15116     15115     15117     15118     15119     15118     15120
     15121     15122     15121     15123     15124     15125     15124     15126
     15127     15128     15127     15129     15130     15131     15130     15132
     15133     15134     15133     15135     15136     15137     15136     15138
     15139     15140     15139     15141     15142     15143     15142     15144
     15145     15146     15145     15147     15148     15149     15148     15150
     15151     15152     15151     15153     15154     15155     15154     15156
     15157     15158     15157     15159     15160     15161     15160     15162
     15163     15164     15163     15165     15166     15167     15166     15168
     15169     15170     15169     15171     15172     15173     15172     15174
     15175     15176     15175     15177     15178     15179     15178     15180
     15181     15182     15181     15183     15184     15185     15184     15186
     15187     15188     15187     15189     15190     15191     15190     15192
     15193     15194     15193     15195     15196     15197     15196     15198
     15199     15200     15199     15201     15202     15203     15202     15204
     15205     15206     15205     15207     15208     15209     15208     15210
     15211     15212     15211     15213     15214     15215     15214     15216
     15217     15218     15217     15219     15220     15221     15220     15222
     15223     15224     15223     15225     15226     15227     15226     15228
     15229     15230     15229     15231     15232     15233     15232     15234
     15235     15236     15235     15237     15238     15239     15238     15240
     15241     15242     15241     15243     15244     15245     15244     15246
     15247     15248     15247     15249     15250     15251     15250     15252
     15253     15254     15253     15255     15256     15257     15256     15258
     15259     15260     15259     15261     15262     15263     15262     15264
     15265     15266     15265     15267     15268     15269     15268     15270
     15271     15272     15271     15273     15274     15275     15274     15276
     15277     15278     15277     15279     15280     15281     15280     15282
     15283     15284     15283     15285     15286     15287     15286     15288
     15289     15290     15289     15291     15292     15293     15292     15294
     15295     15296     15295     15297     15298     15299     15298     15300
     15301     15302     15301     15303     15304     15305     15304     15306
     15307     15308     15307     15309     15310     15311     15310     15312
     15313     15314     15313     15315     15316     15317     15316     15318
     15319     15320     15319     15321     15322     15323     15322     15324
     15325     15326     15325     15327     15328     15329     15328     15330
     15331     15332     15331     15333     15334     15335     15334     15336
     15337     15338     15337     15339     15340     15341     15340     15342
     15343     15344     15343     15345     15346     15347     15346     15348
     15349     15350     15349     15351     15352     15353     15352     15354
     15355     15356     15355     15357     15358     15359     15358     15360
     15361     15362     15361     15363     15364     15365     15364     15366
     15367     15368     15367     15369     15370     15371     15370     15372
     15373     15374     15373     15375     15376     15377     15376     15378
     15379     15380     15379     15381     15382     15383     15382     15384
     15385     15386     15385     15387     15388     15389     15388     15390
     15391     15392     15391     15393     15394     15395     15394     15396
     15397     15398     15397     15399     15400     15401     15400     15402
     15403     15404     15403     15405     15406     15407     15406     15408
     15409     15410     15409     15411     15412     15413     15412     15414
     15415     15416     15415     15417     15418     15419     15418     15420
     15421     15422     15421     15423     15424     15425     15424     15426
     15427     15428     15427     15429     15430     15431     15430     15432
     15433     15434     15433     15435     15436     15437     15436     15438
     15439     15440     15439     15441     15442     15443     15442     15444
     15445     15446     15445     15447     15448     15449     15448     15450
     15451     15452     15451     15453     15454     15455     15454     15456
     15457     15458     15457     15459     15460     15461     15460     15462
     15463     15464     15463     15465     15466     15467     15466     15468
     15469     15470     15469     15471     15472     15473     15472     15474
     15475     15476     15475     15477     15478     15479     15478     15480
     15481     15482     15481     15483     15484     15485     15484     15486
     15487     15488     15487     15489     15490     15491     15490     15492
     15493     15494     15493     15495     15496     15497     15496     15498
     15499     15500     15499     15501     15502     15503     15502     15504
     15505     15506     15505     15507     15508     15509     15508     15510
     15511     15512     15511     15513     15514     15515     15514     15516
     15517     15518     15517     15519     15520     15521     15520     15522
     15523     15524     15523     15525     15526     15527     15526     15528
     15529     15530     15529     15531     15532     15533     15532     15534
     15535     15536     15535     15537     15538     15539     15538     15540
     15541     15542     15541     15543     15544     15545     15544     15546
     15547     15548     15547     15549     15550     15551     15550     15552
     15553     15554     15553     15555     15556     15557     15556     15558
     15559     15560     15559     15561     15562     15563     15562     15564
     15565     15566     15565     15567     15568     15569     15568     15570
     15571     15572     15571     15573     15574     15575     15574     15576
     15577     15578     15577     15579     15580     15581     15580     15582
     15583     15584     15583     15585     15586     15587     15586     15588
     15589     15590     15589     15591     15592     15593     15592     15594
     15595     15596     15595     15597     15598     15599     15598     15600
     15601     15602     15601     15603     15604     15605     15604     15606
     15607     15608     15607     15609     15610     15611     15610     15612
     15613     15614     15613     15615     15616     15617     15616     15618
     15619     15620     15619     15621     15622     15623     15622     15624
     15625     15626     15625     15627     15628     15629     15628     15630
     15631     15632     15631     15633     15634     15635     15634     15636
     15637     15638     15637     15639     15640     15641     15640     15642
     15643     15644     15643     15645     15646     15647     15646     15648
     15649     15650     15649     15651     15652     15653     15652     15654
     15655     15656     15655     15657     15658     15659     15658     15660
     15661     15662     15661     15663     15664     15665     15664     15666
     15667     15668     15667     15669     15670     15671     15670     15672
     15673     15674     15673     15675     15676     15677     15676     15678
     15679     15680     15679     15681     15682     15683     15682     15684
     15685     15686     15685     15687     15688     15689     15688     15690
     15691     15692     15691     15693     15694     15695     15694     15696
     15697     15698     15697     15699     15700     15701     15700     15702
     15703     15704     15703     15705     15706     15707     15706     15708
     15709     15710     15709     15711     15712     15713     15712     15714
     15715     15716     15715     15717     15718     15719     15718     15720
     15721     15722     15721     15723     15724     15725     15724     15726
     15727     15728     15727     15729     15730     15731     15730     15732
     15733     15734     15733     15735     15736     15737     15736     15738
     15739     15740     15739     15741     15742     15743     15742     15744
     15745     15746     15745     15747     15748     15749     15748     15750
     15751     15752     15751     15753     15754     15755     15754     15756
     15757     15758     15757     15759     15760     15761     15760     15762
     15763     15764     15763     15765     15766     15767     15766     15768
     15769     15770     15769     15771     15772     15773     15772     15774
     15775     15776     15775     15777     15778     15779     15778     15780
     15781     15782     15781     15783     15784     15785     15784     15786
     15787     15788     15787     15789     15790     15791     15790     15792
     15793     15794     15793     15795     15796     15797     15796     15798
     15799     15800     15799     15801     15802     15803     15802     15804
     15805     15806     15805     15807     15808     15809     15808     15810
     15811     15812     15811     15813     15814     15815     15814     15816
     15817     15818     15817     15819     15820     15821     15820     15822
     15823     15824     15823     15825     15826     15827     15826     15828
     15829     15830     15829     15831     15832     15833     15832     15834
     15835     15836     15835     15837     15838     15839     15838     15840
     15841     15842     15841     15843     15844     15845     15844     15846
     15847     15848     15847     15849     15850     15851     15850     15852
     15853     15854     15853     15855     15856     15857     15856     15858
     15859     15860     15859     15861     15862     15863     15862     15864
     15865     15866     15865     15867     15868     15869     15868     15870
     15871     15872     15871     15873     15874     15875     15874     15876
     15877     15878     15877     15879     15880     15881     15880     15882
     15883     15884     15883     15885     15886     15887     15886     15888
     15889     15890     15889     15891     15892     15893     15892     15894
     15895     15896     15895     15897     15898     15899     15898     15900
     15901     15902     15901     15903     15904     15905     15904     15906
     15907     15908     15907     15909     15910     15911     15910     15912
     15913     15914     15913     15915     15916     15917     15916     15918
     15919     15920     15919     15921     15922     15923     15922     15924
     15925     15926     15925     15927     15928     15929     15928     15930
     15931     15932     15931     15933     15934     15935     15934     15936
     15937     15938     15937     15939     15940     15941     15940     15942
     15943     15944     15943     15945     15946     15947     15946     15948
     15949     15950     15949     15951     15952     15953     15952     15954
     15955     15956     15955     15957     15958     15959     15958     15960
     15961     15962     15961     15963     15964     15965     15964     15966
     15967     15968     15967     15969     15970     15971     15970     15972
     15973     15974     15973     15975     15976     15977     15976     15978
     15979     15980     15979     15981     15982     15983     15982     15984
     15985     15986     15985     15987     15988     15989     15988     15990
     15991     15992     15991     15993     15994     15995     15994     15996
     15997     15998     15997     15999     16000     16001     16000     16002
     16003     16004     16003     16005     16006     16007     16006     16008
     16009     16010     16009     16011     16012     16013     16012     16014
     16015     16016     16015     16017     16018     16019     16018     16020
     16021     16022     16021     16023     16024     16025     16024     16026
     16027     16028     16027     16029     16030     16031     16030     16032
     16033     16034     16033     16035     16036     16037     16036     16038
     16039     16040     16039     16041     16042     16043     16042     16044
     16045     16046     16045     16047     16048     16049     16048     16050
     16051     16052     16051     16053     16054     16055     16054     16056
     16057     16058     16057     16059     16060     16061     16060     16062
     16063     16064     16063     16065     16066     16067     16066     16068
     16069     16070     16069     16071     16072     16073     16072     16074
     16075     16076     16075     16077     16078     16079     16078     16080
     16081     16082     16081     16083     16084     16085     16084     16086
     16087     16088     16087     16089     16090     16091     16090     16092
     16093     16094     16093     16095     16096     16097     16096     16098
     16099     16100     16099     16101     16102     16103     16102     16104
     16105     16106     16105     16107     16108     16109     16108     16110
     16111     16112     16111     16113     16114     16115     16114     16116
     16117     16118     16117     16119     16120     16121     16120     16122
     16123     16124     16123     16125     16126     16127     16126     16128
     16129     16130     16129     16131     16132     16133     16132     16134
     16135     16136     16135     16137     16138     16139     16138     16140
     16141     16142     16141     16143     16144     16145     16144     16146
     16147     16148     16147     16149     16150     16151     16150     16152
     16153     16154     16153     16155     16156     16157     16156     16158
     16159     16160     16159     16161     16162     16163     16162     16164
     16165     16166     16165     16167     16168     16169     16168     16170
     16171     16172     16171     16173     16174     16175     16174     16176
     16177     16178     16177     16179     16180     16181     16180     16182
     16183     16184     16183     16185     16186     16187     16186     16188
     16189     16190     16189     16191     16192     16193     16192     16194
     16195     16196     16195     16197     16198     16199     16198     16200
     16201     16202     16201     16203     16204     16205     16204     16206
     16207     16208     16207     16209     16210     16211     16210     16212
     16213     16214     16213     16215     16216     16217     16216     16218
     16219     16220     16219     16221     16222     16223     16222     16224
     16225     16226     16225     16227     16228     16229     16228     16230
     16231     16232     16231     16233     16234     16235     16234     16236
     16237     16238     16237     16239     16240     16241     16240     16242
     16243     16244     16243     16245     16246     16247     16246     16248
     16249     16250     16249     16251     16252     16253     16252     16254
     16255     16256     16255     16257     16258     16259     16258     16260
     16261     16262     16261     16263     16264     16265     16264     16266
     16267     16268     16267     16269     16270     16271     16270     16272
     16273     16274     16273     16275     16276     16277     16276     16278
     16279     16280     16279     16281     16282     16283     16282     16284
     16285     16286     16285     16287     16288     16289     16288     16290
     16291     16292     16291     16293     16294     16295     16294     16296
     16297     16298     16297     16299     16300     16301     16300     16302
     16303     16304     16303     16305     16306     16307     16306     16308
     16309     16310     16309     16311     16312     16313     16312     16314
     16315     16316     16315     16317     16318     16319     16318     16320
     16321     16322     16321     16323     16324     16325     16324     16326
     16327     16328     16327     16329     16330     16331     16330     16332
     16333     16334     16333     16335     16336     16337     16336     16338
     16339     16340     16339     16341     16342     16343     16342     16344
     16345     16346     16345     16347     16348     16349     16348     16350
     16351     16352     16351     16353     16354     16355     16354     16356
     16357     16358     16357     16359     16360     16361     16360     16362
     16363     16364     16363     16365     16366     16367     16366     16368
     16369     16370     16369     16371     16372     16373     16372     16374
     16375     16376     16375     16377     16378     16379     16378     16380
     16381     16382     16381     16383     16384     16385     16384     16386
     16387     16388     16387     16389     16390     16391     16390     16392
     16393     16394     16393     16395     16396     16397     16396     16398
     16399     16400     16399     16401     16402     16403     16402     16404
     16405     16406     16405     16407     16408     16409     16408     16410
     16411     16412     16411     16413     16414     16415     16414     16416
     16417     16418     16417     16419     16420     16421     16420     16422
     16423     16424     16423     16425     16426     16427     16426     16428
     16429     16430     16429     16431     16432     16433     16432     16434
     16435     16436     16435     16437     16438     16439     16438     16440
     16441     16442     16441     16443     16444     16445     16444     16446
     16447     16448     16447     16449     16450     16451     16450     16452
     16453     16454     16453     16455     16456     16457     16456     16458
     16459     16460     16459     16461     16462     16463     16462     16464
     16465     16466     16465     16467     16468     16469     16468     16470
     16471     16472     16471     16473     16474     16475     16474     16476
     16477     16478     16477     16479     16480     16481     16480     16482
     16483     16484     16483     16485     16486     16487     16486     16488
     16489     16490     16489     16491     16492     16493     16492     16494
     16495     16496     16495     16497     16498     16499     16498     16500
     16501     16502     16501     16503     16504     16505     16504     16506
     16507     16508     16507     16509     16510     16511     16510     16512
     16513     16514     16513     16515     16516     16517     16516     16518
     16519     16520     16519     16521     16522     16523     16522     16524
     16525     16526     16525     16527     16528     16529     16528     16530
     16531     16532     16531     16533     16534     16535     16534     16536
     16537     16538     16537     16539     16540     16541     16540     16542
     16543     16544     16543     16545     16546     16547     16546     16548
     16549     16550     16549     16551     16552     16553     16552     16554
     16555     16556     16555     16557     16558     16559     16558     16560
     16561     16562     16561     16563     16564     16565     16564     16566
     16567     16568     16567     16569     16570     16571     16570     16572
     16573     16574     16573     16575     16576     16577     16576     16578
     16579     16580     16579     16581     16582     16583     16582     16584
     16585     16586     16585     16587     16588     16589     16588     16590
     16591     16592     16591     16593     16594     16595     16594     16596
     16597     16598     16597     16599     16600     16601     16600     16602
     16603     16604     16603     16605     16606     16607     16606     16608
     16609     16610     16609     16611     16612     16613     16612     16614
     16615     16616     16615     16617     16618     16619     16618     16620
     16621     16622     16621     16623     16624     16625     16624     16626
     16627     16628     16627     16629     16630     16631     16630     16632
     16633     16634     16633     16635     16636     16637     16636     16638
     16639     16640     16639     16641     16642     16643     16642     16644
     16645     16646     16645     16647     16648     16649     16648     16650
     16651     16652     16651     16653     16654     16655     16654     16656
     16657     16658     16657     16659     16660     16661     16660     16662
     16663     16664     16663     16665     16666     16667     16666     16668
     16669     16670     16669     16671     16672     16673     16672     16674
     16675     16676     16675     16677     16678     16679     16678     16680
     16681     16682     16681     16683     16684     16685     16684     16686
     16687     16688     16687     16689     16690     16691     16690     16692
     16693     16694     16693     16695     16696     16697     16696     16698
     16699     16700     16699     16701     16702     16703     16702     16704
     16705     16706     16705     16707     16708     16709     16708     16710
     16711     16712     16711     16713     16714     16715     16714     16716
     16717     16718     16717     16719     16720     16721     16720     16722
     16723     16724     16723     16725     16726     16727     16726     16728
     16729     16730     16729     16731     16732     16733     16732     16734
     16735     16736     16735     16737     16738     16739     16738     16740
     16741     16742     16741     16743     16744     16745     16744     16746
     16747     16748     16747     16749     16750     16751     16750     16752
     16753     16754     16753     16755     16756     16757     16756     16758
     16759     16760     16759     16761     16762     16763     16762     16764
     16765     16766     16765     16767     16768     16769     16768     16770
     16771     16772     16771     16773     16774     16775     16774     16776
     16777     16778     16777     16779     16780     16781     16780     16782
     16783     16784     16783     16785     16786     16787     16786     16788
     16789     16790     16789     16791     16792     16793     16792     16794
     16795     16796     16795     16797     16798     16799     16798     16800
     16801     16802     16801     16803     16804     16805     16804     16806
     16807     16808     16807     16809     16810     16811     16810     16812
     16813     16814     16813     16815     16816     16817     16816     16818
     16819     16820     16819     16821     16822     16823     16822     16824
     16825     16826     16825     16827     16828     16829     16828     16830
     16831     16832     16831     16833     16834     16835     16834     16836
     16837     16838     16837     16839     16840     16841     16840     16842
     16843     16844     16843     16845     16846     16847     16846     16848
     16849     16850     16849     16851     16852     16853     16852     16854
     16855     16856     16855     16857     16858     16859     16858     16860
     16861     16862     16861     16863     16864     16865     16864     16866
     16867     16868     16867     16869     16870     16871     16870     16872
     16873     16874     16873     16875     16876     16877     16876     16878
     16879     16880     16879     16881     16882     16883     16882     16884
     16885     16886     16885     16887     16888     16889     16888     16890
     16891     16892     16891     16893     16894     16895     16894     16896
     16897     16898     16897     16899     16900     16901     16900     16902
     16903     16904     16903     16905     16906     16907     16906     16908
     16909     16910     16909     16911     16912     16913     16912     16914
     16915     16916     16915     16917     16918     16919     16918     16920
     16921     16922     16921     16923     16924     16925     16924     16926
     16927     16928     16927     16929     16930     16931     16930     16932
     16933     16934     16933     16935     16936     16937     16936     16938
     16939     16940     16939     16941     16942     16943     16942     16944
     16945     16946     16945     16947     16948     16949     16948     16950
     16951     16952     16951     16953     16954     16955     16954     16956
     16957     16958     16957     16959     16960     16961     16960     16962
     16963     16964     16963     16965     16966     16967     16966     16968
     16969     16970     16969     16971     16972     16973     16972     16974
     16975     16976     16975     16977     16978     16979     16978     16980
     16981     16982     16981     16983     16984     16985     16984     16986
     16987     16988     16987     16989     16990     16991     16990     16992
     16993     16994     16993     16995     16996     16997     16996     16998
     16999     17000     16999     17001     17002     17003     17002     17004
     17005     17006     17005     17007     17008     17009     17008     17010
     17011     17012     17011     17013     17014     17015     17014     17016
     17017     17018     17017     17019     17020     17021     17020     17022
     17023     17024     17023     17025     17026     17027     17026     17028
     17029     17030     17029     17031     17032     17033     17032     17034
     17035     17036     17035     17037     17038     17039     17038     17040
     17041     17042     17041     17043     17044     17045     17044     17046
     17047     17048     17047     17049     17050     17051     17050     17052
     17053     17054     17053     17055     17056     17057     17056     17058
     17059     17060     17059     17061     17062     17063     17062     17064
     17065     17066     17065     17067     17068     17069     17068     17070
     17071     17072     17071     17073     17074     17075     17074     17076
     17077     17078     17077     17079     17080     17081     17080     17082
     17083     17084     17083     17085     17086     17087     17086     17088
     17089     17090     17089     17091     17092     17093     17092     17094
     17095     17096     17095     17097     17098     17099     17098     17100
     17101     17102     17101     17103     17104     17105     17104     17106
     17107     17108     17107     17109     17110     17111     17110     17112
     17113     17114     17113     17115     17116     17117     17116     17118
     17119     17120     17119     17121     17122     17123     17122     17124
     17125     17126     17125     17127     17128     17129     17128     17130
     17131     17132     17131     17133     17134     17135     17134     17136
     17137     17138     17137     17139     17140     17141     17140     17142
     17143     17144     17143     17145     17146     17147     17146     17148
     17149     17150     17149     17151     17152     17153     17152     17154
     17155     17156     17155     17157     17158     17159     17158     17160
     17161     17162     17161     17163     17164     17165     17164     17166
     17167     17168     17167     17169     17170     17171     17170     17172
     17173     17174     17173     17175     17176     17177     17176     17178
     17179     17180     17179     17181     17182     17183     17182     17184
     17185     17186     17185     17187     17188     17189     17188     17190
     17191     17192     17191     17193     17194     17195     17194     17196
     17197     17198     17197     17199     17200     17201     17200     17202
     17203     17204     17203     17205     17206     17207     17206     17208
     17209     17210     17209     17211     17212     17213     17212     17214
     17215     17216     17215     17217     17218     17219     17218     17220
     17221     17222     17221     17223     17224     17225     17224     17226
     17227     17228     17227     17229     17230     17231     17230     17232
     17233     17234     17233     17235     17236     17237     17236     17238
     17239     17240     17239     17241     17242     17243     17242     17244
     17245     17246     17245     17247     17248     17249     17248     17250
     17251     17252     17251     17253     17254     17255     17254     17256
     17257     17258     17257     17259     17260     17261     17260     17262
     17263     17264     17263     17265     17266     17267     17266     17268
     17269     17270     17269     17271     17272     17273     17272     17274
     17275     17276     17275     17277     17278     17279     17278     17280
     17281     17282     17281     17283     17284     17285     17284     17286
     17287     17288     17287     17289     17290     17291     17290     17292
     17293     17294     17293     17295     17296     17297     17296     17298
     17299     17300     17299     17301     17302     17303     17302     17304
     17305     17306     17305     17307     17308     17309     17308     17310
     17311     17312     17311     17313     17314     17315     17314     17316
     17317     17318     17317     17319     17320     17321     17320     17322
     17323     17324     17323     17325     17326     17327     17326     17328
     17329     17330     17329     17331     17332     17333     17332     17334
     17335     17336     17335     17337     17338     17339     17338     17340
     17341     17342     17341     17343     17344     17345     17344     17346
     17347     17348     17347     17349     17350     17351     17350     17352
     17353     17354     17353     17355     17356     17357     17356     17358
     17359     17360     17359     17361     17362     17363     17362     17364
     17365     17366     17365     17367     17368     17369     17368     17370
     17371     17372     17371     17373     17374     17375     17374     17376
     17377     17378     17377     17379     17380     17381     17380     17382
     17383     17384     17383     17385     17386     17387     17386     17388
     17389     17390     17389     17391     17392     17393     17392     17394
     17395     17396     17395     17397     17398     17399     17398     17400
     17401     17402     17401     17403     17404     17405     17404     17406
     17407     17408     17407     17409     17410     17411     17410     17412
     17413     17414     17413     17415     17416     17417     17416     17418
     17419     17420     17419     17421     17422     17423     17422     17424
     17425     17426     17425     17427     17428     17429     17428     17430
     17431     17432     17431     17433     17434     17435     17434     17436
     17437     17438     17437     17439     17440     17441     17440     17442
     17443     17444     17443     17445     17446     17447     17446     17448
     17449     17450     17449     17451     17452     17453     17452     17454
     17455     17456     17455     17457     17458     17459     17458     17460
     17461     17462     17461     17463     17464     17465     17464     17466
     17467     17468     17467     17469     17470     17471     17470     17472
     17473     17474     17473     17475     17476     17477     17476     17478
     17479     17480     17479     17481     17482     17483     17482     17484
     17485     17486     17485     17487     17488     17489     17488     17490
     17491     17492     17491     17493     17494     17495     17494     17496
     17497     17498     17497     17499     17500     17501     17500     17502
     17503     17504     17503     17505     17506     17507     17506     17508
     17509     17510     17509     17511     17512     17513     17512     17514
     17515     17516     17515     17517     17518     17519     17518     17520
     17521     17522     17521     17523     17524     17525     17524     17526
     17527     17528     17527     17529     17530     17531     17530     17532
     17533     17534     17533     17535     17536     17537     17536     17538
     17539     17540     17539     17541     17542     17543     17542     17544
     17545     17546     17545     17547     17548     17549     17548     17550
     17551     17552     17551     17553     17554     17555     17554     17556
     17557     17558     17557     17559     17560     17561     17560     17562
     17563     17564     17563     17565     17566     17567     17566     17568
     17569     17570     17569     17571     17572     17573     17572     17574
     17575     17576     17575     17577     17578     17579     17578     17580
     17581     17582     17581     17583     17584     17585     17584     17586
     17587     17588     17587     17589     17590     17591     17590     17592
     17593     17594     17593     17595     17596     17597     17596     17598
     17599     17600     17599     17601     17602     17603     17602     17604
     17605     17606     17605     17607     17608     17609     17608     17610
     17611     17612     17611     17613     17614     17615     17614     17616
     17617     17618     17617     17619     17620     17621     17620     17622
     17623     17624     17623     17625     17626     17627     17626     17628
     17629     17630     17629     17631     17632     17633     17632     17634
     17635     17636     17635     17637     17638     17639     17638     17640
     17641     17642     17641     17643     17644     17645     17644     17646
     17647     17648     17647     17649     17650     17651     17650     17652
     17653     17654     17653     17655     17656     17657     17656     17658
     17659     17660     17659     17661     17662     17663     17662     17664
     17665     17666     17665     17667     17668     17669     17668     17670
     17671     17672     17671     17673     17674     17675     17674     17676
     17677     17678     17677     17679     17680     17681     17680     17682
     17683     17684     17683     17685     17686     17687     17686     17688
     17689     17690     17689     17691     17692     17693     17692     17694
     17695     17696     17695     17697     17698     17699     17698     17700
     17701     17702     17701     17703     17704     17705     17704     17706
     17707     17708     17707     17709     17710     17711     17710     17712
     17713     17714     17713     17715     17716     17717     17716     17718
     17719     17720     17719     17721     17722     17723     17722     17724
     17725     17726     17725     17727     17728     17729     17728     17730
     17731     17732     17731     17733     17734     17735     17734     17736
     17737     17738     17737     17739     17740     17741     17740     17742
     17743     17744     17743     17745     17746     17747     17746     17748
     17749     17750     17749     17751     17752     17753     17752     17754
     17755     17756     17755     17757     17758     17759     17758     17760
     17761     17762     17761     17763     17764     17765     17764     17766
     17767     17768     17767     17769     17770     17771     17770     17772
     17773     17774     17773     17775     17776     17777     17776     17778
     17779     17780     17779     17781     17782     17783     17782     17784
     17785     17786     17785     17787     17788     17789     17788     17790
     17791     17792     17791     17793     17794     17795     17794     17796
     17797     17798     17797     17799     17800     17801     17800     17802
     17803     17804     17803     17805     17806     17807     17806     17808
     17809     17810     17809     17811     17812     17813     17812     17814
     17815     17816     17815     17817     17818     17819     17818     17820
     17821     17822     17821     17823     17824     17825     17824     17826
     17827     17828     17827     17829     17830     17831     17830     17832
     17833     17834     17833     17835     17836     17837     17836     17838
     17839     17840     17839     17841     17842     17843     17842     17844
     17845     17846     17845     17847     17848     17849     17848     17850
     17851     17852     17851     17853     17854     17855     17854     17856
     17857     17858     17857     17859     17860     17861     17860     17862
     17863     17864     17863     17865     17866     17867     17866     17868
     17869     17870     17869     17871     17872     17873     17872     17874
     17875     17876     17875     17877     17878     17879     17878     17880
     17881     17882     17881     17883     17884     17885     17884     17886
     17887     17888     17887     17889     17890     17891     17890     17892
     17893     17894     17893     17895     17896     17897     17896     17898
     17899     17900     17899     17901     17902     17903     17902     17904
     17905     17906     17905     17907     17908     17909     17908     17910
     17911     17912     17911     17913     17914     17915     17914     17916
     17917     17918     17917     17919     17920     17921     17920     17922
     17923     17924     17923     17925     17926     17927     17926     17928
     17929     17930     17929     17931     17932     17933     17932     17934
     17935     17936     17935     17937     17938     17939     17938     17940
     17941     17942     17941     17943     17944     17945     17944     17946
     17947     17948     17947     17949     17950     17951     17950     17952
     17953     17954     17953     17955     17956     17957     17956     17958
     17959     17960     17959     17961     17962     17963     17962     17964
     17965     17966     17965     17967     17968     17969     17968     17970
     17971     17972     17971     17973     17974     17975     17974     17976
     17977     17978     17977     17979     17980     17981     17980     17982
     17983     17984     17983     17985     17986     17987     17986     17988
     17989     17990     17989     17991     17992     17993     17992     17994
     17995     17996     17995     17997     17998     17999     17998     18000
     18001     18002     18001     18003     18004     18005     18004     18006
     18007     18008     18007     18009     18010     18011     18010     18012
     18013     18014     18013     18015     18016     18017     18016     18018
     18019     18020     18019     18021     18022     18023     18022     18024
     18025     18026     18025     18027     18028     18029     18028     18030
     18031     18032     18031     18033     18034     18035     18034     18036
     18037     18038     18037     18039     18040     18041     18040     18042
     18043     18044     18043     18045     18046     18047     18046     18048
     18049     18050     18049     18051     18052     18053     18052     18054
     18055     18056     18055     18057     18058     18059     18058     18060
     18061     18062     18061     18063     18064     18065     18064     18066
     18067     18068     18067     18069     18070     18071     18070     18072
     18073     18074     18073     18075     18076     18077     18076     18078
     18079     18080     18079     18081     18082     18083     18082     18084
     18085     18086     18085     18087     18088     18089     18088     18090
     18091     18092     18091     18093     18094     18095     18094     18096
     18097     18098     18097     18099     18100     18101     18100     18102
     18103     18104     18103     18105     18106     18107     18106     18108
     18109     18110     18109     18111     18112     18113     18112     18114
     18115     18116     18115     18117     18118     18119     18118     18120
     18121     18122     18121     18123     18124     18125     18124     18126
     18127     18128     18127     18129     18130     18131     18130     18132
     18133     18134     18133     18135     18136     18137     18136     18138
     18139     18140     18139     18141     18142     18143     18142     18144
     18145     18146     18145     18147     18148     18149     18148     18150
     18151     18152     18151     18153     18154     18155     18154     18156
     18157     18158     18157     18159     18160     18161     18160     18162
     18163     18164     18163     18165     18166     18167     18166     18168
     18169     18170     18169     18171     18172     18173     18172     18174
     18175     18176     18175     18177     18178     18179     18178     18180
     18181     18182     18181     18183     18184     18185     18184     18186
     18187     18188     18187     18189     18190     18191     18190     18192
     18193     18194     18193     18195     18196     18197     18196     18198
     18199     18200     18199     18201     18202     18203     18202     18204
     18205     18206     18205     18207     18208     18209     18208     18210
     18211     18212     18211     18213     18214     18215     18214     18216
     18217     18218     18217     18219     18220     18221     18220     18222
     18223     18224     18223     18225     18226     18227     18226     18228
     18229     18230     18229     18231     18232     18233     18232     18234
     18235     18236     18235     18237     18238     18239     18238     18240
     18241     18242     18241     18243     18244     18245     18244     18246
     18247     18248     18247     18249     18250     18251     18250     18252
     18253     18254     18253     18255     18256     18257     18256     18258
     18259     18260     18259     18261     18262     18263     18262     18264
     18265     18266     18265     18267     18268     18269     18268     18270
     18271     18272     18271     18273     18274     18275     18274     18276
     18277     18278     18277     18279     18280     18281     18280     18282
     18283     18284     18283     18285     18286     18287     18286     18288
     18289     18290     18289     18291     18292     18293     18292     18294
     18295     18296     18295     18297     18298     18299     18298     18300
     18301     18302     18301     18303     18304     18305     18304     18306
     18307     18308     18307     18309     18310     18311     18310     18312
     18313     18314     18313     18315     18316     18317     18316     18318
     18319     18320     18319     18321     18322     18323     18322     18324
     18325     18326     18325     18327     18328     18329     18328     18330
     18331     18332     18331     18333     18334     18335     18334     18336
     18337     18338     18337     18339     18340     18341     18340     18342
     18343     18344     18343     18345     18346     18347     18346     18348
     18349     18350     18349     18351     18352     18353     18352     18354
     18355     18356     18355     18357     18358     18359     18358     18360
     18361     18362     18361     18363     18364     18365     18364     18366
     18367     18368     18367     18369     18370     18371     18370     18372
     18373     18374     18373     18375     18376     18377     18376     18378
     18379     18380     18379     18381     18382     18383     18382     18384
     18385     18386     18385     18387     18388     18389     18388     18390
     18391     18392     18391     18393     18394     18395     18394     18396
     18397     18398     18397     18399     18400     18401     18400     18402
     18403     18404     18403     18405     18406     18407     18406     18408
     18409     18410     18409     18411     18412     18413     18412     18414
     18415     18416     18415     18417     18418     18419     18418     18420
     18421     18422     18421     18423     18424     18425     18424     18426
     18427     18428     18427     18429     18430     18431     18430     18432
     18433     18434     18433     18435     18436     18437     18436     18438
     18439     18440     18439     18441     18442     18443     18442     18444
     18445     18446     18445     18447     18448     18449     18448     18450
     18451     18452     18451     18453     18454     18455     18454     18456
     18457     18458     18457     18459     18460     18461     18460     18462
     18463     18464     18463     18465     18466     18467     18466     18468
     18469     18470     18469     18471     18472     18473     18472     18474
     18475     18476     18475     18477     18478     18479     18478     18480
     18481     18482     18481     18483     18484     18485     18484     18486
     18487     18488     18487     18489     18490     18491     18490     18492
     18493     18494     18493     18495     18496     18497     18496     18498
     18499     18500     18499     18501     18502     18503     18502     18504
     18505     18506     18505     18507     18508     18509     18508     18510
     18511     18512     18511     18513     18514     18515     18514     18516
     18517     18518     18517     18519     18520     18521     18520     18522
     18523     18524     18523     18525     18526     18527     18526     18528
     18529     18530     18529     18531     18532     18533     18532     18534
     18535     18536     18535     18537     18538     18539     18538     18540
     18541     18542     18541     18543     18544     18545     18544     18546
     18547     18548     18547     18549     18550     18551     18550     18552
     18553     18554     18553     18555     18556     18557     18556     18558
     18559     18560     18559     18561     18562     18563     18562     18564
     18565     18566     18565     18567     18568     18569     18568     18570
     18571     18572     18571     18573     18574     18575     18574     18576
     18577     18578     18577     18579     18580     18581     18580     18582
     18583     18584     18583     18585     18586     18587     18586     18588
     18589     18590     18589     18591     18592     18593     18592     18594
     18595     18596     18595     18597     18598     18599     18598     18600
     18601     18602     18601     18603     18604     18605     18604     18606
     18607     18608     18607     18609     18610     18611     18610     18612
     18613     18614     18613     18615     18616     18617     18616     18618
     18619     18620     18619     18621     18622     18623     18622     18624
     18625     18626     18625     18627     18628     18629     18628     18630
     18631     18632     18631     18633     18634     18635     18634     18636
     18637     18638     18637     18639     18640     18641     18640     18642
     18643     18644     18643     18645     18646     18647     18646     18648
     18649     18650     18649     18651     18652     18653     18652     18654
     18655     18656     18655     18657     18658     18659     18658     18660
     18661     18662     18661     18663     18664     18665     18664     18666
     18667     18668     18667     18669     18670     18671     18670     18672
     18673     18674     18673     18675     18676     18677     18676     18678
     18679     18680     18679     18681     18682     18683     18682     18684
     18685     18686     18685     18687     18688     18689     18688     18690
     18691     18692     18691     18693     18694     18695     18694     18696
     18697     18698     18697     18699     18700     18701     18700     18702
     18703     18704     18703     18705     18706     18707     18706     18708
     18709     18710     18709     18711     18712     18713     18712     18714
     18715     18716     18715     18717     18718     18719     18718     18720
     18721     18722     18721     18723     18724     18725     18724     18726
     18727     18728     18727     18729     18730     18731     18730     18732
     18733     18734     18733     18735     18736     18737     18736     18738
     18739     18740     18739     18741     18742     18743     18742     18744
     18745     18746     18745     18747     18748     18749     18748     18750
     18751     18752     18751     18753     18754     18755     18754     18756
     18757     18758     18757     18759     18760     18761     18760     18762
     18763     18764     18763     18765     18766     18767     18766     18768
     18769     18770     18769     18771     18772     18773     18772     18774
     18775     18776     18775     18777     18778     18779     18778     18780
     18781     18782     18781     18783     18784     18785     18784     18786
     18787     18788     18787     18789     18790     18791     18790     18792
     18793     18794     18793     18795     18796     18797     18796     18798
     18799     18800     18799     18801     18802     18803     18802     18804
     18805     18806     18805     18807     18808     18809     18808     18810
     18811     18812     18811     18813     18814     18815     18814     18816
     18817     18818     18817     18819     18820     18821     18820     18822
     18823     18824     18823     18825     18826     18827     18826     18828
     18829     18830     18829     18831     18832     18833     18832     18834
     18835     18836     18835     18837     18838     18839     18838     18840
     18841     18842     18841     18843     18844     18845     18844     18846
     18847     18848     18847     18849     18850     18851     18850     18852
     18853     18854     18853     18855     18856     18857     18856     18858
     18859     18860     18859     18861     18862     18863     18862     18864
     18865     18866     18865     18867     18868     18869     18868     18870
     18871     18872     18871     18873     18874     18875     18874     18876
     18877     18878     18877     18879     18880     18881     18880     18882
     18883     18884     18883     18885     18886     18887     18886     18888
     18889     18890     18889     18891     18892     18893     18892     18894
     18895     18896     18895     18897     18898     18899     18898     18900
     18901     18902     18901     18903     18904     18905     18904     18906
     18907     18908     18907     18909     18910     18911     18910     18912
     18913     18914     18913     18915     18916     18917     18916     18918
     18919     18920     18919     18921     18922     18923     18922     18924
     18925     18926     18925     18927     18928     18929     18928     18930
     18931     18932     18931     18933     18934     18935     18934     18936
     18937     18938     18937     18939     18940     18941     18940     18942
     18943     18944     18943     18945     18946     18947     18946     18948
     18949     18950     18949     18951     18952     18953     18952     18954
     18955     18956     18955     18957     18958     18959     18958     18960
     18961     18962     18961     18963     18964     18965     18964     18966
     18967     18968     18967     18969     18970     18971     18970     18972
     18973     18974     18973     18975     18976     18977     18976     18978
     18979     18980     18979     18981     18982     18983     18982     18984
     18985     18986     18985     18987     18988     18989     18988     18990
     18991     18992     18991     18993     18994     18995     18994     18996
     18997     18998     18997     18999     19000     19001     19000     19002
     19003     19004     19003     19005     19006     19007     19006     19008
     19009     19010     19009     19011     19012     19013     19012     19014
     19015     19016     19015     19017     19018     19019     19018     19020
     19021     19022     19021     19023     19024     19025     19024     19026
     19027     19028     19027     19029     19030     19031     19030     19032
     19033     19034     19033     19035     19036     19037     19036     19038
     19039     19040     19039     19041     19042     19043     19042     19044
     19045     19046     19045     19047     19048     19049     19048     19050
     19051     19052     19051     19053     19054     19055     19054     19056
     19057     19058     19057     19059     19060     19061     19060     19062
     19063     19064     19063     19065     19066     19067     19066     19068
     19069     19070     19069     19071     19072     19073     19072     19074
     19075     19076     19075     19077     19078     19079     19078     19080
     19081     19082     19081     19083     19084     19085     19084     19086
     19087     19088     19087     19089     19090     19091     19090     19092
     19093     19094     19093     19095     19096     19097     19096     19098
     19099     19100     19099     19101     19102     19103     19102     19104
     19105     19106     19105     19107     19108     19109     19108     19110
     19111     19112     19111     19113     19114     19115     19114     19116
     19117     19118     19117     19119     19120     19121     19120     19122
     19123     19124     19123     19125     19126     19127     19126     19128
     19129     19130     19129     19131     19132     19133     19132     19134
     19135     19136     19135     19137     19138     19139     19138     19140
     19141     19142     19141     19143     19144     19145     19144     19146
     19147     19148     19147     19149     19150     19151     19150     19152
     19153     19154     19153     19155     19156     19157     19156     19158
     19159     19160     19159     19161     19162     19163     19162     19164
     19165     19166     19165     19167     19168     19169     19168     19170
     19171     19172     19171     19173     19174     19175     19174     19176
     19177     19178     19177     19179     19180     19181     19180     19182
     19183     19184     19183     19185     19186     19187     19186     19188
     19189     19190     19189     19191     19192     19193     19192     19194
     19195     19196     19195     19197     19198     19199     19198     19200
     19201     19202     19201     19203     19204     19205     19204     19206
     19207     19208     19207     19209     19210     19211     19210     19212
     19213     19214     19213     19215     19216     19217     19216     19218
     19219     19220     19219     19221     19222     19223     19222     19224
     19225     19226     19225     19227     19228     19229     19228     19230
     19231     19232     19231     19233     19234     19235     19234     19236
     19237     19238     19237     19239     19240     19241     19240     19242
     19243     19244     19243     19245     19246     19247     19246     19248
     19249     19250     19249     19251     19252     19253     19252     19254
     19255     19256     19255     19257     19258     19259     19258     19260
     19261     19262     19261     19263     19264     19265     19264     19266
     19267     19268     19267     19269     19270     19271     19270     19272
     19273     19274     19273     19275     19276     19277     19276     19278
     19279     19280     19279     19281     19282     19283     19282     19284
     19285     19286     19285     19287     19288     19289     19288     19290
     19291     19292     19291     19293     19294     19295     19294     19296
     19297     19298     19297     19299     19300     19301     19300     19302
     19303     19304     19303     19305     19306     19307     19306     19308
     19309     19310     19309     19311     19312     19313     19312     19314
     19315     19316     19315     19317     19318     19319     19318     19320
     19321     19322     19321     19323     19324     19325     19324     19326
     19327     19328     19327     19329     19330     19331     19330     19332
     19333     19334     19333     19335     19336     19337     19336     19338
     19339     19340     19339     19341     19342     19343     19342     19344
     19345     19346     19345     19347     19348     19349     19348     19350
     19351     19352     19351     19353     19354     19355     19354     19356
     19357     19358     19357     19359     19360     19361     19360     19362
     19363     19364     19363     19365     19366     19367     19366     19368
     19369     19370     19369     19371     19372     19373     19372     19374
     19375     19376     19375     19377     19378     19379     19378     19380
     19381     19382     19381     19383     19384     19385     19384     19386
     19387     19388     19387     19389     19390     19391     19390     19392
     19393     19394     19393     19395     19396     19397     19396     19398
     19399     19400     19399     19401     19402     19403     19402     19404
     19405     19406     19405     19407     19408     19409     19408     19410
     19411     19412     19411     19413     19414     19415     19414     19416
     19417     19418     19417     19419     19420     19421     19420     19422
     19423     19424     19423     19425     19426     19427     19426     19428
     19429     19430     19429     19431     19432     19433     19432     19434
     19435     19436     19435     19437     19438     19439     19438     19440
     19441     19442     19441     19443     19444     19445     19444     19446
     19447     19448     19447     19449     19450     19451     19450     19452
     19453     19454     19453     19455     19456     19457     19456     19458
     19459     19460     19459     19461     19462     19463     19462     19464
     19465     19466     19465     19467     19468     19469     19468     19470
     19471     19472     19471     19473     19474     19475     19474     19476
     19477     19478     19477     19479     19480     19481     19480     19482
     19483     19484     19483     19485     19486     19487     19486     19488
     19489     19490     19489     19491     19492     19493     19492     19494
     19495     19496     19495     19497     19498     19499     19498     19500
     19501     19502     19501     19503     19504     19505     19504     19506
     19507     19508     19507     19509     19510     19511     19510     19512
     19513     19514     19513     19515     19516     19517     19516     19518
     19519     19520     19519     19521     19522     19523     19522     19524
     19525     19526     19525     19527     19528     19529     19528     19530
     19531     19532     19531     19533     19534     19535     19534     19536
     19537     19538     19537     19539     19540     19541     19540     19542
     19543     19544     19543     19545     19546     19547     19546     19548
     19549     19550     19549     19551     19552     19553     19552     19554
     19555     19556     19555     19557     19558     19559     19558     19560
     19561     19562     19561     19563     19564     19565     19564     19566
     19567     19568     19567     19569     19570     19571     19570     19572
     19573     19574     19573     19575     19576     19577     19576     19578
     19579     19580     19579     19581     19582     19583     19582     19584
     19585     19586     19585     19587     19588     19589     19588     19590
     19591     19592     19591     19593     19594     19595     19594     19596
     19597     19598     19597     19599     19600     19601     19600     19602
     19603     19604     19603     19605     19606     19607     19606     19608
     19609     19610     19609     19611     19612     19613     19612     19614
     19615     19616     19615     19617     19618     19619     19618     19620
     19621     19622     19621     19623     19624     19625     19624     19626
     19627     19628     19627     19629     19630     19631     19630     19632
     19633     19634     19633     19635     19636     19637     19636     19638
     19639     19640     19639     19641     19642     19643     19642     19644
     19645     19646     19645     19647     19648     19649     19648     19650
     19651     19652     19651     19653     19654     19655     19654     19656
     19657     19658     19657     19659     19660     19661     19660     19662
     19663     19664     19663     19665     19666     19667     19666     19668
     19669     19670     19669     19671     19672     19673     19672     19674
     19675     19676     19675     19677     19678     19679     19678     19680
     19681     19682     19681     19683     19684     19685     19684     19686
     19687     19688     19687     19689     19690     19691     19690     19692
     19693     19694     19693     19695     19696     19697     19696     19698
     19699     19700     19699     19701     19702     19703     19702     19704
     19705     19706     19705     19707     19708     19709     19708     19710
     19711     19712     19711     19713     19714     19715     19714     19716
     19717     19718     19717     19719     19720     19721     19720     19722
     19723     19724     19723     19725     19726     19727     19726     19728
     19729     19730     19729     19731     19732     19733     19732     19734
     19735     19736     19735     19737     19738     19739     19738     19740
     19741     19742     19741     19743     19744     19745     19744     19746
     19747     19748     19747     19749     19750     19751     19750     19752
     19753     19754     19753     19755     19756     19757     19756     19758
     19759     19760     19759     19761     19762     19763     19762     19764
     19765     19766     19765     19767     19768     19769     19768     19770
     19771     19772     19771     19773     19774     19775     19774     19776
     19777     19778     19777     19779     19780     19781     19780     19782
     19783     19784     19783     19785     19786     19787     19786     19788
     19789     19790     19789     19791     19792     19793     19792     19794
     19795     19796     19795     19797     19798     19799     19798     19800
     19801     19802     19801     19803     19804     19805     19804     19806
     19807     19808     19807     19809     19810     19811     19810     19812
     19813     19814     19813     19815     19816     19817     19816     19818
     19819     19820     19819     19821     19822     19823     19822     19824
     19825     19826     19825     19827     19828     19829     19828     19830
     19831     19832     19831     19833     19834     19835     19834     19836
     19837     19838     19837     19839     19840     19841     19840     19842
     19843     19844     19843     19845     19846     19847     19846     19848
     19849     19850     19849     19851     19852     19853     19852     19854
     19855     19856     19855     19857     19858     19859     19858     19860
     19861     19862     19861     19863     19864     19865     19864     19866
     19867     19868     19867     19869     19870     19871     19870     19872
     19873     19874     19873     19875     19876     19877     19876     19878
     19879     19880     19879     19881     19882     19883     19882     19884
     19885     19886     19885     19887     19888     19889     19888     19890
     19891     19892     19891     19893     19894     19895     19894     19896
     19897     19898     19897     19899     19900     19901     19900     19902
     19903     19904     19903     19905     19906     19907     19906     19908
     19909     19910     19909     19911     19912     19913     19912     19914
     19915     19916     19915     19917     19918     19919     19918     19920
     19921     19922     19921     19923     19924     19925     19924     19926
     19927     19928     19927     19929     19930     19931     19930     19932
     19933     19934     19933     19935     19936     19937     19936     19938
     19939     19940     19939     19941     19942     19943     19942     19944
     19945     19946     19945     19947     19948     19949     19948     19950
     19951     19952     19951     19953     19954     19955     19954     19956
     19957     19958     19957     19959     19960     19961     19960     19962
     19963     19964     19963     19965     19966     19967     19966     19968
     19969     19970     19969     19971     19972     19973     19972     19974
     19975     19976     19975     19977     19978     19979     19978     19980
     19981     19982     19981     19983     19984     19985     19984     19986
     19987     19988     19987     19989     19990     19991     19990     19992
     19993     19994     19993     19995     19996     19997     19996     19998
     19999     20000     19999     20001     20002     20003     20002     20004
     20005     20006     20005     20007     20008     20009     20008     20010
     20011     20012     20011     20013     20014     20015     20014     20016
     20017     20018     20017     20019     20020     20021     20020     20022
     20023     20024     20023     20025     20026     20027     20026     20028
     20029     20030     20029     20031     20032     20033     20032     20034
     20035     20036     20035     20037     20038     20039     20038     20040
     20041     20042     20041     20043     20044     20045     20044     20046
     20047     20048     20047     20049     20050     20051     20050     20052
     20053     20054     20053     20055     20056     20057     20056     20058
     20059     20060     20059     20061     20062     20063     20062     20064
     20065     20066     20065     20067     20068     20069     20068     20070
     20071     20072     20071     20073     20074     20075     20074     20076
     20077     20078     20077     20079     20080     20081     20080     20082
     20083     20084     20083     20085     20086     20087     20086     20088
     20089     20090     20089     20091     20092     20093     20092     20094
     20095     20096     20095     20097     20098     20099     20098     20100
     20101     20102     20101     20103     20104     20105     20104     20106
     20107     20108     20107     20109     20110     20111     20110     20112
     20113     20114     20113     20115     20116     20117     20116     20118
     20119     20120     20119     20121     20122     20123     20122     20124
     20125     20126     20125     20127     20128     20129     20128     20130
     20131     20132     20131     20133     20134     20135     20134     20136
     20137     20138     20137     20139     20140     20141     20140     20142
     20143     20144     20143     20145     20146     20147     20146     20148
     20149     20150     20149     20151     20152     20153     20152     20154
     20155     20156     20155     20157     20158     20159     20158     20160
     20161     20162     20161     20163     20164     20165     20164     20166
     20167     20168     20167     20169     20170     20171     20170     20172
     20173     20174     20173     20175     20176     20177     20176     20178
     20179     20180     20179     20181     20182     20183     20182     20184
     20185     20186     20185     20187     20188     20189     20188     20190
     20191     20192     20191     20193     20194     20195     20194     20196
     20197     20198     20197     20199     20200     20201     20200     20202
     20203     20204     20203     20205     20206     20207     20206     20208
     20209     20210     20209     20211     20212     20213     20212     20214
     20215     20216     20215     20217     20218     20219     20218     20220
     20221     20222     20221     20223     20224     20225     20224     20226
     20227     20228     20227     20229     20230     20231     20230     20232
     20233     20234     20233     20235     20236     20237     20236     20238
     20239     20240     20239     20241     20242     20243     20242     20244
     20245     20246     20245     20247     20248     20249     20248     20250
     20251     20252     20251     20253     20254     20255     20254     20256
     20257     20258     20257     20259     20260     20261     20260     20262
     20263     20264     20263     20265     20266     20267     20266     20268
     20269     20270     20269     20271     20272     20273     20272     20274
     20275     20276     20275     20277     20278     20279     20278     20280
     20281     20282     20281     20283     20284     20285     20284     20286
     20287     20288     20287     20289     20290     20291     20290     20292
     20293     20294     20293     20295     20296     20297     20296     20298
     20299     20300     20299     20301     20302     20303     20302     20304
     20305     20306     20305     20307     20308     20309     20308     20310
     20311     20312     20311     20313     20314     20315     20314     20316
     20317     20318     20317     20319     20320     20321     20320     20322
     20323     20324     20323     20325     20326     20327     20326     20328
     20329     20330     20329     20331     20332     20333     20332     20334
     20335     20336     20335     20337     20338     20339     20338     20340
     20341     20342     20341     20343     20344     20345     20344     20346
     20347     20348     20347     20349     20350     20351     20350     20352
     20353     20354     20353     20355     20356     20357     20356     20358
     20359     20360     20359     20361     20362     20363     20362     20364
     20365     20366     20365     20367     20368     20369     20368     20370
     20371     20372     20371     20373     20374     20375     20374     20376
     20377     20378     20377     20379     20380     20381     20380     20382
     20383     20384     20383     20385     20386     20387     20386     20388
     20389     20390     20389     20391     20392     20393     20392     20394
     20395     20396     20395     20397     20398     20399     20398     20400
     20401     20402     20401     20403     20404     20405     20404     20406
     20407     20408     20407     20409     20410     20411     20410     20412
     20413     20414     20413     20415     20416     20417     20416     20418
     20419     20420     20419     20421     20422     20423     20422     20424
     20425     20426     20425     20427     20428     20429     20428     20430
     20431     20432     20431     20433     20434     20435     20434     20436
     20437     20438     20437     20439     20440     20441     20440     20442
     20443     20444     20443     20445     20446     20447     20446     20448
     20449     20450     20449     20451     20452     20453     20452     20454
     20455     20456     20455     20457     20458     20459     20458     20460
     20461     20462     20461     20463     20464     20465     20464     20466
     20467     20468     20467     20469     20470     20471     20470     20472
     20473     20474     20473     20475     20476     20477     20476     20478
     20479     20480     20479     20481     20482     20483     20482     20484
     20485     20486     20485     20487     20488     20489     20488     20490
     20491     20492     20491     20493     20494     20495     20494     20496
     20497     20498     20497     20499     20500     20501     20500     20502
     20503     20504     20503     20505     20506     20507     20506     20508
     20509     20510     20509     20511     20512     20513     20512     20514
     20515     20516     20515     20517     20518     20519     20518     20520
     20521     20522     20521     20523     20524     20525     20524     20526
     20527     20528     20527     20529     20530     20531     20530     20532
     20533     20534     20533     20535     20536     20537     20536     20538
     20539     20540     20539     20541     20542     20543     20542     20544
     20545     20546     20545     20547     20548     20549     20548     20550
     20551     20552     20551     20553     20554     20555     20554     20556
     20557     20558     20557     20559     20560     20561     20560     20562
     20563     20564     20563     20565     20566     20567     20566     20568
     20569     20570     20569     20571     20572     20573     20572     20574
     20575     20576     20575     20577     20578     20579     20578     20580
     20581     20582     20581     20583     20584     20585     20584     20586
     20587     20588     20587     20589     20590     20591     20590     20592
     20593     20594     20593     20595     20596     20597     20596     20598
     20599     20600     20599     20601     20602     20603     20602     20604
     20605     20606     20605     20607     20608     20609     20608     20610
     20611     20612     20611     20613     20614     20615     20614     20616
     20617     20618     20617     20619     20620     20621     20620     20622
     20623     20624     20623     20625     20626     20627     20626     20628
     20629     20630     20629     20631     20632     20633     20632     20634
     20635     20636     20635     20637     20638     20639     20638     20640
     20641     20642     20641     20643     20644     20645     20644     20646
     20647     20648     20647     20649     20650     20651     20650     20652
     20653     20654     20653     20655     20656     20657     20656     20658
     20659     20660     20659     20661     20662     20663     20662     20664
     20665     20666     20665     20667     20668     20669     20668     20670
     20671     20672     20671     20673     20674     20675     20674     20676
     20677     20678     20677     20679     20680     20681     20680     20682
     20683     20684     20683     20685     20686     20687     20686     20688
     20689     20690     20689     20691     20692     20693     20692     20694
     20695     20696     20695     20697     20698     20699     20698     20700
     20701     20702     20701     20703     20704     20705     20704     20706
     20707     20708     20707     20709     20710     20711     20710     20712
     20713     20714     20713     20715     20716     20717     20716     20718
     20719     20720     20719     20721     20722     20723     20722     20724
     20725     20726     20725     20727     20728     20729     20728     20730
     20731     20732     20731     20733     20734     20735     20734     20736
     20737     20738     20737     20739     20740     20741     20740     20742
     20743     20744     20743     20745     20746     20747     20746     20748
     20749     20750     20749     20751     20752     20753     20752     20754
     20755     20756     20755     20757     20758     20759     20758     20760
     20761     20762     20761     20763     20764     20765     20764     20766
     20767     20768     20767     20769     20770     20771     20770     20772
     20773     20774     20773     20775     20776     20777     20776     20778
     20779     20780     20779     20781     20782     20783     20782     20784
     20785     20786     20785     20787     20788     20789     20788     20790
     20791     20792     20791     20793     20794     20795     20794     20796
     20797     20798     20797     20799     20800     20801     20800     20802
     20803     20804     20803     20805     20806     20807     20806     20808
     20809     20810     20809     20811     20812     20813     20812     20814
     20815     20816     20815     20817     20818     20819     20818     20820
     20821     20822     20821     20823     20824     20825     20824     20826
     20827     20828     20827     20829     20830     20831     20830     20832
     20833     20834     20833     20835     20836     20837     20836     20838
     20839     20840     20839     20841     20842     20843     20842     20844
     20845     20846     20845     20847     20848     20849     20848     20850
     20851     20852     20851     20853     20854     20855     20854     20856
     20857     20858     20857     20859     20860     20861     20860     20862
     20863     20864     20863     20865     20866     20867     20866     20868
     20869     20870     20869     20871     20872     20873     20872     20874
     20875     20876     20875     20877     20878     20879     20878     20880
     20881     20882     20881     20883     20884     20885     20884     20886
     20887     20888     20887     20889     20890     20891     20890     20892
     20893     20894     20893     20895     20896     20897     20896     20898
     20899     20900     20899     20901     20902     20903     20902     20904
     20905     20906     20905     20907     20908     20909     20908     20910
     20911     20912     20911     20913     20914     20915     20914     20916
     20917     20918     20917     20919     20920     20921     20920     20922
     20923     20924     20923     20925     20926     20927     20926     20928
     20929     20930     20929     20931     20932     20933     20932     20934
     20935     20936     20935     20937     20938     20939     20938     20940
     20941     20942     20941     20943     20944     20945     20944     20946
     20947     20948     20947     20949     20950     20951     20950     20952
     20953     20954     20953     20955     20956     20957     20956     20958
     20959     20960     20959     20961     20962     20963     20962     20964
     20965     20966     20965     20967     20968     20969     20968     20970
     20971     20972     20971     20973     20974     20975     20974     20976
     20977     20978     20977     20979     20980     20981     20980     20982
     20983     20984     20983     20985     20986     20987     20986     20988
     20989     20990     20989     20991     20992     20993     20992     20994
     20995     20996     20995     20997     20998     20999     20998     21000
     21001     21002     21001     21003     21004     21005     21004     21006
     21007     21008     21007     21009     21010     21011     21010     21012
     21013     21014     21013     21015     21016     21017     21016     21018
     21019     21020     21019     21021     21022     21023     21022     21024
     21025     21026     21025     21027     21028     21029     21028     21030
     21031     21032     21031     21033     21034     21035     21034     21036
     21037     21038     21037     21039     21040     21041     21040     21042
     21043     21044     21043     21045     21046     21047     21046     21048
     21049     21050     21049     21051     21052     21053     21052     21054
     21055     21056     21055     21057     21058     21059     21058     21060
     21061     21062     21061     21063     21064     21065     21064     21066
     21067     21068     21067     21069     21070     21071     21070     21072
     21073     21074     21073     21075     21076     21077     21076     21078
     21079     21080     21079     21081     21082     21083     21082     21084
     21085     21086     21085     21087     21088     21089     21088     21090
     21091     21092     21091     21093     21094     21095     21094     21096
     21097     21098     21097     21099     21100     21101     21100     21102
     21103     21104     21103     21105     21106     21107     21106     21108
     21109     21110     21109     21111     21112     21113     21112     21114
     21115     21116     21115     21117     21118     21119     21118     21120
     21121     21122     21121     21123     21124     21125     21124     21126
     21127     21128     21127     21129     21130     21131     21130     21132
     21133     21134     21133     21135     21136     21137     21136     21138
     21139     21140     21139     21141     21142     21143     21142     21144
     21145     21146     21145     21147     21148     21149     21148     21150
     21151     21152     21151     21153     21154     21155     21154     21156
     21157     21158     21157     21159     21160     21161     21160     21162
     21163     21164     21163     21165     21166     21167     21166     21168
     21169     21170     21169     21171     21172     21173     21172     21174
     21175     21176     21175     21177     21178     21179     21178     21180
     21181     21182     21181     21183     21184     21185     21184     21186
     21187     21188     21187     21189     21190     21191     21190     21192
     21193     21194     21193     21195     21196     21197     21196     21198
     21199     21200     21199     21201     21202     21203     21202     21204
     21205     21206     21205     21207     21208     21209     21208     21210
     21211     21212     21211     21213     21214     21215     21214     21216
     21217     21218     21217     21219     21220     21221     21220     21222
     21223     21224     21223     21225     21226     21227     21226     21228
     21229     21230     21229     21231     21232     21233     21232     21234
     21235     21236     21235     21237     21238     21239     21238     21240
     21241     21242     21241     21243     21244     21245     21244     21246
     21247     21248     21247     21249     21250     21251     21250     21252
     21253     21254     21253     21255     21256     21257     21256     21258
     21259     21260     21259     21261     21262     21263     21262     21264
     21265     21266     21265     21267     21268     21269     21268     21270
     21271     21272     21271     21273     21274     21275     21274     21276
     21277     21278     21277     21279     21280     21281     21280     21282
     21283     21284     21283     21285     21286     21287     21286     21288
     21289     21290     21289     21291     21292     21293     21292     21294
     21295     21296     21295     21297     21298     21299     21298     21300
     21301     21302     21301     21303     21304     21305     21304     21306
     21307     21308     21307     21309     21310     21311     21310     21312
     21313     21314     21313     21315     21316     21317     21316     21318
     21319     21320     21319     21321     21322     21323     21322     21324
     21325     21326     21325     21327     21328     21329     21328     21330
     21331     21332     21331     21333     21334     21335     21334     21336
     21337     21338     21337     21339     21340     21341     21340     21342
     21343     21344     21343     21345     21346     21347     21346     21348
     21349     21350     21349     21351     21352     21353     21352     21354
     21355     21356     21355     21357     21358     21359     21358     21360
     21361     21362     21361     21363     21364     21365     21364     21366
     21367     21368     21367     21369     21370     21371     21370     21372
     21373     21374     21373     21375     21376     21377     21376     21378
     21379     21380     21379     21381     21382     21383     21382     21384
     21385     21386     21385     21387     21388     21389     21388     21390
     21391     21392     21391     21393     21394     21395     21394     21396
     21397     21398     21397     21399     21400     21401     21400     21402
     21403     21404     21403     21405     21406     21407     21406     21408
     21409     21410     21409     21411     21412     21413     21412     21414
     21415     21416     21415     21417     21418     21419     21418     21420
     21421     21422     21421     21423     21424     21425     21424     21426
     21427     21428     21427     21429     21430     21431     21430     21432
     21433     21434     21433     21435     21436     21437     21436     21438
     21439     21440     21439     21441     21442     21443     21442     21444
     21445     21446     21445     21447     21448     21449     21448     21450
     21451     21452     21451     21453     21454     21455     21454     21456
     21457     21458     21457     21459     21460     21461     21460     21462
     21463     21464     21463     21465     21466     21467     21466     21468
     21469     21470     21469     21471     21472     21473     21472     21474
     21475     21476     21475     21477     21478     21479     21478     21480
     21481     21482     21481     21483     21484     21485     21484     21486
     21487     21488     21487     21489     21490     21491     21490     21492
     21493     21494     21493     21495     21496     21497     21496     21498
     21499     21500     21499     21501     21502     21503     21502     21504
     21505     21506     21505     21507     21508     21509     21508     21510
     21511     21512     21511     21513     21514     21515     21514     21516
     21517     21518     21517     21519     21520     21521     21520     21522
     21523     21524     21523     21525     21526     21527     21526     21528
     21529     21530     21529     21531     21532     21533     21532     21534
     21535     21536     21535     21537     21538     21539     21538     21540
     21541     21542     21541     21543     21544     21545     21544     21546
     21547     21548     21547     21549     21550     21551     21550     21552
     21553     21554     21553     21555     21556     21557     21556     21558
     21559     21560     21559     21561     21562     21563     21562     21564
     21565     21566     21565     21567     21568     21569     21568     21570
     21571     21572     21571     21573     21574     21575     21574     21576
     21577     21578     21577     21579     21580     21581     21580     21582
     21583     21584     21583     21585     21586     21587     21586     21588
     21589     21590     21589     21591     21592     21593     21592     21594
     21595     21596     21595     21597     21598     21599     21598     21600
     21601     21602     21601     21603     21604     21605     21604     21606
     21607     21608     21607     21609     21610     21611     21610     21612
     21613     21614     21613     21615     21616     21617     21616     21618
     21619     21620     21619     21621     21622     21623     21622     21624
     21625     21626     21625     21627     21628     21629     21628     21630
     21631     21632     21631     21633     21634     21635     21634     21636
     21637     21638     21637     21639     21640     21641     21640     21642
     21643     21644     21643     21645     21646     21647     21646     21648
     21649     21650     21649     21651     21652     21653     21652     21654
     21655     21656     21655     21657     21658     21659     21658     21660
     21661     21662     21661     21663     21664     21665     21664     21666
     21667     21668     21667     21669     21670     21671     21670     21672
     21673     21674     21673     21675     21676     21677     21676     21678
     21679     21680     21679     21681     21682     21683     21682     21684
     21685     21686     21685     21687     21688     21689     21688     21690
     21691     21692     21691     21693     21694     21695     21694     21696
     21697     21698     21697     21699     21700     21701     21700     21702
     21703     21704     21703     21705     21706     21707     21706     21708
     21709     21710     21709     21711     21712     21713     21712     21714
     21715     21716     21715     21717     21718     21719     21718     21720
     21721     21722     21721     21723     21724     21725     21724     21726
     21727     21728     21727     21729     21730     21731     21730     21732
     21733     21734     21733     21735     21736     21737     21736     21738
     21739     21740     21739     21741     21742     21743     21742     21744
     21745     21746     21745     21747     21748     21749     21748     21750
     21751     21752     21751     21753     21754     21755     21754     21756
     21757     21758     21757     21759     21760     21761     21760     21762
     21763     21764     21763     21765     21766     21767     21766     21768
     21769     21770     21769     21771     21772     21773     21772     21774
     21775     21776     21775     21777     21778     21779     21778     21780
     21781     21782     21781     21783     21784     21785     21784     21786
     21787     21788     21787     21789     21790     21791     21790     21792
     21793     21794     21793     21795     21796     21797     21796     21798
     21799     21800     21799     21801     21802     21803     21802     21804
     21805     21806     21805     21807     21808     21809     21808     21810
     21811     21812     21811     21813     21814     21815     21814     21816
     21817     21818     21817     21819     21820     21821     21820     21822
     21823     21824     21823     21825     21826     21827     21826     21828
     21829     21830     21829     21831     21832     21833     21832     21834
     21835     21836     21835     21837     21838     21839     21838     21840
     21841     21842     21841     21843     21844     21845     21844     21846
     21847     21848     21847     21849     21850     21851     21850     21852
     21853     21854     21853     21855     21856     21857     21856     21858
     21859     21860     21859     21861     21862     21863     21862     21864
     21865     21866     21865     21867     21868     21869     21868     21870
     21871     21872     21871     21873     21874     21875     21874     21876
     21877     21878     21877     21879     21880     21881     21880     21882
     21883     21884     21883     21885     21886     21887     21886     21888
     21889     21890     21889     21891     21892     21893     21892     21894
     21895     21896     21895     21897     21898     21899     21898     21900
     21901     21902     21901     21903     21904     21905     21904     21906
     21907     21908     21907     21909     21910     21911     21910     21912
     21913     21914     21913     21915     21916     21917     21916     21918
     21919     21920     21919     21921     21922     21923     21922     21924
     21925     21926     21925     21927     21928     21929     21928     21930
     21931     21932     21931     21933     21934     21935     21934     21936
     21937     21938     21937     21939     21940     21941     21940     21942
     21943     21944     21943     21945     21946     21947     21946     21948
     21949     21950     21949     21951     21952     21953     21952     21954
     21955     21956     21955     21957     21958     21959     21958     21960
     21961     21962     21961     21963     21964     21965     21964     21966
     21967     21968     21967     21969     21970     21971     21970     21972
     21973     21974     21973     21975     21976     21977     21976     21978
     21979     21980     21979     21981     21982     21983     21982     21984
     21985     21986     21985     21987     21988     21989     21988     21990
     21991     21992     21991     21993     21994     21995     21994     21996
     21997     21998     21997     21999     22000     22001     22000     22002
     22003     22004     22003     22005     22006     22007     22006     22008
     22009     22010     22009     22011     22012     22013     22012     22014
     22015     22016     22015     22017     22018     22019     22018     22020
     22021     22022     22021     22023     22024     22025     22024     22026
     22027     22028     22027     22029     22030     22031     22030     22032
     22033     22034     22033     22035     22036     22037     22036     22038
     22039     22040     22039     22041     22042     22043     22042     22044
     22045     22046     22045     22047     22048     22049     22048     22050
     22051     22052     22051     22053     22054     22055     22054     22056
     22057     22058     22057     22059     22060     22061     22060     22062
     22063     22064     22063     22065     22066     22067     22066     22068
     22069     22070     22069     22071     22072     22073     22072     22074
     22075     22076     22075     22077     22078     22079     22078     22080
     22081     22082     22081     22083     22084     22085     22084     22086
     22087     22088     22087     22089     22090     22091     22090     22092
     22093     22094     22093     22095     22096     22097     22096     22098
     22099     22100     22099     22101     22102     22103     22102     22104
     22105     22106     22105     22107     22108     22109     22108     22110
     22111     22112     22111     22113     22114     22115     22114     22116
     22117     22118     22117     22119     22120     22121     22120     22122
     22123     22124     22123     22125     22126     22127     22126     22128
     22129     22130     22129     22131     22132     22133     22132     22134
     22135     22136     22135     22137     22138     22139     22138     22140
     22141     22142     22141     22143     22144     22145     22144     22146
     22147     22148     22147     22149     22150     22151     22150     22152
     22153     22154     22153     22155     22156     22157     22156     22158
     22159     22160     22159     22161     22162     22163     22162     22164
     22165     22166     22165     22167     22168     22169     22168     22170
     22171     22172     22171     22173     22174     22175     22174     22176
     22177     22178     22177     22179     22180     22181     22180     22182
     22183     22184     22183     22185     22186     22187     22186     22188
     22189     22190     22189     22191     22192     22193     22192     22194
     22195     22196     22195     22197     22198     22199     22198     22200
     22201     22202     22201     22203     22204     22205     22204     22206
     22207     22208     22207     22209     22210     22211     22210     22212
     22213     22214     22213     22215     22216     22217     22216     22218
     22219     22220     22219     22221     22222     22223     22222     22224
     22225     22226     22225     22227     22228     22229     22228     22230
     22231     22232     22231     22233     22234     22235     22234     22236
     22237     22238     22237     22239     22240     22241     22240     22242
     22243     22244     22243     22245     22246     22247     22246     22248
     22249     22250     22249     22251     22252     22253     22252     22254
     22255     22256     22255     22257     22258     22259     22258     22260
     22261     22262     22261     22263     22264     22265     22264     22266
     22267     22268     22267     22269     22270     22271     22270     22272
     22273     22274     22273     22275     22276     22277     22276     22278
     22279     22280     22279     22281     22282     22283     22282     22284
     22285     22286     22285     22287     22288     22289     22288     22290
     22291     22292     22291     22293     22294     22295     22294     22296
     22297     22298     22297     22299     22300     22301     22300     22302
     22303     22304     22303     22305     22306     22307     22306     22308
     22309     22310     22309     22311     22312     22313     22312     22314
     22315     22316     22315     22317     22318     22319     22318     22320
     22321     22322     22321     22323     22324     22325     22324     22326
     22327     22328     22327     22329     22330     22331     22330     22332
     22333     22334     22333     22335     22336     22337     22336     22338
     22339     22340     22339     22341     22342     22343     22342     22344
     22345     22346     22345     22347     22348     22349     22348     22350
     22351     22352     22351     22353     22354     22355     22354     22356
     22357     22358     22357     22359     22360     22361     22360     22362
     22363     22364     22363     22365     22366     22367     22366     22368
     22369     22370     22369     22371     22372     22373     22372     22374
     22375     22376     22375     22377     22378     22379     22378     22380
     22381     22382     22381     22383     22384     22385     22384     22386
     22387     22388     22387     22389     22390     22391     22390     22392
     22393     22394     22393     22395     22396     22397     22396     22398
     22399     22400     22399     22401     22402     22403     22402     22404
     22405     22406     22405     22407     22408     22409     22408     22410
     22411     22412     22411     22413     22414     22415     22414     22416
     22417     22418     22417     22419     22420     22421     22420     22422
     22423     22424     22423     22425     22426     22427     22426     22428
     22429     22430     22429     22431     22432     22433     22432     22434
     22435     22436     22435     22437     22438     22439     22438     22440
     22441     22442     22441     22443     22444     22445     22444     22446
     22447     22448     22447     22449     22450     22451     22450     22452
     22453     22454     22453     22455     22456     22457     22456     22458
     22459     22460     22459     22461     22462     22463     22462     22464
     22465     22466     22465     22467     22468     22469     22468     22470
     22471     22472     22471     22473     22474     22475     22474     22476
     22477     22478     22477     22479     22480     22481     22480     22482
     22483     22484     22483     22485     22486     22487     22486     22488
     22489     22490     22489     22491     22492     22493     22492     22494
     22495     22496     22495     22497     22498     22499     22498     22500
     22501     22502     22501     22503     22504     22505     22504     22506
     22507     22508     22507     22509     22510     22511     22510     22512
     22513     22514     22513     22515     22516     22517     22516     22518
     22519     22520     22519     22521     22522     22523     22522     22524
     22525     22526     22525     22527     22528     22529     22528     22530
     22531     22532     22531     22533     22534     22535     22534     22536
     22537     22538     22537     22539     22540     22541     22540     22542
     22543     22544     22543     22545     22546     22547     22546     22548
     22549     22550     22549     22551     22552     22553     22552     22554
     22555     22556     22555     22557     22558     22559     22558     22560
     22561     22562     22561     22563     22564     22565     22564     22566
     22567     22568     22567     22569     22570     22571     22570     22572
     22573     22574     22573     22575     22576     22577     22576     22578
     22579     22580     22579     22581     22582     22583     22582     22584
     22585     22586     22585     22587     22588     22589     22588     22590
     22591     22592     22591     22593     22594     22595     22594     22596
     22597     22598     22597     22599     22600     22601     22600     22602
     22603     22604     22603     22605     22606     22607     22606     22608
     22609     22610     22609     22611     22612     22613     22612     22614
     22615     22616     22615     22617     22618     22619     22618     22620
     22621     22622     22621     22623     22624     22625     22624     22626
     22627     22628     22627     22629     22630     22631     22630     22632
     22633     22634     22633     22635     22636     22637     22636     22638
     22639     22640     22639     22641     22642     22643     22642     22644
     22645     22646     22645     22647     22648     22649     22648     22650
     22651     22652     22651     22653     22654     22655     22654     22656
     22657     22658     22657     22659     22660     22661     22660     22662
     22663     22664     22663     22665     22666     22667     22666     22668
     22669     22670     22669     22671     22672     22673     22672     22674
     22675     22676     22675     22677     22678     22679     22678     22680
     22681     22682     22681     22683     22684     22685     22684     22686
     22687     22688     22687     22689     22690     22691     22690     22692
     22693     22694     22693     22695     22696     22697     22696     22698
     22699     22700     22699     22701     22702     22703     22702     22704
     22705     22706     22705     22707     22708     22709     22708     22710
     22711     22712     22711     22713     22714     22715     22714     22716
     22717     22718     22717     22719     22720     22721     22720     22722
     22723     22724     22723     22725     22726     22727     22726     22728
     22729     22730     22729     22731     22732     22733     22732     22734
     22735     22736     22735     22737     22738     22739     22738     22740
     22741     22742     22741     22743     22744     22745     22744     22746
     22747     22748     22747     22749     22750     22751     22750     22752
     22753     22754     22753     22755     22756     22757     22756     22758
     22759     22760     22759     22761     22762     22763     22762     22764
     22765     22766     22765     22767     22768     22769     22768     22770
     22771     22772     22771     22773     22774     22775     22774     22776
     22777     22778     22777     22779     22780     22781     22780     22782
     22783     22784     22783     22785     22786     22787     22786     22788
     22789     22790     22789     22791     22792     22793     22792     22794
     22795     22796     22795     22797     22798     22799     22798     22800
     22801     22802     22801     22803     22804     22805     22804     22806
     22807     22808     22807     22809     22810     22811     22810     22812
     22813     22814     22813     22815     22816     22817     22816     22818
     22819     22820     22819     22821     22822     22823     22822     22824
     22825     22826     22825     22827     22828     22829     22828     22830
     22831     22832     22831     22833     22834     22835     22834     22836
     22837     22838     22837     22839     22840     22841     22840     22842
     22843     22844     22843     22845     22846     22847     22846     22848
     22849     22850     22849     22851     22852     22853     22852     22854
     22855     22856     22855     22857     22858     22859     22858     22860
     22861     22862     22861     22863     22864     22865     22864     22866
     22867     22868     22867     22869     22870     22871     22870     22872
     22873     22874     22873     22875     22876     22877     22876     22878
     22879     22880     22879     22881     22882     22883     22882     22884
     22885     22886     22885     22887     22888     22889     22888     22890
     22891     22892     22891     22893     22894     22895     22894     22896
     22897     22898     22897     22899     22900     22901     22900     22902
     22903     22904     22903     22905     22906     22907     22906     22908
     22909     22910     22909     22911     22912     22913     22912     22914
     22915     22916     22915     22917     22918     22919     22918     22920
     22921     22922     22921     22923     22924     22925     22924     22926
     22927     22928     22927     22929     22930     22931     22930     22932
     22933     22934     22933     22935     22936     22937     22936     22938
     22939     22940     22939     22941     22942     22943     22942     22944
     22945     22946     22945     22947     22948     22949     22948     22950
     22951     22952     22951     22953     22954     22955     22954     22956
     22957     22958     22957     22959     22960     22961     22960     22962
     22963     22964     22963     22965     22966     22967     22966     22968
     22969     22970     22969     22971     22972     22973     22972     22974
     22975     22976     22975     22977     22978     22979     22978     22980
     22981     22982     22981     22983     22984     22985     22984     22986
     22987     22988     22987     22989     22990     22991     22990     22992
     22993     22994     22993     22995     22996     22997     22996     22998
     22999     23000     22999     23001     23002     23003     23002     23004
     23005     23006     23005     23007     23008     23009     23008     23010
     23011     23012     23011     23013     23014     23015     23014     23016
     23017     23018     23017     23019     23020     23021     23020     23022
     23023     23024     23023     23025     23026     23027     23026     23028
     23029     23030     23029     23031     23032     23033     23032     23034
     23035     23036     23035     23037     23038     23039     23038     23040
     23041     23042     23041     23043     23044     23045     23044     23046
     23047     23048     23047     23049     23050     23051     23050     23052
     23053     23054     23053     23055     23056     23057     23056     23058
     23059     23060     23059     23061     23062     23063     23062     23064
     23065     23066     23065     23067     23068     23069     23068     23070
     23071     23072     23071     23073     23074     23075     23074     23076
     23077     23078     23077     23079     23080     23081     23080     23082
     23083     23084     23083     23085     23086     23087     23086     23088
     23089     23090     23089     23091     23092     23093     23092     23094
     23095     23096     23095     23097     23098     23099     23098     23100
     23101     23102     23101     23103     23104     23105     23104     23106
     23107     23108     23107     23109     23110     23111     23110     23112
     23113     23114     23113     23115     23116     23117     23116     23118
     23119     23120     23119     23121     23122     23123     23122     23124
     23125     23126     23125     23127     23128     23129     23128     23130
     23131     23132     23131     23133     23134     23135     23134     23136
     23137     23138     23137     23139     23140     23141     23140     23142
     23143     23144     23143     23145     23146     23147     23146     23148
     23149     23150     23149     23151     23152     23153     23152     23154
     23155     23156     23155     23157     23158     23159     23158     23160
     23161     23162     23161     23163     23164     23165     23164     23166
     23167     23168     23167     23169     23170     23171     23170     23172
     23173     23174     23173     23175     23176     23177     23176     23178
     23179     23180     23179     23181     23182     23183     23182     23184
     23185     23186     23185     23187     23188     23189     23188     23190
     23191     23192     23191     23193     23194     23195     23194     23196
     23197     23198     23197     23199     23200     23201     23200     23202
     23203     23204     23203     23205     23206     23207     23206     23208
     23209     23210     23209     23211     23212     23213     23212     23214
     23215     23216     23215     23217     23218     23219     23218     23220
     23221     23222     23221     23223     23224     23225     23224     23226
     23227     23228     23227     23229     23230     23231     23230     23232
     23233     23234     23233     23235     23236     23237     23236     23238
     23239     23240     23239     23241     23242     23243     23242     23244
     23245     23246     23245     23247     23248     23249     23248     23250
     23251     23252     23251     23253     23254     23255     23254     23256
     23257     23258     23257     23259     23260     23261     23260     23262
     23263     23264     23263     23265     23266     23267     23266     23268
     23269     23270     23269     23271     23272     23273     23272     23274
     23275     23276     23275     23277     23278     23279     23278     23280
     23281     23282     23281     23283     23284     23285     23284     23286
     23287     23288     23287     23289     23290     23291     23290     23292
     23293     23294     23293     23295     23296     23297     23296     23298
     23299     23300     23299     23301     23302     23303     23302     23304
     23305     23306     23305     23307     23308     23309     23308     23310
     23311     23312     23311     23313     23314     23315     23314     23316
     23317     23318     23317     23319     23320     23321     23320     23322
     23323     23324     23323     23325     23326     23327     23326     23328
     23329     23330     23329     23331     23332     23333     23332     23334
     23335     23336     23335     23337     23338     23339     23338     23340
     23341     23342     23341     23343     23344     23345     23344     23346
     23347     23348     23347     23349     23350     23351     23350     23352
     23353     23354     23353     23355     23356     23357     23356     23358
     23359     23360     23359     23361     23362     23363     23362     23364
     23365     23366     23365     23367     23368     23369     23368     23370
     23371     23372     23371     23373     23374     23375     23374     23376
     23377     23378     23377     23379     23380     23381     23380     23382
     23383     23384     23383     23385     23386     23387     23386     23388
     23389     23390     23389     23391     23392     23393     23392     23394
     23395     23396     23395     23397     23398     23399     23398     23400
     23401     23402     23401     23403     23404     23405     23404     23406
     23407     23408     23407     23409     23410     23411     23410     23412
     23413     23414     23413     23415     23416     23417     23416     23418
     23419     23420     23419     23421     23422     23423     23422     23424
     23425     23426     23425     23427     23428     23429     23428     23430
     23431     23432     23431     23433     23434     23435     23434     23436
     23437     23438     23437     23439     23440     23441     23440     23442
     23443     23444     23443     23445     23446     23447     23446     23448
     23449     23450     23449     23451     23452     23453     23452     23454
     23455     23456     23455     23457     23458     23459     23458     23460
     23461     23462     23461     23463     23464     23465     23464     23466
     23467     23468     23467     23469     23470     23471     23470     23472
     23473     23474     23473     23475     23476     23477     23476     23478
     23479     23480     23479     23481     23482     23483     23482     23484
     23485     23486     23485     23487     23488     23489     23488     23490
     23491     23492     23491     23493     23494     23495     23494     23496
     23497     23498     23497     23499     23500     23501     23500     23502
     23503     23504     23503     23505     23506     23507     23506     23508
     23509     23510     23509     23511     23512     23513     23512     23514
     23515     23516     23515     23517     23518     23519     23518     23520
     23521     23522     23521     23523     23524     23525     23524     23526
     23527     23528     23527     23529     23530     23531     23530     23532
     23533     23534     23533     23535     23536     23537     23536     23538
     23539     23540     23539     23541     23542     23543     23542     23544
     23545     23546     23545     23547     23548     23549     23548     23550
     23551     23552     23551     23553     23554     23555     23554     23556
     23557     23558     23557     23559     23560     23561     23560     23562
     23563     23564     23563     23565     23566     23567     23566     23568
     23569     23570     23569     23571     23572     23573     23572     23574
     23575     23576     23575     23577     23578     23579     23578     23580
     23581     23582     23581     23583     23584     23585     23584     23586
     23587     23588     23587     23589     23590     23591     23590     23592
     23593     23594     23593     23595     23596     23597     23596     23598
     23599     23600     23599     23601     23602     23603     23602     23604
     23605     23606     23605     23607     23608     23609     23608     23610
     23611     23612     23611     23613     23614     23615     23614     23616
     23617     23618     23617     23619     23620     23621     23620     23622
     23623     23624     23623     23625     23626     23627     23626     23628
     23629     23630     23629     23631     23632     23633     23632     23634
     23635     23636     23635     23637     23638     23639     23638     23640
     23641     23642     23641     23643     23644     23645     23644     23646
     23647     23648     23647     23649     23650     23651     23650     23652
     23653     23654     23653     23655     23656     23657     23656     23658
     23659     23660     23659     23661     23662     23663     23662     23664
     23665     23666     23665     23667     23668     23669     23668     23670
     23671     23672     23671     23673     23674     23675     23674     23676
     23677     23678     23677     23679     23680     23681     23680     23682
     23683     23684     23683     23685     23686     23687     23686     23688
     23689     23690     23689     23691     23692     23693     23692     23694
     23695     23696     23695     23697     23698     23699     23698     23700
     23701     23702     23701     23703     23704     23705     23704     23706
     23707     23708     23707     23709     23710     23711     23710     23712
     23713     23714     23713     23715     23716     23717     23716     23718
     23719     23720     23719     23721     23722     23723     23722     23724
     23725     23726     23725     23727     23728     23729     23728     23730
     23731     23732     23731     23733     23734     23735     23734     23736
     23737     23738     23737     23739     23740     23741     23740     23742
     23743     23744     23743     23745     23746     23747     23746     23748
     23749     23750     23749     23751     23752     23753     23752     23754
     23755     23756     23755     23757     23758     23759     23758     23760
     23761     23762     23761     23763     23764     23765     23764     23766
     23767     23768     23767     23769     23770     23771     23770     23772
     23773     23774     23773     23775     23776     23777     23776     23778
     23779     23780     23779     23781     23782     23783     23782     23784
     23785     23786     23785     23787     23788     23789     23788     23790
     23791     23792     23791     23793     23794     23795     23794     23796
     23797     23798     23797     23799     23800     23801     23800     23802
     23803     23804     23803     23805     23806     23807     23806     23808
     23809     23810     23809     23811     23812     23813     23812     23814
     23815     23816     23815     23817     23818     23819     23818     23820
     23821     23822     23821     23823     23824     23825     23824     23826
     23827     23828     23827     23829     23830     23831     23830     23832
     23833     23834     23833     23835     23836     23837     23836     23838
     23839     23840     23839     23841     23842     23843     23842     23844
     23845     23846     23845     23847     23848     23849     23848     23850
     23851     23852     23851     23853     23854     23855     23854     23856
     23857     23858     23857     23859     23860     23861     23860     23862
     23863     23864     23863     23865     23866     23867     23866     23868
     23869     23870     23869     23871     23872     23873     23872     23874
     23875     23876     23875     23877     23878     23879     23878     23880
     23881     23882     23881     23883     23884     23885     23884     23886
     23887     23888     23887     23889     23890     23891     23890     23892
     23893     23894     23893     23895     23896     23897     23896     23898
     23899     23900     23899     23901     23902     23903     23902     23904
     23905     23906     23905     23907     23908     23909     23908     23910
     23911     23912     23911     23913     23914     23915     23914     23916
     23917     23918     23917     23919     23920     23921     23920     23922
     23923     23924     23923     23925     23926     23927     23926     23928
     23929     23930     23929     23931     23932     23933     23932     23934
     23935     23936     23935     23937     23938     23939     23938     23940
     23941     23942     23941     23943     23944     23945     23944     23946
     23947     23948     23947     23949     23950     23951     23950     23952
     23953     23954     23953     23955     23956     23957     23956     23958
     23959     23960     23959     23961     23962     23963     23962     23964
     23965     23966     23965     23967     23968     23969     23968     23970
     23971     23972     23971     23973     23974     23975     23974     23976
     23977     23978     23977     23979     23980     23981     23980     23982
     23983     23984     23983     23985     23986     23987     23986     23988
     23989     23990     23989     23991     23992     23993     23992     23994
     23995     23996     23995     23997     23998     23999     23998     24000
     24001     24002     24001     24003     24004     24005     24004     24006
     24007     24008     24007     24009     24010     24011     24010     24012
     24013     24014     24013     24015     24016     24017     24016     24018
     24019     24020     24019     24021     24022     24023     24022     24024
     24025     24026     24025     24027     24028     24029     24028     24030
     24031     24032     24031     24033     24034     24035     24034     24036
     24037     24038     24037     24039     24040     24041     24040     24042
     24043     24044     24043     24045     24046     24047     24046     24048
     24049     24050     24049     24051     24052     24053     24052     24054
     24055     24056     24055     24057     24058     24059     24058     24060
     24061     24062     24061     24063     24064     24065     24064     24066
     24067     24068     24067     24069     24070     24071     24070     24072
     24073     24074     24073     24075     24076     24077     24076     24078
     24079     24080     24079     24081     24082     24083     24082     24084
     24085     24086     24085     24087     24088     24089     24088     24090
     24091     24092     24091     24093     24094     24095     24094     24096
     24097     24098     24097     24099     24100     24101     24100     24102
     24103     24104     24103     24105     24106     24107     24106     24108
     24109     24110     24109     24111     24112     24113     24112     24114
     24115     24116     24115     24117     24118     24119     24118     24120
     24121     24122     24121     24123     24124     24125     24124     24126
     24127     24128     24127     24129     24130     24131     24130     24132
     24133     24134     24133     24135     24136     24137     24136     24138
     24139     24140     24139     24141     24142     24143     24142     24144
     24145     24146     24145     24147     24148     24149     24148     24150
     24151     24152     24151     24153     24154     24155     24154     24156
     24157     24158     24157     24159     24160     24161     24160     24162
     24163     24164     24163     24165     24166     24167     24166     24168
     24169     24170     24169     24171     24172     24173     24172     24174
     24175     24176     24175     24177     24178     24179     24178     24180
     24181     24182     24181     24183     24184     24185     24184     24186
     24187     24188     24187     24189     24190     24191     24190     24192
     24193     24194     24193     24195     24196     24197     24196     24198
     24199     24200     24199     24201     24202     24203     24202     24204
     24205     24206     24205     24207     24208     24209     24208     24210
     24211     24212     24211     24213     24214     24215     24214     24216
     24217     24218     24217     24219     24220     24221     24220     24222
     24223     24224     24223     24225     24226     24227     24226     24228
     24229     24230     24229     24231     24232     24233     24232     24234
     24235     24236     24235     24237     24238     24239     24238     24240
     24241     24242     24241     24243     24244     24245     24244     24246
     24247     24248     24247     24249     24250     24251     24250     24252
     24253     24254     24253     24255     24256     24257     24256     24258
     24259     24260     24259     24261     24262     24263     24262     24264
     24265     24266     24265     24267     24268     24269     24268     24270
     24271     24272     24271     24273     24274     24275     24274     24276
     24277     24278     24277     24279     24280     24281     24280     24282
     24283     24284     24283     24285     24286     24287     24286     24288
     24289     24290     24289     24291     24292     24293     24292     24294
     24295     24296     24295     24297     24298     24299     24298     24300
     24301     24302     24301     24303     24304     24305     24304     24306
     24307     24308     24307     24309     24310     24311     24310     24312
     24313     24314     24313     24315     24316     24317     24316     24318
     24319     24320     24319     24321     24322     24323     24322     24324
     24325     24326     24325     24327     24328     24329     24328     24330
     24331     24332     24331     24333     24334     24335     24334     24336
     24337     24338     24337     24339     24340     24341     24340     24342
     24343     24344     24343     24345     24346     24347     24346     24348
     24349     24350     24349     24351     24352     24353     24352     24354
     24355     24356     24355     24357     24358     24359     24358     24360
     24361     24362     24361     24363     24364     24365     24364     24366
     24367     24368     24367     24369     24370     24371     24370     24372
     24373     24374     24373     24375     24376     24377     24376     24378
     24379     24380     24379     24381     24382     24383     24382     24384
     24385     24386     24385     24387     24388     24389     24388     24390
     24391     24392     24391     24393     24394     24395     24394     24396
     24397     24398     24397     24399     24400     24401     24400     24402
     24403     24404     24403     24405     24406     24407     24406     24408
     24409     24410     24409     24411     24412     24413     24412     24414
     24415     24416     24415     24417     24418     24419     24418     24420
     24421     24422     24421     24423     24424     24425     24424     24426
     24427     24428     24427     24429     24430     24431     24430     24432
     24433     24434     24433     24435     24436     24437     24436     24438
     24439     24440     24439     24441     24442     24443     24442     24444
     24445     24446     24445     24447     24448     24449     24448     24450
     24451     24452     24451     24453     24454     24455     24454     24456
     24457     24458     24457     24459     24460     24461     24460     24462
     24463     24464     24463     24465     24466     24467     24466     24468
     24469     24470     24469     24471     24472     24473     24472     24474
     24475     24476     24475     24477     24478     24479     24478     24480
     24481     24482     24481     24483     24484     24485     24484     24486
     24487     24488     24487     24489     24490     24491     24490     24492
     24493     24494     24493     24495     24496     24497     24496     24498
     24499     24500     24499     24501     24502     24503     24502     24504
     24505     24506     24505     24507     24508     24509     24508     24510
     24511     24512     24511     24513     24514     24515     24514     24516
     24517     24518     24517     24519     24520     24521     24520     24522
     24523     24524     24523     24525     24526     24527     24526     24528
     24529     24530     24529     24531     24532     24533     24532     24534
     24535     24536     24535     24537     24538     24539     24538     24540
     24541     24542     24541     24543     24544     24545     24544     24546
     24547     24548     24547     24549     24550     24551     24550     24552
     24553     24554     24553     24555     24556     24557     24556     24558
     24559     24560     24559     24561     24562     24563     24562     24564
     24565     24566     24565     24567     24568     24569     24568     24570
     24571     24572     24571     24573     24574     24575     24574     24576
     24577     24578     24577     24579     24580     24581     24580     24582
     24583     24584     24583     24585     24586     24587     24586     24588
     24589     24590     24589     24591     24592     24593     24592     24594
     24595     24596     24595     24597     24598     24599     24598     24600
     24601     24602     24601     24603     24604     24605     24604     24606
     24607     24608     24607     24609     24610     24611     24610     24612
     24613     24614     24613     24615     24616     24617     24616     24618
     24619     24620     24619     24621     24622     24623     24622     24624
     24625     24626     24625     24627     24628     24629     24628     24630
     24631     24632     24631     24633     24634     24635     24634     24636
     24637     24638     24637     24639     24640     24641     24640     24642
     24643     24644     24643     24645     24646     24647     24646     24648
     24649     24650     24649     24651     24652     24653     24652     24654
     24655     24656     24655     24657     24658     24659     24658     24660
     24661     24662     24661     24663     24664     24665     24664     24666
     24667     24668     24667     24669     24670     24671     24670     24672
     24673     24674     24673     24675     24676     24677     24676     24678
     24679     24680     24679     24681     24682     24683     24682     24684
     24685     24686     24685     24687     24688     24689     24688     24690
     24691     24692     24691     24693     24694     24695     24694     24696
     24697     24698     24697     24699     24700     24701     24700     24702
     24703     24704     24703     24705     24706     24707     24706     24708
     24709     24710     24709     24711     24712     24713     24712     24714
     24715     24716     24715     24717     24718     24719     24718     24720
     24721     24722     24721     24723     24724     24725     24724     24726
     24727     24728     24727     24729     24730     24731     24730     24732
     24733     24734     24733     24735     24736     24737     24736     24738
     24739     24740     24739     24741     24742     24743     24742     24744
     24745     24746     24745     24747     24748     24749     24748     24750
     24751     24752     24751     24753     24754     24755     24754     24756
     24757     24758     24757     24759     24760     24761     24760     24762
     24763     24764     24763     24765     24766     24767     24766     24768
     24769     24770     24769     24771     24772     24773     24772     24774
     24775     24776     24775     24777     24778     24779     24778     24780
     24781     24782     24781     24783     24784     24785     24784     24786
     24787     24788     24787     24789     24790     24791     24790     24792
     24793     24794     24793     24795     24796     24797     24796     24798
     24799     24800     24799     24801     24802     24803     24802     24804
     24805     24806     24805     24807     24808     24809     24808     24810
     24811     24812     24811     24813     24814     24815     24814     24816
     24817     24818     24817     24819     24820     24821     24820     24822
     24823     24824     24823     24825     24826     24827     24826     24828
     24829     24830     24829     24831     24832     24833     24832     24834
     24835     24836     24835     24837     24838     24839     24838     24840
     24841     24842     24841     24843     24844     24845     24844     24846
     24847     24848     24847     24849     24850     24851     24850     24852
     24853     24854     24853     24855     24856     24857     24856     24858
     24859     24860     24859     24861     24862     24863     24862     24864
     24865     24866     24865     24867     24868     24869     24868     24870
     24871     24872     24871     24873     24874     24875     24874     24876
     24877     24878     24877     24879     24880     24881     24880     24882
     24883     24884     24883     24885     24886     24887     24886     24888
     24889     24890     24889     24891     24892     24893     24892     24894
     24895     24896     24895     24897     24898     24899     24898     24900
     24901     24902     24901     24903     24904     24905     24904     24906
     24907     24908     24907     24909     24910     24911     24910     24912
     24913     24914     24913     24915     24916     24917     24916     24918
     24919     24920     24919     24921     24922     24923     24922     24924
     24925     24926     24925     24927     24928     24929     24928     24930
     24931     24932     24931     24933     24934     24935     24934     24936
     24937     24938     24937     24939     24940     24941     24940     24942
     24943     24944     24943     24945     24946     24947     24946     24948
     24949     24950     24949     24951     24952     24953     24952     24954
     24955     24956     24955     24957     24958     24959     24958     24960
     24961     24962     24961     24963     24964     24965     24964     24966
     24967     24968     24967     24969     24970     24971     24970     24972
     24973     24974     24973     24975     24976     24977     24976     24978
     24979     24980     24979     24981     24982     24983     24982     24984
     24985     24986     24985     24987     24988     24989     24988     24990
     24991     24992     24991     24993     24994     24995     24994     24996
     24997     24998     24997     24999     25000     25001     25000     25002
     25003     25004     25003     25005     25006     25007     25006     25008
     25009     25010     25009     25011     25012     25013     25012     25014
     25015     25016     25015     25017     25018     25019     25018     25020
     25021     25022     25021     25023     25024     25025     25024     25026
     25027     25028     25027     25029     25030     25031     25030     25032
     25033     25034     25033     25035     25036     25037     25036     25038
     25039     25040     25039     25041     25042     25043     25042     25044
     25045     25046     25045     25047     25048     25049     25048     25050
     25051     25052     25051     25053     25054     25055     25054     25056
     25057     25058     25057     25059     25060     25061     25060     25062
     25063     25064     25063     25065     25066     25067     25066     25068
     25069     25070     25069     25071     25072     25073     25072     25074
     25075     25076     25075     25077     25078     25079     25078     25080
     25081     25082     25081     25083     25084     25085     25084     25086
     25087     25088     25087     25089     25090     25091     25090     25092
     25093     25094     25093     25095     25096     25097     25096     25098
     25099     25100     25099     25101     25102     25103     25102     25104
     25105     25106     25105     25107     25108     25109     25108     25110
     25111     25112     25111     25113     25114     25115     25114     25116
     25117     25118     25117     25119     25120     25121     25120     25122
     25123     25124     25123     25125     25126     25127     25126     25128
     25129     25130     25129     25131     25132     25133     25132     25134
     25135     25136     25135     25137     25138     25139     25138     25140
     25141     25142     25141     25143     25144     25145     25144     25146
     25147     25148     25147     25149     25150     25151     25150     25152
     25153     25154     25153     25155     25156     25157     25156     25158
     25159     25160     25159     25161     25162     25163     25162     25164
     25165     25166     25165     25167     25168     25169     25168     25170
     25171     25172     25171     25173     25174     25175     25174     25176
     25177     25178     25177     25179     25180     25181     25180     25182
     25183     25184     25183     25185     25186     25187     25186     25188
     25189     25190     25189     25191     25192     25193     25192     25194
     25195     25196     25195     25197     25198     25199     25198     25200
     25201     25202     25201     25203     25204     25205     25204     25206
     25207     25208     25207     25209     25210     25211     25210     25212
     25213     25214     25213     25215     25216     25217     25216     25218
     25219     25220     25219     25221     25222     25223     25222     25224
     25225     25226     25225     25227     25228     25229     25228     25230
     25231     25232     25231     25233     25234     25235     25234     25236
     25237     25238     25237     25239     25240     25241     25240     25242
     25243     25244     25243     25245     25246     25247     25246     25248
     25249     25250     25249     25251     25252     25253     25252     25254
     25255     25256     25255     25257     25258     25259     25258     25260
     25261     25262     25261     25263     25264     25265     25264     25266
     25267     25268     25267     25269     25270     25271     25270     25272
     25273     25274     25273     25275     25276     25277     25276     25278
     25279     25280     25279     25281     25282     25283     25282     25284
     25285     25286     25285     25287     25288     25289     25288     25290
     25291     25292     25291     25293     25294     25295     25294     25296
     25297     25298     25297     25299     25300     25301     25300     25302
     25303     25304     25303     25305     25306     25307     25306     25308
     25309     25310     25309     25311     25312     25313     25312     25314
     25315     25316     25315     25317     25318     25319     25318     25320
     25321     25322     25321     25323     25324     25325     25324     25326
     25327     25328     25327     25329     25330     25331     25330     25332
     25333     25334     25333     25335     25336     25337     25336     25338
     25339     25340     25339     25341     25342     25343     25342     25344
     25345     25346     25345     25347     25348     25349     25348     25350
     25351     25352     25351     25353     25354     25355     25354     25356
     25357     25358     25357     25359     25360     25361     25360     25362
     25363     25364     25363     25365     25366     25367     25366     25368
     25369     25370     25369     25371     25372     25373     25372     25374
     25375     25376     25375     25377     25378     25379     25378     25380
     25381     25382     25381     25383     25384     25385     25384     25386
     25387     25388     25387     25389     25390     25391     25390     25392
     25393     25394     25393     25395     25396     25397     25396     25398
     25399     25400     25399     25401     25402     25403     25402     25404
     25405     25406     25405     25407     25408     25409     25408     25410
     25411     25412     25411     25413     25414     25415     25414     25416
     25417     25418     25417     25419     25420     25421     25420     25422
     25423     25424     25423     25425     25426     25427     25426     25428
     25429     25430     25429     25431     25432     25433     25432     25434
     25435     25436     25435     25437     25438     25439     25438     25440
     25441     25442     25441     25443     25444     25445     25444     25446
     25447     25448     25447     25449     25450     25451     25450     25452
     25453     25454     25453     25455     25456     25457     25456     25458
     25459     25460     25459     25461     25462     25463     25462     25464
     25465     25466     25465     25467     25468     25469     25468     25470
     25471     25472     25471     25473     25474     25475     25474     25476
     25477     25478     25477     25479     25480     25481     25480     25482
     25483     25484     25483     25485     25486     25487     25486     25488
     25489     25490     25489     25491     25492     25493     25492     25494
     25495     25496     25495     25497     25498     25499     25498     25500
     25501     25502     25501     25503     25504     25505     25504     25506
     25507     25508     25507     25509     25510     25511     25510     25512
     25513     25514     25513     25515     25516     25517     25516     25518
     25519     25520     25519     25521     25522     25523     25522     25524
     25525     25526     25525     25527     25528     25529     25528     25530
     25531     25532     25531     25533     25534     25535     25534     25536
     25537     25538     25537     25539     25540     25541     25540     25542
     25543     25544     25543     25545     25546     25547     25546     25548
     25549     25550     25549     25551     25552     25553     25552     25554
     25555     25556     25555     25557     25558     25559     25558     25560
     25561     25562     25561     25563     25564     25565     25564     25566
     25567     25568     25567     25569     25570     25571     25570     25572
     25573     25574     25573     25575     25576     25577     25576     25578
     25579     25580     25579     25581     25582     25583     25582     25584
     25585     25586     25585     25587     25588     25589     25588     25590
     25591     25592     25591     25593     25594     25595     25594     25596
     25597     25598     25597     25599     25600     25601     25600     25602
     25603     25604     25603     25605     25606     25607     25606     25608
     25609     25610     25609     25611     25612     25613     25612     25614
     25615     25616     25615     25617     25618     25619     25618     25620
     25621     25622     25621     25623     25624     25625     25624     25626
     25627     25628     25627     25629     25630     25631     25630     25632
     25633     25634     25633     25635     25636     25637     25636     25638
     25639     25640     25639     25641     25642     25643     25642     25644
     25645     25646     25645     25647     25648     25649     25648     25650
     25651     25652     25651     25653     25654     25655     25654     25656
     25657     25658     25657     25659     25660     25661     25660     25662
     25663     25664     25663     25665     25666     25667     25666     25668
     25669     25670     25669     25671     25672     25673     25672     25674
     25675     25676     25675     25677     25678     25679     25678     25680
     25681     25682     25681     25683     25684     25685     25684     25686
     25687     25688     25687     25689     25690     25691     25690     25692
     25693     25694     25693     25695     25696     25697     25696     25698
     25699     25700     25699     25701     25702     25703     25702     25704
     25705     25706     25705     25707     25708     25709     25708     25710
     25711     25712     25711     25713     25714     25715     25714     25716
     25717     25718     25717     25719     25720     25721     25720     25722
     25723     25724     25723     25725     25726     25727     25726     25728
     25729     25730     25729     25731     25732     25733     25732     25734
     25735     25736     25735     25737     25738     25739     25738     25740
     25741     25742     25741     25743     25744     25745     25744     25746
     25747     25748     25747     25749     25750     25751     25750     25752
     25753     25754     25753     25755     25756     25757     25756     25758
     25759     25760     25759     25761     25762     25763     25762     25764
     25765     25766     25765     25767     25768     25769     25768     25770
     25771     25772     25771     25773     25774     25775     25774     25776
     25777     25778     25777     25779     25780     25781     25780     25782
     25783     25784     25783     25785     25786     25787     25786     25788
     25789     25790     25789     25791     25792     25793     25792     25794
     25795     25796     25795     25797     25798     25799     25798     25800
     25801     25802     25801     25803     25804     25805     25804     25806
     25807     25808     25807     25809     25810     25811     25810     25812
     25813     25814     25813     25815     25816     25817     25816     25818
     25819     25820     25819     25821     25822     25823     25822     25824
     25825     25826     25825     25827     25828     25829     25828     25830
     25831     25832     25831     25833     25834     25835     25834     25836
     25837     25838     25837     25839     25840     25841     25840     25842
     25843     25844     25843     25845     25846     25847     25846     25848
     25849     25850     25849     25851     25852     25853     25852     25854
     25855     25856     25855     25857     25858     25859     25858     25860
     25861     25862     25861     25863     25864     25865     25864     25866
     25867     25868     25867     25869     25870     25871     25870     25872
     25873     25874     25873     25875     25876     25877     25876     25878
     25879     25880     25879     25881     25882     25883     25882     25884
     25885     25886     25885     25887     25888     25889     25888     25890
     25891     25892     25891     25893     25894     25895     25894     25896
     25897     25898     25897     25899     25900     25901     25900     25902
     25903     25904     25903     25905     25906     25907     25906     25908
     25909     25910     25909     25911     25912     25913     25912     25914
     25915     25916     25915     25917     25918     25919     25918     25920
     25921     25922     25921     25923     25924     25925     25924     25926
     25927     25928     25927     25929     25930     25931     25930     25932
     25933     25934     25933     25935     25936     25937     25936     25938
     25939     25940     25939     25941     25942     25943     25942     25944
     25945     25946     25945     25947     25948     25949     25948     25950
     25951     25952     25951     25953     25954     25955     25954     25956
     25957     25958     25957     25959     25960     25961     25960     25962
     25963     25964     25963     25965     25966     25967     25966     25968
     25969     25970     25969     25971     25972     25973     25972     25974
     25975     25976     25975     25977     25978     25979     25978     25980
     25981     25982     25981     25983     25984     25985     25984     25986
     25987     25988     25987     25989     25990     25991     25990     25992
     25993     25994     25993     25995     25996     25997     25996     25998
     25999     26000     25999     26001     26002     26003     26002     26004
     26005     26006     26005     26007     26008     26009     26008     26010
     26011     26012     26011     26013     26014     26015     26014     26016
     26017     26018     26017     26019     26020     26021     26020     26022
     26023     26024     26023     26025     26026     26027     26026     26028
     26029     26030     26029     26031     26032     26033     26032     26034
     26035     26036     26035     26037     26038     26039     26038     26040
     26041     26042     26041     26043     26044     26045     26044     26046
     26047     26048     26047     26049     26050     26051     26050     26052
     26053     26054     26053     26055     26056     26057     26056     26058
     26059     26060     26059     26061     26062     26063     26062     26064
     26065     26066     26065     26067     26068     26069     26068     26070
     26071     26072     26071     26073     26074     26075     26074     26076
     26077     26078     26077     26079     26080     26081     26080     26082
     26083     26084     26083     26085     26086     26087     26086     26088
     26089     26090     26089     26091     26092     26093     26092     26094
     26095     26096     26095     26097     26098     26099     26098     26100
     26101     26102     26101     26103     26104     26105     26104     26106
     26107     26108     26107     26109     26110     26111     26110     26112
     26113     26114     26113     26115     26116     26117     26116     26118
     26119     26120     26119     26121     26122     26123     26122     26124
     26125     26126     26125     26127     26128     26129     26128     26130
     26131     26132     26131     26133     26134     26135     26134     26136
     26137     26138     26137     26139     26140     26141     26140     26142
     26143     26144     26143     26145     26146     26147     26146     26148
     26149     26150     26149     26151     26152     26153     26152     26154
     26155     26156     26155     26157     26158     26159     26158     26160
     26161     26162     26161     26163     26164     26165     26164     26166
     26167     26168     26167     26169     26170     26171     26170     26172
     26173     26174     26173     26175     26176     26177     26176     26178
     26179     26180     26179     26181     26182     26183     26182     26184
     26185     26186     26185     26187     26188     26189     26188     26190
     26191     26192     26191     26193     26194     26195     26194     26196
     26197     26198     26197     26199     26200     26201     26200     26202
     26203     26204     26203     26205     26206     26207     26206     26208
     26209     26210     26209     26211     26212     26213     26212     26214
     26215     26216     26215     26217     26218     26219     26218     26220
     26221     26222     26221     26223     26224     26225     26224     26226
     26227     26228     26227     26229     26230     26231     26230     26232
     26233     26234     26233     26235     26236     26237     26236     26238
     26239     26240     26239     26241     26242     26243     26242     26244
     26245     26246     26245     26247     26248     26249     26248     26250
     26251     26252     26251     26253     26254     26255     26254     26256
     26257     26258     26257     26259     26260     26261     26260     26262
     26263     26264     26263     26265     26266     26267     26266     26268
     26269     26270     26269     26271     26272     26273     26272     26274
     26275     26276     26275     26277     26278     26279     26278     26280
     26281     26282     26281     26283     26284     26285     26284     26286
     26287     26288     26287     26289     26290     26291     26290     26292
     26293     26294     26293     26295     26296     26297     26296     26298
     26299     26300     26299     26301     26302     26303     26302     26304
     26305     26306     26305     26307     26308     26309     26308     26310
     26311     26312     26311     26313     26314     26315     26314     26316
     26317     26318     26317     26319     26320     26321     26320     26322
     26323     26324     26323     26325     26326     26327     26326     26328
     26329     26330     26329     26331     26332     26333     26332     26334
     26335     26336     26335     26337     26338     26339     26338     26340
     26341     26342     26341     26343     26344     26345     26344     26346
     26347     26348     26347     26349     26350     26351     26350     26352
     26353     26354     26353     26355     26356     26357     26356     26358
     26359     26360     26359     26361     26362     26363     26362     26364
     26365     26366     26365     26367     26368     26369     26368     26370
     26371     26372     26371     26373     26374     26375     26374     26376
     26377     26378     26377     26379     26380     26381     26380     26382
     26383     26384     26383     26385     26386     26387     26386     26388
     26389     26390     26389     26391     26392     26393     26392     26394
     26395     26396     26395     26397     26398     26399     26398     26400
     26401     26402     26401     26403     26404     26405     26404     26406
     26407     26408     26407     26409     26410     26411     26410     26412
     26413     26414     26413     26415     26416     26417     26416     26418
     26419     26420     26419     26421     26422     26423     26422     26424
     26425     26426     26425     26427     26428     26429     26428     26430
     26431     26432     26431     26433     26434     26435     26434     26436
     26437     26438     26437     26439     26440     26441     26440     26442
     26443     26444     26443     26445     26446     26447     26446     26448
     26449     26450     26449     26451     26452     26453     26452     26454
     26455     26456     26455     26457     26458     26459     26458     26460
     26461     26462     26461     26463     26464     26465     26464     26466
     26467     26468     26467     26469     26470     26471     26470     26472
     26473     26474     26473     26475     26476     26477     26476     26478
     26479     26480     26479     26481     26482     26483     26482     26484
     26485     26486     26485     26487     26488     26489     26488     26490
     26491     26492     26491     26493     26494     26495     26494     26496
     26497     26498     26497     26499     26500     26501     26500     26502
     26503     26504     26503     26505     26506     26507     26506     26508
     26509     26510     26509     26511     26512     26513     26512     26514
     26515     26516     26515     26517     26518     26519     26518     26520
     26521     26522     26521     26523     26524     26525     26524     26526
     26527     26528     26527     26529     26530     26531     26530     26532
     26533     26534     26533     26535     26536     26537     26536     26538
     26539     26540     26539     26541     26542     26543     26542     26544
     26545     26546     26545     26547     26548     26549     26548     26550
     26551     26552     26551     26553     26554     26555     26554     26556
     26557     26558     26557     26559     26560     26561     26560     26562
     26563     26564     26563     26565     26566     26567     26566     26568
     26569     26570     26569     26571     26572     26573     26572     26574
     26575     26576     26575     26577     26578     26579     26578     26580
     26581     26582     26581     26583     26584     26585     26584     26586
     26587     26588     26587     26589     26590     26591     26590     26592
     26593     26594     26593     26595     26596     26597     26596     26598
     26599     26600     26599     26601     26602     26603     26602     26604
     26605     26606     26605     26607     26608     26609     26608     26610
     26611     26612     26611     26613     26614     26615     26614     26616
     26617     26618     26617     26619     26620     26621     26620     26622
     26623     26624     26623     26625     26626     26627     26626     26628
     26629     26630     26629     26631     26632     26633     26632     26634
     26635     26636     26635     26637     26638     26639     26638     26640
     26641     26642     26641     26643     26644     26645     26644     26646
     26647     26648     26647     26649     26650     26651     26650     26652
     26653     26654     26653     26655     26656     26657     26656     26658
     26659     26660     26659     26661     26662     26663     26662     26664
     26665     26666     26665     26667     26668     26669     26668     26670
     26671     26672     26671     26673     26674     26675     26674     26676
     26677     26678     26677     26679     26680     26681     26680     26682
     26683     26684     26683     26685     26686     26687     26686     26688
     26689     26690     26689     26691     26692     26693     26692     26694
     26695     26696     26695     26697     26698     26699     26698     26700
     26701     26702     26701     26703     26704     26705     26704     26706
     26707     26708     26707     26709     26710     26711     26710     26712
     26713     26714     26713     26715     26716     26717     26716     26718
     26719     26720     26719     26721     26722     26723     26722     26724
     26725     26726     26725     26727     26728     26729     26728     26730
     26731     26732     26731     26733     26734     26735     26734     26736
     26737     26738     26737     26739     26740     26741     26740     26742
     26743     26744     26743     26745     26746     26747     26746     26748
     26749     26750     26749     26751     26752     26753     26752     26754
     26755     26756     26755     26757     26758     26759     26758     26760
     26761     26762     26761     26763     26764     26765     26764     26766
     26767     26768     26767     26769     26770     26771     26770     26772
     26773     26774     26773     26775     26776     26777     26776     26778
     26779     26780     26779     26781     26782     26783     26782     26784
     26785     26786     26785     26787     26788     26789     26788     26790
     26791     26792     26791     26793     26794     26795     26794     26796
     26797     26798     26797     26799     26800     26801     26800     26802
     26803     26804     26803     26805     26806     26807     26806     26808
     26809     26810     26809     26811     26812     26813     26812     26814
     26815     26816     26815     26817     26818     26819     26818     26820
     26821     26822     26821     26823     26824     26825     26824     26826
     26827     26828     26827     26829     26830     26831     26830     26832
     26833     26834     26833     26835     26836     26837     26836     26838
     26839     26840     26839     26841     26842     26843     26842     26844
     26845     26846     26845     26847     26848     26849     26848     26850
     26851     26852     26851     26853     26854     26855     26854     26856
     26857     26858     26857     26859     26860     26861     26860     26862
     26863     26864     26863     26865     26866     26867     26866     26868
     26869     26870     26869     26871     26872     26873     26872     26874
     26875     26876     26875     26877     26878     26879     26878     26880
     26881     26882     26881     26883     26884     26885     26884     26886
     26887     26888     26887     26889     26890     26891     26890     26892
     26893     26894     26893     26895     26896     26897     26896     26898
     26899     26900     26899     26901     26902     26903     26902     26904
     26905     26906     26905     26907     26908     26909     26908     26910
     26911     26912     26911     26913     26914     26915     26914     26916
     26917     26918     26917     26919     26920     26921     26920     26922
     26923     26924     26923     26925     26926     26927     26926     26928
     26929     26930     26929     26931     26932     26933     26932     26934
     26935     26936     26935     26937     26938     26939     26938     26940
     26941     26942     26941     26943     26944     26945     26944     26946
     26947     26948     26947     26949     26950     26951     26950     26952
     26953     26954     26953     26955     26956     26957     26956     26958
     26959     26960     26959     26961     26962     26963     26962     26964
     26965     26966     26965     26967     26968     26969     26968     26970
     26971     26972     26971     26973     26974     26975     26974     26976
     26977     26978     26977     26979     26980     26981     26980     26982
     26983     26984     26983     26985     26986     26987     26986     26988
     26989     26990     26989     26991     26992     26993     26992     26994
     26995     26996     26995     26997     26998     26999     26998     27000
     27001     27002     27001     27003     27004     27005     27004     27006
     27007     27008     27007     27009     27010     27011     27010     27012
     27013     27014     27013     27015     27016     27017     27016     27018
     27019     27020     27019     27021     27022     27023     27022     27024
     27025     27026     27025     27027     27028     27029     27028     27030
     27031     27032     27031     27033     27034     27035     27034     27036
     27037     27038     27037     27039     27040     27041     27040     27042
     27043     27044     27043     27045     27046     27047     27046     27048
     27049     27050     27049     27051     27052     27053     27052     27054
     27055     27056     27055     27057     27058     27059     27058     27060
     27061     27062     27061     27063     27064     27065     27064     27066
     27067     27068     27067     27069     27070     27071     27070     27072
     27073     27074     27073     27075     27076     27077     27076     27078
     27079     27080     27079     27081     27082     27083     27082     27084
     27085     27086     27085     27087     27088     27089     27088     27090
     27091     27092     27091     27093     27094     27095     27094     27096
     27097     27098     27097     27099     27100     27101     27100     27102
     27103     27104     27103     27105     27106     27107     27106     27108
     27109     27110     27109     27111     27112     27113     27112     27114
     27115     27116     27115     27117     27118     27119     27118     27120
     27121     27122     27121     27123     27124     27125     27124     27126
     27127     27128     27127     27129     27130     27131     27130     27132
     27133     27134     27133     27135     27136     27137     27136     27138
     27139     27140     27139     27141     27142     27143     27142     27144
     27145     27146     27145     27147     27148     27149     27148     27150
     27151     27152     27151     27153     27154     27155     27154     27156
     27157     27158     27157     27159     27160     27161     27160     27162
     27163     27164     27163     27165     27166     27167     27166     27168
     27169     27170     27169     27171     27172     27173     27172     27174
     27175     27176     27175     27177     27178     27179     27178     27180
     27181     27182     27181     27183     27184     27185     27184     27186
     27187     27188     27187     27189     27190     27191     27190     27192
     27193     27194     27193     27195     27196     27197     27196     27198
     27199     27200     27199     27201     27202     27203     27202     27204
     27205     27206     27205     27207     27208     27209     27208     27210
     27211     27212     27211     27213     27214     27215     27214     27216
     27217     27218     27217     27219     27220     27221     27220     27222
     27223     27224     27223     27225     27226     27227     27226     27228
     27229     27230     27229     27231     27232     27233     27232     27234
     27235     27236     27235     27237     27238     27239     27238     27240
     27241     27242     27241     27243     27244     27245     27244     27246
     27247     27248     27247     27249     27250     27251     27250     27252
     27253     27254     27253     27255     27256     27257     27256     27258
     27259     27260     27259     27261     27262     27263     27262     27264
     27265     27266     27265     27267     27268     27269     27268     27270
     27271     27272     27271     27273     27274     27275     27274     27276
     27277     27278     27277     27279     27280     27281     27280     27282
     27283     27284     27283     27285     27286     27287     27286     27288
     27289     27290     27289     27291     27292     27293     27292     27294
     27295     27296     27295     27297     27298     27299     27298     27300
     27301     27302     27301     27303     27304     27305     27304     27306
     27307     27308     27307     27309     27310     27311     27310     27312
     27313     27314     27313     27315     27316     27317     27316     27318
     27319     27320     27319     27321     27322     27323     27322     27324
     27325     27326     27325     27327     27328     27329     27328     27330
     27331     27332     27331     27333     27334     27335     27334     27336
     27337     27338     27337     27339     27340     27341     27340     27342
     27343     27344     27343     27345     27346     27347     27346     27348
     27349     27350     27349     27351     27352     27353     27352     27354
     27355     27356     27355     27357     27358     27359     27358     27360
     27361     27362     27361     27363     27364     27365     27364     27366
     27367     27368     27367     27369     27370     27371     27370     27372
     27373     27374     27373     27375     27376     27377     27376     27378
     27379     27380     27379     27381     27382     27383     27382     27384
     27385     27386     27385     27387     27388     27389     27388     27390
     27391     27392     27391     27393     27394     27395     27394     27396
     27397     27398     27397     27399     27400     27401     27400     27402
     27403     27404     27403     27405     27406     27407     27406     27408
     27409     27410     27409     27411     27412     27413     27412     27414
     27415     27416     27415     27417     27418     27419     27418     27420
     27421     27422     27421     27423     27424     27425     27424     27426
     27427     27428     27427     27429     27430     27431     27430     27432
     27433     27434     27433     27435     27436     27437     27436     27438
     27439     27440     27439     27441     27442     27443     27442     27444
     27445     27446     27445     27447     27448     27449     27448     27450
     27451     27452     27451     27453     27454     27455     27454     27456
     27457     27458     27457     27459     27460     27461     27460     27462
     27463     27464     27463     27465     27466     27467     27466     27468
     27469     27470     27469     27471     27472     27473     27472     27474
     27475     27476     27475     27477     27478     27479     27478     27480
     27481     27482     27481     27483     27484     27485     27484     27486
     27487     27488     27487     27489     27490     27491     27490     27492
     27493     27494     27493     27495     27496     27497     27496     27498
     27499     27500     27499     27501     27502     27503     27502     27504
     27505     27506     27505     27507     27508     27509     27508     27510
     27511     27512     27511     27513     27514     27515     27514     27516
     27517     27518     27517     27519     27520     27521     27520     27522
     27523     27524     27523     27525     27526     27527     27526     27528
     27529     27530     27529     27531     27532     27533     27532     27534
     27535     27536     27535     27537     27538     27539     27538     27540
     27541     27542     27541     27543     27544     27545     27544     27546
     27547     27548     27547     27549     27550     27551     27550     27552
     27553     27554     27553     27555     27556     27557     27556     27558
     27559     27560     27559     27561     27562     27563     27562     27564
     27565     27566     27565     27567     27568     27569     27568     27570
     27571     27572     27571     27573     27574     27575     27574     27576
     27577     27578     27577     27579     27580     27581     27580     27582
     27583     27584     27583     27585     27586     27587     27586     27588
     27589     27590     27589     27591     27592     27593     27592     27594
     27595     27596     27595     27597     27598     27599     27598     27600
     27601     27602     27601     27603     27604     27605     27604     27606
     27607     27608     27607     27609     27610     27611     27610     27612
     27613     27614     27613     27615     27616     27617     27616     27618
     27619     27620     27619     27621     27622     27623     27622     27624
     27625     27626     27625     27627     27628     27629     27628     27630
     27631     27632     27631     27633     27634     27635     27634     27636
     27637     27638     27637     27639     27640     27641     27640     27642
     27643     27644     27643     27645     27646     27647     27646     27648
     27649     27650     27649     27651     27652     27653     27652     27654
     27655     27656     27655     27657     27658     27659     27658     27660
     27661     27662     27661     27663     27664     27665     27664     27666
     27667     27668     27667     27669     27670     27671     27670     27672
     27673     27674     27673     27675     27676     27677     27676     27678
     27679     27680     27679     27681     27682     27683     27682     27684
     27685     27686     27685     27687     27688     27689     27688     27690
     27691     27692     27691     27693     27694     27695     27694     27696
     27697     27698     27697     27699     27700     27701     27700     27702
     27703     27704     27703     27705     27706     27707     27706     27708
     27709     27710     27709     27711     27712     27713     27712     27714
     27715     27716     27715     27717     27718     27719     27718     27720
     27721     27722     27721     27723     27724     27725     27724     27726
     27727     27728     27727     27729     27730     27731     27730     27732
     27733     27734     27733     27735     27736     27737     27736     27738
     27739     27740     27739     27741     27742     27743     27742     27744
     27745     27746     27745     27747     27748     27749     27748     27750
     27751     27752     27751     27753     27754     27755     27754     27756
     27757     27758     27757     27759     27760     27761     27760     27762
     27763     27764     27763     27765     27766     27767     27766     27768
     27769     27770     27769     27771     27772     27773     27772     27774
     27775     27776     27775     27777     27778     27779     27778     27780
     27781     27782     27781     27783     27784     27785     27784     27786
     27787     27788     27787     27789     27790     27791     27790     27792
     27793     27794     27793     27795     27796     27797     27796     27798
     27799     27800     27799     27801     27802     27803     27802     27804
     27805     27806     27805     27807     27808     27809     27808     27810
     27811     27812     27811     27813     27814     27815     27814     27816
     27817     27818     27817     27819     27820     27821     27820     27822
     27823     27824     27823     27825     27826     27827     27826     27828
     27829     27830     27829     27831     27832     27833     27832     27834
     27835     27836     27835     27837     27838     27839     27838     27840
     27841     27842     27841     27843     27844     27845     27844     27846
     27847     27848     27847     27849     27850     27851     27850     27852
     27853     27854     27853     27855     27856     27857     27856     27858
     27859     27860     27859     27861     27862     27863     27862     27864
     27865     27866     27865     27867     27868     27869     27868     27870
     27871     27872     27871     27873     27874     27875     27874     27876
     27877     27878     27877     27879     27880     27881     27880     27882
     27883     27884     27883     27885     27886     27887     27886     27888
     27889     27890     27889     27891     27892     27893     27892     27894
     27895     27896     27895     27897     27898     27899     27898     27900
     27901     27902     27901     27903     27904     27905     27904     27906
     27907     27908     27907     27909     27910     27911     27910     27912
     27913     27914     27913     27915     27916     27917     27916     27918
     27919     27920     27919     27921     27922     27923     27922     27924
     27925     27926     27925     27927     27928     27929     27928     27930
     27931     27932     27931     27933     27934     27935     27934     27936
     27937     27938     27937     27939     27940     27941     27940     27942
     27943     27944     27943     27945     27946     27947     27946     27948
     27949     27950     27949     27951     27952     27953     27952     27954
     27955     27956     27955     27957     27958     27959     27958     27960
     27961     27962     27961     27963     27964     27965     27964     27966
     27967     27968     27967     27969     27970     27971     27970     27972
     27973     27974     27973     27975     27976     27977     27976     27978
     27979     27980     27979     27981     27982     27983     27982     27984
     27985     27986     27985     27987     27988     27989     27988     27990
     27991     27992     27991     27993     27994     27995     27994     27996
     27997     27998     27997     27999     28000     28001     28000     28002
     28003     28004     28003     28005     28006     28007     28006     28008
     28009     28010     28009     28011     28012     28013     28012     28014
     28015     28016     28015     28017     28018     28019     28018     28020
     28021     28022     28021     28023     28024     28025     28024     28026
     28027     28028     28027     28029     28030     28031     28030     28032
     28033     28034     28033     28035     28036     28037     28036     28038
     28039     28040     28039     28041     28042     28043     28042     28044
     28045     28046     28045     28047     28048     28049     28048     28050
     28051     28052     28051     28053     28054     28055     28054     28056
     28057     28058     28057     28059     28060     28061     28060     28062
     28063     28064     28063     28065     28066     28067     28066     28068
     28069     28070     28069     28071     28072     28073     28072     28074
     28075     28076     28075     28077     28078     28079     28078     28080
     28081     28082     28081     28083     28084     28085     28084     28086
     28087     28088     28087     28089     28090     28091     28090     28092
     28093     28094     28093     28095     28096     28097     28096     28098
     28099     28100     28099     28101     28102     28103     28102     28104
     28105     28106     28105     28107     28108     28109     28108     28110
     28111     28112     28111     28113     28114     28115     28114     28116
     28117     28118     28117     28119     28120     28121     28120     28122
     28123     28124     28123     28125     28126     28127     28126     28128
     28129     28130     28129     28131     28132     28133     28132     28134
     28135     28136     28135     28137     28138     28139     28138     28140
     28141     28142     28141     28143     28144     28145     28144     28146
     28147     28148     28147     28149     28150     28151     28150     28152
     28153     28154     28153     28155     28156     28157     28156     28158
     28159     28160     28159     28161     28162     28163     28162     28164
     28165     28166     28165     28167     28168     28169     28168     28170
     28171     28172     28171     28173     28174     28175     28174     28176
     28177     28178     28177     28179     28180     28181     28180     28182
     28183     28184     28183     28185     28186     28187     28186     28188
     28189     28190     28189     28191     28192     28193     28192     28194
     28195     28196     28195     28197     28198     28199     28198     28200
     28201     28202     28201     28203     28204     28205     28204     28206
     28207     28208     28207     28209     28210     28211     28210     28212
     28213     28214     28213     28215     28216     28217     28216     28218
     28219     28220     28219     28221     28222     28223     28222     28224
     28225     28226     28225     28227     28228     28229     28228     28230
     28231     28232     28231     28233     28234     28235     28234     28236
     28237     28238     28237     28239     28240     28241     28240     28242
     28243     28244     28243     28245     28246     28247     28246     28248
     28249     28250     28249     28251     28252     28253     28252     28254
     28255     28256     28255     28257     28258     28259     28258     28260
     28261     28262     28261     28263     28264     28265     28264     28266
     28267     28268     28267     28269     28270     28271     28270     28272
     28273     28274     28273     28275     28276     28277     28276     28278
     28279     28280     28279     28281     28282     28283     28282     28284
     28285     28286     28285     28287     28288     28289     28288     28290
     28291     28292     28291     28293     28294     28295     28294     28296
     28297     28298     28297     28299     28300     28301     28300     28302
     28303     28304     28303     28305     28306     28307     28306     28308
     28309     28310     28309     28311     28312     28313     28312     28314
     28315     28316     28315     28317     28318     28319     28318     28320
     28321     28322     28321     28323     28324     28325     28324     28326
     28327     28328     28327     28329     28330     28331     28330     28332
     28333     28334     28333     28335     28336     28337     28336     28338
     28339     28340     28339     28341     28342     28343     28342     28344
     28345     28346     28345     28347     28348     28349     28348     28350
     28351     28352     28351     28353     28354     28355     28354     28356
     28357     28358     28357     28359     28360     28361     28360     28362
     28363     28364     28363     28365     28366     28367     28366     28368
     28369     28370     28369     28371     28372     28373     28372     28374
     28375     28376     28375     28377     28378     28379     28378     28380
     28381     28382     28381     28383     28384     28385     28384     28386
     28387     28388     28387     28389     28390     28391     28390     28392
     28393     28394     28393     28395     28396     28397     28396     28398
     28399     28400     28399     28401     28402     28403     28402     28404
     28405     28406     28405     28407     28408     28409     28408     28410
     28411     28412     28411     28413     28414     28415     28414     28416
     28417     28418     28417     28419     28420     28421     28420     28422
     28423     28424     28423     28425     28426     28427     28426     28428
     28429     28430     28429     28431     28432     28433     28432     28434
     28435     28436     28435     28437     28438     28439     28438     28440
     28441     28442     28441     28443     28444     28445     28444     28446
     28447     28448     28447     28449     28450     28451     28450     28452
     28453     28454     28453     28455     28456     28457     28456     28458
     28459     28460     28459     28461     28462     28463     28462     28464
     28465     28466     28465     28467     28468     28469     28468     28470
     28471     28472     28471     28473     28474     28475     28474     28476
     28477     28478     28477     28479     28480     28481     28480     28482
     28483     28484     28483     28485     28486     28487     28486     28488
     28489     28490     28489     28491     28492     28493     28492     28494
     28495     28496     28495     28497     28498     28499     28498     28500
     28501     28502     28501     28503     28504     28505     28504     28506
     28507     28508     28507     28509     28510     28511     28510     28512
     28513     28514     28513     28515     28516     28517     28516     28518
     28519     28520     28519     28521     28522     28523     28522     28524
     28525     28526     28525     28527     28528     28529     28528     28530
     28531     28532     28531     28533     28534     28535     28534     28536
     28537     28538     28537     28539     28540     28541     28540     28542
     28543     28544     28543     28545     28546     28547     28546     28548
     28549     28550     28549     28551     28552     28553     28552     28554
     28555     28556     28555     28557     28558     28559     28558     28560
     28561     28562     28561     28563     28564     28565     28564     28566
     28567     28568     28567     28569     28570     28571     28570     28572
     28573     28574     28573     28575     28576     28577     28576     28578
     28579     28580     28579     28581     28582     28583     28582     28584
     28585     28586     28585     28587     28588     28589     28588     28590
     28591     28592     28591     28593     28594     28595     28594     28596
     28597     28598     28597     28599     28600     28601     28600     28602
     28603     28604     28603     28605     28606     28607     28606     28608
     28609     28610     28609     28611     28612     28613     28612     28614
     28615     28616     28615     28617     28618     28619     28618     28620
     28621     28622     28621     28623     28624     28625     28624     28626
     28627     28628     28627     28629     28630     28631     28630     28632
     28633     28634     28633     28635     28636     28637     28636     28638
     28639     28640     28639     28641     28642     28643     28642     28644
     28645     28646     28645     28647     28648     28649     28648     28650
     28651     28652     28651     28653     28654     28655     28654     28656
     28657     28658     28657     28659     28660     28661     28660     28662
     28663     28664     28663     28665     28666     28667     28666     28668
     28669     28670     28669     28671     28672     28673     28672     28674
     28675     28676     28675     28677     28678     28679     28678     28680
     28681     28682     28681     28683     28684     28685     28684     28686
     28687     28688     28687     28689     28690     28691     28690     28692
     28693     28694     28693     28695     28696     28697     28696     28698
     28699     28700     28699     28701     28702     28703     28702     28704
     28705     28706     28705     28707     28708     28709     28708     28710
     28711     28712     28711     28713     28714     28715     28714     28716
     28717     28718     28717     28719     28720     28721     28720     28722
     28723     28724     28723     28725     28726     28727     28726     28728
     28729     28730     28729     28731     28732     28733     28732     28734
     28735     28736     28735     28737     28738     28739     28738     28740
     28741     28742     28741     28743     28744     28745     28744     28746
     28747     28748     28747     28749     28750     28751     28750     28752
     28753     28754     28753     28755     28756     28757     28756     28758
     28759     28760     28759     28761     28762     28763     28762     28764
     28765     28766     28765     28767     28768     28769     28768     28770
     28771     28772     28771     28773     28774     28775     28774     28776
     28777     28778     28777     28779     28780     28781     28780     28782
     28783     28784     28783     28785     28786     28787     28786     28788
     28789     28790     28789     28791     28792     28793     28792     28794
     28795     28796     28795     28797     28798     28799     28798     28800
     28801     28802     28801     28803     28804     28805     28804     28806
     28807     28808     28807     28809     28810     28811     28810     28812
     28813     28814     28813     28815     28816     28817     28816     28818
     28819     28820     28819     28821     28822     28823     28822     28824
     28825     28826     28825     28827     28828     28829     28828     28830
     28831     28832     28831     28833     28834     28835     28834     28836
     28837     28838     28837     28839     28840     28841     28840     28842
     28843     28844     28843     28845     28846     28847     28846     28848
     28849     28850     28849     28851     28852     28853     28852     28854
     28855     28856     28855     28857     28858     28859     28858     28860
     28861     28862     28861     28863     28864     28865     28864     28866
     28867     28868     28867     28869     28870     28871     28870     28872
     28873     28874     28873     28875     28876     28877     28876     28878
     28879     28880     28879     28881     28882     28883     28882     28884
     28885     28886     28885     28887     28888     28889     28888     28890
     28891     28892     28891     28893     28894     28895     28894     28896
     28897     28898     28897     28899     28900     28901     28900     28902
     28903     28904     28903     28905     28906     28907     28906     28908
     28909     28910     28909     28911     28912     28913     28912     28914
     28915     28916     28915     28917     28918     28919     28918     28920
     28921     28922     28921     28923     28924     28925     28924     28926
     28927     28928     28927     28929     28930     28931     28930     28932
     28933     28934     28933     28935     28936     28937     28936     28938
     28939     28940     28939     28941     28942     28943     28942     28944
     28945     28946     28945     28947     28948     28949     28948     28950
     28951     28952     28951     28953     28954     28955     28954     28956
     28957     28958     28957     28959     28960     28961     28960     28962
     28963     28964     28963     28965     28966     28967     28966     28968
     28969     28970     28969     28971     28972     28973     28972     28974
     28975     28976     28975     28977     28978     28979     28978     28980
     28981     28982     28981     28983     28984     28985     28984     28986
     28987     28988     28987     28989     28990     28991     28990     28992
     28993     28994     28993     28995     28996     28997     28996     28998
     28999     29000     28999     29001     29002     29003     29002     29004
     29005     29006     29005     29007     29008     29009     29008     29010
     29011     29012     29011     29013     29014     29015     29014     29016
     29017     29018     29017     29019     29020     29021     29020     29022
     29023     29024     29023     29025     29026     29027     29026     29028
     29029     29030     29029     29031     29032     29033     29032     29034
     29035     29036     29035     29037     29038     29039     29038     29040
     29041     29042     29041     29043     29044     29045     29044     29046
     29047     29048     29047     29049     29050     29051     29050     29052
     29053     29054     29053     29055     29056     29057     29056     29058
     29059     29060     29059     29061     29062     29063     29062     29064
     29065     29066     29065     29067     29068     29069     29068     29070
     29071     29072     29071     29073     29074     29075     29074     29076
     29077     29078     29077     29079     29080     29081     29080     29082
     29083     29084     29083     29085     29086     29087     29086     29088
     29089     29090     29089     29091     29092     29093     29092     29094
     29095     29096     29095     29097     29098     29099     29098     29100
     29101     29102     29101     29103     29104     29105     29104     29106
     29107     29108     29107     29109     29110     29111     29110     29112
     29113     29114     29113     29115     29116     29117     29116     29118
     29119     29120     29119     29121     29122     29123     29122     29124
     29125     29126     29125     29127     29128     29129     29128     29130
     29131     29132     29131     29133     29134     29135     29134     29136
     29137     29138     29137     29139     29140     29141     29140     29142
     29143     29144     29143     29145     29146     29147     29146     29148
     29149     29150     29149     29151     29152     29153     29152     29154
     29155     29156     29155     29157     29158     29159     29158     29160
     29161     29162     29161     29163     29164     29165     29164     29166
     29167     29168     29167     29169     29170     29171     29170     29172
     29173     29174     29173     29175     29176     29177     29176     29178
     29179     29180     29179     29181     29182     29183     29182     29184
     29185     29186     29185     29187     29188     29189     29188     29190
     29191     29192     29191     29193     29194     29195     29194     29196
     29197     29198     29197     29199     29200     29201     29200     29202
     29203     29204     29203     29205     29206     29207     29206     29208
     29209     29210     29209     29211     29212     29213     29212     29214
     29215     29216     29215     29217     29218     29219     29218     29220
     29221     29222     29221     29223     29224     29225     29224     29226
     29227     29228     29227     29229     29230     29231     29230     29232
     29233     29234     29233     29235     29236     29237     29236     29238
     29239     29240     29239     29241     29242     29243     29242     29244
     29245     29246     29245     29247     29248     29249     29248     29250
     29251     29252     29251     29253     29254     29255     29254     29256
     29257     29258     29257     29259     29260     29261     29260     29262
     29263     29264     29263     29265     29266     29267     29266     29268
     29269     29270     29269     29271     29272     29273     29272     29274
     29275     29276     29275     29277     29278     29279     29278     29280
     29281     29282     29281     29283     29284     29285     29284     29286
     29287     29288     29287     29289     29290     29291     29290     29292
     29293     29294     29293     29295     29296     29297     29296     29298
     29299     29300     29299     29301     29302     29303     29302     29304
     29305     29306     29305     29307     29308     29309     29308     29310
     29311     29312     29311     29313     29314     29315     29314     29316
     29317     29318     29317     29319     29320     29321     29320     29322
     29323     29324     29323     29325     29326     29327     29326     29328
     29329     29330     29329     29331     29332     29333     29332     29334
     29335     29336     29335     29337     29338     29339     29338     29340
     29341     29342     29341     29343     29344     29345     29344     29346
     29347     29348     29347     29349     29350     29351     29350     29352
     29353     29354     29353     29355     29356     29357     29356     29358
     29359     29360     29359     29361     29362     29363     29362     29364
     29365     29366     29365     29367     29368     29369     29368     29370
     29371     29372     29371     29373     29374     29375     29374     29376
     29377     29378     29377     29379     29380     29381     29380     29382
     29383     29384     29383     29385     29386     29387     29386     29388
     29389     29390     29389     29391     29392     29393     29392     29394
     29395     29396     29395     29397     29398     29399     29398     29400
     29401     29402     29401     29403     29404     29405     29404     29406
     29407     29408     29407     29409     29410     29411     29410     29412
     29413     29414     29413     29415     29416     29417     29416     29418
     29419     29420     29419     29421     29422     29423     29422     29424
     29425     29426     29425     29427     29428     29429     29428     29430
     29431     29432     29431     29433     29434     29435     29434     29436
     29437     29438     29437     29439     29440     29441     29440     29442
     29443     29444     29443     29445     29446     29447     29446     29448
     29449     29450     29449     29451     29452     29453     29452     29454
     29455     29456     29455     29457     29458     29459     29458     29460
     29461     29462     29461     29463     29464     29465     29464     29466
     29467     29468     29467     29469     29470     29471     29470     29472
     29473     29474     29473     29475     29476     29477     29476     29478
     29479     29480     29479     29481     29482     29483     29482     29484
     29485     29486     29485     29487     29488     29489     29488     29490
     29491     29492     29491     29493     29494     29495     29494     29496
     29497     29498     29497     29499     29500     29501     29500     29502
     29503     29504     29503     29505     29506     29507     29506     29508
     29509     29510     29509     29511     29512     29513     29512     29514
     29515     29516     29515     29517     29518     29519     29518     29520
     29521     29522     29521     29523     29524     29525     29524     29526
     29527     29528     29527     29529     29530     29531     29530     29532
     29533     29534     29533     29535     29536     29537     29536     29538
     29539     29540     29539     29541     29542     29543     29542     29544
     29545     29546     29545     29547     29548     29549     29548     29550
     29551     29552     29551     29553     29554     29555     29554     29556
     29557     29558     29557     29559     29560     29561     29560     29562
     29563     29564     29563     29565     29566     29567     29566     29568
     29569     29570     29569     29571     29572     29573     29572     29574
     29575     29576     29575     29577     29578     29579     29578     29580
     29581     29582     29581     29583     29584     29585     29584     29586
     29587     29588     29587     29589     29590     29591     29590     29592
     29593     29594     29593     29595     29596     29597     29596     29598
     29599     29600     29599     29601     29602     29603     29602     29604
     29605     29606     29605     29607     29608     29609     29608     29610
     29611     29612     29611     29613     29614     29615     29614     29616
     29617     29618     29617     29619     29620     29621     29620     29622
     29623     29624     29623     29625     29626     29627     29626     29628
     29629     29630     29629     29631     29632     29633     29632     29634
     29635     29636     29635     29637     29638     29639     29638     29640
     29641     29642     29641     29643     29644     29645     29644     29646
     29647     29648     29647     29649     29650     29651     29650     29652
     29653     29654     29653     29655     29656     29657     29656     29658
     29659     29660     29659     29661     29662     29663     29662     29664
     29665     29666     29665     29667     29668     29669     29668     29670
     29671     29672     29671     29673     29674     29675     29674     29676
     29677     29678     29677     29679     29680     29681     29680     29682
     29683     29684     29683     29685     29686     29687     29686     29688
     29689     29690     29689     29691     29692     29693     29692     29694
     29695     29696     29695     29697     29698     29699     29698     29700
     29701     29702     29701     29703     29704     29705     29704     29706
     29707     29708     29707     29709     29710     29711     29710     29712
     29713     29714     29713     29715     29716     29717     29716     29718
     29719     29720     29719     29721     29722     29723     29722     29724
     29725     29726     29725     29727     29728     29729     29728     29730
     29731     29732     29731     29733     29734     29735     29734     29736
     29737     29738     29737     29739     29740     29741     29740     29742
     29743     29744     29743     29745     29746     29747     29746     29748
     29749     29750     29749     29751     29752     29753     29752     29754
     29755     29756     29755     29757     29758     29759     29758     29760
     29761     29762     29761     29763     29764     29765     29764     29766
     29767     29768     29767     29769     29770     29771     29770     29772
     29773     29774     29773     29775     29776     29777     29776     29778
     29779     29780     29779     29781     29782     29783     29782     29784
     29785     29786     29785     29787     29788     29789     29788     29790
     29791     29792     29791     29793     29794     29795     29794     29796
     29797     29798     29797     29799     29800     29801     29800     29802
     29803     29804     29803     29805     29806     29807     29806     29808
     29809     29810     29809     29811     29812     29813     29812     29814
     29815     29816     29815     29817     29818     29819     29818     29820
     29821     29822     29821     29823     29824     29825     29824     29826
     29827     29828     29827     29829     29830     29831     29830     29832
     29833     29834     29833     29835     29836     29837     29836     29838
     29839     29840     29839     29841     29842     29843     29842     29844
     29845     29846     29845     29847     29848     29849     29848     29850
     29851     29852     29851     29853     29854     29855     29854     29856
     29857     29858     29857     29859     29860     29861     29860     29862
     29863     29864     29863     29865     29866     29867     29866     29868
     29869     29870     29869     29871     29872     29873     29872     29874
     29875     29876     29875     29877     29878     29879     29878     29880
     29881     29882     29881     29883     29884     29885     29884     29886
     29887     29888     29887     29889     29890     29891     29890     29892
     29893     29894     29893     29895     29896     29897     29896     29898
     29899     29900     29899     29901     29902     29903     29902     29904
     29905     29906     29905     29907     29908     29909     29908     29910
     29911     29912     29911     29913     29914     29915     29914     29916
     29917     29918     29917     29919     29920     29921     29920     29922
     29923     29924     29923     29925     29926     29927     29926     29928
     29929     29930     29929     29931     29932     29933     29932     29934
     29935     29936     29935     29937     29938     29939     29938     29940
     29941     29942     29941     29943     29944     29945     29944     29946
     29947     29948     29947     29949     29950     29951     29950     29952
     29953     29954     29953     29955     29956     29957     29956     29958
     29959     29960     29959     29961     29962     29963     29962     29964
     29965     29966     29965     29967     29968     29969     29968     29970
     29971     29972     29971     29973     29974     29975     29974     29976
     29977     29978     29977     29979     29980     29981     29980     29982
     29983     29984     29983     29985     29986     29987     29986     29988
     29989     29990     29989     29991     29992     29993     29992     29994
     29995     29996     29995     29997     29998     29999     29998     30000
     30001     30002     30001     30003     30004     30005     30004     30006
     30007     30008     30007     30009     30010     30011     30010     30012
     30013     30014     30013     30015     30016     30017     30016     30018
     30019     30020     30019     30021     30022     30023     30022     30024
     30025     30026     30025     30027     30028     30029     30028     30030
     30031     30032     30031     30033     30034     30035     30034     30036
     30037     30038     30037     30039     30040     30041     30040     30042
     30043     30044     30043     30045     30046     30047     30046     30048
     30049     30050     30049     30051     30052     30053     30052     30054
     30055     30056     30055     30057     30058     30059     30058     30060
     30061     30062     30061     30063     30064     30065     30064     30066
     30067     30068     30067     30069     30070     30071     30070     30072
     30073     30074     30073     30075     30076     30077     30076     30078
     30079     30080     30079     30081     30082     30083     30082     30084
     30085     30086     30085     30087     30088     30089     30088     30090
     30091     30092     30091     30093     30094     30095     30094     30096
     30097     30098     30097     30099     30100     30101     30100     30102
     30103     30104     30103     30105     30106     30107     30106     30108
     30109     30110     30109     30111     30112     30113     30112     30114
     30115     30116     30115     30117     30118     30119     30118     30120
     30121     30122     30121     30123     30124     30125     30124     30126
     30127     30128     30127     30129     30130     30131     30130     30132
     30133     30134     30133     30135     30136     30137     30136     30138
     30139     30140     30139     30141     30142     30143     30142     30144
     30145     30146     30145     30147     30148     30149     30148     30150
     30151     30152     30151     30153     30154     30155     30154     30156
     30157     30158     30157     30159     30160     30161     30160     30162
     30163     30164     30163     30165     30166     30167     30166     30168
     30169     30170     30169     30171     30172     30173     30172     30174
     30175     30176     30175     30177     30178     30179     30178     30180
     30181     30182     30181     30183     30184     30185     30184     30186
     30187     30188     30187     30189     30190     30191     30190     30192
     30193     30194     30193     30195     30196     30197     30196     30198
     30199     30200     30199     30201     30202     30203     30202     30204
     30205     30206     30205     30207     30208     30209     30208     30210
     30211     30212     30211     30213     30214     30215     30214     30216
     30217     30218     30217     30219     30220     30221     30220     30222
     30223     30224     30223     30225     30226     30227     30226     30228
     30229     30230     30229     30231     30232     30233     30232     30234
     30235     30236     30235     30237     30238     30239     30238     30240
     30241     30242     30241     30243     30244     30245     30244     30246
     30247     30248     30247     30249     30250     30251     30250     30252
     30253     30254     30253     30255     30256     30257     30256     30258
     30259     30260     30259     30261     30262     30263     30262     30264
     30265     30266     30265     30267     30268     30269     30268     30270
     30271     30272     30271     30273     30274     30275     30274     30276
     30277     30278     30277     30279     30280     30281     30280     30282
     30283     30284     30283     30285     30286     30287     30286     30288
     30289     30290     30289     30291     30292     30293     30292     30294
     30295     30296     30295     30297     30298     30299     30298     30300
     30301     30302     30301     30303     30304     30305     30304     30306
     30307     30308     30307     30309     30310     30311     30310     30312
     30313     30314     30313     30315     30316     30317     30316     30318
     30319     30320     30319     30321     30322     30323     30322     30324
     30325     30326     30325     30327     30328     30329     30328     30330
     30331     30332     30331     30333     30334     30335     30334     30336
     30337     30338     30337     30339     30340     30341     30340     30342
     30343     30344     30343     30345     30346     30347     30346     30348
     30349     30350     30349     30351     30352     30353     30352     30354
     30355     30356     30355     30357     30358     30359     30358     30360
     30361     30362     30361     30363     30364     30365     30364     30366
     30367     30368     30367     30369     30370     30371     30370     30372
     30373     30374     30373     30375     30376     30377     30376     30378
     30379     30380     30379     30381     30382     30383     30382     30384
     30385     30386     30385     30387     30388     30389     30388     30390
     30391     30392     30391     30393     30394     30395     30394     30396
     30397     30398     30397     30399     30400     30401     30400     30402
     30403     30404     30403     30405     30406     30407     30406     30408
     30409     30410     30409     30411     30412     30413     30412     30414
     30415     30416     30415     30417     30418     30419     30418     30420
     30421     30422     30421     30423     30424     30425     30424     30426
     30427     30428     30427     30429     30430     30431     30430     30432
     30433     30434     30433     30435     30436     30437     30436     30438
     30439     30440     30439     30441     30442     30443     30442     30444
     30445     30446     30445     30447     30448     30449     30448     30450
     30451     30452     30451     30453     30454     30455     30454     30456
     30457     30458     30457     30459     30460     30461     30460     30462
     30463     30464     30463     30465     30466     30467     30466     30468
     30469     30470     30469     30471     30472     30473     30472     30474
     30475     30476     30475     30477     30478     30479     30478     30480
     30481     30482     30481     30483     30484     30485     30484     30486
     30487     30488     30487     30489     30490     30491     30490     30492
     30493     30494     30493     30495     30496     30497     30496     30498
     30499     30500     30499     30501     30502     30503     30502     30504
     30505     30506     30505     30507     30508     30509     30508     30510
     30511     30512     30511     30513     30514     30515     30514     30516
     30517     30518     30517     30519     30520     30521     30520     30522
     30523     30524     30523     30525     30526     30527     30526     30528
     30529     30530     30529     30531     30532     30533     30532     30534
     30535     30536     30535     30537     30538     30539     30538     30540
     30541     30542     30541     30543     30544     30545     30544     30546
     30547     30548     30547     30549     30550     30551     30550     30552
     30553     30554     30553     30555     30556     30557     30556     30558
     30559     30560     30559     30561     30562     30563     30562     30564
     30565     30566     30565     30567     30568     30569     30568     30570
     30571     30572     30571     30573     30574     30575     30574     30576
     30577     30578     30577     30579     30580     30581     30580     30582
     30583     30584     30583     30585     30586     30587     30586     30588
     30589     30590     30589     30591     30592     30593     30592     30594
     30595     30596     30595     30597     30598     30599     30598     30600
     30601     30602     30601     30603     30604     30605     30604     30606
     30607     30608     30607     30609     30610     30611     30610     30612
     30613     30614     30613     30615     30616     30617     30616     30618
     30619     30620     30619     30621     30622     30623     30622     30624
     30625     30626     30625     30627     30628     30629     30628     30630
     30631     30632     30631     30633     30634     30635     30634     30636
     30637     30638     30637     30639     30640     30641     30640     30642
     30643     30644     30643     30645     30646     30647     30646     30648
     30649     30650     30649     30651     30652     30653     30652     30654
     30655     30656     30655     30657     30658     30659     30658     30660
     30661     30662     30661     30663     30664     30665     30664     30666
     30667     30668     30667     30669     30670     30671     30670     30672
     30673     30674     30673     30675     30676     30677     30676     30678
     30679     30680     30679     30681     30682     30683     30682     30684
     30685     30686     30685     30687     30688     30689     30688     30690
     30691     30692     30691     30693     30694     30695     30694     30696
     30697     30698     30697     30699     30700     30701     30700     30702
     30703     30704     30703     30705     30706     30707     30706     30708
     30709     30710     30709     30711     30712     30713     30712     30714
     30715     30716     30715     30717     30718     30719     30718     30720
     30721     30722     30721     30723     30724     30725     30724     30726
     30727     30728     30727     30729     30730     30731     30730     30732
     30733     30734     30733     30735     30736     30737     30736     30738
     30739     30740     30739     30741     30742     30743     30742     30744
     30745     30746     30745     30747     30748     30749     30748     30750
     30751     30752     30751     30753     30754     30755     30754     30756
     30757     30758     30757     30759     30760     30761     30760     30762
     30763     30764     30763     30765     30766     30767     30766     30768
     30769     30770     30769     30771     30772     30773     30772     30774
     30775     30776     30775     30777     30778     30779     30778     30780
     30781     30782     30781     30783     30784     30785     30784     30786
     30787     30788     30787     30789     30790     30791     30790     30792
     30793     30794     30793     30795     30796     30797     30796     30798
     30799     30800     30799     30801     30802     30803     30802     30804
     30805     30806     30805     30807     30808     30809     30808     30810
     30811     30812     30811     30813     30814     30815     30814     30816
     30817     30818     30817     30819     30820     30821     30820     30822
     30823     30824     30823     30825     30826     30827     30826     30828
     30829     30830     30829     30831     30832     30833     30832     30834
     30835     30836     30835     30837     30838     30839     30838     30840
     30841     30842     30841     30843     30844     30845     30844     30846
     30847     30848     30847     30849     30850     30851     30850     30852
     30853     30854     30853     30855     30856     30857     30856     30858
     30859     30860     30859     30861     30862     30863     30862     30864
     30865     30866     30865     30867     30868     30869     30868     30870
     30871     30872     30871     30873     30874     30875     30874     30876
     30877     30878     30877     30879     30880     30881     30880     30882
     30883     30884     30883     30885     30886     30887     30886     30888
     30889     30890     30889     30891     30892     30893     30892     30894
     30895     30896     30895     30897     30898     30899     30898     30900
     30901     30902     30901     30903     30904     30905     30904     30906
     30907     30908     30907     30909     30910     30911     30910     30912
     30913     30914     30913     30915     30916     30917     30916     30918
     30919     30920     30919     30921     30922     30923     30922     30924
     30925     30926     30925     30927     30928     30929     30928     30930
     30931     30932     30931     30933     30934     30935     30934     30936
     30937     30938     30937     30939     30940     30941     30940     30942
     30943     30944     30943     30945     30946     30947     30946     30948
     30949     30950     30949     30951     30952     30953     30952     30954
     30955     30956     30955     30957     30958     30959     30958     30960
     30961     30962     30961     30963     30964     30965     30964     30966
     30967     30968     30967     30969     30970     30971     30970     30972
     30973     30974     30973     30975     30976     30977     30976     30978
     30979     30980     30979     30981     30982     30983     30982     30984
     30985     30986     30985     30987     30988     30989     30988     30990
     30991     30992     30991     30993     30994     30995     30994     30996
     30997     30998     30997     30999     31000     31001     31000     31002
     31003     31004     31003     31005     31006     31007     31006     31008
     31009     31010     31009     31011     31012     31013     31012     31014
     31015     31016     31015     31017     31018     31019     31018     31020
     31021     31022     31021     31023     31024     31025     31024     31026
     31027     31028     31027     31029     31030     31031     31030     31032
     31033     31034     31033     31035     31036     31037     31036     31038
     31039     31040     31039     31041     31042     31043     31042     31044
     31045     31046     31045     31047     31048     31049     31048     31050
     31051     31052     31051     31053     31054     31055     31054     31056
     31057     31058     31057     31059     31060     31061     31060     31062
     31063     31064     31063     31065     31066     31067     31066     31068
     31069     31070     31069     31071     31072     31073     31072     31074
     31075     31076     31075     31077     31078     31079     31078     31080
     31081     31082     31081     31083     31084     31085     31084     31086
     31087     31088     31087     31089     31090     31091     31090     31092
     31093     31094     31093     31095     31096     31097     31096     31098
     31099     31100     31099     31101     31102     31103     31102     31104
     31105     31106     31105     31107     31108     31109     31108     31110
     31111     31112     31111     31113     31114     31115     31114     31116
     31117     31118     31117     31119     31120     31121     31120     31122
     31123     31124     31123     31125     31126     31127     31126     31128
     31129     31130     31129     31131     31132     31133     31132     31134
     31135     31136     31135     31137     31138     31139     31138     31140
     31141     31142     31141     31143     31144     31145     31144     31146
     31147     31148     31147     31149     31150     31151     31150     31152
     31153     31154     31153     31155     31156     31157     31156     31158
     31159     31160     31159     31161     31162     31163     31162     31164
     31165     31166     31165     31167     31168     31169     31168     31170
     31171     31172     31171     31173     31174     31175     31174     31176
     31177     31178     31177     31179     31180     31181     31180     31182
     31183     31184     31183     31185     31186     31187     31186     31188
     31189     31190     31189     31191     31192     31193     31192     31194
     31195     31196     31195     31197     31198     31199     31198     31200
     31201     31202     31201     31203     31204     31205     31204     31206
     31207     31208     31207     31209     31210     31211     31210     31212
     31213     31214     31213     31215     31216     31217     31216     31218
     31219     31220     31219     31221     31222     31223     31222     31224
     31225     31226     31225     31227     31228     31229     31228     31230
     31231     31232     31231     31233     31234     31235     31234     31236
     31237     31238     31237     31239     31240     31241     31240     31242
     31243     31244     31243     31245     31246     31247     31246     31248
     31249     31250     31249     31251     31252     31253     31252     31254
     31255     31256     31255     31257     31258     31259     31258     31260
     31261     31262     31261     31263     31264     31265     31264     31266
     31267     31268     31267     31269     31270     31271     31270     31272
     31273     31274     31273     31275     31276     31277     31276     31278
     31279     31280     31279     31281     31282     31283     31282     31284
     31285     31286     31285     31287     31288     31289     31288     31290
     31291     31292     31291     31293     31294     31295     31294     31296
     31297     31298     31297     31299     31300     31301     31300     31302
     31303     31304     31303     31305     31306     31307     31306     31308
     31309     31310     31309     31311     31312     31313     31312     31314
     31315     31316     31315     31317     31318     31319     31318     31320
     31321     31322     31321     31323     31324     31325     31324     31326
     31327     31328     31327     31329     31330     31331     31330     31332
     31333     31334     31333     31335     31336     31337     31336     31338
     31339     31340     31339     31341     31342     31343     31342     31344
     31345     31346     31345     31347     31348     31349     31348     31350
     31351     31352     31351     31353     31354     31355     31354     31356
     31357     31358     31357     31359     31360     31361     31360     31362
     31363     31364     31363     31365     31366     31367     31366     31368
     31369     31370     31369     31371     31372     31373     31372     31374
     31375     31376     31375     31377     31378     31379     31378     31380
     31381     31382     31381     31383     31384     31385     31384     31386
     31387     31388     31387     31389     31390     31391     31390     31392
     31393     31394     31393     31395     31396     31397     31396     31398
     31399     31400     31399     31401     31402     31403     31402     31404
     31405     31406     31405     31407     31408     31409     31408     31410
     31411     31412     31411     31413     31414     31415     31414     31416
     31417     31418     31417     31419     31420     31421     31420     31422
     31423     31424     31423     31425     31426     31427     31426     31428
     31429     31430     31429     31431     31432     31433     31432     31434
     31435     31436     31435     31437     31438     31439     31438     31440
     31441     31442     31441     31443     31444     31445     31444     31446
     31447     31448     31447     31449     31450     31451     31450     31452
     31453     31454     31453     31455     31456     31457     31456     31458
     31459     31460     31459     31461     31462     31463     31462     31464
     31465     31466     31465     31467     31468     31469     31468     31470
     31471     31472     31471     31473     31474     31475     31474     31476
     31477     31478     31477     31479     31480     31481     31480     31482
     31483     31484     31483     31485     31486     31487     31486     31488
     31489     31490     31489     31491     31492     31493     31492     31494
     31495     31496     31495     31497     31498     31499     31498     31500
     31501     31502     31501     31503     31504     31505     31504     31506
     31507     31508     31507     31509     31510     31511     31510     31512
     31513     31514     31513     31515     31516     31517     31516     31518
     31519     31520     31519     31521     31522     31523     31522     31524
     31525     31526     31525     31527     31528     31529     31528     31530
     31531     31532     31531     31533     31534     31535     31534     31536
     31537     31538     31537     31539     31540     31541     31540     31542
     31543     31544     31543     31545     31546     31547     31546     31548
     31549     31550     31549     31551     31552     31553     31552     31554
     31555     31556     31555     31557     31558     31559     31558     31560
     31561     31562     31561     31563     31564     31565     31564     31566
     31567     31568     31567     31569     31570     31571     31570     31572
     31573     31574     31573     31575     31576     31577     31576     31578
     31579     31580     31579     31581     31582     31583     31582     31584
     31585     31586     31585     31587     31588     31589     31588     31590
     31591     31592     31591     31593     31594     31595     31594     31596
     31597     31598     31597     31599     31600     31601     31600     31602
     31603     31604     31603     31605     31606     31607     31606     31608
     31609     31610     31609     31611     31612     31613     31612     31614
     31615     31616     31615     31617     31618     31619     31618     31620
     31621     31622     31621     31623     31624     31625     31624     31626
     31627     31628     31627     31629     31630     31631     31630     31632
     31633     31634     31633     31635     31636     31637     31636     31638
     31639     31640     31639     31641     31642     31643     31642     31644
     31645     31646     31645     31647     31648     31649     31648     31650
     31651     31652     31651     31653     31654     31655     31654     31656
     31657     31658     31657     31659     31660     31661     31660     31662
     31663     31664     31663     31665     31666     31667     31666     31668
     31669     31670     31669     31671     31672     31673     31672     31674
     31675     31676     31675     31677     31678     31679     31678     31680
     31681     31682     31681     31683     31684     31685     31684     31686
     31687     31688     31687     31689     31690     31691     31690     31692
     31693     31694     31693     31695     31696     31697     31696     31698
     31699     31700     31699     31701     31702     31703     31702     31704
     31705     31706     31705     31707     31708     31709     31708     31710
     31711     31712     31711     31713     31714     31715     31714     31716
     31717     31718     31717     31719     31720     31721     31720     31722
     31723     31724     31723     31725     31726     31727     31726     31728
     31729     31730     31729     31731     31732     31733     31732     31734
     31735     31736     31735     31737     31738     31739     31738     31740
     31741     31742     31741     31743     31744     31745     31744     31746
     31747     31748     31747     31749     31750     31751     31750     31752
     31753     31754     31753     31755     31756     31757     31756     31758
     31759     31760     31759     31761     31762     31763     31762     31764
     31765     31766     31765     31767     31768     31769     31768     31770
     31771     31772     31771     31773     31774     31775     31774     31776
     31777     31778     31777     31779     31780     31781     31780     31782
     31783     31784     31783     31785     31786     31787     31786     31788
     31789     31790     31789     31791     31792     31793     31792     31794
     31795     31796     31795     31797     31798     31799     31798     31800
     31801     31802     31801     31803     31804     31805     31804     31806
     31807     31808     31807     31809     31810     31811     31810     31812
     31813     31814     31813     31815     31816     31817     31816     31818
     31819     31820     31819     31821     31822     31823     31822     31824
     31825     31826     31825     31827     31828     31829     31828     31830
     31831     31832     31831     31833     31834     31835     31834     31836
     31837     31838     31837     31839     31840     31841     31840     31842
     31843     31844     31843     31845     31846     31847     31846     31848
     31849     31850     31849     31851     31852     31853     31852     31854
     31855     31856     31855     31857     31858     31859     31858     31860
     31861     31862     31861     31863     31864     31865     31864     31866
     31867     31868     31867     31869     31870     31871     31870     31872
     31873     31874     31873     31875     31876     31877     31876     31878
     31879     31880     31879     31881     31882     31883     31882     31884
     31885     31886     31885     31887     31888     31889     31888     31890
     31891     31892     31891     31893     31894     31895     31894     31896
     31897     31898     31897     31899     31900     31901     31900     31902
     31903     31904     31903     31905     31906     31907     31906     31908
     31909     31910     31909     31911     31912     31913     31912     31914
     31915     31916     31915     31917     31918     31919     31918     31920
     31921     31922     31921     31923     31924     31925     31924     31926
     31927     31928     31927     31929     31930     31931     31930     31932
     31933     31934     31933     31935     31936     31937     31936     31938
     31939     31940     31939     31941     31942     31943     31942     31944
     31945     31946     31945     31947     31948     31949     31948     31950
     31951     31952     31951     31953     31954     31955     31954     31956
     31957     31958     31957     31959     31960     31961     31960     31962
     31963     31964     31963     31965     31966     31967     31966     31968
     31969     31970     31969     31971     31972     31973     31972     31974
     31975     31976     31975     31977     31978     31979     31978     31980
     31981     31982     31981     31983     31984     31985     31984     31986
     31987     31988     31987     31989     31990     31991     31990     31992
     31993     31994     31993     31995     31996     31997     31996     31998
     31999     32000     31999     32001     32002     32003     32002     32004
     32005     32006     32005     32007     32008     32009     32008     32010
     32011     32012     32011     32013     32014     32015     32014     32016
     32017     32018     32017     32019     32020     32021     32020     32022
     32023     32024     32023     32025     32026     32027     32026     32028
     32029     32030     32029     32031     32032     32033     32032     32034
     32035     32036     32035     32037     32038     32039     32038     32040
     32041     32042     32041     32043     32044     32045     32044     32046
     32047     32048     32047     32049     32050     32051     32050     32052
     32053     32054     32053     32055     32056     32057     32056     32058
     32059     32060     32059     32061     32062     32063     32062     32064
     32065     32066     32065     32067     32068     32069     32068     32070
     32071     32072     32071     32073     32074     32075     32074     32076
     32077     32078     32077     32079     32080     32081     32080     32082
     32083     32084     32083     32085     32086     32087     32086     32088
     32089     32090     32089     32091     32092     32093     32092     32094
     32095     32096     32095     32097     32098     32099     32098     32100
     32101     32102     32101     32103     32104     32105     32104     32106
     32107     32108     32107     32109     32110     32111     32110     32112
     32113     32114     32113     32115     32116     32117     32116     32118
     32119     32120     32119     32121     32122     32123     32122     32124
     32125     32126     32125     32127     32128     32129     32128     32130
     32131     32132     32131     32133     32134     32135     32134     32136
     32137     32138     32137     32139     32140     32141     32140     32142
     32143     32144     32143     32145     32146     32147     32146     32148
     32149     32150     32149     32151     32152     32153     32152     32154
     32155     32156     32155     32157     32158     32159     32158     32160
     32161     32162     32161     32163     32164     32165     32164     32166
     32167     32168     32167     32169     32170     32171     32170     32172
     32173     32174     32173     32175     32176     32177     32176     32178
     32179     32180     32179     32181     32182     32183     32182     32184
     32185     32186     32185     32187     32188     32189     32188     32190
     32191     32192     32191     32193     32194     32195     32194     32196
     32197     32198     32197     32199     32200     32201     32200     32202
     32203     32204     32203     32205     32206     32207     32206     32208
     32209     32210     32209     32211     32212     32213     32212     32214
     32215     32216     32215     32217     32218     32219     32218     32220
     32221     32222     32221     32223     32224     32225     32224     32226
     32227     32228     32227     32229     32230     32231     32230     32232
     32233     32234     32233     32235     32236     32237     32236     32238
     32239     32240     32239     32241     32242     32243     32242     32244
     32245     32246     32245     32247     32248     32249     32248     32250
     32251     32252     32251     32253     32254     32255     32254     32256
     32257     32258     32257     32259     32260     32261     32260     32262
     32263     32264     32263     32265     32266     32267     32266     32268
     32269     32270     32269     32271     32272     32273     32272     32274
     32275     32276     32275     32277     32278     32279     32278     32280
     32281     32282     32281     32283     32284     32285     32284     32286
     32287     32288     32287     32289     32290     32291     32290     32292
     32293     32294     32293     32295     32296     32297     32296     32298
     32299     32300     32299     32301     32302     32303     32302     32304
     32305     32306     32305     32307     32308     32309     32308     32310
     32311     32312     32311     32313     32314     32315     32314     32316
     32317     32318     32317     32319     32320     32321     32320     32322
     32323     32324     32323     32325     32326     32327     32326     32328
     32329     32330     32329     32331     32332     32333     32332     32334
     32335     32336     32335     32337     32338     32339     32338     32340
     32341     32342     32341     32343     32344     32345     32344     32346
     32347     32348     32347     32349     32350     32351     32350     32352
     32353     32354     32353     32355     32356     32357     32356     32358
     32359     32360     32359     32361     32362     32363     32362     32364
     32365     32366     32365     32367     32368     32369     32368     32370
     32371     32372     32371     32373     32374     32375     32374     32376
     32377     32378     32377     32379     32380     32381     32380     32382
     32383     32384     32383     32385     32386     32387     32386     32388
     32389     32390     32389     32391     32392     32393     32392     32394
     32395     32396     32395     32397     32398     32399     32398     32400
     32401     32402     32401     32403     32404     32405     32404     32406
     32407     32408     32407     32409     32410     32411     32410     32412
     32413     32414     32413     32415     32416     32417     32416     32418
     32419     32420     32419     32421     32422     32423     32422     32424
     32425     32426     32425     32427     32428     32429     32428     32430
     32431     32432     32431     32433     32434     32435     32434     32436
     32437     32438     32437     32439     32440     32441     32440     32442
     32443     32444     32443     32445     32446     32447     32446     32448
     32449     32450     32449     32451     32452     32453     32452     32454
     32455     32456     32455     32457     32458     32459     32458     32460
     32461     32462     32461     32463     32464     32465     32464     32466
     32467     32468     32467     32469     32470     32471     32470     32472
     32473     32474     32473     32475     32476     32477     32476     32478
     32479     32480     32479     32481     32482     32483     32482     32484
     32485     32486     32485     32487     32488     32489     32488     32490
     32491     32492     32491     32493     32494     32495     32494     32496
     32497     32498     32497     32499     32500     32501     32500     32502
     32503     32504     32503     32505     32506     32507     32506     32508
     32509     32510     32509     32511     32512     32513     32512     32514
     32515     32516     32515     32517     32518     32519     32518     32520
     32521     32522     32521     32523     32524     32525     32524     32526
     32527     32528     32527     32529     32530     32531     32530     32532
     32533     32534     32533     32535     32536     32537     32536     32538
     32539     32540     32539     32541     32542     32543     32542     32544
     32545     32546     32545     32547     32548     32549     32548     32550
     32551     32552     32551     32553     32554     32555     32554     32556
     32557     32558     32557     32559     32560     32561     32560     32562
     32563     32564     32563     32565     32566     32567     32566     32568
     32569     32570     32569     32571     32572     32573     32572     32574
     32575     32576     32575     32577     32578     32579     32578     32580
     32581     32582     32581     32583     32584     32585     32584     32586
     32587     32588     32587     32589     32590     32591     32590     32592
     32593     32594     32593     32595     32596     32597     32596     32598
     32599     32600     32599     32601     32602     32603     32602     32604
     32605     32606     32605     32607     32608     32609     32608     32610
     32611     32612     32611     32613     32614     32615     32614     32616
     32617     32618     32617     32619     32620     32621     32620     32622
     32623     32624     32623     32625     32626     32627     32626     32628
     32629     32630     32629     32631     32632     32633     32632     32634
     32635     32636     32635     32637     32638     32639     32638     32640
     32641     32642     32641     32643     32644     32645     32644     32646
     32647     32648     32647     32649     32650     32651     32650     32652
     32653     32654     32653     32655     32656     32657     32656     32658
     32659     32660     32659     32661     32662     32663     32662     32664
     32665     32666     32665     32667     32668     32669     32668     32670
     32671     32672     32671     32673     32674     32675     32674     32676
     32677     32678     32677     32679     32680     32681     32680     32682
     32683     32684     32683     32685     32686     32687     32686     32688
     32689     32690     32689     32691     32692     32693     32692     32694
     32695     32696     32695     32697     32698     32699     32698     32700
     32701     32702     32701     32703     32704     32705     32704     32706
     32707     32708     32707     32709     32710     32711     32710     32712
     32713     32714     32713     32715     32716     32717     32716     32718
     32719     32720     32719     32721     32722     32723     32722     32724
     32725     32726     32725     32727     32728     32729     32728     32730
     32731     32732     32731     32733     32734     32735     32734     32736
     32737     32738     32737     32739     32740     32741     32740     32742
     32743     32744     32743     32745     32746     32747     32746     32748
     32749     32750     32749     32751     32752     32753     32752     32754
     32755     32756     32755     32757     32758     32759     32758     32760
     32761     32762     32761     32763     32764     32765     32764     32766
     32767     32768     32767     32769     32770     32771     32770     32772
     32773     32774     32773     32775     32776     32777     32776     32778
     32779     32780     32779     32781     32782     32783     32782     32784
     32785     32786     32785     32787     32788     32789     32788     32790
     32791     32792     32791     32793     32794     32795     32794     32796
     32797     32798     32797     32799     32800     32801     32800     32802
     32803     32804     32803     32805     32806     32807     32806     32808
     32809     32810     32809     32811     32812     32813     32812     32814
     32815     32816     32815     32817     32818     32819     32818     32820
     32821     32822     32821     32823     32824     32825     32824     32826
     32827     32828     32827     32829     32830     32831     32830     32832
     32833     32834     32833     32835     32836     32837     32836     32838
     32839     32840     32839     32841     32842     32843     32842     32844
     32845     32846     32845     32847     32848     32849     32848     32850
     32851     32852     32851     32853     32854     32855     32854     32856
     32857     32858     32857     32859     32860     32861     32860     32862
     32863     32864     32863     32865     32866     32867     32866     32868
     32869     32870     32869     32871     32872     32873     32872     32874
     32875     32876     32875     32877     32878     32879     32878     32880
     32881     32882     32881     32883     32884     32885     32884     32886
     32887     32888     32887     32889     32890     32891     32890     32892
     32893     32894     32893     32895     32896     32897     32896     32898
     32899     32900     32899     32901     32902     32903     32902     32904
     32905     32906     32905     32907     32908     32909     32908     32910
     32911     32912     32911     32913     32914     32915     32914     32916
     32917     32918     32917     32919     32920     32921     32920     32922
     32923     32924     32923     32925     32926     32927     32926     32928
     32929     32930     32929     32931     32932     32933     32932     32934
     32935     32936     32935     32937     32938     32939     32938     32940
     32941     32942     32941     32943     32944     32945     32944     32946
     32947     32948     32947     32949     32950     32951     32950     32952
     32953     32954     32953     32955     32956     32957     32956     32958
     32959     32960     32959     32961     32962     32963     32962     32964
     32965     32966     32965     32967     32968     32969     32968     32970
     32971     32972     32971     32973     32974     32975     32974     32976
     32977     32978     32977     32979     32980     32981     32980     32982
     32983     32984     32983     32985     32986     32987     32986     32988
     32989     32990     32989     32991     32992     32993     32992     32994
     32995     32996     32995     32997     32998     32999     32998     33000
     33001     33002     33001     33003     33004     33005     33004     33006
     33007     33008     33007     33009     33010     33011     33010     33012
     33013     33014     33013     33015     33016     33017     33016     33018
     33019     33020     33019     33021     33022     33023     33022     33024
     33025     33026     33025     33027     33028     33029     33028     33030
     33031     33032     33031     33033     33034     33035     33034     33036
     33037     33038     33037     33039     33040     33041     33040     33042
     33043     33044     33043     33045     33046     33047     33046     33048
     33049     33050     33049     33051     33052     33053     33052     33054
     33055     33056     33055     33057     33058     33059     33058     33060
     33061     33062     33061     33063     33064     33065     33064     33066
     33067     33068     33067     33069     33070     33071     33070     33072
     33073     33074     33073     33075     33076     33077     33076     33078
     33079     33080     33079     33081     33082     33083     33082     33084
     33085     33086     33085     33087     33088     33089     33088     33090
     33091     33092     33091     33093     33094     33095     33094     33096
     33097     33098     33097     33099     33100     33101     33100     33102
     33103     33104     33103     33105     33106     33107     33106     33108
     33109     33110     33109     33111     33112     33113     33112     33114
     33115     33116     33115     33117     33118     33119     33118     33120
     33121     33122     33121     33123     33124     33125     33124     33126
     33127     33128     33127     33129     33130     33131     33130     33132
     33133     33134     33133     33135     33136     33137     33136     33138
     33139     33140     33139     33141     33142     33143     33142     33144
     33145     33146     33145     33147     33148     33149     33148     33150
     33151     33152     33151     33153     33154     33155     33154     33156
     33157     33158     33157     33159     33160     33161     33160     33162
     33163     33164     33163     33165     33166     33167     33166     33168
     33169     33170     33169     33171     33172     33173     33172     33174
     33175     33176     33175     33177     33178     33179     33178     33180
     33181     33182     33181     33183     33184     33185     33184     33186
     33187     33188     33187     33189     33190     33191     33190     33192
     33193     33194     33193     33195     33196     33197     33196     33198
     33199     33200     33199     33201     33202     33203     33202     33204
     33205     33206     33205     33207     33208     33209     33208     33210
     33211     33212     33211     33213     33214     33215     33214     33216
     33217     33218     33217     33219     33220     33221     33220     33222
     33223     33224     33223     33225     33226     33227     33226     33228
     33229     33230     33229     33231     33232     33233     33232     33234
     33235     33236     33235     33237     33238     33239     33238     33240
     33241     33242     33241     33243     33244     33245     33244     33246
     33247     33248     33247     33249     33250     33251     33250     33252
     33253     33254     33253     33255     33256     33257     33256     33258
     33259     33260     33259     33261     33262     33263     33262     33264
     33265     33266     33265     33267     33268     33269     33268     33270
     33271     33272     33271     33273     33274     33275     33274     33276
     33277     33278     33277     33279     33280     33281     33280     33282
     33283     33284     33283     33285     33286     33287     33286     33288
     33289     33290     33289     33291     33292     33293     33292     33294
     33295     33296     33295     33297     33298     33299     33298     33300
     33301     33302     33301     33303     33304     33305     33304     33306
     33307     33308     33307     33309     33310     33311     33310     33312
     33313     33314     33313     33315     33316     33317     33316     33318
     33319     33320     33319     33321     33322     33323     33322     33324
     33325     33326     33325     33327     33328     33329     33328     33330
     33331     33332     33331     33333     33334     33335     33334     33336
     33337     33338     33337     33339     33340     33341     33340     33342
     33343     33344     33343     33345     33346     33347     33346     33348
     33349     33350     33349     33351     33352     33353     33352     33354
     33355     33356     33355     33357     33358     33359     33358     33360
     33361     33362     33361     33363     33364     33365     33364     33366
     33367     33368     33367     33369     33370     33371     33370     33372
     33373     33374     33373     33375     33376     33377     33376     33378
     33379     33380     33379     33381     33382     33383     33382     33384
     33385     33386     33385     33387     33388     33389     33388     33390
     33391     33392     33391     33393     33394     33395     33394     33396
     33397     33398     33397     33399     33400     33401     33400     33402
     33403     33404     33403     33405     33406     33407     33406     33408
     33409     33410     33409     33411     33412     33413     33412     33414
     33415     33416     33415     33417     33418     33419     33418     33420
     33421     33422     33421     33423     33424     33425     33424     33426
     33427     33428     33427     33429     33430     33431     33430     33432
     33433     33434     33433     33435     33436     33437     33436     33438
     33439     33440     33439     33441     33442     33443     33442     33444
     33445     33446     33445     33447     33448     33449     33448     33450
     33451     33452     33451     33453     33454     33455     33454     33456
     33457     33458     33457     33459     33460     33461     33460     33462
     33463     33464     33463     33465     33466     33467     33466     33468
     33469     33470     33469     33471     33472     33473     33472     33474
     33475     33476     33475     33477     33478     33479     33478     33480
     33481     33482     33481     33483     33484     33485     33484     33486
     33487     33488     33487     33489     33490     33491     33490     33492
     33493     33494     33493     33495     33496     33497     33496     33498
     33499     33500     33499     33501     33502     33503     33502     33504
     33505     33506     33505     33507     33508     33509     33508     33510
     33511     33512     33511     33513     33514     33515     33514     33516
     33517     33518     33517     33519     33520     33521     33520     33522
     33523     33524     33523     33525     33526     33527     33526     33528
     33529     33530     33529     33531     33532     33533     33532     33534
     33535     33536     33535     33537     33538     33539     33538     33540
     33541     33542     33541     33543     33544     33545     33544     33546
     33547     33548     33547     33549     33550     33551     33550     33552
     33553     33554     33553     33555     33556     33557     33556     33558
     33559     33560     33559     33561     33562     33563     33562     33564
     33565     33566     33565     33567     33568     33569     33568     33570
     33571     33572     33571     33573     33574     33575     33574     33576
     33577     33578     33577     33579     33580     33581     33580     33582
     33583     33584     33583     33585     33586     33587     33586     33588
     33589     33590     33589     33591     33592     33593     33592     33594
     33595     33596     33595     33597     33598     33599     33598     33600
     33601     33602     33601     33603     33604     33605     33604     33606
     33607     33608     33607     33609     33610     33611     33610     33612
     33613     33614     33613     33615     33616     33617     33616     33618
     33619     33620     33619     33621     33622     33623     33622     33624
     33625     33626     33625     33627     33628     33629     33628     33630
     33631     33632     33631     33633     33634     33635     33634     33636
     33637     33638     33637     33639     33640     33641     33640     33642
     33643     33644     33643     33645     33646     33647     33646     33648
     33649     33650     33649     33651     33652     33653     33652     33654
     33655     33656     33655     33657     33658     33659     33658     33660
     33661     33662     33661     33663     33664     33665     33664     33666
     33667     33668     33667     33669     33670     33671     33670     33672
     33673     33674     33673     33675     33676     33677     33676     33678
     33679     33680     33679     33681     33682     33683     33682     33684
     33685     33686     33685     33687     33688     33689     33688     33690
     33691     33692     33691     33693     33694     33695     33694     33696
     33697     33698     33697     33699     33700     33701     33700     33702
     33703     33704     33703     33705     33706     33707     33706     33708
     33709     33710     33709     33711     33712     33713     33712     33714
     33715     33716     33715     33717     33718     33719     33718     33720
     33721     33722     33721     33723     33724     33725     33724     33726
     33727     33728     33727     33729     33730     33731     33730     33732
     33733     33734     33733     33735     33736     33737     33736     33738
     33739     33740     33739     33741     33742     33743     33742     33744
     33745     33746     33745     33747     33748     33749     33748     33750
     33751     33752     33751     33753     33754     33755     33754     33756
     33757     33758     33757     33759     33760     33761     33760     33762
     33763     33764     33763     33765     33766     33767     33766     33768
     33769     33770     33769     33771     33772     33773     33772     33774
     33775     33776     33775     33777     33778     33779     33778     33780
     33781     33782     33781     33783     33784     33785     33784     33786
     33787     33788     33787     33789     33790     33791     33790     33792
     33793     33794     33793     33795     33796     33797     33796     33798
     33799     33800     33799     33801     33802     33803     33802     33804
     33805     33806     33805     33807     33808     33809     33808     33810
     33811     33812     33811     33813     33814     33815     33814     33816
     33817     33818     33817     33819     33820     33821     33820     33822
     33823     33824     33823     33825     33826     33827     33826     33828
     33829     33830     33829     33831     33832     33833     33832     33834
     33835     33836     33835     33837     33838     33839     33838     33840
     33841     33842     33841     33843     33844     33845     33844     33846
     33847     33848     33847     33849     33850     33851     33850     33852
     33853     33854     33853     33855     33856     33857     33856     33858
     33859     33860     33859     33861     33862     33863     33862     33864
     33865     33866     33865     33867     33868     33869     33868     33870
     33871     33872     33871     33873     33874     33875     33874     33876
     33877     33878     33877     33879     33880     33881     33880     33882
     33883     33884     33883     33885     33886     33887     33886     33888
     33889     33890     33889     33891     33892     33893     33892     33894
     33895     33896     33895     33897     33898     33899     33898     33900
     33901     33902     33901     33903     33904     33905     33904     33906
     33907     33908     33907     33909     33910     33911     33910     33912
     33913     33914     33913     33915     33916     33917     33916     33918
     33919     33920     33919     33921     33922     33923     33922     33924
     33925     33926     33925     33927     33928     33929     33928     33930
     33931     33932     33931     33933     33934     33935     33934     33936
     33937     33938     33937     33939     33940     33941     33940     33942
     33943     33944     33943     33945     33946     33947     33946     33948
     33949     33950     33949     33951     33952     33953     33952     33954
     33955     33956     33955     33957     33958     33959     33958     33960
     33961     33962     33961     33963     33964     33965     33964     33966
     33967     33968     33967     33969     33970     33971     33970     33972
     33973     33974     33973     33975     33976     33977     33976     33978
     33979     33980     33979     33981     33982     33983     33982     33984
     33985     33986     33985     33987     33988     33989     33988     33990
     33991     33992     33991     33993     33994     33995     33994     33996
     33997     33998     33997     33999     34000     34001     34000     34002
     34003     34004     34003     34005     34006     34007     34006     34008
     34009     34010     34009     34011     34012     34013     34012     34014
     34015     34016     34015     34017     34018     34019     34018     34020
     34021     34022     34021     34023     34024     34025     34024     34026
     34027     34028     34027     34029     34030     34031     34030     34032
     34033     34034     34033     34035     34036     34037     34036     34038
     34039     34040     34039     34041     34042     34043     34042     34044
     34045     34046     34045     34047     34048     34049     34048     34050
     34051     34052     34051     34053     34054     34055     34054     34056
     34057     34058     34057     34059     34060     34061     34060     34062
     34063     34064     34063     34065     34066     34067     34066     34068
     34069     34070     34069     34071     34072     34073     34072     34074
     34075     34076     34075     34077     34078     34079     34078     34080
     34081     34082     34081     34083     34084     34085     34084     34086
     34087     34088     34087     34089     34090     34091     34090     34092
     34093     34094     34093     34095     34096     34097     34096     34098
     34099     34100     34099     34101     34102     34103     34102     34104
     34105     34106     34105     34107     34108     34109     34108     34110
     34111     34112     34111     34113     34114     34115     34114     34116
     34117     34118     34117     34119     34120     34121     34120     34122
     34123     34124     34123     34125     34126     34127     34126     34128
     34129     34130     34129     34131     34132     34133     34132     34134
     34135     34136     34135     34137     34138     34139     34138     34140
     34141     34142     34141     34143     34144     34145     34144     34146
     34147     34148     34147     34149     34150     34151     34150     34152
     34153     34154     34153     34155     34156     34157     34156     34158
     34159     34160     34159     34161     34162     34163     34162     34164
     34165     34166     34165     34167     34168     34169     34168     34170
     34171     34172     34171     34173     34174     34175     34174     34176
     34177     34178     34177     34179     34180     34181     34180     34182
     34183     34184     34183     34185     34186     34187     34186     34188
     34189     34190     34189     34191     34192     34193     34192     34194
     34195     34196     34195     34197     34198     34199     34198     34200
     34201     34202     34201     34203     34204     34205     34204     34206
     34207     34208     34207     34209     34210     34211     34210     34212
     34213     34214     34213     34215     34216     34217     34216     34218
     34219     34220     34219     34221     34222     34223     34222     34224
     34225     34226     34225     34227     34228     34229     34228     34230
     34231     34232     34231     34233     34234     34235     34234     34236
     34237     34238     34237     34239     34240     34241     34240     34242
     34243     34244     34243     34245     34246     34247     34246     34248
     34249     34250     34249     34251     34252     34253     34252     34254
     34255     34256     34255     34257     34258     34259     34258     34260
     34261     34262     34261     34263     34264     34265     34264     34266
     34267     34268     34267     34269     34270     34271     34270     34272
     34273     34274     34273     34275     34276     34277     34276     34278
     34279     34280     34279     34281     34282     34283     34282     34284
     34285     34286     34285     34287     34288     34289     34288     34290
     34291     34292     34291     34293     34294     34295     34294     34296
     34297     34298     34297     34299     34300     34301     34300     34302
     34303     34304     34303     34305     34306     34307     34306     34308
     34309     34310     34309     34311     34312     34313     34312     34314
     34315     34316     34315     34317     34318     34319     34318     34320
     34321     34322     34321     34323     34324     34325     34324     34326
     34327     34328     34327     34329     34330     34331     34330     34332
     34333     34334     34333     34335     34336     34337     34336     34338
     34339     34340     34339     34341     34342     34343     34342     34344
     34345     34346     34345     34347     34348     34349     34348     34350
     34351     34352     34351     34353     34354     34355     34354     34356
     34357     34358     34357     34359     34360     34361     34360     34362
     34363     34364     34363     34365     34366     34367     34366     34368
     34369     34370     34369     34371     34372     34373     34372     34374
     34375     34376     34375     34377     34378     34379     34378     34380
     34381     34382     34381     34383     34384     34385     34384     34386
     34387     34388     34387     34389     34390     34391     34390     34392
     34393     34394     34393     34395     34396     34397     34396     34398
     34399     34400     34399     34401     34402     34403     34402     34404
     34405     34406     34405     34407     34408     34409     34408     34410
     34411     34412     34411     34413     34414     34415     34414     34416
     34417     34418     34417     34419     34420     34421     34420     34422
     34423     34424     34423     34425     34426     34427     34426     34428
     34429     34430     34429     34431     34432     34433     34432     34434
     34435     34436     34435     34437     34438     34439     34438     34440
     34441     34442     34441     34443     34444     34445     34444     34446
     34447     34448     34447     34449     34450     34451     34450     34452
     34453     34454     34453     34455     34456     34457     34456     34458
     34459     34460     34459     34461     34462     34463     34462     34464
     34465     34466     34465     34467     34468     34469     34468     34470
     34471     34472     34471     34473     34474     34475     34474     34476
     34477     34478     34477     34479     34480     34481     34480     34482
     34483     34484     34483     34485     34486     34487     34486     34488
     34489     34490     34489     34491     34492     34493     34492     34494
     34495     34496     34495     34497     34498     34499     34498     34500
     34501     34502     34501     34503     34504     34505     34504     34506
     34507     34508     34507     34509     34510     34511     34510     34512
     34513     34514     34513     34515     34516     34517     34516     34518
     34519     34520     34519     34521     34522     34523     34522     34524
     34525     34526     34525     34527     34528     34529     34528     34530
     34531     34532     34531     34533     34534     34535     34534     34536
     34537     34538     34537     34539     34540     34541     34540     34542
     34543     34544     34543     34545     34546     34547     34546     34548
     34549     34550     34549     34551     34552     34553     34552     34554
     34555     34556     34555     34557     34558     34559     34558     34560
     34561     34562     34561     34563     34564     34565     34564     34566
     34567     34568     34567     34569     34570     34571     34570     34572
     34573     34574     34573     34575     34576     34577     34576     34578
     34579     34580     34579     34581     34582     34583     34582     34584
     34585     34586     34585     34587     34588     34589     34588     34590
     34591     34592     34591     34593     34594     34595     34594     34596
     34597     34598     34597     34599     34600     34601     34600     34602
     34603     34604     34603     34605     34606     34607     34606     34608
     34609     34610     34609     34611     34612     34613     34612     34614
     34615     34616     34615     34617     34618     34619     34618     34620
     34621     34622     34621     34623     34624     34625     34624     34626
     34627     34628     34627     34629     34630     34631     34630     34632
     34633     34634     34633     34635     34636     34637     34636     34638
     34639     34640     34639     34641     34642     34643     34642     34644
     34645     34646     34645     34647     34648     34649     34648     34650
     34651     34652     34651     34653     34654     34655     34654     34656
     34657     34658     34657     34659     34660     34661     34660     34662
     34663     34664     34663     34665     34666     34667     34666     34668
     34669     34670     34669     34671     34672     34673     34672     34674
     34675     34676     34675     34677     34678     34679     34678     34680
     34681     34682     34681     34683     34684     34685     34684     34686
     34687     34688     34687     34689     34690     34691     34690     34692
     34693     34694     34693     34695     34696     34697     34696     34698
     34699     34700     34699     34701     34702     34703     34702     34704
     34705     34706     34705     34707     34708     34709     34708     34710
     34711     34712     34711     34713     34714     34715     34714     34716
     34717     34718     34717     34719     34720     34721     34720     34722
     34723     34724     34723     34725     34726     34727     34726     34728
     34729     34730     34729     34731     34732     34733     34732     34734
     34735     34736     34735     34737     34738     34739     34738     34740
     34741     34742     34741     34743     34744     34745     34744     34746
     34747     34748     34747     34749     34750     34751     34750     34752
     34753     34754     34753     34755     34756     34757     34756     34758
     34759     34760     34759     34761     34762     34763     34762     34764
     34765     34766     34765     34767     34768     34769     34768     34770
     34771     34772     34771     34773     34774     34775     34774     34776
     34777     34778     34777     34779     34780     34781     34780     34782
     34783     34784     34783     34785     34786     34787     34786     34788
     34789     34790     34789     34791     34792     34793     34792     34794
     34795     34796     34795     34797     34798     34799     34798     34800
     34801     34802     34801     34803     34804     34805     34804     34806
     34807     34808     34807     34809     34810     34811     34810     34812
     34813     34814     34813     34815     34816     34817     34816     34818
     34819     34820     34819     34821     34822     34823     34822     34824
     34825     34826     34825     34827     34828     34829     34828     34830
     34831     34832     34831     34833     34834     34835     34834     34836
     34837     34838     34837     34839     34840     34841     34840     34842
     34843     34844     34843     34845     34846     34847     34846     34848
     34849     34850     34849     34851     34852     34853     34852     34854
     34855     34856     34855     34857     34858     34859     34858     34860
     34861     34862     34861     34863     34864     34865     34864     34866
     34867     34868     34867     34869     34870     34871     34870     34872
     34873     34874     34873     34875     34876     34877     34876     34878
     34879     34880     34879     34881     34882     34883     34882     34884
     34885     34886     34885     34887     34888     34889     34888     34890
     34891     34892     34891     34893     34894     34895     34894     34896
     34897     34898     34897     34899     34900     34901     34900     34902
     34903     34904     34903     34905     34906     34907     34906     34908
     34909     34910     34909     34911     34912     34913     34912     34914
     34915     34916     34915     34917     34918     34919     34918     34920
     34921     34922     34921     34923     34924     34925     34924     34926
     34927     34928     34927     34929     34930     34931     34930     34932
     34933     34934     34933     34935     34936     34937     34936     34938
     34939     34940     34939     34941     34942     34943     34942     34944
     34945     34946     34945     34947     34948     34949     34948     34950
     34951     34952     34951     34953     34954     34955     34954     34956
     34957     34958     34957     34959     34960     34961     34960     34962
     34963     34964     34963     34965     34966     34967     34966     34968
     34969     34970     34969     34971     34972     34973     34972     34974
     34975     34976     34975     34977     34978     34979     34978     34980
     34981     34982     34981     34983     34984     34985     34984     34986
     34987     34988     34987     34989     34990     34991     34990     34992
     34993     34994     34993     34995     34996     34997     34996     34998
     34999     35000     34999     35001     35002     35003     35002     35004
     35005     35006     35005     35007     35008     35009     35008     35010
     35011     35012     35011     35013     35014     35015     35014     35016
     35017     35018     35017     35019     35020     35021     35020     35022
     35023     35024     35023     35025     35026     35027     35026     35028
     35029     35030     35029     35031     35032     35033     35032     35034
     35035     35036     35035     35037     35038     35039     35038     35040
     35041     35042     35041     35043     35044     35045     35044     35046
     35047     35048     35047     35049     35050     35051     35050     35052
     35053     35054     35053     35055     35056     35057     35056     35058
     35059     35060     35059     35061     35062     35063     35062     35064
     35065     35066     35065     35067     35068     35069     35068     35070
     35071     35072     35071     35073     35074     35075     35074     35076
     35077     35078     35077     35079     35080     35081     35080     35082
     35083     35084     35083     35085     35086     35087     35086     35088
     35089     35090     35089     35091     35092     35093     35092     35094
     35095     35096     35095     35097     35098     35099     35098     35100
     35101     35102     35101     35103     35104     35105     35104     35106
     35107     35108     35107     35109     35110     35111     35110     35112
     35113     35114     35113     35115     35116     35117     35116     35118
     35119     35120     35119     35121     35122     35123     35122     35124
     35125     35126     35125     35127     35128     35129     35128     35130
     35131     35132     35131     35133     35134     35135     35134     35136
     35137     35138     35137     35139     35140     35141     35140     35142
     35143     35144     35143     35145     35146     35147     35146     35148
     35149     35150     35149     35151     35152     35153     35152     35154
     35155     35156     35155     35157     35158     35159     35158     35160
     35161     35162     35161     35163     35164     35165     35164     35166
     35167     35168     35167     35169     35170     35171     35170     35172
     35173     35174     35173     35175     35176     35177     35176     35178
     35179     35180     35179     35181     35182     35183     35182     35184
     35185     35186     35185     35187     35188     35189     35188     35190
     35191     35192     35191     35193     35194     35195     35194     35196
     35197     35198     35197     35199     35200     35201     35200     35202
     35203     35204     35203     35205     35206     35207     35206     35208
     35209     35210     35209     35211     35212     35213     35212     35214
     35215     35216     35215     35217     35218     35219     35218     35220
     35221     35222     35221     35223     35224     35225     35224     35226
     35227     35228     35227     35229     35230     35231     35230     35232
     35233     35234     35233     35235     35236     35237     35236     35238
     35239     35240     35239     35241     35242     35243     35242     35244
     35245     35246     35245     35247     35248     35249     35248     35250
     35251     35252     35251     35253     35254     35255     35254     35256
     35257     35258     35257     35259     35260     35261     35260     35262
     35263     35264     35263     35265     35266     35267     35266     35268
     35269     35270     35269     35271     35272     35273     35272     35274
     35275     35276     35275     35277     35278     35279     35278     35280
     35281     35282     35281     35283     35284     35285     35284     35286
     35287     35288     35287     35289     35290     35291     35290     35292
     35293     35294     35293     35295     35296     35297     35296     35298
     35299     35300     35299     35301     35302     35303     35302     35304
     35305     35306     35305     35307     35308     35309     35308     35310
     35311     35312     35311     35313     35314     35315     35314     35316
     35317     35318     35317     35319     35320     35321     35320     35322
     35323     35324     35323     35325     35326     35327     35326     35328
     35329     35330     35329     35331     35332     35333     35332     35334
     35335     35336     35335     35337     35338     35339     35338     35340
     35341     35342     35341     35343     35344     35345     35344     35346
     35347     35348     35347     35349     35350     35351     35350     35352
     35353     35354     35353     35355     35356     35357     35356     35358
     35359     35360     35359     35361     35362     35363     35362     35364
     35365     35366     35365     35367     35368     35369     35368     35370
     35371     35372     35371     35373     35374     35375     35374     35376
     35377     35378     35377     35379     35380     35381     35380     35382
     35383     35384     35383     35385     35386     35387     35386     35388
     35389     35390     35389     35391     35392     35393     35392     35394
     35395     35396     35395     35397     35398     35399     35398     35400
     35401     35402     35401     35403     35404     35405     35404     35406
     35407     35408     35407     35409     35410     35411     35410     35412
     35413     35414     35413     35415     35416     35417     35416     35418
     35419     35420     35419     35421     35422     35423     35422     35424
     35425     35426     35425     35427     35428     35429     35428     35430
     35431     35432     35431     35433     35434     35435     35434     35436
     35437     35438     35437     35439     35440     35441     35440     35442
     35443     35444     35443     35445     35446     35447     35446     35448
     35449     35450     35449     35451     35452     35453     35452     35454
     35455     35456     35455     35457     35458     35459     35458     35460
     35461     35462     35461     35463     35464     35465     35464     35466
     35467     35468     35467     35469     35470     35471     35470     35472
     35473     35474     35473     35475     35476     35477     35476     35478
     35479     35480     35479     35481     35482     35483     35482     35484
     35485     35486     35485     35487     35488     35489     35488     35490
     35491     35492     35491     35493     35494     35495     35494     35496
     35497     35498     35497     35499     35500     35501     35500     35502
     35503     35504     35503     35505     35506     35507     35506     35508
     35509     35510     35509     35511     35512     35513     35512     35514
     35515     35516     35515     35517     35518     35519     35518     35520
     35521     35522     35521     35523     35524     35525     35524     35526
     35527     35528     35527     35529     35530     35531     35530     35532
     35533     35534     35533     35535     35536     35537     35536     35538
     35539     35540     35539     35541     35542     35543     35542     35544
     35545     35546     35545     35547     35548     35549     35548     35550
     35551     35552     35551     35553     35554     35555     35554     35556
     35557     35558     35557     35559     35560     35561     35560     35562
     35563     35564     35563     35565     35566     35567     35566     35568
     35569     35570     35569     35571     35572     35573     35572     35574
     35575     35576     35575     35577     35578     35579     35578     35580
     35581     35582     35581     35583     35584     35585     35584     35586
     35587     35588     35587     35589     35590     35591     35590     35592
     35593     35594     35593     35595     35596     35597     35596     35598
     35599     35600     35599     35601     35602     35603     35602     35604
     35605     35606     35605     35607     35608     35609     35608     35610
     35611     35612     35611     35613     35614     35615     35614     35616
     35617     35618     35617     35619     35620     35621     35620     35622
     35623     35624     35623     35625     35626     35627     35626     35628
     35629     35630     35629     35631     35632     35633     35632     35634
     35635     35636     35635     35637     35638     35639     35638     35640
     35641     35642     35641     35643     35644     35645     35644     35646
     35647     35648     35647     35649     35650     35651     35650     35652
     35653     35654     35653     35655     35656     35657     35656     35658
     35659     35660     35659     35661     35662     35663     35662     35664
     35665     35666     35665     35667     35668     35669     35668     35670
     35671     35672     35671     35673     35674     35675     35674     35676
     35677     35678     35677     35679     35680     35681     35680     35682
     35683     35684     35683     35685     35686     35687     35686     35688
     35689     35690     35689     35691     35692     35693     35692     35694
     35695     35696     35695     35697     35698     35699     35698     35700
     35701     35702     35701     35703     35704     35705     35704     35706
     35707     35708     35707     35709     35710     35711     35710     35712
     35713     35714     35713     35715     35716     35717     35716     35718
     35719     35720     35719     35721     35722     35723     35722     35724
     35725     35726     35725     35727     35728     35729     35728     35730
     35731     35732     35731     35733     35734     35735     35734     35736
     35737     35738     35737     35739     35740     35741     35740     35742
     35743     35744     35743     35745     35746     35747     35746     35748
     35749     35750     35749     35751     35752     35753     35752     35754
     35755     35756     35755     35757     35758     35759     35758     35760
     35761     35762     35761     35763     35764     35765     35764     35766
     35767     35768     35767     35769     35770     35771     35770     35772
     35773     35774     35773     35775     35776     35777     35776     35778
     35779     35780     35779     35781     35782     35783     35782     35784
     35785     35786     35785     35787     35788     35789     35788     35790
     35791     35792     35791     35793     35794     35795     35794     35796
     35797     35798     35797     35799     35800     35801     35800     35802
     35803     35804     35803     35805     35806     35807     35806     35808
     35809     35810     35809     35811     35812     35813     35812     35814
     35815     35816     35815     35817     35818     35819     35818     35820
     35821     35822     35821     35823     35824     35825     35824     35826
     35827     35828     35827     35829     35830     35831     35830     35832
     35833     35834     35833     35835     35836     35837     35836     35838
     35839     35840     35839     35841     35842     35843     35842     35844
     35845     35846     35845     35847     35848     35849     35848     35850
     35851     35852     35851     35853     35854     35855     35854     35856
     35857     35858     35857     35859     35860     35861     35860     35862
     35863     35864     35863     35865     35866     35867     35866     35868
     35869     35870     35869     35871     35872     35873     35872     35874
     35875     35876     35875     35877     35878     35879     35878     35880
     35881     35882     35881     35883     35884     35885     35884     35886
     35887     35888     35887     35889     35890     35891     35890     35892
     35893     35894     35893     35895     35896     35897     35896     35898
     35899     35900     35899     35901     35902     35903     35902     35904
     35905     35906     35905     35907     35908     35909     35908     35910
     35911     35912     35911     35913     35914     35915     35914     35916
     35917     35918     35917     35919     35920     35921     35920     35922
     35923     35924     35923     35925     35926     35927     35926     35928
     35929     35930     35929     35931     35932     35933     35932     35934
     35935     35936     35935     35937     35938     35939     35938     35940
     35941     35942     35941     35943     35944     35945     35944     35946
     35947     35948     35947     35949     35950     35951     35950     35952
     35953     35954     35953     35955     35956     35957     35956     35958
     35959     35960     35959     35961     35962     35963     35962     35964
     35965     35966     35965     35967     35968     35969     35968     35970
     35971     35972     35971     35973     35974     35975     35974     35976
     35977     35978     35977     35979     35980     35981     35980     35982
     35983     35984     35983     35985     35986     35987     35986     35988
     35989     35990     35989     35991     35992     35993     35992     35994
     35995     35996     35995     35997     35998     35999     35998     36000
     36001     36002     36001     36003     36004     36005     36004     36006
     36007     36008     36007     36009     36010     36011     36010     36012
     36013     36014     36013     36015     36016     36017     36016     36018
     36019     36020     36019     36021     36022     36023     36022     36024
     36025     36026     36025     36027     36028     36029     36028     36030
     36031     36032     36031     36033     36034     36035     36034     36036
     36037     36038     36037     36039     36040     36041     36040     36042
     36043     36044     36043     36045     36046     36047     36046     36048
     36049     36050     36049     36051     36052     36053     36052     36054
     36055     36056     36055     36057     36058     36059     36058     36060
     36061     36062     36061     36063     36064     36065     36064     36066
     36067     36068     36067     36069     36070     36071     36070     36072
     36073     36074     36073     36075     36076     36077     36076     36078
     36079     36080     36079     36081     36082     36083     36082     36084
     36085     36086     36085     36087     36088     36089     36088     36090
     36091     36092     36091     36093     36094     36095     36094     36096
     36097     36098     36097     36099     36100     36101     36100     36102
     36103     36104     36103     36105     36106     36107     36106     36108
     36109     36110     36109     36111     36112     36113     36112     36114
     36115     36116     36115     36117     36118     36119     36118     36120
     36121     36122     36121     36123     36124     36125     36124     36126
     36127     36128     36127     36129     36130     36131     36130     36132
     36133     36134     36133     36135     36136     36137     36136     36138
     36139     36140     36139     36141     36142     36143     36142     36144
     36145     36146     36145     36147     36148     36149     36148     36150
     36151     36152     36151     36153     36154     36155     36154     36156
     36157     36158     36157     36159     36160     36161     36160     36162
     36163     36164     36163     36165     36166     36167     36166     36168
     36169     36170     36169     36171     36172     36173     36172     36174
     36175     36176     36175     36177     36178     36179     36178     36180
     36181     36182     36181     36183     36184     36185     36184     36186
     36187     36188     36187     36189     36190     36191     36190     36192
     36193     36194     36193     36195     36196     36197     36196     36198
     36199     36200     36199     36201     36202     36203     36202     36204
     36205     36206     36205     36207     36208     36209     36208     36210
     36211     36212     36211     36213     36214     36215     36214     36216
     36217     36218     36217     36219     36220     36221     36220     36222
     36223     36224     36223     36225     36226     36227     36226     36228
     36229     36230     36229     36231     36232     36233     36232     36234
     36235     36236     36235     36237     36238     36239     36238     36240
     36241     36242     36241     36243     36244     36245     36244     36246
     36247     36248     36247     36249     36250     36251     36250     36252
     36253     36254     36253     36255     36256     36257     36256     36258
     36259     36260     36259     36261     36262     36263     36262     36264
     36265     36266     36265     36267     36268     36269     36268     36270
     36271     36272     36271     36273     36274     36275     36274     36276
     36277     36278     36277     36279     36280     36281     36280     36282
     36283     36284     36283     36285     36286     36287     36286     36288
     36289     36290     36289     36291     36292     36293     36292     36294
     36295     36296     36295     36297     36298     36299     36298     36300
     36301     36302     36301     36303     36304     36305     36304     36306
     36307     36308     36307     36309     36310     36311     36310     36312
     36313     36314     36313     36315     36316     36317     36316     36318
     36319     36320     36319     36321     36322     36323     36322     36324
     36325     36326     36325     36327     36328     36329     36328     36330
     36331     36332     36331     36333     36334     36335     36334     36336
     36337     36338     36337     36339     36340     36341     36340     36342
     36343     36344     36343     36345     36346     36347     36346     36348
     36349     36350     36349     36351     36352     36353     36352     36354
     36355     36356     36355     36357     36358     36359     36358     36360
     36361     36362     36361     36363     36364     36365     36364     36366
     36367     36368     36367     36369     36370     36371     36370     36372
     36373     36374     36373     36375     36376     36377     36376     36378
     36379     36380     36379     36381     36382     36383     36382     36384
     36385     36386     36385     36387     36388     36389     36388     36390
     36391     36392     36391     36393     36394     36395     36394     36396
     36397     36398     36397     36399     36400     36401     36400     36402
     36403     36404     36403     36405     36406     36407     36406     36408
     36409     36410     36409     36411     36412     36413     36412     36414
     36415     36416     36415     36417     36418     36419     36418     36420
     36421     36422     36421     36423     36424     36425     36424     36426
     36427     36428     36427     36429     36430     36431     36430     36432
     36433     36434     36433     36435     36436     36437     36436     36438
     36439     36440     36439     36441     36442     36443     36442     36444
     36445     36446     36445     36447     36448     36449     36448     36450
     36451     36452     36451     36453     36454     36455     36454     36456
     36457     36458     36457     36459     36460     36461     36460     36462
     36463     36464     36463     36465     36466     36467     36466     36468
     36469     36470     36469     36471     36472     36473     36472     36474
     36475     36476     36475     36477     36478     36479     36478     36480
     36481     36482     36481     36483     36484     36485     36484     36486
     36487     36488     36487     36489     36490     36491     36490     36492
     36493     36494     36493     36495     36496     36497     36496     36498
     36499     36500     36499     36501     36502     36503     36502     36504
     36505     36506     36505     36507     36508     36509     36508     36510
     36511     36512     36511     36513     36514     36515     36514     36516
     36517     36518     36517     36519     36520     36521     36520     36522
     36523     36524     36523     36525     36526     36527     36526     36528
     36529     36530     36529     36531     36532     36533     36532     36534
     36535     36536     36535     36537     36538     36539     36538     36540
     36541     36542     36541     36543     36544     36545     36544     36546
     36547     36548     36547     36549     36550     36551     36550     36552
     36553     36554     36553     36555     36556     36557     36556     36558
     36559     36560     36559     36561     36562     36563     36562     36564
     36565     36566     36565     36567     36568     36569     36568     36570
     36571     36572     36571     36573     36574     36575     36574     36576
     36577     36578     36577     36579     36580     36581     36580     36582
     36583     36584     36583     36585     36586     36587     36586     36588
     36589     36590     36589     36591     36592     36593     36592     36594
     36595     36596     36595     36597     36598     36599     36598     36600
     36601     36602     36601     36603     36604     36605     36604     36606
     36607     36608     36607     36609     36610     36611     36610     36612
     36613     36614     36613     36615     36616     36617     36616     36618
     36619     36620     36619     36621     36622     36623     36622     36624
     36625     36626     36625     36627     36628     36629     36628     36630
     36631     36632     36631     36633     36634     36635     36634     36636
     36637     36638     36637     36639     36640     36641     36640     36642
     36643     36644     36643     36645     36646     36647     36646     36648
     36649     36650     36649     36651     36652     36653     36652     36654
     36655     36656     36655     36657     36658     36659     36658     36660
     36661     36662     36661     36663     36664     36665     36664     36666
     36667     36668     36667     36669     36670     36671     36670     36672
     36673     36674     36673     36675     36676     36677     36676     36678
     36679     36680     36679     36681     36682     36683     36682     36684
     36685     36686     36685     36687     36688     36689     36688     36690
     36691     36692     36691     36693     36694     36695     36694     36696
     36697     36698     36697     36699     36700     36701     36700     36702
     36703     36704     36703     36705     36706     36707     36706     36708
     36709     36710     36709     36711     36712     36713     36712     36714
     36715     36716     36715     36717     36718     36719     36718     36720
     36721     36722     36721     36723     36724     36725     36724     36726
     36727     36728     36727     36729     36730     36731     36730     36732
     36733     36734     36733     36735     36736     36737     36736     36738
     36739     36740     36739     36741     36742     36743     36742     36744
     36745     36746     36745     36747     36748     36749     36748     36750
     36751     36752     36751     36753     36754     36755     36754     36756
     36757     36758     36757     36759     36760     36761     36760     36762
     36763     36764     36763     36765     36766     36767     36766     36768
     36769     36770     36769     36771     36772     36773     36772     36774
     36775     36776     36775     36777     36778     36779     36778     36780
     36781     36782     36781     36783     36784     36785     36784     36786
     36787     36788     36787     36789     36790     36791     36790     36792
     36793     36794     36793     36795     36796     36797     36796     36798
     36799     36800     36799     36801     36802     36803     36802     36804
     36805     36806     36805     36807     36808     36809     36808     36810
     36811     36812     36811     36813     36814     36815     36814     36816
     36817     36818     36817     36819     36820     36821     36820     36822
     36823     36824     36823     36825     36826     36827     36826     36828
     36829     36830     36829     36831     36832     36833     36832     36834
     36835     36836     36835     36837     36838     36839     36838     36840
     36841     36842     36841     36843     36844     36845     36844     36846
     36847     36848     36847     36849     36850     36851     36850     36852
     36853     36854     36853     36855     36856     36857     36856     36858
     36859     36860     36859     36861     36862     36863     36862     36864
     36865     36866     36865     36867     36868     36869     36868     36870
     36871     36872     36871     36873     36874     36875     36874     36876
     36877     36878     36877     36879     36880     36881     36880     36882
     36883     36884     36883     36885     36886     36887     36886     36888
     36889     36890     36889     36891     36892     36893     36892     36894
     36895     36896     36895     36897     36898     36899     36898     36900
     36901     36902     36901     36903     36904     36905     36904     36906
     36907     36908     36907     36909     36910     36911     36910     36912
     36913     36914     36913     36915     36916     36917     36916     36918
     36919     36920     36919     36921     36922     36923     36922     36924
     36925     36926     36925     36927     36928     36929     36928     36930
     36931     36932     36931     36933     36934     36935     36934     36936
     36937     36938     36937     36939     36940     36941     36940     36942
     36943     36944     36943     36945     36946     36947     36946     36948
     36949     36950     36949     36951     36952     36953     36952     36954
     36955     36956     36955     36957     36958     36959     36958     36960
     36961     36962     36961     36963     36964     36965     36964     36966
     36967     36968     36967     36969     36970     36971     36970     36972
     36973     36974     36973     36975     36976     36977     36976     36978
     36979     36980     36979     36981     36982     36983     36982     36984
     36985     36986     36985     36987     36988     36989     36988     36990
     36991     36992     36991     36993     36994     36995     36994     36996
     36997     36998     36997     36999     37000     37001     37000     37002
     37003     37004     37003     37005     37006     37007     37006     37008
     37009     37010     37009     37011     37012     37013     37012     37014
     37015     37016     37015     37017     37018     37019     37018     37020
     37021     37022     37021     37023     37024     37025     37024     37026
     37027     37028     37027     37029     37030     37031     37030     37032
     37033     37034     37033     37035     37036     37037     37036     37038
     37039     37040     37039     37041     37042     37043     37042     37044
     37045     37046     37045     37047     37048     37049     37048     37050
     37051     37052     37051     37053     37054     37055     37054     37056
     37057     37058     37057     37059     37060     37061     37060     37062
     37063     37064     37063     37065     37066     37067     37066     37068
     37069     37070     37069     37071     37072     37073     37072     37074
     37075     37076     37075     37077     37078     37079     37078     37080
     37081     37082     37081     37083     37084     37085     37084     37086
     37087     37088     37087     37089     37090     37091     37090     37092
     37093     37094     37093     37095     37096     37097     37096     37098
     37099     37100     37099     37101     37102     37103     37102     37104
     37105     37106     37105     37107     37108     37109     37108     37110
     37111     37112     37111     37113     37114     37115     37114     37116
     37117     37118     37117     37119     37120     37121     37120     37122
     37123     37124     37123     37125     37126     37127     37126     37128
     37129     37130     37129     37131     37132     37133     37132     37134
     37135     37136     37135     37137     37138     37139     37138     37140
     37141     37142     37141     37143     37144     37145     37144     37146
     37147     37148     37147     37149     37150     37151     37150     37152
     37153     37154     37153     37155     37156     37157     37156     37158
     37159     37160     37159     37161     37162     37163     37162     37164
     37165     37166     37165     37167     37168     37169     37168     37170
     37171     37172     37171     37173     37174     37175     37174     37176
     37177     37178     37177     37179     37180     37181     37180     37182
     37183     37184     37183     37185     37186     37187     37186     37188
     37189     37190     37189     37191     37192     37193     37192     37194
     37195     37196     37195     37197     37198     37199     37198     37200
     37201     37202     37201     37203     37204     37205     37204     37206
     37207     37208     37207     37209     37210     37211     37210     37212
     37213     37214     37213     37215     37216     37217     37216     37218
     37219     37220     37219     37221     37222     37223     37222     37224
     37225     37226     37225     37227     37228     37229     37228     37230
     37231     37232     37231     37233     37234     37235     37234     37236
     37237     37238     37237     37239     37240     37241     37240     37242
     37243     37244     37243     37245     37246     37247     37246     37248
     37249     37250     37249     37251     37252     37253     37252     37254
     37255     37256     37255     37257     37258     37259     37258     37260
     37261     37262     37261     37263     37264     37265     37264     37266
     37267     37268     37267     37269     37270     37271     37270     37272
     37273     37274     37273     37275     37276     37277     37276     37278
     37279     37280     37279     37281     37282     37283     37282     37284
     37285     37286     37285     37287     37288     37289     37288     37290
     37291     37292     37291     37293     37294     37295     37294     37296
     37297     37298     37297     37299     37300     37301     37300     37302
     37303     37304     37303     37305     37306     37307     37306     37308
     37309     37310     37309     37311     37312     37313     37312     37314
     37315     37316     37315     37317     37318     37319     37318     37320
     37321     37322     37321     37323     37324     37325     37324     37326
     37327     37328     37327     37329     37330     37331     37330     37332
     37333     37334     37333     37335     37336     37337     37336     37338
     37339     37340     37339     37341     37342     37343     37342     37344
     37345     37346     37345     37347     37348     37349     37348     37350
     37351     37352     37351     37353     37354     37355     37354     37356
     37357     37358     37357     37359     37360     37361     37360     37362
     37363     37364     37363     37365     37366     37367     37366     37368
     37369     37370     37369     37371     37372     37373     37372     37374
     37375     37376     37375     37377     37378     37379     37378     37380
     37381     37382     37381     37383     37384     37385     37384     37386
     37387     37388     37387     37389     37390     37391     37390     37392
     37393     37394     37393     37395     37396     37397     37396     37398
     37399     37400     37399     37401     37402     37403     37402     37404
     37405     37406     37405     37407     37408     37409     37408     37410
     37411     37412     37411     37413     37414     37415     37414     37416
     37417     37418     37417     37419     37420     37421     37420     37422
     37423     37424     37423     37425     37426     37427     37426     37428
     37429     37430     37429     37431     37432     37433     37432     37434
     37435     37436     37435     37437     37438     37439     37438     37440
     37441     37442     37441     37443     37444     37445     37444     37446
     37447     37448     37447     37449     37450     37451     37450     37452
     37453     37454     37453     37455     37456     37457     37456     37458
     37459     37460     37459     37461     37462     37463     37462     37464
     37465     37466     37465     37467     37468     37469     37468     37470
     37471     37472     37471     37473     37474     37475     37474     37476
     37477     37478     37477     37479     37480     37481     37480     37482
     37483     37484     37483     37485     37486     37487     37486     37488
     37489     37490     37489     37491     37492     37493     37492     37494
     37495     37496     37495     37497     37498     37499     37498     37500
     37501     37502     37501     37503     37504     37505     37504     37506
     37507     37508     37507     37509     37510     37511     37510     37512
     37513     37514     37513     37515     37516     37517     37516     37518
     37519     37520     37519     37521     37522     37523     37522     37524
     37525     37526     37525     37527     37528     37529     37528     37530
     37531     37532     37531     37533     37534     37535     37534     37536
     37537     37538     37537     37539     37540     37541     37540     37542
     37543     37544     37543     37545     37546     37547     37546     37548
     37549     37550     37549     37551     37552     37553     37552     37554
     37555     37556     37555     37557     37558     37559     37558     37560
     37561     37562     37561     37563     37564     37565     37564     37566
     37567     37568     37567     37569     37570     37571     37570     37572
     37573     37574     37573     37575     37576     37577     37576     37578
     37579     37580     37579     37581     37582     37583     37582     37584
     37585     37586     37585     37587     37588     37589     37588     37590
     37591     37592     37591     37593     37594     37595     37594     37596
     37597     37598     37597     37599     37600     37601     37600     37602
     37603     37604     37603     37605     37606     37607     37606     37608
     37609     37610     37609     37611     37612     37613     37612     37614
     37615     37616     37615     37617     37618     37619     37618     37620
     37621     37622     37621     37623     37624     37625     37624     37626
     37627     37628     37627     37629     37630     37631     37630     37632
     37633     37634     37633     37635     37636     37637     37636     37638
     37639     37640     37639     37641     37642     37643     37642     37644
     37645     37646     37645     37647     37648     37649     37648     37650
     37651     37652     37651     37653     37654     37655     37654     37656
     37657     37658     37657     37659     37660     37661     37660     37662
     37663     37664     37663     37665     37666     37667     37666     37668
     37669     37670     37669     37671     37672     37673     37672     37674
     37675     37676     37675     37677     37678     37679     37678     37680
     37681     37682     37681     37683     37684     37685     37684     37686
     37687     37688     37687     37689     37690     37691     37690     37692
     37693     37694     37693     37695     37696     37697     37696     37698
     37699     37700     37699     37701     37702     37703     37702     37704
     37705     37706     37705     37707     37708     37709     37708     37710
     37711     37712     37711     37713     37714     37715     37714     37716
     37717     37718     37717     37719     37720     37721     37720     37722
     37723     37724     37723     37725     37726     37727     37726     37728
     37729     37730     37729     37731     37732     37733     37732     37734
     37735     37736     37735     37737     37738     37739     37738     37740
     37741     37742     37741     37743     37744     37745     37744     37746
     37747     37748     37747     37749     37750     37751     37750     37752
     37753     37754     37753     37755     37756     37757     37756     37758
     37759     37760     37759     37761     37762     37763     37762     37764
     37765     37766     37765     37767     37768     37769     37768     37770
     37771     37772     37771     37773     37774     37775     37774     37776
     37777     37778     37777     37779     37780     37781     37780     37782
     37783     37784     37783     37785     37786     37787     37786     37788
     37789     37790     37789     37791     37792     37793     37792     37794
     37795     37796     37795     37797     37798     37799     37798     37800
     37801     37802     37801     37803     37804     37805     37804     37806
     37807     37808     37807     37809     37810     37811     37810     37812
     37813     37814     37813     37815     37816     37817     37816     37818
     37819     37820     37819     37821     37822     37823     37822     37824
     37825     37826     37825     37827     37828     37829     37828     37830
     37831     37832     37831     37833     37834     37835     37834     37836
     37837     37838     37837     37839     37840     37841     37840     37842
     37843     37844     37843     37845     37846     37847     37846     37848
     37849     37850     37849     37851     37852     37853     37852     37854
     37855     37856     37855     37857     37858     37859     37858     37860
     37861     37862     37861     37863     37864     37865     37864     37866
     37867     37868     37867     37869     37870     37871     37870     37872
     37873     37874     37873     37875     37876     37877     37876     37878
     37879     37880     37879     37881     37882     37883     37882     37884
     37885     37886     37885     37887     37888     37889     37888     37890
     37891     37892     37891     37893     37894     37895     37894     37896
     37897     37898     37897     37899     37900     37901     37900     37902
     37903     37904     37903     37905     37906     37907     37906     37908
     37909     37910     37909     37911     37912     37913     37912     37914
     37915     37916     37915     37917     37918     37919     37918     37920
     37921     37922     37921     37923     37924     37925     37924     37926
     37927     37928     37927     37929     37930     37931     37930     37932
     37933     37934     37933     37935     37936     37937     37936     37938
     37939     37940     37939     37941     37942     37943     37942     37944
     37945     37946     37945     37947     37948     37949     37948     37950
     37951     37952     37951     37953     37954     37955     37954     37956
     37957     37958     37957     37959     37960     37961     37960     37962
     37963     37964     37963     37965     37966     37967     37966     37968
     37969     37970     37969     37971     37972     37973     37972     37974
     37975     37976     37975     37977     37978     37979     37978     37980
     37981     37982     37981     37983     37984     37985     37984     37986
     37987     37988     37987     37989     37990     37991     37990     37992
     37993     37994     37993     37995     37996     37997     37996     37998
     37999     38000     37999     38001     38002     38003     38002     38004
     38005     38006     38005     38007     38008     38009     38008     38010
     38011     38012     38011     38013     38014     38015     38014     38016
     38017     38018     38017     38019     38020     38021     38020     38022
     38023     38024     38023     38025     38026     38027     38026     38028
     38029     38030     38029     38031     38032     38033     38032     38034
     38035     38036     38035     38037     38038     38039     38038     38040
     38041     38042     38041     38043     38044     38045     38044     38046
     38047     38048     38047     38049     38050     38051     38050     38052
     38053     38054     38053     38055     38056     38057     38056     38058
     38059     38060     38059     38061     38062     38063     38062     38064
     38065     38066     38065     38067     38068     38069     38068     38070
     38071     38072     38071     38073     38074     38075     38074     38076
     38077     38078     38077     38079     38080     38081     38080     38082
     38083     38084     38083     38085     38086     38087     38086     38088
     38089     38090     38089     38091     38092     38093     38092     38094
     38095     38096     38095     38097     38098     38099     38098     38100
     38101     38102     38101     38103     38104     38105     38104     38106
     38107     38108     38107     38109     38110     38111     38110     38112
     38113     38114     38113     38115     38116     38117     38116     38118
     38119     38120     38119     38121     38122     38123     38122     38124
     38125     38126     38125     38127     38128     38129     38128     38130
     38131     38132     38131     38133     38134     38135     38134     38136
     38137     38138     38137     38139     38140     38141     38140     38142
     38143     38144     38143     38145     38146     38147     38146     38148
     38149     38150     38149     38151     38152     38153     38152     38154
     38155     38156     38155     38157     38158     38159     38158     38160
     38161     38162     38161     38163     38164     38165     38164     38166
     38167     38168     38167     38169     38170     38171     38170     38172
     38173     38174     38173     38175     38176     38177     38176     38178
     38179     38180     38179     38181     38182     38183     38182     38184
     38185     38186     38185     38187     38188     38189     38188     38190
     38191     38192     38191     38193     38194     38195     38194     38196
     38197     38198     38197     38199     38200     38201     38200     38202
     38203     38204     38203     38205     38206     38207     38206     38208
     38209     38210     38209     38211     38212     38213     38212     38214
     38215     38216     38215     38217     38218     38219     38218     38220
     38221     38222     38221     38223     38224     38225     38224     38226
     38227     38228     38227     38229     38230     38231     38230     38232
     38233     38234     38233     38235     38236     38237     38236     38238
     38239     38240     38239     38241     38242     38243     38242     38244
     38245     38246     38245     38247     38248     38249     38248     38250
     38251     38252     38251     38253     38254     38255     38254     38256
     38257     38258     38257     38259     38260     38261     38260     38262
     38263     38264     38263     38265     38266     38267     38266     38268
     38269     38270     38269     38271     38272     38273     38272     38274
     38275     38276     38275     38277     38278     38279     38278     38280
     38281     38282     38281     38283     38284     38285     38284     38286
     38287     38288     38287     38289     38290     38291     38290     38292
     38293     38294     38293     38295     38296     38297     38296     38298
     38299     38300     38299     38301     38302     38303     38302     38304
     38305     38306     38305     38307     38308     38309     38308     38310
     38311     38312     38311     38313     38314     38315     38314     38316
     38317     38318     38317     38319     38320     38321     38320     38322
     38323     38324     38323     38325     38326     38327     38326     38328
     38329     38330     38329     38331     38332     38333     38332     38334
     38335     38336     38335     38337     38338     38339     38338     38340
     38341     38342     38341     38343     38344     38345     38344     38346
     38347     38348     38347     38349     38350     38351     38350     38352
     38353     38354     38353     38355     38356     38357     38356     38358
     38359     38360     38359     38361     38362     38363     38362     38364
     38365     38366     38365     38367     38368     38369     38368     38370
     38371     38372     38371     38373     38374     38375     38374     38376
     38377     38378     38377     38379     38380     38381     38380     38382
     38383     38384     38383     38385     38386     38387     38386     38388
     38389     38390     38389     38391     38392     38393     38392     38394
     38395     38396     38395     38397     38398     38399     38398     38400
     38401     38402     38401     38403     38404     38405     38404     38406
     38407     38408     38407     38409     38410     38411     38410     38412
     38413     38414     38413     38415     38416     38417     38416     38418
     38419     38420     38419     38421     38422     38423     38422     38424
     38425     38426     38425     38427     38428     38429     38428     38430
     38431     38432     38431     38433     38434     38435     38434     38436
     38437     38438     38437     38439     38440     38441     38440     38442
     38443     38444     38443     38445     38446     38447     38446     38448
     38449     38450     38449     38451     38452     38453     38452     38454
     38455     38456     38455     38457     38458     38459     38458     38460
     38461     38462     38461     38463     38464     38465     38464     38466
     38467     38468     38467     38469     38470     38471     38470     38472
     38473     38474     38473     38475     38476     38477     38476     38478
     38479     38480     38479     38481     38482     38483     38482     38484
     38485     38486     38485     38487     38488     38489     38488     38490
     38491     38492     38491     38493     38494     38495     38494     38496
     38497     38498     38497     38499     38500     38501     38500     38502
     38503     38504     38503     38505     38506     38507     38506     38508
     38509     38510     38509     38511     38512     38513     38512     38514
     38515     38516     38515     38517     38518     38519     38518     38520
     38521     38522     38521     38523     38524     38525     38524     38526
     38527     38528     38527     38529     38530     38531     38530     38532
     38533     38534     38533     38535     38536     38537     38536     38538
     38539     38540     38539     38541     38542     38543     38542     38544
     38545     38546     38545     38547     38548     38549     38548     38550
     38551     38552     38551     38553     38554     38555     38554     38556
     38557     38558     38557     38559     38560     38561     38560     38562
     38563     38564     38563     38565     38566     38567     38566     38568
     38569     38570     38569     38571     38572     38573     38572     38574
     38575     38576     38575     38577     38578     38579     38578     38580
     38581     38582     38581     38583     38584     38585     38584     38586
     38587     38588     38587     38589     38590     38591     38590     38592
     38593     38594     38593     38595     38596     38597     38596     38598
     38599     38600     38599     38601     38602     38603     38602     38604
     38605     38606     38605     38607     38608     38609     38608     38610
     38611     38612     38611     38613     38614     38615     38614     38616
     38617     38618     38617     38619     38620     38621     38620     38622
     38623     38624     38623     38625     38626     38627     38626     38628
     38629     38630     38629     38631     38632     38633     38632     38634
     38635     38636     38635     38637     38638     38639     38638     38640
     38641     38642     38641     38643     38644     38645     38644     38646
     38647     38648     38647     38649     38650     38651     38650     38652
     38653     38654     38653     38655     38656     38657     38656     38658
     38659     38660     38659     38661     38662     38663     38662     38664
     38665     38666     38665     38667     38668     38669     38668     38670
     38671     38672     38671     38673     38674     38675     38674     38676
     38677     38678     38677     38679     38680     38681     38680     38682
     38683     38684     38683     38685     38686     38687     38686     38688
     38689     38690     38689     38691     38692     38693     38692     38694
     38695     38696     38695     38697     38698     38699     38698     38700
     38701     38702     38701     38703     38704     38705     38704     38706
     38707     38708     38707     38709     38710     38711     38710     38712
     38713     38714     38713     38715     38716     38717     38716     38718
     38719     38720     38719     38721     38722     38723     38722     38724
     38725     38726     38725     38727     38728     38729     38728     38730
     38731     38732     38731     38733     38734     38735     38734     38736
     38737     38738     38737     38739     38740     38741     38740     38742
     38743     38744     38743     38745     38746     38747     38746     38748
     38749     38750     38749     38751     38752     38753     38752     38754
     38755     38756     38755     38757     38758     38759     38758     38760
     38761     38762     38761     38763     38764     38765     38764     38766
     38767     38768     38767     38769     38770     38771     38770     38772
     38773     38774     38773     38775     38776     38777     38776     38778
     38779     38780     38779     38781     38782     38783     38782     38784
     38785     38786     38785     38787     38788     38789     38788     38790
     38791     38792     38791     38793     38794     38795     38794     38796
     38797     38798     38797     38799     38800     38801     38800     38802
     38803     38804     38803     38805     38806     38807     38806     38808
     38809     38810     38809     38811     38812     38813     38812     38814
     38815     38816     38815     38817     38818     38819     38818     38820
     38821     38822     38821     38823     38824     38825     38824     38826
     38827     38828     38827     38829     38830     38831     38830     38832
     38833     38834     38833     38835     38836     38837     38836     38838
     38839     38840     38839     38841     38842     38843     38842     38844
     38845     38846     38845     38847     38848     38849     38848     38850
     38851     38852     38851     38853     38854     38855     38854     38856
     38857     38858     38857     38859     38860     38861     38860     38862
     38863     38864     38863     38865     38866     38867     38866     38868
     38869     38870     38869     38871     38872     38873     38872     38874
     38875     38876     38875     38877     38878     38879     38878     38880
     38881     38882     38881     38883     38884     38885     38884     38886
     38887     38888     38887     38889     38890     38891     38890     38892
     38893     38894     38893     38895     38896     38897     38896     38898
     38899     38900     38899     38901     38902     38903     38902     38904
     38905     38906     38905     38907     38908     38909     38908     38910
     38911     38912     38911     38913     38914     38915     38914     38916
     38917     38918     38917     38919     38920     38921     38920     38922
     38923     38924     38923     38925     38926     38927     38926     38928
     38929     38930     38929     38931     38932     38933     38932     38934
     38935     38936     38935     38937     38938     38939     38938     38940
     38941     38942     38941     38943     38944     38945     38944     38946
     38947     38948     38947     38949     38950     38951     38950     38952
     38953     38954     38953     38955     38956     38957     38956     38958
     38959     38960     38959     38961     38962     38963     38962     38964
     38965     38966     38965     38967     38968     38969     38968     38970
     38971     38972     38971     38973     38974     38975     38974     38976
     38977     38978     38977     38979     38980     38981     38980     38982
     38983     38984     38983     38985     38986     38987     38986     38988
     38989     38990     38989     38991     38992     38993     38992     38994
     38995     38996     38995     38997     38998     38999     38998     39000
     39001     39002     39001     39003     39004     39005     39004     39006
     39007     39008     39007     39009     39010     39011     39010     39012
     39013     39014     39013     39015     39016     39017     39016     39018
     39019     39020     39019     39021     39022     39023     39022     39024
     39025     39026     39025     39027     39028     39029     39028     39030
     39031     39032     39031     39033     39034     39035     39034     39036
     39037     39038     39037     39039     39040     39041     39040     39042
     39043     39044     39043     39045     39046     39047     39046     39048
     39049     39050     39049     39051     39052     39053     39052     39054
     39055     39056     39055     39057     39058     39059     39058     39060
     39061     39062     39061     39063     39064     39065     39064     39066
     39067     39068     39067     39069     39070     39071     39070     39072
     39073     39074     39073     39075     39076     39077     39076     39078
     39079     39080     39079     39081     39082     39083     39082     39084
     39085     39086     39085     39087     39088     39089     39088     39090
     39091     39092     39091     39093     39094     39095     39094     39096
     39097     39098     39097     39099     39100     39101     39100     39102
     39103     39104     39103     39105     39106     39107     39106     39108
     39109     39110     39109     39111     39112     39113     39112     39114
     39115     39116     39115     39117     39118     39119     39118     39120
     39121     39122     39121     39123     39124     39125     39124     39126
     39127     39128     39127     39129     39130     39131     39130     39132
     39133     39134     39133     39135     39136     39137     39136     39138
     39139     39140     39139     39141     39142     39143     39142     39144
     39145     39146     39145     39147     39148     39149     39148     39150
     39151     39152     39151     39153     39154     39155     39154     39156
     39157     39158     39157     39159     39160     39161     39160     39162
     39163     39164     39163     39165     39166     39167     39166     39168
     39169     39170     39169     39171     39172     39173     39172     39174
     39175     39176     39175     39177     39178     39179     39178     39180
     39181     39182     39181     39183     39184     39185     39184     39186
     39187     39188     39187     39189     39190     39191     39190     39192
     39193     39194     39193     39195     39196     39197     39196     39198
     39199     39200     39199     39201     39202     39203     39202     39204
     39205     39206     39205     39207     39208     39209     39208     39210
     39211     39212     39211     39213     39214     39215     39214     39216
     39217     39218     39217     39219     39220     39221     39220     39222
     39223     39224     39223     39225     39226     39227     39226     39228
     39229     39230     39229     39231     39232     39233     39232     39234
     39235     39236     39235     39237     39238     39239     39238     39240
     39241     39242     39241     39243     39244     39245     39244     39246
     39247     39248     39247     39249     39250     39251     39250     39252
     39253     39254     39253     39255     39256     39257     39256     39258
     39259     39260     39259     39261     39262     39263     39262     39264
     39265     39266     39265     39267     39268     39269     39268     39270
     39271     39272     39271     39273     39274     39275     39274     39276
     39277     39278     39277     39279     39280     39281     39280     39282
     39283     39284     39283     39285     39286     39287     39286     39288
     39289     39290     39289     39291     39292     39293     39292     39294
     39295     39296     39295     39297     39298     39299     39298     39300
     39301     39302     39301     39303     39304     39305     39304     39306
     39307     39308     39307     39309     39310     39311     39310     39312
     39313     39314     39313     39315     39316     39317     39316     39318
     39319     39320     39319     39321     39322     39323     39322     39324
     39325     39326     39325     39327     39328     39329     39328     39330
     39331     39332     39331     39333     39334     39335     39334     39336
     39337     39338     39337     39339     39340     39341     39340     39342
     39343     39344     39343     39345     39346     39347     39346     39348
     39349     39350     39349     39351     39352     39353     39352     39354
     39355     39356     39355     39357     39358     39359     39358     39360
     39361     39362     39361     39363     39364     39365     39364     39366
     39367     39368     39367     39369     39370     39371     39370     39372
     39373     39374     39373     39375     39376     39377     39376     39378
     39379     39380     39379     39381     39382     39383     39382     39384
     39385     39386     39385     39387     39388     39389     39388     39390
     39391     39392     39391     39393     39394     39395     39394     39396
     39397     39398     39397     39399     39400     39401     39400     39402
     39403     39404     39403     39405     39406     39407     39406     39408
     39409     39410     39409     39411     39412     39413     39412     39414
     39415     39416     39415     39417     39418     39419     39418     39420
     39421     39422     39421     39423     39424     39425     39424     39426
     39427     39428     39427     39429     39430     39431     39430     39432
     39433     39434     39433     39435     39436     39437     39436     39438
     39439     39440     39439     39441     39442     39443     39442     39444
     39445     39446     39445     39447     39448     39449     39448     39450
     39451     39452     39451     39453     39454     39455     39454     39456
     39457     39458     39457     39459     39460     39461     39460     39462
     39463     39464     39463     39465     39466     39467     39466     39468
     39469     39470     39469     39471     39472     39473     39472     39474
     39475     39476     39475     39477     39478     39479     39478     39480
     39481     39482     39481     39483     39484     39485     39484     39486
     39487     39488     39487     39489     39490     39491     39490     39492
     39493     39494     39493     39495     39496     39497     39496     39498
     39499     39500     39499     39501     39502     39503     39502     39504
     39505     39506     39505     39507     39508     39509     39508     39510
     39511     39512     39511     39513     39514     39515     39514     39516
     39517     39518     39517     39519     39520     39521     39520     39522
     39523     39524     39523     39525     39526     39527     39526     39528
     39529     39530     39529     39531     39532     39533     39532     39534
     39535     39536     39535     39537     39538     39539     39538     39540
     39541     39542     39541     39543     39544     39545     39544     39546
     39547     39548     39547     39549     39550     39551     39550     39552
     39553     39554     39553     39555     39556     39557     39556     39558
     39559     39560     39559     39561     39562     39563     39562     39564
     39565     39566     39565     39567     39568     39569     39568     39570
     39571     39572     39571     39573     39574     39575     39574     39576
     39577     39578     39577     39579     39580     39581     39580     39582
     39583     39584     39583     39585     39586     39587     39586     39588
     39589     39590     39589     39591     39592     39593     39592     39594
     39595     39596     39595     39597     39598     39599     39598     39600
     39601     39602     39601     39603     39604     39605     39604     39606
     39607     39608     39607     39609     39610     39611     39610     39612
     39613     39614     39613     39615     39616     39617     39616     39618
     39619     39620     39619     39621     39622     39623     39622     39624
     39625     39626     39625     39627     39628     39629     39628     39630
     39631     39632     39631     39633     39634     39635     39634     39636
     39637     39638     39637     39639     39640     39641     39640     39642
     39643     39644     39643     39645     39646     39647     39646     39648
     39649     39650     39649     39651     39652     39653     39652     39654
     39655     39656     39655     39657     39658     39659     39658     39660
     39661     39662     39661     39663     39664     39665     39664     39666
     39667     39668     39667     39669     39670     39671     39670     39672
     39673     39674     39673     39675     39676     39677     39676     39678
     39679     39680     39679     39681     39682     39683     39682     39684
     39685     39686     39685     39687     39688     39689     39688     39690
     39691     39692     39691     39693     39694     39695     39694     39696
     39697     39698     39697     39699     39700     39701     39700     39702
     39703     39704     39703     39705     39706     39707     39706     39708
     39709     39710     39709     39711     39712     39713     39712     39714
     39715     39716     39715     39717     39718     39719     39718     39720
     39721     39722     39721     39723     39724     39725     39724     39726
     39727     39728     39727     39729     39730     39731     39730     39732
     39733     39734     39733     39735     39736     39737     39736     39738
     39739     39740     39739     39741     39742     39743     39742     39744
     39745     39746     39745     39747     39748     39749     39748     39750
     39751     39752     39751     39753     39754     39755     39754     39756
     39757     39758     39757     39759     39760     39761     39760     39762
     39763     39764     39763     39765     39766     39767     39766     39768
     39769     39770     39769     39771     39772     39773     39772     39774
     39775     39776     39775     39777     39778     39779     39778     39780
     39781     39782     39781     39783     39784     39785     39784     39786
     39787     39788     39787     39789     39790     39791     39790     39792
     39793     39794     39793     39795     39796     39797     39796     39798
     39799     39800     39799     39801     39802     39803     39802     39804
     39805     39806     39805     39807     39808     39809     39808     39810
     39811     39812     39811     39813     39814     39815     39814     39816
     39817     39818     39817     39819     39820     39821     39820     39822
     39823     39824     39823     39825     39826     39827     39826     39828
     39829     39830     39829     39831     39832     39833     39832     39834
     39835     39836     39835     39837     39838     39839     39838     39840
     39841     39842     39841     39843     39844     39845     39844     39846
     39847     39848     39847     39849     39850     39851     39850     39852
     39853     39854     39853     39855     39856     39857     39856     39858
     39859     39860     39859     39861     39862     39863     39862     39864
     39865     39866     39865     39867     39868     39869     39868     39870
     39871     39872     39871     39873     39874     39875     39874     39876
     39877     39878     39877     39879     39880     39881     39880     39882
     39883     39884     39883     39885     39886     39887     39886     39888
     39889     39890     39889     39891     39892     39893     39892     39894
     39895     39896     39895     39897     39898     39899     39898     39900
     39901     39902     39901     39903     39904     39905     39904     39906
     39907     39908     39907     39909     39910     39911     39910     39912
     39913     39914     39913     39915     39916     39917     39916     39918
     39919     39920     39919     39921     39922     39923     39922     39924
     39925     39926     39925     39927     39928     39929     39928     39930
     39931     39932     39931     39933     39934     39935     39934     39936
     39937     39938     39937     39939     39940     39941     39940     39942
     39943     39944     39943     39945     39946     39947     39946     39948
     39949     39950     39949     39951     39952     39953     39952     39954
     39955     39956     39955     39957     39958     39959     39958     39960
     39961     39962     39961     39963     39964     39965     39964     39966
     39967     39968     39967     39969     39970     39971     39970     39972
     39973     39974     39973     39975     39976     39977     39976     39978
     39979     39980     39979     39981     39982     39983     39982     39984
     39985     39986     39985     39987     39988     39989     39988     39990
     39991     39992     39991     39993     39994     39995     39994     39996
     39997     39998     39997     39999     40000     40001     40000     40002
     40003     40004     40003     40005     40006     40007     40006     40008
     40009     40010     40009     40011     40012     40013     40012     40014
     40015     40016     40015     40017     40018     40019     40018     40020
     40021     40022     40021     40023     40024     40025     40024     40026
     40027     40028     40027     40029     40030     40031     40030     40032
     40033     40034     40033     40035     40036     40037     40036     40038
     40039     40040     40039     40041     40042     40043     40042     40044
     40045     40046     40045     40047     40048     40049     40048     40050
     40051     40052     40051     40053     40054     40055     40054     40056
     40057     40058     40057     40059     40060     40061     40060     40062
     40063     40064     40063     40065     40066     40067     40066     40068
     40069     40070     40069     40071     40072     40073     40072     40074
     40075     40076     40075     40077     40078     40079     40078     40080
     40081     40082     40081     40083     40084     40085     40084     40086
     40087     40088     40087     40089     40090     40091     40090     40092
     40093     40094     40093     40095     40096     40097     40096     40098
     40099     40100     40099     40101     40102     40103     40102     40104
     40105     40106     40105     40107     40108     40109     40108     40110
     40111     40112     40111     40113     40114     40115     40114     40116
     40117     40118     40117     40119     40120     40121     40120     40122
     40123     40124     40123     40125     40126     40127     40126     40128
     40129     40130     40129     40131     40132     40133     40132     40134
     40135     40136     40135     40137     40138     40139     40138     40140
     40141     40142     40141     40143     40144     40145     40144     40146
     40147     40148     40147     40149     40150     40151     40150     40152
     40153     40154     40153     40155     40156     40157     40156     40158
     40159     40160     40159     40161     40162     40163     40162     40164
     40165     40166     40165     40167     40168     40169     40168     40170
     40171     40172     40171     40173     40174     40175     40174     40176
     40177     40178     40177     40179     40180     40181     40180     40182
     40183     40184     40183     40185     40186     40187     40186     40188
     40189     40190     40189     40191     40192     40193     40192     40194
     40195     40196     40195     40197     40198     40199     40198     40200
     40201     40202     40201     40203     40204     40205     40204     40206
     40207     40208     40207     40209     40210     40211     40210     40212
     40213     40214     40213     40215     40216     40217     40216     40218
     40219     40220     40219     40221     40222     40223     40222     40224
     40225     40226     40225     40227     40228     40229     40228     40230
     40231     40232     40231     40233     40234     40235     40234     40236
     40237     40238     40237     40239     40240     40241     40240     40242
     40243     40244     40243     40245     40246     40247     40246     40248
     40249     40250     40249     40251     40252     40253     40252     40254
     40255     40256     40255     40257     40258     40259     40258     40260
     40261     40262     40261     40263     40264     40265     40264     40266
     40267     40268     40267     40269     40270     40271     40270     40272
     40273     40274     40273     40275     40276     40277     40276     40278
     40279     40280     40279     40281     40282     40283     40282     40284
     40285     40286     40285     40287     40288     40289     40288     40290
     40291     40292     40291     40293     40294     40295     40294     40296
     40297     40298     40297     40299     40300     40301     40300     40302
     40303     40304     40303     40305     40306     40307     40306     40308
     40309     40310     40309     40311     40312     40313     40312     40314
     40315     40316     40315     40317     40318     40319     40318     40320
     40321     40322     40321     40323     40324     40325     40324     40326
     40327     40328     40327     40329     40330     40331     40330     40332
     40333     40334     40333     40335     40336     40337     40336     40338
     40339     40340     40339     40341     40342     40343     40342     40344
     40345     40346     40345     40347     40348     40349     40348     40350
     40351     40352     40351     40353     40354     40355     40354     40356
     40357     40358     40357     40359     40360     40361     40360     40362
     40363     40364     40363     40365     40366     40367     40366     40368
     40369     40370     40369     40371     40372     40373     40372     40374
     40375     40376     40375     40377     40378     40379     40378     40380
     40381     40382     40381     40383     40384     40385     40384     40386
     40387     40388     40387     40389     40390     40391     40390     40392
     40393     40394     40393     40395     40396     40397     40396     40398
     40399     40400     40399     40401     40402     40403     40402     40404
     40405     40406     40405     40407     40408     40409     40408     40410
     40411     40412     40411     40413     40414     40415     40414     40416
     40417     40418     40417     40419     40420     40421     40420     40422
     40423     40424     40423     40425     40426     40427     40426     40428
     40429     40430     40429     40431     40432     40433     40432     40434
     40435     40436     40435     40437     40438     40439     40438     40440
     40441     40442     40441     40443     40444     40445     40444     40446
     40447     40448     40447     40449     40450     40451     40450     40452
     40453     40454     40453     40455     40456     40457     40456     40458
     40459     40460     40459     40461     40462     40463     40462     40464
     40465     40466     40465     40467     40468     40469     40468     40470
     40471     40472     40471     40473     40474     40475     40474     40476
     40477     40478     40477     40479     40480     40481     40480     40482
     40483     40484     40483     40485     40486     40487     40486     40488
     40489     40490     40489     40491     40492     40493     40492     40494
     40495     40496     40495     40497     40498     40499     40498     40500
     40501     40502     40501     40503     40504     40505     40504     40506
     40507     40508     40507     40509     40510     40511     40510     40512
     40513     40514     40513     40515     40516     40517     40516     40518
     40519     40520     40519     40521     40522     40523     40522     40524
     40525     40526     40525     40527     40528     40529     40528     40530
     40531     40532     40531     40533     40534     40535     40534     40536
     40537     40538     40537     40539     40540     40541     40540     40542
     40543     40544     40543     40545     40546     40547     40546     40548
     40549     40550     40549     40551     40552     40553     40552     40554
     40555     40556     40555     40557     40558     40559     40558     40560
     40561     40562     40561     40563     40564     40565     40564     40566
     40567     40568     40567     40569     40570     40571     40570     40572
     40573     40574     40573     40575     40576     40577     40576     40578
     40579     40580     40579     40581     40582     40583     40582     40584
     40585     40586     40585     40587     40588     40589     40588     40590
     40591     40592     40591     40593     40594     40595     40594     40596
     40597     40598     40597     40599     40600     40601     40600     40602
     40603     40604     40603     40605     40606     40607     40606     40608
     40609     40610     40609     40611     40612     40613     40612     40614
     40615     40616     40615     40617     40618     40619     40618     40620
     40621     40622     40621     40623     40624     40625     40624     40626
     40627     40628     40627     40629     40630     40631     40630     40632
     40633     40634     40633     40635     40636     40637     40636     40638
     40639     40640     40639     40641     40642     40643     40642     40644
     40645     40646     40645     40647     40648     40649     40648     40650
     40651     40652     40651     40653     40654     40655     40654     40656
     40657     40658     40657     40659     40660     40661     40660     40662
     40663     40664     40663     40665     40666     40667     40666     40668
     40669     40670     40669     40671     40672     40673     40672     40674
     40675     40676     40675     40677     40678     40679     40678     40680
     40681     40682     40681     40683     40684     40685     40684     40686
     40687     40688     40687     40689     40690     40691     40690     40692
     40693     40694     40693     40695     40696     40697     40696     40698
     40699     40700     40699     40701     40702     40703     40702     40704
     40705     40706     40705     40707     40708     40709     40708     40710
     40711     40712     40711     40713     40714     40715     40714     40716
     40717     40718     40717     40719     40720     40721     40720     40722
     40723     40724     40723     40725     40726     40727     40726     40728
     40729     40730     40729     40731     40732     40733     40732     40734
     40735     40736     40735     40737     40738     40739     40738     40740
     40741     40742     40741     40743     40744     40745     40744     40746
     40747     40748     40747     40749     40750     40751     40750     40752
     40753     40754     40753     40755     40756     40757     40756     40758
     40759     40760     40759     40761     40762     40763     40762     40764
     40765     40766     40765     40767     40768     40769     40768     40770
     40771     40772     40771     40773     40774     40775     40774     40776
     40777     40778     40777     40779     40780     40781     40780     40782
     40783     40784     40783     40785     40786     40787     40786     40788
     40789     40790     40789     40791     40792     40793     40792     40794
     40795     40796     40795     40797     40798     40799     40798     40800
     40801     40802     40801     40803     40804     40805     40804     40806
     40807     40808     40807     40809     40810     40811     40810     40812
     40813     40814     40813     40815     40816     40817     40816     40818
     40819     40820     40819     40821     40822     40823     40822     40824
     40825     40826     40825     40827     40828     40829     40828     40830
     40831     40832     40831     40833     40834     40835     40834     40836
     40837     40838     40837     40839     40840     40841     40840     40842
     40843     40844     40843     40845     40846     40847     40846     40848
     40849     40850     40849     40851     40852     40853     40852     40854
     40855     40856     40855     40857     40858     40859     40858     40860
     40861     40862     40861     40863     40864     40865     40864     40866
     40867     40868     40867     40869     40870     40871     40870     40872
     40873     40874     40873     40875     40876     40877     40876     40878
     40879     40880     40879     40881     40882     40883     40882     40884
     40885     40886     40885     40887     40888     40889     40888     40890
     40891     40892     40891     40893     40894     40895     40894     40896
     40897     40898     40897     40899     40900     40901     40900     40902
     40903     40904     40903     40905     40906     40907     40906     40908
     40909     40910     40909     40911     40912     40913     40912     40914
     40915     40916     40915     40917     40918     40919     40918     40920
     40921     40922     40921     40923     40924     40925     40924     40926
     40927     40928     40927     40929     40930     40931     40930     40932
     40933     40934     40933     40935     40936     40937     40936     40938
     40939     40940     40939     40941     40942     40943     40942     40944
     40945     40946     40945     40947     40948     40949     40948     40950
     40951     40952     40951     40953     40954     40955     40954     40956
     40957     40958     40957     40959     40960     40961     40960     40962
     40963     40964     40963     40965     40966     40967     40966     40968
     40969     40970     40969     40971     40972     40973     40972     40974
     40975     40976     40975     40977     40978     40979     40978     40980
     40981     40982     40981     40983     40984     40985     40984     40986
     40987     40988     40987     40989     40990     40991     40990     40992
     40993     40994     40993     40995     40996     40997     40996     40998
     40999     41000     40999     41001     41002     41003     41002     41004
     41005     41006     41005     41007     41008     41009     41008     41010
     41011     41012     41011     41013     41014     41015     41014     41016
     41017     41018     41017     41019     41020     41021     41020     41022
     41023     41024     41023     41025     41026     41027     41026     41028
     41029     41030     41029     41031     41032     41033     41032     41034
     41035     41036     41035     41037     41038     41039     41038     41040
     41041     41042     41041     41043     41044     41045     41044     41046
     41047     41048     41047     41049     41050     41051     41050     41052
     41053     41054     41053     41055     41056     41057     41056     41058
     41059     41060     41059     41061     41062     41063     41062     41064
     41065     41066     41065     41067     41068     41069     41068     41070
     41071     41072     41071     41073     41074     41075     41074     41076
     41077     41078     41077     41079     41080     41081     41080     41082
     41083     41084     41083     41085     41086     41087     41086     41088
     41089     41090     41089     41091     41092     41093     41092     41094
     41095     41096     41095     41097     41098     41099     41098     41100
     41101     41102     41101     41103     41104     41105     41104     41106
     41107     41108     41107     41109     41110     41111     41110     41112
     41113     41114     41113     41115     41116     41117     41116     41118
     41119     41120     41119     41121     41122     41123     41122     41124
     41125     41126     41125     41127     41128     41129     41128     41130
     41131     41132     41131     41133     41134     41135     41134     41136
     41137     41138     41137     41139     41140     41141     41140     41142
     41143     41144     41143     41145     41146     41147     41146     41148
     41149     41150     41149     41151     41152     41153     41152     41154
     41155     41156     41155     41157     41158     41159     41158     41160
     41161     41162     41161     41163     41164     41165     41164     41166
     41167     41168     41167     41169     41170     41171     41170     41172
     41173     41174     41173     41175     41176     41177     41176     41178
     41179     41180     41179     41181     41182     41183     41182     41184
     41185     41186     41185     41187     41188     41189     41188     41190
     41191     41192     41191     41193     41194     41195     41194     41196
     41197     41198     41197     41199     41200     41201     41200     41202
     41203     41204     41203     41205     41206     41207     41206     41208
     41209     41210     41209     41211     41212     41213     41212     41214
     41215     41216     41215     41217     41218     41219     41218     41220
     41221     41222     41221     41223     41224     41225     41224     41226
     41227     41228     41227     41229     41230     41231     41230     41232
     41233     41234     41233     41235     41236     41237     41236     41238
     41239     41240     41239     41241     41242     41243     41242     41244
     41245     41246     41245     41247     41248     41249     41248     41250
     41251     41252     41251     41253     41254     41255     41254     41256
     41257     41258     41257     41259     41260     41261     41260     41262
     41263     41264     41263     41265     41266     41267     41266     41268
     41269     41270     41269     41271     41272     41273     41272     41274
     41275     41276     41275     41277     41278     41279     41278     41280
     41281     41282     41281     41283     41284     41285     41284     41286
     41287     41288     41287     41289     41290     41291     41290     41292
     41293     41294     41293     41295     41296     41297     41296     41298
     41299     41300     41299     41301     41302     41303     41302     41304
     41305     41306     41305     41307     41308     41309     41308     41310
     41311     41312     41311     41313     41314     41315     41314     41316
     41317     41318     41317     41319     41320     41321     41320     41322
     41323     41324     41323     41325     41326     41327     41326     41328
     41329     41330     41329     41331     41332     41333     41332     41334
     41335     41336     41335     41337     41338     41339     41338     41340
     41341     41342     41341     41343     41344     41345     41344     41346
     41347     41348     41347     41349     41350     41351     41350     41352
     41353     41354     41353     41355     41356     41357     41356     41358
     41359     41360     41359     41361     41362     41363     41362     41364
     41365     41366     41365     41367     41368     41369     41368     41370
     41371     41372     41371     41373     41374     41375     41374     41376
     41377     41378     41377     41379     41380     41381     41380     41382
     41383     41384     41383     41385     41386     41387     41386     41388
     41389     41390     41389     41391     41392     41393     41392     41394
     41395     41396     41395     41397     41398     41399     41398     41400
     41401     41402     41401     41403     41404     41405     41404     41406
     41407     41408     41407     41409     41410     41411     41410     41412
     41413     41414     41413     41415     41416     41417     41416     41418
     41419     41420     41419     41421     41422     41423     41422     41424
     41425     41426     41425     41427     41428     41429     41428     41430
     41431     41432     41431     41433     41434     41435     41434     41436
     41437     41438     41437     41439     41440     41441     41440     41442
     41443     41444     41443     41445     41446     41447     41446     41448
     41449     41450     41449     41451     41452     41453     41452     41454
     41455     41456     41455     41457     41458     41459     41458     41460
     41461     41462     41461     41463     41464     41465     41464     41466
     41467     41468     41467     41469     41470     41471     41470     41472
     41473     41474     41473     41475     41476     41477     41476     41478
     41479     41480     41479     41481     41482     41483     41482     41484
     41485     41486     41485     41487     41488     41489     41488     41490
     41491     41492     41491     41493     41494     41495     41494     41496
     41497     41498     41497     41499     41500     41501     41500     41502
     41503     41504     41503     41505     41506     41507     41506     41508
     41509     41510     41509     41511     41512     41513     41512     41514
     41515     41516     41515     41517     41518     41519     41518     41520
     41521     41522     41521     41523     41524     41525     41524     41526
     41527     41528     41527     41529     41530     41531     41530     41532
     41533     41534     41533     41535     41536     41537     41536     41538
     41539     41540     41539     41541     41542     41543     41542     41544
     41545     41546     41545     41547     41548     41549     41548     41550
     41551     41552     41551     41553     41554     41555     41554     41556
     41557     41558     41557     41559     41560     41561     41560     41562
     41563     41564     41563     41565     41566     41567     41566     41568
     41569     41570     41569     41571     41572     41573     41572     41574
     41575     41576     41575     41577     41578     41579     41578     41580
     41581     41582     41581     41583     41584     41585     41584     41586
     41587     41588     41587     41589     41590     41591     41590     41592
     41593     41594     41593     41595     41596     41597     41596     41598
     41599     41600     41599     41601     41602     41603     41602     41604
     41605     41606     41605     41607     41608     41609     41608     41610
     41611     41612     41611     41613     41614     41615     41614     41616
     41617     41618     41617     41619     41620     41621     41620     41622
     41623     41624     41623     41625     41626     41627     41626     41628
     41629     41630     41629     41631     41632     41633     41632     41634
     41635     41636     41635     41637     41638     41639     41638     41640
     41641     41642     41641     41643     41644     41645     41644     41646
     41647     41648     41647     41649     41650     41651     41650     41652
     41653     41654     41653     41655     41656     41657     41656     41658
     41659     41660     41659     41661     41662     41663     41662     41664
     41665     41666     41665     41667     41668     41669     41668     41670
     41671     41672     41671     41673     41674     41675     41674     41676
     41677     41678     41677     41679     41680     41681     41680     41682
     41683     41684     41683     41685     41686     41687     41686     41688
     41689     41690     41689     41691     41692     41693     41692     41694
     41695     41696     41695     41697     41698     41699     41698     41700
     41701     41702     41701     41703     41704     41705     41704     41706
     41707     41708     41707     41709     41710     41711     41710     41712
     41713     41714     41713     41715     41716     41717     41716     41718
     41719     41720     41719     41721     41722     41723     41722     41724
     41725     41726     41725     41727     41728     41729     41728     41730
     41731     41732     41731     41733     41734     41735     41734     41736
     41737     41738     41737     41739     41740     41741     41740     41742
     41743     41744     41743     41745     41746     41747     41746     41748
     41749     41750     41749     41751     41752     41753     41752     41754
     41755     41756     41755     41757     41758     41759     41758     41760
     41761     41762     41761     41763     41764     41765     41764     41766
     41767     41768     41767     41769     41770     41771     41770     41772
     41773     41774     41773     41775     41776     41777     41776     41778
     41779     41780     41779     41781     41782     41783     41782     41784
     41785     41786     41785     41787     41788     41789     41788     41790
     41791     41792     41791     41793     41794     41795     41794     41796
     41797     41798     41797     41799     41800     41801     41800     41802
     41803     41804     41803     41805     41806     41807     41806     41808
     41809     41810     41809     41811     41812     41813     41812     41814
     41815     41816     41815     41817     41818     41819     41818     41820
     41821     41822     41821     41823     41824     41825     41824     41826
     41827     41828     41827     41829     41830     41831     41830     41832
     41833     41834     41833     41835     41836     41837     41836     41838
     41839     41840     41839     41841     41842     41843     41842     41844
     41845     41846     41845     41847     41848     41849     41848     41850
     41851     41852     41851     41853     41854     41855     41854     41856
     41857     41858     41857     41859     41860     41861     41860     41862
     41863     41864     41863     41865     41866     41867     41866     41868
     41869     41870     41869     41871     41872     41873     41872     41874
     41875     41876     41875     41877     41878     41879     41878     41880
     41881     41882     41881     41883     41884     41885     41884     41886
     41887     41888     41887     41889     41890     41891     41890     41892
     41893     41894     41893     41895     41896     41897     41896     41898
     41899     41900     41899     41901     41902     41903     41902     41904
     41905     41906     41905     41907     41908     41909     41908     41910
     41911     41912     41911     41913     41914     41915     41914     41916
     41917     41918     41917     41919     41920     41921     41920     41922
     41923     41924     41923     41925     41926     41927     41926     41928
     41929     41930     41929     41931     41932     41933     41932     41934
     41935     41936     41935     41937     41938     41939     41938     41940
     41941     41942     41941     41943     41944     41945     41944     41946
     41947     41948     41947     41949     41950     41951     41950     41952
     41953     41954     41953     41955     41956     41957     41956     41958
     41959     41960     41959     41961     41962     41963     41962     41964
     41965     41966     41965     41967     41968     41969     41968     41970
     41971     41972     41971     41973     41974     41975     41974     41976
     41977     41978     41977     41979     41980     41981     41980     41982
     41983     41984     41983     41985     41986     41987     41986     41988
     41989     41990     41989     41991     41992     41993     41992     41994
     41995     41996     41995     41997     41998     41999     41998     42000
     42001     42002     42001     42003     42004     42005     42004     42006
     42007     42008     42007     42009     42010     42011     42010     42012
     42013     42014     42013     42015     42016     42017     42016     42018
     42019     42020     42019     42021     42022     42023     42022     42024
     42025     42026     42025     42027     42028     42029     42028     42030
     42031     42032     42031     42033     42034     42035     42034     42036
     42037     42038     42037     42039     42040     42041     42040     42042
     42043     42044     42043     42045     42046     42047     42046     42048
     42049     42050     42049     42051     42052     42053     42052     42054
     42055     42056     42055     42057     42058     42059     42058     42060
     42061     42062     42061     42063     42064     42065     42064     42066
     42067     42068     42067     42069     42070     42071     42070     42072
     42073     42074     42073     42075     42076     42077     42076     42078
     42079     42080     42079     42081     42082     42083     42082     42084
     42085     42086     42085     42087     42088     42089     42088     42090
     42091     42092     42091     42093     42094     42095     42094     42096
     42097     42098     42097     42099     42100     42101     42100     42102
     42103     42104     42103     42105     42106     42107     42106     42108
     42109     42110     42109     42111     42112     42113     42112     42114
     42115     42116     42115     42117     42118     42119     42118     42120
     42121     42122     42121     42123     42124     42125     42124     42126
     42127     42128     42127     42129     42130     42131     42130     42132
     42133     42134     42133     42135     42136     42137     42136     42138
     42139     42140     42139     42141     42142     42143     42142     42144
     42145     42146     42145     42147     42148     42149     42148     42150
     42151     42152     42151     42153     42154     42155     42154     42156
     42157     42158     42157     42159     42160     42161     42160     42162
     42163     42164     42163     42165     42166     42167     42166     42168
     42169     42170     42169     42171     42172     42173     42172     42174
     42175     42176     42175     42177     42178     42179     42178     42180
     42181     42182     42181     42183     42184     42185     42184     42186
     42187     42188     42187     42189     42190     42191     42190     42192
     42193     42194     42193     42195     42196     42197     42196     42198
     42199     42200     42199     42201     42202     42203     42202     42204
     42205     42206     42205     42207     42208     42209     42208     42210
     42211     42212     42211     42213     42214     42215     42214     42216
     42217     42218     42217     42219     42220     42221     42220     42222
     42223     42224     42223     42225     42226     42227     42226     42228
     42229     42230     42229     42231     42232     42233     42232     42234
     42235     42236     42235     42237     42238     42239     42238     42240
     42241     42242     42241     42243     42244     42245     42244     42246
     42247     42248     42247     42249     42250     42251     42250     42252
     42253     42254     42253     42255     42256     42257     42256     42258
     42259     42260     42259     42261     42262     42263     42262     42264
     42265     42266     42265     42267     42268     42269     42268     42270
     42271     42272     42271     42273     42274     42275     42274     42276
     42277     42278     42277     42279     42280     42281     42280     42282
     42283     42284     42283     42285     42286     42287     42286     42288
     42289     42290     42289     42291     42292     42293     42292     42294
     42295     42296     42295     42297     42298     42299     42298     42300
     42301     42302     42301     42303     42304     42305     42304     42306
     42307     42308     42307     42309     42310     42311     42310     42312
     42313     42314     42313     42315     42316     42317     42316     42318
     42319     42320     42319     42321     42322     42323     42322     42324
     42325     42326     42325     42327     42328     42329     42328     42330
     42331     42332     42331     42333     42334     42335     42334     42336
     42337     42338     42337     42339     42340     42341     42340     42342
     42343     42344     42343     42345     42346     42347     42346     42348
     42349     42350     42349     42351     42352     42353     42352     42354
     42355     42356     42355     42357     42358     42359     42358     42360
     42361     42362     42361     42363     42364     42365     42364     42366
     42367     42368     42367     42369     42370     42371     42370     42372
     42373     42374     42373     42375     42376     42377     42376     42378
     42379     42380     42379     42381     42382     42383     42382     42384
     42385     42386     42385     42387     42388     42389     42388     42390
     42391     42392     42391     42393     42394     42395     42394     42396
     42397     42398     42397     42399     42400     42401     42400     42402
     42403     42404     42403     42405     42406     42407     42406     42408
     42409     42410     42409     42411     42412     42413     42412     42414
     42415     42416     42415     42417     42418     42419     42418     42420
     42421     42422     42421     42423     42424     42425     42424     42426
     42427     42428     42427     42429     42430     42431     42430     42432
     42433     42434     42433     42435     42436     42437     42436     42438
     42439     42440     42439     42441     42442     42443     42442     42444
     42445     42446     42445     42447     42448     42449     42448     42450
     42451     42452     42451     42453     42454     42455     42454     42456
     42457     42458     42457     42459     42460     42461     42460     42462
     42463     42464     42463     42465     42466     42467     42466     42468
     42469     42470     42469     42471     42472     42473     42472     42474
     42475     42476     42475     42477     42478     42479     42478     42480
     42481     42482     42481     42483     42484     42485     42484     42486
     42487     42488     42487     42489     42490     42491     42490     42492
     42493     42494     42493     42495     42496     42497     42496     42498
     42499     42500     42499     42501     42502     42503     42502     42504
     42505     42506     42505     42507     42508     42509     42508     42510
     42511     42512     42511     42513     42514     42515     42514     42516
     42517     42518     42517     42519     42520     42521     42520     42522
     42523     42524     42523     42525     42526     42527     42526     42528
     42529     42530     42529     42531     42532     42533     42532     42534
     42535     42536     42535     42537     42538     42539     42538     42540
     42541     42542     42541     42543     42544     42545     42544     42546
     42547     42548     42547     42549     42550     42551     42550     42552
     42553     42554     42553     42555     42556     42557     42556     42558
     42559     42560     42559     42561     42562     42563     42562     42564
     42565     42566     42565     42567     42568     42569     42568     42570
     42571     42572     42571     42573     42574     42575     42574     42576
     42577     42578     42577     42579     42580     42581     42580     42582
     42583     42584     42583     42585     42586     42587     42586     42588
     42589     42590     42589     42591     42592     42593     42592     42594
     42595     42596     42595     42597     42598     42599     42598     42600
     42601     42602     42601     42603     42604     42605     42604     42606
     42607     42608     42607     42609     42610     42611     42610     42612
     42613     42614     42613     42615     42616     42617     42616     42618
     42619     42620     42619     42621     42622     42623     42622     42624
     42625     42626     42625     42627     42628     42629     42628     42630
     42631     42632     42631     42633     42634     42635     42634     42636
     42637     42638     42637     42639     42640     42641     42640     42642
     42643     42644     42643     42645     42646     42647     42646     42648
     42649     42650     42649     42651     42652     42653     42652     42654
     42655     42656     42655     42657     42658     42659     42658     42660
     42661     42662     42661     42663     42664     42665     42664     42666
     42667     42668     42667     42669     42670     42671     42670     42672
     42673     42674     42673     42675     42676     42677     42676     42678
     42679     42680     42679     42681     42682     42683     42682     42684
     42685     42686     42685     42687     42688     42689     42688     42690
     42691     42692     42691     42693     42694     42695     42694     42696
     42697     42698     42697     42699     42700     42701     42700     42702
     42703     42704     42703     42705     42706     42707     42706     42708
     42709     42710     42709     42711     42712     42713     42712     42714
     42715     42716     42715     42717     42718     42719     42718     42720
     42721     42722     42721     42723     42724     42725     42724     42726
     42727     42728     42727     42729     42730     42731     42730     42732
     42733     42734     42733     42735     42736     42737     42736     42738
     42739     42740     42739     42741     42742     42743     42742     42744
     42745     42746     42745     42747     42748     42749     42748     42750
     42751     42752     42751     42753     42754     42755     42754     42756
     42757     42758     42757     42759     42760     42761     42760     42762
     42763     42764     42763     42765     42766     42767     42766     42768
     42769     42770     42769     42771     42772     42773     42772     42774
     42775     42776     42775     42777     42778     42779     42778     42780
     42781     42782     42781     42783     42784     42785     42784     42786
     42787     42788     42787     42789     42790     42791     42790     42792
     42793     42794     42793     42795     42796     42797     42796     42798
     42799     42800     42799     42801     42802     42803     42802     42804
     42805     42806     42805     42807     42808     42809     42808     42810
     42811     42812     42811     42813     42814     42815     42814     42816
     42817     42818     42817     42819     42820     42821     42820     42822
     42823     42824     42823     42825     42826     42827     42826     42828
     42829     42830     42829     42831     42832     42833     42832     42834
     42835     42836     42835     42837     42838     42839     42838     42840
     42841     42842     42841     42843     42844     42845     42844     42846
     42847     42848     42847     42849     42850     42851     42850     42852
     42853     42854     42853     42855     42856     42857     42856     42858
     42859     42860     42859     42861     42862     42863     42862     42864
     42865     42866     42865     42867     42868     42869     42868     42870
     42871     42872     42871     42873     42874     42875     42874     42876
     42877     42878     42877     42879     42880     42881     42880     42882
     42883     42884     42883     42885     42886     42887     42886     42888
     42889     42890     42889     42891     42892     42893     42892     42894
     42895     42896     42895     42897     42898     42899     42898     42900
     42901     42902     42901     42903     42904     42905     42904     42906
     42907     42908     42907     42909     42910     42911     42910     42912
     42913     42914     42913     42915     42916     42917     42916     42918
     42919     42920     42919     42921     42922     42923     42922     42924
     42925     42926     42925     42927     42928     42929     42928     42930
     42931     42932     42931     42933     42934     42935     42934     42936
     42937     42938     42937     42939     42940     42941     42940     42942
     42943     42944     42943     42945     42946     42947     42946     42948
     42949     42950     42949     42951     42952     42953     42952     42954
     42955     42956     42955     42957     42958     42959     42958     42960
     42961     42962     42961     42963     42964     42965     42964     42966
     42967     42968     42967     42969     42970     42971     42970     42972
     42973     42974     42973     42975     42976     42977     42976     42978
     42979     42980     42979     42981     42982     42983     42982     42984
     42985     42986     42985     42987     42988     42989     42988     42990
     42991     42992     42991     42993     42994     42995     42994     42996
     42997     42998     42997     42999     43000     43001     43000     43002
     43003     43004     43003     43005     43006     43007     43006     43008
     43009     43010     43009     43011     43012     43013     43012     43014
     43015     43016     43015     43017     43018     43019     43018     43020
     43021     43022     43021     43023     43024     43025     43024     43026
     43027     43028     43027     43029     43030     43031     43030     43032
     43033     43034     43033     43035     43036     43037     43036     43038
     43039     43040     43039     43041     43042     43043     43042     43044
     43045     43046     43045     43047     43048     43049     43048     43050
     43051     43052     43051     43053     43054     43055     43054     43056
     43057     43058     43057     43059     43060     43061     43060     43062
     43063     43064     43063     43065     43066     43067     43066     43068
     43069     43070     43069     43071     43072     43073     43072     43074
     43075     43076     43075     43077     43078     43079     43078     43080
     43081     43082     43081     43083     43084     43085     43084     43086
     43087     43088     43087     43089     43090     43091     43090     43092
     43093     43094     43093     43095     43096     43097     43096     43098
     43099     43100     43099     43101     43102     43103     43102     43104
     43105     43106     43105     43107     43108     43109     43108     43110
     43111     43112     43111     43113     43114     43115     43114     43116
     43117     43118     43117     43119     43120     43121     43120     43122
     43123     43124     43123     43125     43126     43127     43126     43128
     43129     43130     43129     43131     43132     43133     43132     43134
     43135     43136     43135     43137     43138     43139     43138     43140
     43141     43142     43141     43143     43144     43145     43144     43146
     43147     43148     43147     43149     43150     43151     43150     43152
     43153     43154     43153     43155     43156     43157     43156     43158
     43159     43160     43159     43161     43162     43163     43162     43164
     43165     43166     43165     43167     43168     43169     43168     43170
     43171     43172     43171     43173     43174     43175     43174     43176
     43177     43178     43177     43179     43180     43181     43180     43182
     43183     43184     43183     43185     43186     43187     43186     43188
     43189     43190     43189     43191     43192     43193     43192     43194
     43195     43196     43195     43197     43198     43199     43198     43200
     43201     43202     43201     43203     43204     43205     43204     43206
     43207     43208     43207     43209     43210     43211     43210     43212
     43213     43214     43213     43215     43216     43217     43216     43218
     43219     43220     43219     43221     43222     43223     43222     43224
     43225     43226     43225     43227     43228     43229     43228     43230
     43231     43232     43231     43233     43234     43235     43234     43236
     43237     43238     43237     43239     43240     43241     43240     43242
     43243     43244     43243     43245     43246     43247     43246     43248
     43249     43250     43249     43251     43252     43253     43252     43254
     43255     43256     43255     43257     43258     43259     43258     43260
     43261     43262     43261     43263     43264     43265     43264     43266
     43267     43268     43267     43269     43270     43271     43270     43272
     43273     43274     43273     43275     43276     43277     43276     43278
     43279     43280     43279     43281     43282     43283     43282     43284
     43285     43286     43285     43287     43288     43289     43288     43290
     43291     43292     43291     43293     43294     43295     43294     43296
     43297     43298     43297     43299     43300     43301     43300     43302
     43303     43304     43303     43305     43306     43307     43306     43308
     43309     43310     43309     43311     43312     43313     43312     43314
     43315     43316     43315     43317     43318     43319     43318     43320
     43321     43322     43321     43323     43324     43325     43324     43326
     43327     43328     43327     43329     43330     43331     43330     43332
     43333     43334     43333     43335     43336     43337     43336     43338
     43339     43340     43339     43341     43342     43343     43342     43344
     43345     43346     43345     43347     43348     43349     43348     43350
     43351     43352     43351     43353     43354     43355     43354     43356
     43357     43358     43357     43359     43360     43361     43360     43362
     43363     43364     43363     43365     43366     43367     43366     43368
     43369     43370     43369     43371     43372     43373     43372     43374
     43375     43376     43375     43377     43378     43379     43378     43380
     43381     43382     43381     43383     43384     43385     43384     43386
     43387     43388     43387     43389     43390     43391     43390     43392
     43393     43394     43393     43395     43396     43397     43396     43398
     43399     43400     43399     43401     43402     43403     43402     43404
     43405     43406     43405     43407     43408     43409     43408     43410
     43411     43412     43411     43413     43414     43415     43414     43416
     43417     43418     43417     43419     43420     43421     43420     43422
     43423     43424     43423     43425     43426     43427     43426     43428
     43429     43430     43429     43431     43432     43433     43432     43434
     43435     43436     43435     43437     43438     43439     43438     43440
     43441     43442     43441     43443     43444     43445     43444     43446
     43447     43448     43447     43449     43450     43451     43450     43452
     43453     43454     43453     43455     43456     43457     43456     43458
     43459     43460     43459     43461     43462     43463     43462     43464
     43465     43466     43465     43467     43468     43469     43468     43470
     43471     43472     43471     43473     43474     43475     43474     43476
     43477     43478     43477     43479     43480     43481     43480     43482
     43483     43484     43483     43485     43486     43487     43486     43488
     43489     43490     43489     43491     43492     43493     43492     43494
     43495     43496     43495     43497     43498     43499     43498     43500
     43501     43502     43501     43503     43504     43505     43504     43506
     43507     43508     43507     43509     43510     43511     43510     43512
     43513     43514     43513     43515     43516     43517     43516     43518
     43519     43520     43519     43521     43522     43523     43522     43524
     43525     43526     43525     43527     43528     43529     43528     43530
     43531     43532     43531     43533     43534     43535     43534     43536
     43537     43538     43537     43539     43540     43541     43540     43542
     43543     43544     43543     43545     43546     43547     43546     43548
     43549     43550     43549     43551     43552     43553     43552     43554
     43555     43556     43555     43557     43558     43559     43558     43560
     43561     43562     43561     43563     43564     43565     43564     43566
     43567     43568     43567     43569     43570     43571     43570     43572
     43573     43574     43573     43575     43576     43577     43576     43578
     43579     43580     43579     43581     43582     43583     43582     43584
     43585     43586     43585     43587     43588     43589     43588     43590
     43591     43592     43591     43593     43594     43595     43594     43596
     43597     43598     43597     43599     43600     43601     43600     43602
     43603     43604     43603     43605     43606     43607     43606     43608
     43609     43610     43609     43611     43612     43613     43612     43614
     43615     43616     43615     43617     43618     43619     43618     43620
     43621     43622     43621     43623     43624     43625     43624     43626
     43627     43628     43627     43629     43630     43631     43630     43632
     43633     43634     43633     43635     43636     43637     43636     43638
     43639     43640     43639     43641     43642     43643     43642     43644
     43645     43646     43645     43647     43648     43649     43648     43650
     43651     43652     43651     43653     43654     43655     43654     43656
     43657     43658     43657     43659     43660     43661     43660     43662
     43663     43664     43663     43665     43666     43667     43666     43668
     43669     43670     43669     43671     43672     43673     43672     43674
     43675     43676     43675     43677     43678     43679     43678     43680
     43681     43682     43681     43683     43684     43685     43684     43686
     43687     43688     43687     43689     43690     43691     43690     43692
     43693     43694     43693     43695     43696     43697     43696     43698
     43699     43700     43699     43701     43702     43703     43702     43704
     43705     43706     43705     43707     43708     43709     43708     43710
     43711     43712     43711     43713     43714     43715     43714     43716
     43717     43718     43717     43719     43720     43721     43720     43722
     43723     43724     43723     43725     43726     43727     43726     43728
     43729     43730     43729     43731     43732     43733     43732     43734
     43735     43736     43735     43737     43738     43739     43738     43740
     43741     43742     43741     43743     43744     43745     43744     43746
     43747     43748     43747     43749     43750     43751     43750     43752
     43753     43754     43753     43755     43756     43757     43756     43758
     43759     43760     43759     43761     43762     43763     43762     43764
     43765     43766     43765     43767     43768     43769     43768     43770
     43771     43772     43771     43773     43774     43775     43774     43776
     43777     43778     43777     43779     43780     43781     43780     43782
     43783     43784     43783     43785     43786     43787     43786     43788
     43789     43790     43789     43791     43792     43793     43792     43794
     43795     43796     43795     43797     43798     43799     43798     43800
     43801     43802     43801     43803     43804     43805     43804     43806
     43807     43808     43807     43809     43810     43811     43810     43812
     43813     43814     43813     43815     43816     43817     43816     43818
     43819     43820     43819     43821     43822     43823     43822     43824
     43825     43826     43825     43827     43828     43829     43828     43830
     43831     43832     43831     43833     43834     43835     43834     43836
     43837     43838     43837     43839     43840     43841     43840     43842
     43843     43844     43843     43845     43846     43847     43846     43848
     43849     43850     43849     43851     43852     43853     43852     43854
     43855     43856     43855     43857     43858     43859     43858     43860
     43861     43862     43861     43863     43864     43865     43864     43866
     43867     43868     43867     43869     43870     43871     43870     43872
     43873     43874     43873     43875     43876     43877     43876     43878
     43879     43880     43879     43881     43882     43883     43882     43884
     43885     43886     43885     43887     43888     43889     43888     43890
     43891     43892     43891     43893     43894     43895     43894     43896
     43897     43898     43897     43899     43900     43901     43900     43902
     43903     43904     43903     43905     43906     43907     43906     43908
     43909     43910     43909     43911     43912     43913     43912     43914
     43915     43916     43915     43917     43918     43919     43918     43920
     43921     43922     43921     43923     43924     43925     43924     43926
     43927     43928     43927     43929     43930     43931     43930     43932
     43933     43934     43933     43935     43936     43937     43936     43938
     43939     43940     43939     43941     43942     43943     43942     43944
     43945     43946     43945     43947     43948     43949     43948     43950
     43951     43952     43951     43953     43954     43955     43954     43956
     43957     43958     43957     43959     43960     43961     43960     43962
     43963     43964     43963     43965     43966     43967     43966     43968
     43969     43970     43969     43971     43972     43973     43972     43974
     43975     43976     43975     43977     43978     43979     43978     43980
     43981     43982     43981     43983     43984     43985     43984     43986
     43987     43988     43987     43989     43990     43991     43990     43992
     43993     43994     43993     43995     43996     43997     43996     43998
     43999     44000     43999     44001     44002     44003     44002     44004
     44005     44006     44005     44007     44008     44009     44008     44010
     44011     44012     44011     44013     44014     44015     44014     44016
     44017     44018     44017     44019     44020     44021     44020     44022
     44023     44024     44023     44025     44026     44027     44026     44028
     44029     44030     44029     44031     44032     44033     44032     44034
     44035     44036     44035     44037     44038     44039     44038     44040
     44041     44042     44041     44043     44044     44045     44044     44046
     44047     44048     44047     44049     44050     44051     44050     44052
     44053     44054     44053     44055     44056     44057     44056     44058
     44059     44060     44059     44061     44062     44063     44062     44064
     44065     44066     44065     44067     44068     44069     44068     44070
     44071     44072     44071     44073     44074     44075     44074     44076
     44077     44078     44077     44079     44080     44081     44080     44082
     44083     44084     44083     44085     44086     44087     44086     44088
     44089     44090     44089     44091     44092     44093     44092     44094
     44095     44096     44095     44097     44098     44099     44098     44100
     44101     44102     44101     44103     44104     44105     44104     44106
     44107     44108     44107     44109     44110     44111     44110     44112
     44113     44114     44113     44115     44116     44117     44116     44118
     44119     44120     44119     44121     44122     44123     44122     44124
     44125     44126     44125     44127     44128     44129     44128     44130
     44131     44132     44131     44133     44134     44135     44134     44136
     44137     44138     44137     44139     44140     44141     44140     44142
     44143     44144     44143     44145     44146     44147     44146     44148
     44149     44150     44149     44151     44152     44153     44152     44154
     44155     44156     44155     44157     44158     44159     44158     44160
     44161     44162     44161     44163     44164     44165     44164     44166
     44167     44168     44167     44169     44170     44171     44170     44172
     44173     44174     44173     44175     44176     44177     44176     44178
     44179     44180     44179     44181     44182     44183     44182     44184
     44185     44186     44185     44187     44188     44189     44188     44190
     44191     44192     44191     44193     44194     44195     44194     44196
     44197     44198     44197     44199     44200     44201     44200     44202
     44203     44204     44203     44205     44206     44207     44206     44208
     44209     44210     44209     44211     44212     44213     44212     44214
     44215     44216     44215     44217     44218     44219     44218     44220
     44221     44222     44221     44223     44224     44225     44224     44226
     44227     44228     44227     44229     44230     44231     44230     44232
     44233     44234     44233     44235     44236     44237     44236     44238
     44239     44240     44239     44241     44242     44243     44242     44244
     44245     44246     44245     44247     44248     44249     44248     44250
     44251     44252     44251     44253     44254     44255     44254     44256
     44257     44258     44257     44259     44260     44261     44260     44262
     44263     44264     44263     44265     44266     44267     44266     44268
     44269     44270     44269     44271     44272     44273     44272     44274
     44275     44276     44275     44277     44278     44279     44278     44280
     44281     44282     44281     44283     44284     44285     44284     44286
     44287     44288     44287     44289     44290     44291     44290     44292
     44293     44294     44293     44295     44296     44297     44296     44298
     44299     44300     44299     44301     44302     44303     44302     44304
     44305     44306     44305     44307     44308     44309     44308     44310
     44311     44312     44311     44313     44314     44315     44314     44316
     44317     44318     44317     44319     44320     44321     44320     44322
     44323     44324     44323     44325     44326     44327     44326     44328
     44329     44330     44329     44331     44332     44333     44332     44334
     44335     44336     44335     44337     44338     44339     44338     44340
     44341     44342     44341     44343     44344     44345     44344     44346
     44347     44348     44347     44349     44350     44351     44350     44352
     44353     44354     44353     44355     44356     44357     44356     44358
     44359     44360     44359     44361     44362     44363     44362     44364
     44365     44366     44365     44367     44368     44369     44368     44370
     44371     44372     44371     44373     44374     44375     44374     44376
     44377     44378     44377     44379     44380     44381     44380     44382
     44383     44384     44383     44385     44386     44387     44386     44388
     44389     44390     44389     44391     44392     44393     44392     44394
     44395     44396     44395     44397     44398     44399     44398     44400
     44401     44402     44401     44403     44404     44405     44404     44406
     44407     44408     44407     44409     44410     44411     44410     44412
     44413     44414     44413     44415     44416     44417     44416     44418
     44419     44420     44419     44421     44422     44423     44422     44424
     44425     44426     44425     44427     44428     44429     44428     44430
     44431     44432     44431     44433     44434     44435     44434     44436
     44437     44438     44437     44439     44440     44441     44440     44442
     44443     44444     44443     44445     44446     44447     44446     44448
     44449     44450     44449     44451     44452     44453     44452     44454
     44455     44456     44455     44457     44458     44459     44458     44460
     44461     44462     44461     44463     44464     44465     44464     44466
     44467     44468     44467     44469     44470     44471     44470     44472
     44473     44474     44473     44475     44476     44477     44476     44478
     44479     44480     44479     44481     44482     44483     44482     44484
     44485     44486     44485     44487     44488     44489     44488     44490
     44491     44492     44491     44493     44494     44495     44494     44496
     44497     44498     44497     44499     44500     44501     44500     44502
     44503     44504     44503     44505     44506     44507     44506     44508
     44509     44510     44509     44511     44512     44513     44512     44514
     44515     44516     44515     44517     44518     44519     44518     44520
     44521     44522     44521     44523     44524     44525     44524     44526
     44527     44528     44527     44529     44530     44531     44530     44532
     44533     44534     44533     44535     44536     44537     44536     44538
     44539     44540     44539     44541     44542     44543     44542     44544
     44545     44546     44545     44547     44548     44549     44548     44550
     44551     44552     44551     44553     44554     44555     44554     44556
     44557     44558     44557     44559     44560     44561     44560     44562
     44563     44564     44563     44565     44566     44567     44566     44568
     44569     44570     44569     44571     44572     44573     44572     44574
     44575     44576     44575     44577     44578     44579     44578     44580
     44581     44582     44581     44583     44584     44585     44584     44586
     44587     44588     44587     44589     44590     44591     44590     44592
     44593     44594     44593     44595     44596     44597     44596     44598
     44599     44600     44599     44601     44602     44603     44602     44604
     44605     44606     44605     44607     44608     44609     44608     44610
     44611     44612     44611     44613     44614     44615     44614     44616
     44617     44618     44617     44619     44620     44621     44620     44622
     44623     44624     44623     44625     44626     44627     44626     44628
     44629     44630     44629     44631     44632     44633     44632     44634
     44635     44636     44635     44637     44638     44639     44638     44640
     44641     44642     44641     44643     44644     44645     44644     44646
     44647     44648     44647     44649     44650     44651     44650     44652
     44653     44654     44653     44655     44656     44657     44656     44658
     44659     44660     44659     44661     44662     44663     44662     44664
     44665     44666     44665     44667     44668     44669     44668     44670
     44671     44672     44671     44673     44674     44675     44674     44676
     44677     44678     44677     44679     44680     44681     44680     44682
     44683     44684     44683     44685     44686     44687     44686     44688
     44689     44690     44689     44691     44692     44693     44692     44694
     44695     44696     44695     44697     44698     44699     44698     44700
     44701     44702     44701     44703     44704     44705     44704     44706
     44707     44708     44707     44709     44710     44711     44710     44712
     44713     44714     44713     44715     44716     44717     44716     44718
     44719     44720     44719     44721     44722     44723     44722     44724
     44725     44726     44725     44727     44728     44729     44728     44730
     44731     44732     44731     44733     44734     44735     44734     44736
     44737     44738     44737     44739     44740     44741     44740     44742
     44743     44744     44743     44745     44746     44747     44746     44748
     44749     44750     44749     44751     44752     44753     44752     44754
     44755     44756     44755     44757     44758     44759     44758     44760
     44761     44762     44761     44763     44764     44765     44764     44766
     44767     44768     44767     44769     44770     44771     44770     44772
     44773     44774     44773     44775     44776     44777     44776     44778
     44779     44780     44779     44781     44782     44783     44782     44784
     44785     44786     44785     44787     44788     44789     44788     44790
     44791     44792     44791     44793     44794     44795     44794     44796
     44797     44798     44797     44799     44800     44801     44800     44802
     44803     44804     44803     44805     44806     44807     44806     44808
     44809     44810     44809     44811     44812     44813     44812     44814
     44815     44816     44815     44817     44818     44819     44818     44820
     44821     44822     44821     44823     44824     44825     44824     44826
     44827     44828     44827     44829     44830     44831     44830     44832
     44833     44834     44833     44835     44836     44837     44836     44838
     44839     44840     44839     44841     44842     44843     44842     44844
     44845     44846     44845     44847     44848     44849     44848     44850
     44851     44852     44851     44853     44854     44855     44854     44856
     44857     44858     44857     44859     44860     44861     44860     44862
     44863     44864     44863     44865     44866     44867     44866     44868
     44869     44870     44869     44871     44872     44873     44872     44874
     44875     44876     44875     44877     44878     44879     44878     44880
     44881     44882     44881     44883     44884     44885     44884     44886
     44887     44888     44887     44889     44890     44891     44890     44892
     44893     44894     44893     44895     44896     44897     44896     44898
     44899     44900     44899     44901     44902     44903     44902     44904
     44905     44906     44905     44907     44908     44909     44908     44910
     44911     44912     44911     44913     44914     44915     44914     44916
     44917     44918     44917     44919     44920     44921     44920     44922
     44923     44924     44923     44925     44926     44927     44926     44928
     44929     44930     44929     44931     44932     44933     44932     44934
     44935     44936     44935     44937     44938     44939     44938     44940
     44941     44942     44941     44943     44944     44945     44944     44946
     44947     44948     44947     44949     44950     44951     44950     44952
     44953     44954     44953     44955     44956     44957     44956     44958
     44959     44960     44959     44961     44962     44963     44962     44964
     44965     44966     44965     44967     44968     44969     44968     44970
     44971     44972     44971     44973     44974     44975     44974     44976
     44977     44978     44977     44979     44980     44981     44980     44982
     44983     44984     44983     44985     44986     44987     44986     44988
     44989     44990     44989     44991     44992     44993     44992     44994
     44995     44996     44995     44997     44998     44999     44998     45000
     45001     45002     45001     45003     45004     45005     45004     45006
     45007     45008     45007     45009     45010     45011     45010     45012
     45013     45014     45013     45015     45016     45017     45016     45018
     45019     45020     45019     45021     45022     45023     45022     45024
     45025     45026     45025     45027     45028     45029     45028     45030
     45031     45032     45031     45033     45034     45035     45034     45036
     45037     45038     45037     45039     45040     45041     45040     45042
     45043     45044     45043     45045     45046     45047     45046     45048
     45049     45050     45049     45051     45052     45053     45052     45054
     45055     45056     45055     45057     45058     45059     45058     45060
     45061     45062     45061     45063     45064     45065     45064     45066
     45067     45068     45067     45069     45070     45071     45070     45072
     45073     45074     45073     45075     45076     45077     45076     45078
     45079     45080     45079     45081     45082     45083     45082     45084
     45085     45086     45085     45087     45088     45089     45088     45090
     45091     45092     45091     45093     45094     45095     45094     45096
     45097     45098     45097     45099     45100     45101     45100     45102
     45103     45104     45103     45105     45106     45107     45106     45108
     45109     45110     45109     45111     45112     45113     45112     45114
     45115     45116     45115     45117     45118     45119     45118     45120
     45121     45122     45121     45123     45124     45125     45124     45126
     45127     45128     45127     45129     45130     45131     45130     45132
     45133     45134     45133     45135     45136     45137     45136     45138
     45139     45140     45139     45141     45142     45143     45142     45144
     45145     45146     45145     45147     45148     45149     45148     45150
     45151     45152     45151     45153     45154     45155     45154     45156
     45157     45158     45157     45159     45160     45161     45160     45162
     45163     45164     45163     45165     45166     45167     45166     45168
     45169     45170     45169     45171     45172     45173     45172     45174
     45175     45176     45175     45177     45178     45179     45178     45180
     45181     45182     45181     45183     45184     45185     45184     45186
     45187     45188     45187     45189     45190     45191     45190     45192
     45193     45194     45193     45195     45196     45197     45196     45198
     45199     45200     45199     45201     45202     45203     45202     45204
     45205     45206     45205     45207     45208     45209     45208     45210
     45211     45212     45211     45213     45214     45215     45214     45216
     45217     45218     45217     45219     45220     45221     45220     45222
     45223     45224     45223     45225     45226     45227     45226     45228
     45229     45230     45229     45231     45232     45233     45232     45234
     45235     45236     45235     45237     45238     45239     45238     45240
     45241     45242     45241     45243     45244     45245     45244     45246
     45247     45248     45247     45249     45250     45251     45250     45252
     45253     45254     45253     45255     45256     45257     45256     45258
     45259     45260     45259     45261     45262     45263     45262     45264
     45265     45266     45265     45267     45268     45269     45268     45270
     45271     45272     45271     45273     45274     45275     45274     45276
     45277     45278     45277     45279     45280     45281     45280     45282
     45283     45284     45283     45285     45286     45287     45286     45288
     45289     45290     45289     45291     45292     45293     45292     45294
     45295     45296     45295     45297     45298     45299     45298     45300
     45301     45302     45301     45303     45304     45305     45304     45306
     45307     45308     45307     45309     45310     45311     45310     45312
     45313     45314     45313     45315     45316     45317     45316     45318
     45319     45320     45319     45321     45322     45323     45322     45324
     45325     45326     45325     45327     45328     45329     45328     45330
     45331     45332     45331     45333     45334     45335     45334     45336
     45337     45338     45337     45339     45340     45341     45340     45342
     45343     45344     45343     45345     45346     45347     45346     45348
     45349     45350     45349     45351     45352     45353     45352     45354
     45355     45356     45355     45357     45358     45359     45358     45360
     45361     45362     45361     45363     45364     45365     45364     45366
     45367     45368     45367     45369     45370     45371     45370     45372
     45373     45374     45373     45375     45376     45377     45376     45378
     45379     45380     45379     45381     45382     45383     45382     45384
     45385     45386     45385     45387     45388     45389     45388     45390
     45391     45392     45391     45393     45394     45395     45394     45396
     45397     45398     45397     45399     45400     45401     45400     45402
     45403     45404     45403     45405     45406     45407     45406     45408
     45409     45410     45409     45411     45412     45413     45412     45414
     45415     45416     45415     45417     45418     45419     45418     45420
     45421     45422     45421     45423     45424     45425     45424     45426
     45427     45428     45427     45429     45430     45431     45430     45432
     45433     45434     45433     45435     45436     45437     45436     45438
     45439     45440     45439     45441     45442     45443     45442     45444
     45445     45446     45445     45447     45448     45449     45448     45450
     45451     45452     45451     45453     45454     45455     45454     45456
     45457     45458     45457     45459     45460     45461     45460     45462
     45463     45464     45463     45465     45466     45467     45466     45468
     45469     45470     45469     45471     45472     45473     45472     45474
     45475     45476     45475     45477     45478     45479     45478     45480
     45481     45482     45481     45483     45484     45485     45484     45486
     45487     45488     45487     45489     45490     45491     45490     45492
     45493     45494     45493     45495     45496     45497     45496     45498
     45499     45500     45499     45501     45502     45503     45502     45504
     45505     45506     45505     45507     45508     45509     45508     45510
     45511     45512     45511     45513     45514     45515     45514     45516
     45517     45518     45517     45519     45520     45521     45520     45522
     45523     45524     45523     45525     45526     45527     45526     45528
     45529     45530     45529     45531     45532     45533     45532     45534
     45535     45536     45535     45537     45538     45539     45538     45540
     45541     45542     45541     45543     45544     45545     45544     45546
     45547     45548     45547     45549     45550     45551     45550     45552
     45553     45554     45553     45555     45556     45557     45556     45558
     45559     45560     45559     45561     45562     45563     45562     45564
     45565     45566     45565     45567     45568     45569     45568     45570
     45571     45572     45571     45573     45574     45575     45574     45576
     45577     45578     45577     45579     45580     45581     45580     45582
     45583     45584     45583     45585     45586     45587     45586     45588
     45589     45590     45589     45591     45592     45593     45592     45594
     45595     45596     45595     45597     45598     45599     45598     45600
     45601     45602     45601     45603     45604     45605     45604     45606
     45607     45608     45607     45609     45610     45611     45610     45612
     45613     45614     45613     45615     45616     45617     45616     45618
     45619     45620     45619     45621     45622     45623     45622     45624
     45625     45626     45625     45627     45628     45629     45628     45630
     45631     45632     45631     45633     45634     45635     45634     45636
     45637     45638     45637     45639     45640     45641     45640     45642
     45643     45644     45643     45645     45646     45647     45646     45648
     45649     45650     45649     45651     45652     45653     45652     45654
     45655     45656     45655     45657     45658     45659     45658     45660
     45661     45662     45661     45663     45664     45665     45664     45666
     45667     45668     45667     45669     45670     45671     45670     45672
     45673     45674     45673     45675     45676     45677     45676     45678
     45679     45680     45679     45681     45682     45683     45682     45684
     45685     45686     45685     45687     45688     45689     45688     45690
     45691     45692     45691     45693     45694     45695     45694     45696
     45697     45698     45697     45699     45700     45701     45700     45702
     45703     45704     45703     45705     45706     45707     45706     45708
     45709     45710     45709     45711     45712     45713     45712     45714
     45715     45716     45715     45717     45718     45719     45718     45720
     45721     45722     45721     45723     45724     45725     45724     45726
     45727     45728     45727     45729     45730     45731     45730     45732
     45733     45734     45733     45735     45736     45737     45736     45738
     45739     45740     45739     45741     45742     45743     45742     45744
     45745     45746     45745     45747     45748     45749     45748     45750
     45751     45752     45751     45753     45754     45755     45754     45756
     45757     45758     45757     45759     45760     45761     45760     45762
     45763     45764     45763     45765     45766     45767     45766     45768
     45769     45770     45769     45771     45772     45773     45772     45774
     45775     45776     45775     45777     45778     45779     45778     45780
     45781     45782     45781     45783     45784     45785     45784     45786
     45787     45788     45787     45789     45790     45791     45790     45792
     45793     45794     45793     45795     45796     45797     45796     45798
     45799     45800     45799     45801     45802     45803     45802     45804
     45805     45806     45805     45807     45808     45809     45808     45810
     45811     45812     45811     45813     45814     45815     45814     45816
     45817     45818     45817     45819     45820     45821     45820     45822
     45823     45824     45823     45825     45826     45827     45826     45828
     45829     45830     45829     45831     45832     45833     45832     45834
     45835     45836     45835     45837     45838     45839     45838     45840
     45841     45842     45841     45843     45844     45845     45844     45846
     45847     45848     45847     45849     45850     45851     45850     45852
     45853     45854     45853     45855     45856     45857     45856     45858
     45859     45860     45859     45861     45862     45863     45862     45864
     45865     45866     45865     45867     45868     45869     45868     45870
     45871     45872     45871     45873     45874     45875     45874     45876
     45877     45878     45877     45879     45880     45881     45880     45882
     45883     45884     45883     45885     45886     45887     45886     45888
     45889     45890     45889     45891     45892     45893     45892     45894
     45895     45896     45895     45897     45898     45899     45898     45900
     45901     45902     45901     45903     45904     45905     45904     45906
     45907     45908     45907     45909     45910     45911     45910     45912
     45913     45914     45913     45915     45916     45917     45916     45918
     45919     45920     45919     45921     45922     45923     45922     45924
     45925     45926     45925     45927     45928     45929     45928     45930
     45931     45932     45931     45933     45934     45935     45934     45936
     45937     45938     45937     45939     45940     45941     45940     45942
     45943     45944     45943     45945     45946     45947     45946     45948
     45949     45950     45949     45951     45952     45953     45952     45954
     45955     45956     45955     45957     45958     45959     45958     45960
     45961     45962     45961     45963     45964     45965     45964     45966
     45967     45968     45967     45969     45970     45971     45970     45972
     45973     45974     45973     45975     45976     45977     45976     45978
     45979     45980     45979     45981     45982     45983     45982     45984
     45985     45986     45985     45987     45988     45989     45988     45990
     45991     45992     45991     45993     45994     45995     45994     45996
     45997     45998     45997     45999     46000     46001     46000     46002
     46003     46004     46003     46005     46006     46007     46006     46008
     46009     46010     46009     46011     46012     46013     46012     46014
     46015     46016     46015     46017     46018     46019     46018     46020
     46021     46022     46021     46023     46024     46025     46024     46026
     46027     46028     46027     46029     46030     46031     46030     46032
     46033     46034     46033     46035     46036     46037     46036     46038
     46039     46040     46039     46041     46042     46043     46042     46044
     46045     46046     46045     46047     46048     46049     46048     46050
     46051     46052     46051     46053     46054     46055     46054     46056
     46057     46058     46057     46059     46060     46061     46060     46062
     46063     46064     46063     46065     46066     46067     46066     46068
     46069     46070     46069     46071     46072     46073     46072     46074
     46075     46076     46075     46077     46078     46079     46078     46080
     46081     46082     46081     46083     46084     46085     46084     46086
     46087     46088     46087     46089     46090     46091     46090     46092
     46093     46094     46093     46095     46096     46097     46096     46098
     46099     46100     46099     46101     46102     46103     46102     46104
     46105     46106     46105     46107     46108     46109     46108     46110
     46111     46112     46111     46113     46114     46115     46114     46116
     46117     46118     46117     46119     46120     46121     46120     46122
     46123     46124     46123     46125     46126     46127     46126     46128
     46129     46130     46129     46131     46132     46133     46132     46134
     46135     46136     46135     46137     46138     46139     46138     46140
     46141     46142     46141     46143     46144     46145     46144     46146
     46147     46148     46147     46149     46150     46151     46150     46152
     46153     46154     46153     46155     46156     46157     46156     46158
     46159     46160     46159     46161     46162     46163     46162     46164
     46165     46166     46165     46167     46168     46169     46168     46170
     46171     46172     46171     46173     46174     46175     46174     46176
     46177     46178     46177     46179     46180     46181     46180     46182
     46183     46184     46183     46185     46186     46187     46186     46188
     46189     46190     46189     46191     46192     46193     46192     46194
     46195     46196     46195     46197     46198     46199     46198     46200
     46201     46202     46201     46203     46204     46205     46204     46206
     46207     46208     46207     46209     46210     46211     46210     46212
     46213     46214     46213     46215     46216     46217     46216     46218
     46219     46220     46219     46221     46222     46223     46222     46224
     46225     46226     46225     46227     46228     46229     46228     46230
     46231     46232     46231     46233     46234     46235     46234     46236
     46237     46238     46237     46239     46240     46241     46240     46242
     46243     46244     46243     46245     46246     46247     46246     46248
     46249     46250     46249     46251     46252     46253     46252     46254
     46255     46256     46255     46257     46258     46259     46258     46260
     46261     46262     46261     46263     46264     46265     46264     46266
     46267     46268     46267     46269     46270     46271     46270     46272
     46273     46274     46273     46275     46276     46277     46276     46278
     46279     46280     46279     46281     46282     46283     46282     46284
     46285     46286     46285     46287     46288     46289     46288     46290
     46291     46292     46291     46293     46294     46295     46294     46296
     46297     46298     46297     46299     46300     46301     46300     46302
     46303     46304     46303     46305     46306     46307     46306     46308
     46309     46310     46309     46311     46312     46313     46312     46314
     46315     46316     46315     46317     46318     46319     46318     46320
     46321     46322     46321     46323     46324     46325     46324     46326
     46327     46328     46327     46329     46330     46331     46330     46332
     46333     46334     46333     46335     46336     46337     46336     46338
     46339     46340     46339     46341     46342     46343     46342     46344
     46345     46346     46345     46347     46348     46349     46348     46350
     46351     46352     46351     46353     46354     46355     46354     46356
     46357     46358     46357     46359     46360     46361     46360     46362
     46363     46364     46363     46365     46366     46367     46366     46368
     46369     46370     46369     46371     46372     46373     46372     46374
     46375     46376     46375     46377     46378     46379     46378     46380
     46381     46382     46381     46383     46384     46385     46384     46386
     46387     46388     46387     46389     46390     46391     46390     46392
     46393     46394     46393     46395     46396     46397     46396     46398
     46399     46400     46399     46401     46402     46403     46402     46404
     46405     46406     46405     46407     46408     46409     46408     46410
     46411     46412     46411     46413     46414     46415     46414     46416
     46417     46418     46417     46419     46420     46421     46420     46422
     46423     46424     46423     46425     46426     46427     46426     46428
     46429     46430     46429     46431     46432     46433     46432     46434
     46435     46436     46435     46437     46438     46439     46438     46440
     46441     46442     46441     46443     46444     46445     46444     46446
     46447     46448     46447     46449     46450     46451     46450     46452
     46453     46454     46453     46455     46456     46457     46456     46458
     46459     46460     46459     46461     46462     46463     46462     46464
     46465     46466     46465     46467     46468     46469     46468     46470
     46471     46472     46471     46473     46474     46475     46474     46476
     46477     46478     46477     46479     46480     46481     46480     46482
     46483     46484     46483     46485     46486     46487     46486     46488
     46489     46490     46489     46491     46492     46493     46492     46494
     46495     46496     46495     46497     46498     46499     46498     46500
     46501     46502     46501     46503     46504     46505     46504     46506
     46507     46508     46507     46509     46510     46511     46510     46512
     46513     46514     46513     46515     46516     46517     46516     46518
     46519     46520     46519     46521     46522     46523     46522     46524
     46525     46526     46525     46527     46528     46529     46528     46530
     46531     46532     46531     46533     46534     46535     46534     46536
     46537     46538     46537     46539     46540     46541     46540     46542
     46543     46544     46543     46545     46546     46547     46546     46548
     46549     46550     46549     46551     46552     46553     46552     46554
     46555     46556     46555     46557     46558     46559     46558     46560
     46561     46562     46561     46563     46564     46565     46564     46566
     46567     46568     46567     46569     46570     46571     46570     46572
     46573     46574     46573     46575     46576     46577     46576     46578
     46579     46580     46579     46581     46582     46583     46582     46584
     46585     46586     46585     46587     46588     46589     46588     46590
     46591     46592     46591     46593     46594     46595     46594     46596
     46597     46598     46597     46599     46600     46601     46600     46602
     46603     46604     46603     46605     46606     46607     46606     46608
     46609     46610     46609     46611     46612     46613     46612     46614
     46615     46616     46615     46617     46618     46619     46618     46620
     46621     46622     46621     46623     46624     46625     46624     46626
     46627     46628     46627     46629     46630     46631     46630     46632
     46633     46634     46633     46635     46636     46637     46636     46638
     46639     46640     46639     46641     46642     46643     46642     46644
     46645     46646     46645     46647     46648     46649     46648     46650
     46651     46652     46651     46653     46654     46655     46654     46656
     46657     46658     46657     46659     46660     46661     46660     46662
     46663     46664     46663     46665     46666     46667     46666     46668
     46669     46670     46669     46671     46672     46673     46672     46674
     46675     46676     46675     46677     46678     46679     46678     46680
     46681     46682     46681     46683     46684     46685     46684     46686
     46687     46688     46687     46689     46690     46691     46690     46692
     46693     46694     46693     46695     46696     46697     46696     46698
     46699     46700     46699     46701     46702     46703     46702     46704
     46705     46706     46705     46707     46708     46709     46708     46710
     46711     46712     46711     46713     46714     46715     46714     46716
     46717     46718     46717     46719     46720     46721     46720     46722
     46723     46724     46723     46725     46726     46727     46726     46728
     46729     46730     46729     46731     46732     46733     46732     46734
     46735     46736     46735     46737     46738     46739     46738     46740
     46741     46742     46741     46743     46744     46745     46744     46746
     46747     46748     46747     46749     46750     46751     46750     46752
     46753     46754     46753     46755     46756     46757     46756     46758
     46759     46760     46759     46761     46762     46763     46762     46764
     46765     46766     46765     46767     46768     46769     46768     46770
     46771     46772     46771     46773     46774     46775     46774     46776
     46777     46778     46777     46779     46780     46781     46780     46782
     46783     46784     46783     46785     46786     46787     46786     46788
     46789     46790     46789     46791     46792     46793     46792     46794
     46795     46796     46795     46797     46798     46799     46798     46800
     46801     46802     46801     46803     46804     46805     46804     46806
     46807     46808     46807     46809     46810     46811     46810     46812
     46813     46814     46813     46815     46816     46817     46816     46818
     46819     46820     46819     46821     46822     46823     46822     46824
     46825     46826     46825     46827     46828     46829     46828     46830
     46831     46832     46831     46833     46834     46835     46834     46836
     46837     46838     46837     46839     46840     46841     46840     46842
     46843     46844     46843     46845     46846     46847     46846     46848
     46849     46850     46849     46851     46852     46853     46852     46854
     46855     46856     46855     46857     46858     46859     46858     46860
     46861     46862     46861     46863     46864     46865     46864     46866
     46867     46868     46867     46869     46870     46871     46870     46872
     46873     46874     46873     46875     46876     46877     46876     46878
     46879     46880     46879     46881     46882     46883     46882     46884
     46885     46886     46885     46887     46888     46889     46888     46890
     46891     46892     46891     46893     46894     46895     46894     46896
     46897     46898     46897     46899     46900     46901     46900     46902
     46903     46904     46903     46905     46906     46907     46906     46908
     46909     46910     46909     46911     46912     46913     46912     46914
     46915     46916     46915     46917     46918     46919     46918     46920
     46921     46922     46921     46923     46924     46925     46924     46926
     46927     46928     46927     46929     46930     46931     46930     46932
     46933     46934     46933     46935     46936     46937     46936     46938
     46939     46940     46939     46941     46942     46943     46942     46944
     46945     46946     46945     46947     46948     46949     46948     46950
     46951     46952     46951     46953     46954     46955     46954     46956
     46957     46958     46957     46959     46960     46961     46960     46962
     46963     46964     46963     46965     46966     46967     46966     46968
     46969     46970     46969     46971     46972     46973     46972     46974
     46975     46976     46975     46977     46978     46979     46978     46980
     46981     46982     46981     46983     46984     46985     46984     46986
     46987     46988     46987     46989     46990     46991     46990     46992
     46993     46994     46993     46995     46996     46997     46996     46998
     46999     47000     46999     47001     47002     47003     47002     47004
     47005     47006     47005     47007     47008     47009     47008     47010
     47011     47012     47011     47013     47014     47015     47014     47016
     47017     47018     47017     47019     47020     47021     47020     47022
     47023     47024     47023     47025     47026     47027     47026     47028
     47029     47030     47029     47031     47032     47033     47032     47034
     47035     47036     47035     47037     47038     47039     47038     47040
     47041     47042     47041     47043     47044     47045     47044     47046
     47047     47048     47047     47049     47050     47051     47050     47052
     47053     47054     47053     47055     47056     47057     47056     47058
     47059     47060     47059     47061     47062     47063     47062     47064
     47065     47066     47065     47067     47068     47069     47068     47070
     47071     47072     47071     47073     47074     47075     47074     47076
     47077     47078     47077     47079     47080     47081     47080     47082
     47083     47084     47083     47085     47086     47087     47086     47088
     47089     47090     47089     47091     47092     47093     47092     47094
     47095     47096     47095     47097     47098     47099     47098     47100
     47101     47102     47101     47103     47104     47105     47104     47106
     47107     47108     47107     47109     47110     47111     47110     47112
     47113     47114     47113     47115     47116     47117     47116     47118
     47119     47120     47119     47121     47122     47123     47122     47124
     47125     47126     47125     47127     47128     47129     47128     47130
     47131     47132     47131     47133     47134     47135     47134     47136
     47137     47138     47137     47139     47140     47141     47140     47142
     47143     47144     47143     47145     47146     47147     47146     47148
     47149     47150     47149     47151     47152     47153     47152     47154
     47155     47156     47155     47157     47158     47159     47158     47160
     47161     47162     47161     47163     47164     47165     47164     47166
     47167     47168     47167     47169     47170     47171     47170     47172
     47173     47174     47173     47175     47176     47177     47176     47178
     47179     47180     47179     47181     47182     47183     47182     47184
     47185     47186     47185     47187     47188     47189     47188     47190
     47191     47192     47191     47193     47194     47195     47194     47196
     47197     47198     47197     47199     47200     47201     47200     47202
     47203     47204     47203     47205     47206     47207     47206     47208
     47209     47210     47209     47211     47212     47213     47212     47214
     47215     47216     47215     47217     47218     47219     47218     47220
     47221     47222     47221     47223     47224     47225     47224     47226
     47227     47228     47227     47229     47230     47231     47230     47232
     47233     47234     47233     47235     47236     47237     47236     47238
     47239     47240     47239     47241     47242     47243     47242     47244
     47245     47246     47245     47247     47248     47249     47248     47250
     47251     47252     47251     47253     47254     47255     47254     47256
     47257     47258     47257     47259     47260     47261     47260     47262
     47263     47264     47263     47265     47266     47267     47266     47268
     47269     47270     47269     47271     47272     47273     47272     47274
     47275     47276     47275     47277     47278     47279     47278     47280
     47281     47282     47281     47283     47284     47285     47284     47286
     47287     47288     47287     47289     47290     47291     47290     47292
     47293     47294     47293     47295     47296     47297     47296     47298
     47299     47300     47299     47301     47302     47303     47302     47304
     47305     47306     47305     47307     47308     47309     47308     47310
     47311     47312     47311     47313     47314     47315     47314     47316
     47317     47318     47317     47319     47320     47321     47320     47322
     47323     47324     47323     47325     47326     47327     47326     47328
     47329     47330     47329     47331     47332     47333     47332     47334
     47335     47336     47335     47337     47338     47339     47338     47340
     47341     47342     47341     47343     47344     47345     47344     47346
     47347     47348     47347     47349     47350     47351     47350     47352
     47353     47354     47353     47355     47356     47357     47356     47358
     47359     47360     47359     47361     47362     47363     47362     47364
     47365     47366     47365     47367     47368     47369     47368     47370
     47371     47372     47371     47373     47374     47375     47374     47376
     47377     47378     47377     47379     47380     47381     47380     47382
     47383     47384     47383     47385     47386     47387     47386     47388
     47389     47390     47389     47391     47392     47393     47392     47394
     47395     47396     47395     47397     47398     47399     47398     47400
     47401     47402     47401     47403     47404     47405     47404     47406
     47407     47408     47407     47409     47410     47411     47410     47412
     47413     47414     47413     47415     47416     47417     47416     47418
     47419     47420     47419     47421     47422     47423     47422     47424
     47425     47426     47425     47427     47428     47429     47428     47430
     47431     47432     47431     47433     47434     47435     47434     47436
     47437     47438     47437     47439     47440     47441     47440     47442
     47443     47444     47443     47445     47446     47447     47446     47448
     47449     47450     47449     47451     47452     47453     47452     47454
     47455     47456     47455     47457     47458     47459     47458     47460
     47461     47462     47461     47463     47464     47465     47464     47466
     47467     47468     47467     47469     47470     47471     47470     47472
     47473     47474     47473     47475     47476     47477     47476     47478
     47479     47480     47479     47481     47482     47483     47482     47484
     47485     47486     47485     47487     47488     47489     47488     47490
     47491     47492     47491     47493     47494     47495     47494     47496
     47497     47498     47497     47499     47500     47501     47500     47502
     47503     47504     47503     47505     47506     47507     47506     47508
     47509     47510     47509     47511     47512     47513     47512     47514
     47515     47516     47515     47517     47518     47519     47518     47520
     47521     47522     47521     47523     47524     47525     47524     47526
     47527     47528     47527     47529     47530     47531     47530     47532
     47533     47534     47533     47535     47536     47537     47536     47538
     47539     47540     47539     47541     47542     47543     47542     47544
     47545     47546     47545     47547     47548     47549     47548     47550
     47551     47552     47551     47553     47554     47555     47554     47556
     47557     47558     47557     47559     47560     47561     47560     47562
     47563     47564     47563     47565     47566     47567     47566     47568
     47569     47570     47569     47571     47572     47573     47572     47574
     47575     47576     47575     47577     47578     47579     47578     47580
     47581     47582     47581     47583     47584     47585     47584     47586
     47587     47588     47587     47589     47590     47591     47590     47592
     47593     47594     47593     47595     47596     47597     47596     47598
     47599     47600     47599     47601     47602     47603     47602     47604
     47605     47606     47605     47607     47608     47609     47608     47610
     47611     47612     47611     47613     47614     47615     47614     47616
     47617     47618     47617     47619     47620     47621     47620     47622
     47623     47624     47623     47625     47626     47627     47626     47628
     47629     47630     47629     47631     47632     47633     47632     47634
     47635     47636     47635     47637     47638     47639     47638     47640
     47641     47642     47641     47643     47644     47645     47644     47646
     47647     47648     47647     47649     47650     47651     47650     47652
     47653     47654     47653     47655     47656     47657     47656     47658
     47659     47660     47659     47661     47662     47663     47662     47664
     47665     47666     47665     47667     47668     47669     47668     47670
     47671     47672     47671     47673     47674     47675     47674     47676
     47677     47678     47677     47679     47680     47681     47680     47682
     47683     47684     47683     47685     47686     47687     47686     47688
     47689     47690     47689     47691     47692     47693     47692     47694
     47695     47696     47695     47697     47698     47699     47698     47700
     47701     47702     47701     47703     47704     47705     47704     47706
     47707     47708     47707     47709     47710     47711     47710     47712
     47713     47714     47713     47715     47716     47717     47716     47718
     47719     47720     47719     47721     47722     47723     47722     47724
     47725     47726     47725     47727     47728     47729     47728     47730
     47731     47732     47731     47733     47734     47735     47734     47736
     47737     47738     47737     47739     47740     47741     47740     47742
     47743     47744     47743     47745     47746     47747     47746     47748
     47749     47750     47749     47751     47752     47753     47752     47754
     47755     47756     47755     47757     47758     47759     47758     47760
     47761     47762     47761     47763     47764     47765     47764     47766
     47767     47768     47767     47769     47770     47771     47770     47772
     47773     47774     47773     47775     47776     47777     47776     47778
     47779     47780     47779     47781     47782     47783     47782     47784
     47785     47786     47785     47787     47788     47789     47788     47790
     47791     47792     47791     47793     47794     47795     47794     47796
     47797     47798     47797     47799     47800     47801     47800     47802
     47803     47804     47803     47805     47806     47807     47806     47808
     47809     47810     47809     47811     47812     47813     47812     47814
     47815     47816     47815     47817     47818     47819     47818     47820
     47821     47822     47821     47823     47824     47825     47824     47826
     47827     47828     47827     47829     47830     47831     47830     47832
     47833     47834     47833     47835     47836     47837     47836     47838
     47839     47840     47839     47841     47842     47843     47842     47844
     47845     47846     47845     47847     47848     47849     47848     47850
     47851     47852     47851     47853     47854     47855     47854     47856
     47857     47858     47857     47859     47860     47861     47860     47862
     47863     47864     47863     47865     47866     47867     47866     47868
     47869     47870     47869     47871     47872     47873     47872     47874
     47875     47876     47875     47877     47878     47879     47878     47880
     47881     47882     47881     47883     47884     47885     47884     47886
     47887     47888     47887     47889     47890     47891     47890     47892
     47893     47894     47893     47895     47896     47897     47896     47898
     47899     47900     47899     47901     47902     47903     47902     47904
     47905     47906     47905     47907     47908     47909     47908     47910
     47911     47912     47911     47913     47914     47915     47914     47916
     47917     47918     47917     47919     47920     47921     47920     47922
     47923     47924     47923     47925     47926     47927     47926     47928
     47929     47930     47929     47931     47932     47933     47932     47934
     47935     47936     47935     47937     47938     47939     47938     47940
     47941     47942     47941     47943     47944     47945     47944     47946
     47947     47948     47947     47949     47950     47951     47950     47952
     47953     47954     47953     47955     47956     47957     47956     47958
     47959     47960     47959     47961     47962     47963     47962     47964
     47965     47966     47965     47967     47968     47969     47968     47970
     47971     47972     47971     47973     47974     47975     47974     47976
     47977     47978     47977     47979     47980     47981     47980     47982
     47983     47984     47983     47985     47986     47987     47986     47988
     47989     47990     47989     47991     47992     47993     47992     47994
     47995     47996     47995     47997     47998     47999     47998     48000
     48001     48002     48001     48003     48004     48005     48004     48006
     48007     48008     48007     48009     48010     48011     48010     48012
     48013     48014     48013     48015     48016     48017     48016     48018
     48019     48020     48019     48021     48022     48023     48022     48024
     48025     48026     48025     48027     48028     48029     48028     48030
     48031     48032     48031     48033     48034     48035     48034     48036
     48037     48038     48037     48039     48040     48041     48040     48042
     48043     48044     48043     48045     48046     48047     48046     48048
     48049     48050     48049     48051     48052     48053     48052     48054
     48055     48056     48055     48057     48058     48059     48058     48060
     48061     48062     48061     48063     48064     48065     48064     48066
     48067     48068     48067     48069     48070     48071     48070     48072
     48073     48074     48073     48075     48076     48077     48076     48078
     48079     48080     48079     48081     48082     48083     48082     48084
     48085     48086     48085     48087     48088     48089     48088     48090
     48091     48092     48091     48093     48094     48095     48094     48096
     48097     48098     48097     48099     48100     48101     48100     48102
     48103     48104     48103     48105     48106     48107     48106     48108
     48109     48110     48109     48111     48112     48113     48112     48114
     48115     48116     48115     48117     48118     48119     48118     48120
     48121     48122     48121     48123     48124     48125     48124     48126
     48127     48128     48127     48129     48130     48131     48130     48132
     48133     48134     48133     48135     48136     48137     48136     48138
     48139     48140     48139     48141     48142     48143     48142     48144
     48145     48146     48145     48147     48148     48149     48148     48150
     48151     48152     48151     48153     48154     48155     48154     48156
     48157     48158     48157     48159     48160     48161     48160     48162
     48163     48164     48163     48165     48166     48167     48166     48168
     48169     48170     48169     48171     48172     48173     48172     48174
     48175     48176     48175     48177     48178     48179     48178     48180
     48181     48182     48181     48183     48184     48185     48184     48186
     48187     48188     48187     48189     48190     48191     48190     48192
     48193     48194     48193     48195     48196     48197     48196     48198
     48199     48200     48199     48201     48202     48203     48202     48204
     48205     48206     48205     48207     48208     48209     48208     48210
     48211     48212     48211     48213     48214     48215     48214     48216
     48217     48218     48217     48219     48220     48221     48220     48222
     48223     48224     48223     48225     48226     48227     48226     48228
     48229     48230     48229     48231     48232     48233     48232     48234
     48235     48236     48235     48237     48238     48239     48238     48240
     48241     48242     48241     48243     48244     48245     48244     48246
     48247     48248     48247     48249     48250     48251     48250     48252
     48253     48254     48253     48255     48256     48257     48256     48258
     48259     48260     48259     48261     48262     48263     48262     48264
     48265     48266     48265     48267     48268     48269     48268     48270
     48271     48272     48271     48273     48274     48275     48274     48276
     48277     48278     48277     48279     48280     48281     48280     48282
     48283     48284     48283     48285     48286     48287     48286     48288
     48289     48290     48289     48291     48292     48293     48292     48294
     48295     48296     48295     48297     48298     48299     48298     48300
     48301     48302     48301     48303     48304     48305     48304     48306
     48307     48308     48307     48309     48310     48311     48310     48312
     48313     48314     48313     48315     48316     48317     48316     48318
     48319     48320     48319     48321     48322     48323     48322     48324
     48325     48326     48325     48327     48328     48329     48328     48330
     48331     48332     48331     48333     48334     48335     48334     48336
     48337     48338     48337     48339     48340     48341     48340     48342
     48343     48344     48343     48345     48346     48347     48346     48348
     48349     48350     48349     48351     48352     48353     48352     48354
     48355     48356     48355     48357     48358     48359     48358     48360
     48361     48362     48361     48363     48364     48365     48364     48366
     48367     48368     48367     48369     48370     48371     48370     48372
     48373     48374     48373     48375     48376     48377     48376     48378
     48379     48380     48379     48381     48382     48383     48382     48384
     48385     48386     48385     48387     48388     48389     48388     48390
     48391     48392     48391     48393     48394     48395     48394     48396
     48397     48398     48397     48399     48400     48401     48400     48402
     48403     48404     48403     48405     48406     48407     48406     48408
     48409     48410     48409     48411     48412     48413     48412     48414
     48415     48416     48415     48417     48418     48419     48418     48420
     48421     48422     48421     48423     48424     48425     48424     48426
     48427     48428     48427     48429     48430     48431     48430     48432
     48433     48434     48433     48435     48436     48437     48436     48438
     48439     48440     48439     48441     48442     48443     48442     48444
     48445     48446     48445     48447     48448     48449     48448     48450
     48451     48452     48451     48453     48454     48455     48454     48456
     48457     48458     48457     48459     48460     48461     48460     48462
     48463     48464     48463     48465     48466     48467     48466     48468
     48469     48470     48469     48471     48472     48473     48472     48474
     48475     48476     48475     48477     48478     48479     48478     48480
     48481     48482     48481     48483     48484     48485     48484     48486
     48487     48488     48487     48489     48490     48491     48490     48492
     48493     48494     48493     48495     48496     48497     48496     48498
     48499     48500     48499     48501     48502     48503     48502     48504
     48505     48506     48505     48507     48508     48509     48508     48510
     48511     48512     48511     48513     48514     48515     48514     48516
     48517     48518     48517     48519     48520     48521     48520     48522
     48523     48524     48523     48525     48526     48527     48526     48528
     48529     48530     48529     48531     48532     48533     48532     48534
     48535     48536     48535     48537     48538     48539     48538     48540
     48541     48542     48541     48543     48544     48545     48544     48546
     48547     48548     48547     48549     48550     48551     48550     48552
     48553     48554     48553     48555     48556     48557     48556     48558
     48559     48560     48559     48561     48562     48563     48562     48564
     48565     48566     48565     48567     48568     48569     48568     48570
     48571     48572     48571     48573     48574     48575     48574     48576
     48577     48578     48577     48579     48580     48581     48580     48582
     48583     48584     48583     48585     48586     48587     48586     48588
     48589     48590     48589     48591     48592     48593     48592     48594
     48595     48596     48595     48597     48598     48599     48598     48600
     48601     48602     48601     48603     48604     48605     48604     48606
     48607     48608     48607     48609     48610     48611     48610     48612
     48613     48614     48613     48615     48616     48617     48616     48618
     48619     48620     48619     48621     48622     48623     48622     48624
     48625     48626     48625     48627     48628     48629     48628     48630
     48631     48632     48631     48633     48634     48635     48634     48636
     48637     48638     48637     48639     48640     48641     48640     48642
     48643     48644     48643     48645     48646     48647     48646     48648
     48649     48650     48649     48651     48652     48653     48652     48654
     48655     48656     48655     48657     48658     48659     48658     48660
     48661     48662     48661     48663     48664     48665     48664     48666
     48667     48668     48667     48669     48670     48671     48670     48672
     48673     48674     48673     48675     48676     48677     48676     48678
     48679     48680     48679     48681     48682     48683     48682     48684
     48685     48686     48685     48687     48688     48689     48688     48690
     48691     48692     48691     48693     48694     48695     48694     48696
     48697     48698     48697     48699     48700     48701     48700     48702
     48703     48704     48703     48705     48706     48707     48706     48708
     48709     48710     48709     48711     48712     48713     48712     48714
     48715     48716     48715     48717     48718     48719     48718     48720
     48721     48722     48721     48723     48724     48725     48724     48726
     48727     48728     48727     48729     48730     48731     48730     48732
     48733     48734     48733     48735     48736     48737     48736     48738
     48739     48740     48739     48741     48742     48743     48742     48744
     48745     48746     48745     48747     48748     48749     48748     48750
     48751     48752     48751     48753     48754     48755     48754     48756
     48757     48758     48757     48759     48760     48761     48760     48762
     48763     48764     48763     48765     48766     48767     48766     48768
     48769     48770     48769     48771     48772     48773     48772     48774
     48775     48776     48775     48777     48778     48779     48778     48780
     48781     48782     48781     48783     48784     48785     48784     48786
     48787     48788     48787     48789     48790     48791     48790     48792
     48793     48794     48793     48795     48796     48797     48796     48798
     48799     48800     48799     48801     48802     48803     48802     48804
     48805     48806     48805     48807     48808     48809     48808     48810
     48811     48812     48811     48813     48814     48815     48814     48816
     48817     48818     48817     48819     48820     48821     48820     48822
     48823     48824     48823     48825     48826     48827     48826     48828
     48829     48830     48829     48831     48832     48833     48832     48834
     48835     48836     48835     48837     48838     48839     48838     48840
     48841     48842     48841     48843     48844     48845     48844     48846
     48847     48848     48847     48849     48850     48851     48850     48852
     48853     48854     48853     48855     48856     48857     48856     48858
     48859     48860     48859     48861     48862     48863     48862     48864
     48865     48866     48865     48867     48868     48869     48868     48870
     48871     48872     48871     48873     48874     48875     48874     48876
     48877     48878     48877     48879     48880     48881     48880     48882
     48883     48884     48883     48885     48886     48887     48886     48888
     48889     48890     48889     48891     48892     48893     48892     48894
     48895     48896     48895     48897     48898     48899     48898     48900
     48901     48902     48901     48903     48904     48905     48904     48906
     48907     48908     48907     48909     48910     48911     48910     48912
     48913     48914     48913     48915     48916     48917     48916     48918
     48919     48920     48919     48921     48922     48923     48922     48924
     48925     48926     48925     48927     48928     48929     48928     48930
     48931     48932     48931     48933     48934     48935     48934     48936
     48937     48938     48937     48939     48940     48941     48940     48942
     48943     48944     48943     48945     48946     48947     48946     48948
     48949     48950     48949     48951     48952     48953     48952     48954
     48955     48956     48955     48957     48958     48959     48958     48960
     48961     48962     48961     48963     48964     48965     48964     48966
     48967     48968     48967     48969     48970     48971     48970     48972
     48973     48974     48973     48975     48976     48977     48976     48978
     48979     48980     48979     48981     48982     48983     48982     48984
     48985     48986     48985     48987     48988     48989     48988     48990
     48991     48992     48991     48993     48994     48995     48994     48996
     48997     48998     48997     48999     49000     49001     49000     49002
     49003     49004     49003     49005     49006     49007     49006     49008
     49009     49010     49009     49011     49012     49013     49012     49014
     49015     49016     49015     49017     49018     49019     49018     49020
     49021     49022     49021     49023     49024     49025     49024     49026
     49027     49028     49027     49029     49030     49031     49030     49032
     49033     49034     49033     49035     49036     49037     49036     49038
     49039     49040     49039     49041     49042     49043     49042     49044
     49045     49046     49045     49047     49048     49049     49048     49050
     49051     49052     49051     49053     49054     49055     49054     49056
     49057     49058     49057     49059     49060     49061     49060     49062
     49063     49064     49063     49065     49066     49067     49066     49068
     49069     49070     49069     49071     49072     49073     49072     49074
     49075     49076     49075     49077     49078     49079     49078     49080
     49081     49082     49081     49083     49084     49085     49084     49086
     49087     49088     49087     49089     49090     49091     49090     49092
     49093     49094     49093     49095     49096     49097     49096     49098
     49099     49100     49099     49101     49102     49103     49102     49104
     49105     49106     49105     49107     49108     49109     49108     49110
     49111     49112     49111     49113     49114     49115     49114     49116
     49117     49118     49117     49119     49120     49121     49120     49122
     49123     49124     49123     49125     49126     49127     49126     49128
     49129     49130     49129     49131     49132     49133     49132     49134
     49135     49136     49135     49137     49138     49139     49138     49140
     49141     49142     49141     49143     49144     49145     49144     49146
     49147     49148     49147     49149     49150     49151     49150     49152
     49153     49154     49153     49155     49156     49157     49156     49158
     49159     49160     49159     49161     49162     49163     49162     49164
     49165     49166     49165     49167     49168     49169     49168     49170
     49171     49172     49171     49173     49174     49175     49174     49176
     49177     49178     49177     49179     49180     49181     49180     49182
     49183     49184     49183     49185     49186     49187     49186     49188
     49189     49190     49189     49191     49192     49193     49192     49194
     49195     49196     49195     49197     49198     49199     49198     49200
     49201     49202     49201     49203     49204     49205     49204     49206
     49207     49208     49207     49209     49210     49211     49210     49212
     49213     49214     49213     49215     49216     49217     49216     49218
     49219     49220     49219     49221     49222     49223     49222     49224
     49225     49226     49225     49227     49228     49229     49228     49230
     49231     49232     49231     49233     49234     49235     49234     49236
     49237     49238     49237     49239     49240     49241     49240     49242
     49243     49244     49243     49245     49246     49247     49246     49248
     49249     49250     49249     49251     49252     49253     49252     49254
     49255     49256     49255     49257     49258     49259     49258     49260
     49261     49262     49261     49263     49264     49265     49264     49266
     49267     49268     49267     49269     49270     49271     49270     49272
     49273     49274     49273     49275     49276     49277     49276     49278
     49279     49280     49279     49281     49282     49283     49282     49284
     49285     49286     49285     49287     49288     49289     49288     49290
     49291     49292     49291     49293     49294     49295     49294     49296
     49297     49298     49297     49299     49300     49301     49300     49302
     49303     49304     49303     49305     49306     49307     49306     49308
     49309     49310     49309     49311     49312     49313     49312     49314
     49315     49316     49315     49317     49318     49319     49318     49320
     49321     49322     49321     49323     49324     49325     49324     49326
     49327     49328     49327     49329     49330     49331     49330     49332
     49333     49334     49333     49335     49336     49337     49336     49338
     49339     49340     49339     49341     49342     49343     49342     49344
     49345     49346     49345     49347     49348     49349     49348     49350
     49351     49352     49351     49353     49354     49355     49354     49356
     49357     49358     49357     49359     49360     49361     49360     49362
     49363     49364     49363     49365     49366     49367     49366     49368
     49369     49370     49369     49371     49372     49373     49372     49374
     49375     49376     49375     49377     49378     49379     49378     49380
     49381     49382     49381     49383     49384     49385     49384     49386
     49387     49388     49387     49389     49390     49391     49390     49392
     49393     49394     49393     49395     49396     49397     49396     49398
     49399     49400     49399     49401     49402     49403     49402     49404
     49405     49406     49405     49407     49408     49409     49408     49410
     49411     49412     49411     49413     49414     49415     49414     49416
     49417     49418     49417     49419     49420     49421     49420     49422
     49423     49424     49423     49425     49426     49427     49426     49428
     49429     49430     49429     49431     49432     49433     49432     49434
     49435     49436     49435     49437     49438     49439     49438     49440
     49441     49442     49441     49443     49444     49445     49444     49446
     49447     49448     49447     49449     49450     49451     49450     49452
     49453     49454     49453     49455     49456     49457     49456     49458
     49459     49460     49459     49461     49462     49463     49462     49464
     49465     49466     49465     49467     49468     49469     49468     49470
     49471     49472     49471     49473     49474     49475     49474     49476
     49477     49478     49477     49479     49480     49481     49480     49482
     49483     49484     49483     49485     49486     49487     49486     49488
     49489     49490     49489     49491     49492     49493     49492     49494
     49495     49496     49495     49497     49498     49499     49498     49500
     49501     49502     49501     49503     49504     49505     49504     49506
     49507     49508     49507     49509     49510     49511     49510     49512
     49513     49514     49513     49515     49516     49517     49516     49518
     49519     49520     49519     49521     49522     49523     49522     49524
     49525     49526     49525     49527     49528     49529     49528     49530
     49531     49532     49531     49533     49534     49535     49534     49536
     49537     49538     49537     49539     49540     49541     49540     49542
     49543     49544     49543     49545     49546     49547     49546     49548
     49549     49550     49549     49551     49552     49553     49552     49554
     49555     49556     49555     49557     49558     49559     49558     49560
     49561     49562     49561     49563     49564     49565     49564     49566
     49567     49568     49567     49569     49570     49571     49570     49572
     49573     49574     49573     49575     49576     49577     49576     49578
     49579     49580     49579     49581     49582     49583     49582     49584
     49585     49586     49585     49587     49588     49589     49588     49590
     49591     49592     49591     49593     49594     49595     49594     49596
     49597     49598     49597     49599     49600     49601     49600     49602
     49603     49604     49603     49605     49606     49607     49606     49608
     49609     49610     49609     49611     49612     49613     49612     49614
     49615     49616     49615     49617     49618     49619     49618     49620
     49621     49622     49621     49623     49624     49625     49624     49626
     49627     49628     49627     49629     49630     49631     49630     49632
     49633     49634     49633     49635     49636     49637     49636     49638
     49639     49640     49639     49641     49642     49643     49642     49644
     49645     49646     49645     49647     49648     49649     49648     49650
     49651     49652     49651     49653     49654     49655     49654     49656
     49657     49658     49657     49659     49660     49661     49660     49662
     49663     49664     49663     49665     49666     49667     49666     49668
     49669     49670     49669     49671     49672     49673     49672     49674
     49675     49676     49675     49677     49678     49679     49678     49680
     49681     49682     49681     49683     49684     49685     49684     49686
     49687     49688     49687     49689     49690     49691     49690     49692
     49693     49694     49693     49695     49696     49697     49696     49698
     49699     49700     49699     49701     49702     49703     49702     49704
     49705     49706     49705     49707     49708     49709     49708     49710
     49711     49712     49711     49713     49714     49715     49714     49716
     49717     49718     49717     49719     49720     49721     49720     49722
     49723     49724     49723     49725     49726     49727     49726     49728
     49729     49730     49729     49731     49732     49733     49732     49734
     49735     49736     49735     49737     49738     49739     49738     49740
     49741     49742     49741     49743     49744     49745     49744     49746
     49747     49748     49747     49749     49750     49751     49750     49752
     49753     49754     49753     49755     49756     49757     49756     49758
     49759     49760     49759     49761     49762     49763     49762     49764
     49765     49766     49765     49767     49768     49769     49768     49770
     49771     49772     49771     49773     49774     49775     49774     49776
     49777     49778     49777     49779     49780     49781     49780     49782
     49783     49784     49783     49785     49786     49787     49786     49788
     49789     49790     49789     49791     49792     49793     49792     49794
     49795     49796     49795     49797     49798     49799     49798     49800
     49801     49802     49801     49803     49804     49805     49804     49806
     49807     49808     49807     49809     49810     49811     49810     49812
     49813     49814     49813     49815     49816     49817     49816     49818
     49819     49820     49819     49821     49822     49823     49822     49824
     49825     49826     49825     49827     49828     49829     49828     49830
     49831     49832     49831     49833     49834     49835     49834     49836
     49837     49838     49837     49839     49840     49841     49840     49842
     49843     49844     49843     49845     49846     49847     49846     49848
     49849     49850     49849     49851     49852     49853     49852     49854
     49855     49856     49855     49857     49858     49859     49858     49860
     49861     49862     49861     49863     49864     49865     49864     49866
     49867     49868     49867     49869     49870     49871     49870     49872
     49873     49874     49873     49875     49876     49877     49876     49878
     49879     49880     49879     49881     49882     49883     49882     49884
     49885     49886     49885     49887     49888     49889     49888     49890
     49891     49892     49891     49893     49894     49895     49894     49896
     49897     49898     49897     49899     49900     49901     49900     49902
     49903     49904     49903     49905     49906     49907     49906     49908
     49909     49910     49909     49911     49912     49913     49912     49914
     49915     49916     49915     49917     49918     49919     49918     49920
     49921     49922     49921     49923     49924     49925     49924     49926
     49927     49928     49927     49929     49930     49931     49930     49932
     49933     49934     49933     49935     49936     49937     49936     49938
     49939     49940     49939     49941     49942     49943     49942     49944
     49945     49946     49945     49947     49948     49949     49948     49950
     49951     49952     49951     49953     49954     49955     49954     49956
     49957     49958     49957     49959     49960     49961     49960     49962
     49963     49964     49963     49965     49966     49967     49966     49968
     49969     49970     49969     49971     49972     49973     49972     49974
     49975     49976     49975     49977     49978     49979     49978     49980
     49981     49982     49981     49983     49984     49985     49984     49986
     49987     49988     49987     49989     49990     49991     49990     49992
     49993     49994     49993     49995     49996     49997     49996     49998
     49999     50000     49999     50001     50002     50003     50002     50004
     50005     50006     50005     50007     50008     50009     50008     50010
     50011     50012     50011     50013     50014     50015     50014     50016
     50017     50018     50017     50019     50020     50021     50020     50022
     50023     50024     50023     50025     50026     50027     50026     50028
     50029     50030     50029     50031     50032     50033     50032     50034
     50035     50036     50035     50037     50038     50039     50038     50040
     50041     50042     50041     50043     50044     50045     50044     50046
     50047     50048     50047     50049     50050     50051     50050     50052
     50053     50054     50053     50055     50056     50057     50056     50058
     50059     50060     50059     50061     50062     50063     50062     50064
     50065     50066     50065     50067     50068     50069     50068     50070
     50071     50072     50071     50073     50074     50075     50074     50076
     50077     50078     50077     50079     50080     50081     50080     50082
     50083     50084     50083     50085     50086     50087     50086     50088
     50089     50090     50089     50091     50092     50093     50092     50094
     50095     50096     50095     50097     50098     50099     50098     50100
     50101     50102     50101     50103     50104     50105     50104     50106
     50107     50108     50107     50109     50110     50111     50110     50112
     50113     50114     50113     50115     50116     50117     50116     50118
     50119     50120     50119     50121     50122     50123     50122     50124
     50125     50126     50125     50127     50128     50129     50128     50130
     50131     50132     50131     50133     50134     50135     50134     50136
     50137     50138     50137     50139     50140     50141     50140     50142
     50143     50144     50143     50145     50146     50147     50146     50148
     50149     50150     50149     50151     50152     50153     50152     50154
     50155     50156     50155     50157     50158     50159     50158     50160
     50161     50162     50161     50163     50164     50165     50164     50166
     50167     50168     50167     50169     50170     50171     50170     50172
     50173     50174     50173     50175     50176     50177     50176     50178
     50179     50180     50179     50181     50182     50183     50182     50184
     50185     50186     50185     50187     50188     50189     50188     50190
     50191     50192     50191     50193     50194     50195     50194     50196
     50197     50198     50197     50199     50200     50201     50200     50202
     50203     50204     50203     50205     50206     50207     50206     50208
     50209     50210     50209     50211     50212     50213     50212     50214
     50215     50216     50215     50217     50218     50219     50218     50220
     50221     50222     50221     50223     50224     50225     50224     50226
     50227     50228     50227     50229     50230     50231     50230     50232
     50233     50234     50233     50235     50236     50237     50236     50238
     50239     50240     50239     50241     50242     50243     50242     50244
     50245     50246     50245     50247     50248     50249     50248     50250
     50251     50252     50251     50253     50254     50255     50254     50256
     50257     50258     50257     50259     50260     50261     50260     50262
     50263     50264     50263     50265     50266     50267     50266     50268
     50269     50270     50269     50271     50272     50273     50272     50274
     50275     50276     50275     50277     50278     50279     50278     50280
     50281     50282     50281     50283     50284     50285     50284     50286
     50287     50288     50287     50289     50290     50291     50290     50292
     50293     50294     50293     50295     50296     50297     50296     50298
     50299     50300     50299     50301     50302     50303     50302     50304
     50305     50306     50305     50307     50308     50309     50308     50310
     50311     50312     50311     50313     50314     50315     50314     50316
     50317     50318     50317     50319     50320     50321     50320     50322
     50323     50324     50323     50325     50326     50327     50326     50328
     50329     50330     50329     50331     50332     50333     50332     50334
     50335     50336     50335     50337     50338     50339     50338     50340
     50341     50342     50341     50343     50344     50345     50344     50346
     50347     50348     50347     50349     50350     50351     50350     50352
     50353     50354     50353     50355     50356     50357     50356     50358
     50359     50360     50359     50361     50362     50363     50362     50364
     50365     50366     50365     50367     50368     50369     50368     50370
     50371     50372     50371     50373     50374     50375     50374     50376
     50377     50378     50377     50379     50380     50381     50380     50382
     50383     50384     50383     50385     50386     50387     50386     50388
     50389     50390     50389     50391     50392     50393     50392     50394
     50395     50396     50395     50397     50398     50399     50398     50400
     50401     50402     50401     50403     50404     50405     50404     50406
     50407     50408     50407     50409     50410     50411     50410     50412
     50413     50414     50413     50415     50416     50417     50416     50418
     50419     50420     50419     50421     50422     50423     50422     50424
     50425     50426     50425     50427     50428     50429     50428     50430
     50431     50432     50431     50433     50434     50435     50434     50436
     50437     50438     50437     50439     50440     50441     50440     50442
     50443     50444     50443     50445     50446     50447     50446     50448
     50449     50450     50449     50451     50452     50453     50452     50454
     50455     50456     50455     50457     50458     50459     50458     50460
     50461     50462     50461     50463     50464     50465     50464     50466
     50467     50468     50467     50469     50470     50471     50470     50472
     50473     50474     50473     50475     50476     50477     50476     50478
     50479     50480     50479     50481     50482     50483     50482     50484
     50485     50486     50485     50487     50488     50489     50488     50490
     50491     50492     50491     50493     50494     50495     50494     50496
     50497     50498     50497     50499     50500     50501     50500     50502
     50503     50504     50503     50505     50506     50507     50506     50508
     50509     50510     50509     50511     50512     50513     50512     50514
     50515     50516     50515     50517     50518     50519     50518     50520
     50521     50522     50521     50523     50524     50525     50524     50526
     50527     50528     50527     50529     50530     50531     50530     50532
     50533     50534     50533     50535     50536     50537     50536     50538
     50539     50540     50539     50541     50542     50543     50542     50544
     50545     50546     50545     50547     50548     50549     50548     50550
     50551     50552     50551     50553     50554     50555     50554     50556
     50557     50558     50557     50559     50560     50561     50560     50562
     50563     50564     50563     50565     50566     50567     50566     50568
     50569     50570     50569     50571     50572     50573     50572     50574
     50575     50576     50575     50577     50578     50579     50578     50580
     50581     50582     50581     50583     50584     50585     50584     50586
     50587     50588     50587     50589     50590     50591     50590     50592
     50593     50594     50593     50595     50596     50597     50596     50598
     50599     50600     50599     50601     50602     50603     50602     50604
     50605     50606     50605     50607     50608     50609     50608     50610
     50611     50612     50611     50613     50614     50615     50614     50616
     50617     50618     50617     50619     50620     50621     50620     50622
     50623     50624     50623     50625     50626     50627     50626     50628
     50629     50630     50629     50631     50632     50633     50632     50634
     50635     50636     50635     50637     50638     50639     50638     50640
     50641     50642     50641     50643     50644     50645     50644     50646
     50647     50648     50647     50649     50650     50651     50650     50652
     50653     50654     50653     50655     50656     50657     50656     50658
     50659     50660     50659     50661     50662     50663     50662     50664
     50665     50666     50665     50667     50668     50669     50668     50670
     50671     50672     50671     50673     50674     50675     50674     50676
     50677     50678     50677     50679     50680     50681     50680     50682
     50683     50684     50683     50685     50686     50687     50686     50688
     50689     50690     50689     50691     50692     50693     50692     50694
     50695     50696     50695     50697     50698     50699     50698     50700
     50701     50702     50701     50703     50704     50705     50704     50706
     50707     50708     50707     50709     50710     50711     50710     50712
     50713     50714     50713     50715     50716     50717     50716     50718
     50719     50720     50719     50721     50722     50723     50722     50724
     50725     50726     50725     50727     50728     50729     50728     50730
     50731     50732     50731     50733     50734     50735     50734     50736
     50737     50738     50737     50739     50740     50741     50740     50742
     50743     50744     50743     50745     50746     50747     50746     50748
     50749     50750     50749     50751     50752     50753     50752     50754
     50755     50756     50755     50757     50758     50759     50758     50760
     50761     50762     50761     50763     50764     50765     50764     50766
     50767     50768     50767     50769     50770     50771     50770     50772
     50773     50774     50773     50775     50776     50777     50776     50778
     50779     50780     50779     50781     50782     50783     50782     50784
     50785     50786     50785     50787     50788     50789     50788     50790
     50791     50792     50791     50793     50794     50795     50794     50796
     50797     50798     50797     50799     50800     50801     50800     50802
     50803     50804     50803     50805     50806     50807     50806     50808
     50809     50810     50809     50811     50812     50813     50812     50814
     50815     50816     50815     50817     50818     50819     50818     50820
     50821     50822     50821     50823     50824     50825     50824     50826
     50827     50828     50827     50829     50830     50831     50830     50832
     50833     50834     50833     50835     50836     50837     50836     50838
     50839     50840     50839     50841     50842     50843     50842     50844
     50845     50846     50845     50847     50848     50849     50848     50850
     50851     50852     50851     50853     50854     50855     50854     50856
     50857     50858     50857     50859     50860     50861     50860     50862
     50863     50864     50863     50865     50866     50867     50866     50868
     50869     50870     50869     50871     50872     50873     50872     50874
     50875     50876     50875     50877     50878     50879     50878     50880
     50881     50882     50881     50883     50884     50885     50884     50886
     50887     50888     50887     50889     50890     50891     50890     50892
     50893     50894     50893     50895     50896     50897     50896     50898
     50899     50900     50899     50901     50902     50903     50902     50904
     50905     50906     50905     50907     50908     50909     50908     50910
     50911     50912     50911     50913     50914     50915     50914     50916
     50917     50918     50917     50919     50920     50921     50920     50922
     50923     50924     50923     50925     50926     50927     50926     50928
     50929     50930     50929     50931     50932     50933     50932     50934
     50935     50936     50935     50937     50938     50939     50938     50940
     50941     50942     50941     50943     50944     50945     50944     50946
     50947     50948     50947     50949     50950     50951     50950     50952
     50953     50954     50953     50955     50956     50957     50956     50958
     50959     50960     50959     50961     50962     50963     50962     50964
     50965     50966     50965     50967     50968     50969     50968     50970
     50971     50972     50971     50973     50974     50975     50974     50976
     50977     50978     50977     50979     50980     50981     50980     50982
     50983     50984     50983     50985     50986     50987     50986     50988
     50989     50990     50989     50991     50992     50993     50992     50994
     50995     50996     50995     50997     50998     50999     50998     51000
     51001     51002     51001     51003     51004     51005     51004     51006
     51007     51008     51007     51009     51010     51011     51010     51012
     51013     51014     51013     51015     51016     51017     51016     51018
     51019     51020     51019     51021     51022     51023     51022     51024
     51025     51026     51025     51027     51028     51029     51028     51030
     51031     51032     51031     51033     51034     51035     51034     51036
     51037     51038     51037     51039     51040     51041     51040     51042
     51043     51044     51043     51045     51046     51047     51046     51048
     51049     51050     51049     51051     51052     51053     51052     51054
     51055     51056     51055     51057     51058     51059     51058     51060
     51061     51062     51061     51063     51064     51065     51064     51066
     51067     51068     51067     51069     51070     51071     51070     51072
     51073     51074     51073     51075     51076     51077     51076     51078
     51079     51080     51079     51081     51082     51083     51082     51084
     51085     51086     51085     51087     51088     51089     51088     51090
     51091     51092     51091     51093     51094     51095     51094     51096
     51097     51098     51097     51099     51100     51101     51100     51102
     51103     51104     51103     51105     51106     51107     51106     51108
     51109     51110     51109     51111     51112     51113     51112     51114
     51115     51116     51115     51117     51118     51119     51118     51120
     51121     51122     51121     51123     51124     51125     51124     51126
     51127     51128     51127     51129     51130     51131     51130     51132
     51133     51134     51133     51135     51136     51137     51136     51138
     51139     51140     51139     51141     51142     51143     51142     51144
     51145     51146     51145     51147     51148     51149     51148     51150
     51151     51152     51151     51153     51154     51155     51154     51156
     51157     51158     51157     51159     51160     51161     51160     51162
     51163     51164     51163     51165     51166     51167     51166     51168
     51169     51170     51169     51171     51172     51173     51172     51174
     51175     51176     51175     51177     51178     51179     51178     51180
     51181     51182     51181     51183     51184     51185     51184     51186
     51187     51188     51187     51189     51190     51191     51190     51192
     51193     51194     51193     51195     51196     51197     51196     51198
     51199     51200     51199     51201     51202     51203     51202     51204
     51205     51206     51205     51207     51208     51209     51208     51210
     51211     51212     51211     51213     51214     51215     51214     51216
     51217     51218     51217     51219     51220     51221     51220     51222
     51223     51224     51223     51225     51226     51227     51226     51228
     51229     51230     51229     51231     51232     51233     51232     51234
     51235     51236     51235     51237     51238     51239     51238     51240
     51241     51242     51241     51243     51244     51245     51244     51246
     51247     51248     51247     51249     51250     51251     51250     51252
     51253     51254     51253     51255     51256     51257     51256     51258
     51259     51260     51259     51261     51262     51263     51262     51264
     51265     51266     51265     51267     51268     51269     51268     51270
     51271     51272     51271     51273     51274     51275     51274     51276
     51277     51278     51277     51279     51280     51281     51280     51282
     51283     51284     51283     51285     51286     51287     51286     51288
     51289     51290     51289     51291     51292     51293     51292     51294
     51295     51296     51295     51297     51298     51299     51298     51300
     51301     51302     51301     51303     51304     51305     51304     51306
     51307     51308     51307     51309     51310     51311     51310     51312
     51313     51314     51313     51315     51316     51317     51316     51318
     51319     51320     51319     51321     51322     51323     51322     51324
     51325     51326     51325     51327     51328     51329     51328     51330
     51331     51332     51331     51333     51334     51335     51334     51336
     51337     51338     51337     51339     51340     51341     51340     51342
     51343     51344     51343     51345     51346     51347     51346     51348
     51349     51350     51349     51351     51352     51353     51352     51354
     51355     51356     51355     51357     51358     51359     51358     51360
     51361     51362     51361     51363     51364     51365     51364     51366
     51367     51368     51367     51369     51370     51371     51370     51372
     51373     51374     51373     51375     51376     51377     51376     51378
     51379     51380     51379     51381     51382     51383     51382     51384
     51385     51386     51385     51387     51388     51389     51388     51390
     51391     51392     51391     51393     51394     51395     51394     51396
     51397     51398     51397     51399     51400     51401     51400     51402
     51403     51404     51403     51405     51406     51407     51406     51408
     51409     51410     51409     51411     51412     51413     51412     51414
     51415     51416     51415     51417     51418     51419     51418     51420
     51421     51422     51421     51423     51424     51425     51424     51426
     51427     51428     51427     51429     51430     51431     51430     51432
     51433     51434     51433     51435     51436     51437     51436     51438
     51439     51440     51439     51441     51442     51443     51442     51444
     51445     51446     51445     51447     51448     51449     51448     51450
     51451     51452     51451     51453     51454     51455     51454     51456
     51457     51458     51457     51459     51460     51461     51460     51462
     51463     51464     51463     51465     51466     51467     51466     51468
     51469     51470     51469     51471     51472     51473     51472     51474
     51475     51476     51475     51477     51478     51479     51478     51480
     51481     51482     51481     51483     51484     51485     51484     51486
     51487     51488     51487     51489     51490     51491     51490     51492
     51493     51494     51493     51495     51496     51497     51496     51498
     51499     51500     51499     51501     51502     51503     51502     51504
     51505     51506     51505     51507     51508     51509     51508     51510
     51511     51512     51511     51513     51514     51515     51514     51516
     51517     51518     51517     51519     51520     51521     51520     51522
     51523     51524     51523     51525     51526     51527     51526     51528
     51529     51530     51529     51531     51532     51533     51532     51534
     51535     51536     51535     51537     51538     51539     51538     51540
     51541     51542     51541     51543     51544     51545     51544     51546
     51547     51548     51547     51549     51550     51551     51550     51552
     51553     51554     51553     51555     51556     51557     51556     51558
     51559     51560     51559     51561     51562     51563     51562     51564
     51565     51566     51565     51567     51568     51569     51568     51570
     51571     51572     51571     51573     51574     51575     51574     51576
     51577     51578     51577     51579     51580     51581     51580     51582
     51583     51584     51583     51585     51586     51587     51586     51588
     51589     51590     51589     51591     51592     51593     51592     51594
     51595     51596     51595     51597     51598     51599     51598     51600
     51601     51602     51601     51603     51604     51605     51604     51606
     51607     51608     51607     51609     51610     51611     51610     51612
     51613     51614     51613     51615     51616     51617     51616     51618
     51619     51620     51619     51621     51622     51623     51622     51624
     51625     51626     51625     51627     51628     51629     51628     51630
     51631     51632     51631     51633     51634     51635     51634     51636
     51637     51638     51637     51639     51640     51641     51640     51642
     51643     51644     51643     51645     51646     51647     51646     51648
     51649     51650     51649     51651     51652     51653     51652     51654
     51655     51656     51655     51657     51658     51659     51658     51660
     51661     51662     51661     51663     51664     51665     51664     51666
     51667     51668     51667     51669     51670     51671     51670     51672
     51673     51674     51673     51675     51676     51677     51676     51678
     51679     51680     51679     51681     51682     51683     51682     51684
     51685     51686     51685     51687     51688     51689     51688     51690
     51691     51692     51691     51693     51694     51695     51694     51696
     51697     51698     51697     51699     51700     51701     51700     51702
     51703     51704     51703     51705     51706     51707     51706     51708
     51709     51710     51709     51711     51712     51713     51712     51714
     51715     51716     51715     51717     51718     51719     51718     51720
     51721     51722     51721     51723     51724     51725     51724     51726
     51727     51728     51727     51729     51730     51731     51730     51732
     51733     51734     51733     51735     51736     51737     51736     51738
     51739     51740     51739     51741     51742     51743     51742     51744
     51745     51746     51745     51747     51748     51749     51748     51750
     51751     51752     51751     51753     51754     51755     51754     51756
     51757     51758     51757     51759     51760     51761     51760     51762
     51763     51764     51763     51765     51766     51767     51766     51768
     51769     51770     51769     51771     51772     51773     51772     51774
     51775     51776     51775     51777     51778     51779     51778     51780
     51781     51782     51781     51783     51784     51785     51784     51786
     51787     51788     51787     51789     51790     51791     51790     51792
     51793     51794     51793     51795     51796     51797     51796     51798
     51799     51800     51799     51801     51802     51803     51802     51804
     51805     51806     51805     51807     51808     51809     51808     51810
     51811     51812     51811     51813     51814     51815     51814     51816
     51817     51818     51817     51819     51820     51821     51820     51822
     51823     51824     51823     51825     51826     51827     51826     51828
     51829     51830     51829     51831     51832     51833     51832     51834
     51835     51836     51835     51837     51838     51839     51838     51840
     51841     51842     51841     51843     51844     51845     51844     51846
     51847     51848     51847     51849     51850     51851     51850     51852
     51853     51854     51853     51855     51856     51857     51856     51858
     51859     51860     51859     51861     51862     51863     51862     51864
     51865     51866     51865     51867     51868     51869     51868     51870
     51871     51872     51871     51873     51874     51875     51874     51876
     51877     51878     51877     51879     51880     51881     51880     51882
     51883     51884     51883     51885     51886     51887     51886     51888
     51889     51890     51889     51891     51892     51893     51892     51894
     51895     51896     51895     51897     51898     51899     51898     51900
     51901     51902     51901     51903     51904     51905     51904     51906
     51907     51908     51907     51909     51910     51911     51910     51912
     51913     51914     51913     51915     51916     51917     51916     51918
     51919     51920     51919     51921     51922     51923     51922     51924
     51925     51926     51925     51927     51928     51929     51928     51930
     51931     51932     51931     51933     51934     51935     51934     51936
     51937     51938     51937     51939     51940     51941     51940     51942
     51943     51944     51943     51945     51946     51947     51946     51948
     51949     51950     51949     51951     51952     51953     51952     51954
     51955     51956     51955     51957     51958     51959     51958     51960
     51961     51962     51961     51963     51964     51965     51964     51966
     51967     51968     51967     51969     51970     51971     51970     51972
     51973     51974     51973     51975     51976     51977     51976     51978
     51979     51980     51979     51981     51982     51983     51982     51984
     51985     51986     51985     51987     51988     51989     51988     51990
     51991     51992     51991     51993     51994     51995     51994     51996
     51997     51998     51997     51999     52000     52001     52000     52002
     52003     52004     52003     52005     52006     52007     52006     52008
     52009     52010     52009     52011     52012     52013     52012     52014
     52015     52016     52015     52017     52018     52019     52018     52020
     52021     52022     52021     52023     52024     52025     52024     52026
     52027     52028     52027     52029     52030     52031     52030     52032
     52033     52034     52033     52035     52036     52037     52036     52038
     52039     52040     52039     52041     52042     52043     52042     52044
     52045     52046     52045     52047     52048     52049     52048     52050
     52051     52052     52051     52053     52054     52055     52054     52056
     52057     52058     52057     52059     52060     52061     52060     52062
     52063     52064     52063     52065     52066     52067     52066     52068
     52069     52070     52069     52071     52072     52073     52072     52074
     52075     52076     52075     52077     52078     52079     52078     52080
     52081     52082     52081     52083     52084     52085     52084     52086
     52087     52088     52087     52089     52090     52091     52090     52092
     52093     52094     52093     52095     52096     52097     52096     52098
     52099     52100     52099     52101     52102     52103     52102     52104
     52105     52106     52105     52107     52108     52109     52108     52110
     52111     52112     52111     52113     52114     52115     52114     52116
     52117     52118     52117     52119     52120     52121     52120     52122
     52123     52124     52123     52125     52126     52127     52126     52128
     52129     52130     52129     52131     52132     52133     52132     52134
     52135     52136     52135     52137     52138     52139     52138     52140
     52141     52142     52141     52143     52144     52145     52144     52146
     52147     52148     52147     52149     52150     52151     52150     52152
     52153     52154     52153     52155     52156     52157     52156     52158
     52159     52160     52159     52161     52162     52163     52162     52164
     52165     52166     52165     52167     52168     52169     52168     52170
     52171     52172     52171     52173     52174     52175     52174     52176
     52177     52178     52177     52179     52180     52181     52180     52182
     52183     52184     52183     52185     52186     52187     52186     52188
     52189     52190     52189     52191     52192     52193     52192     52194
     52195     52196     52195     52197     52198     52199     52198     52200
     52201     52202     52201     52203     52204     52205     52204     52206
     52207     52208     52207     52209     52210     52211     52210     52212
     52213     52214     52213     52215     52216     52217     52216     52218
     52219     52220     52219     52221     52222     52223     52222     52224
     52225     52226     52225     52227     52228     52229     52228     52230
     52231     52232     52231     52233     52234     52235     52234     52236
     52237     52238     52237     52239     52240     52241     52240     52242
     52243     52244     52243     52245     52246     52247     52246     52248
     52249     52250     52249     52251     52252     52253     52252     52254
     52255     52256     52255     52257     52258     52259     52258     52260
     52261     52262     52261     52263     52264     52265     52264     52266
     52267     52268     52267     52269     52270     52271     52270     52272
     52273     52274     52273     52275     52276     52277     52276     52278
     52279     52280     52279     52281     52282     52283     52282     52284
     52285     52286     52285     52287     52288     52289     52288     52290
     52291     52292     52291     52293     52294     52295     52294     52296
     52297     52298     52297     52299     52300     52301     52300     52302
     52303     52304     52303     52305     52306     52307     52306     52308
     52309     52310     52309     52311     52312     52313     52312     52314
     52315     52316     52315     52317     52318     52319     52318     52320
     52321     52322     52321     52323     52324     52325     52324     52326
     52327     52328     52327     52329     52330     52331     52330     52332
     52333     52334     52333     52335     52336     52337     52336     52338
     52339     52340     52339     52341     52342     52343     52342     52344
     52345     52346     52345     52347     52348     52349     52348     52350
     52351     52352     52351     52353     52354     52355     52354     52356
     52357     52358     52357     52359     52360     52361     52360     52362
     52363     52364     52363     52365     52366     52367     52366     52368
     52369     52370     52369     52371     52372     52373     52372     52374
     52375     52376     52375     52377     52378     52379     52378     52380
     52381     52382     52381     52383     52384     52385     52384     52386
     52387     52388     52387     52389     52390     52391     52390     52392
     52393     52394     52393     52395     52396     52397     52396     52398
     52399     52400     52399     52401     52402     52403     52402     52404
     52405     52406     52405     52407     52408     52409     52408     52410
     52411     52412     52411     52413     52414     52415     52414     52416
     52417     52418     52417     52419     52420     52421     52420     52422
     52423     52424     52423     52425     52426     52427     52426     52428
     52429     52430     52429     52431     52432     52433     52432     52434
     52435     52436     52435     52437     52438     52439     52438     52440
     52441     52442     52441     52443     52444     52445     52444     52446
     52447     52448     52447     52449     52450     52451     52450     52452
     52453     52454     52453     52455     52456     52457     52456     52458
     52459     52460     52459     52461     52462     52463     52462     52464
     52465     52466     52465     52467     52468     52469     52468     52470
     52471     52472     52471     52473     52474     52475     52474     52476
     52477     52478     52477     52479     52480     52481     52480     52482
     52483     52484     52483     52485     52486     52487     52486     52488
     52489     52490     52489     52491     52492     52493     52492     52494
     52495     52496     52495     52497     52498     52499     52498     52500
     52501     52502     52501     52503     52504     52505     52504     52506
     52507     52508     52507     52509     52510     52511     52510     52512
     52513     52514     52513     52515     52516     52517     52516     52518
     52519     52520     52519     52521     52522     52523     52522     52524
     52525     52526     52525     52527     52528     52529     52528     52530
     52531     52532     52531     52533     52534     52535     52534     52536
     52537     52538     52537     52539     52540     52541     52540     52542
     52543     52544     52543     52545     52546     52547     52546     52548
     52549     52550     52549     52551     52552     52553     52552     52554
     52555     52556     52555     52557     52558     52559     52558     52560
     52561     52562     52561     52563     52564     52565     52564     52566
     52567     52568     52567     52569     52570     52571     52570     52572
     52573     52574     52573     52575     52576     52577     52576     52578
     52579     52580     52579     52581     52582     52583     52582     52584
     52585     52586     52585     52587     52588     52589     52588     52590
     52591     52592     52591     52593     52594     52595     52594     52596
     52597     52598     52597     52599     52600     52601     52600     52602
     52603     52604     52603     52605     52606     52607     52606     52608
     52609     52610     52609     52611     52612     52613     52612     52614
     52615     52616     52615     52617     52618     52619     52618     52620
     52621     52622     52621     52623     52624     52625     52624     52626
     52627     52628     52627     52629     52630     52631     52630     52632
     52633     52634     52633     52635     52636     52637     52636     52638
     52639     52640     52639     52641     52642     52643     52642     52644
     52645     52646     52645     52647     52648     52649     52648     52650
     52651     52652     52651     52653     52654     52655     52654     52656
     52657     52658     52657     52659     52660     52661     52660     52662
     52663     52664     52663     52665     52666     52667     52666     52668
     52669     52670     52669     52671     52672     52673     52672     52674
     52675     52676     52675     52677     52678     52679     52678     52680
     52681     52682     52681     52683     52684     52685     52684     52686
     52687     52688     52687     52689     52690     52691     52690     52692
     52693     52694     52693     52695     52696     52697     52696     52698
     52699     52700     52699     52701     52702     52703     52702     52704
     52705     52706     52705     52707     52708     52709     52708     52710
     52711     52712     52711     52713     52714     52715     52714     52716
     52717     52718     52717     52719     52720     52721     52720     52722
     52723     52724     52723     52725     52726     52727     52726     52728
     52729     52730     52729     52731     52732     52733     52732     52734
     52735     52736     52735     52737     52738     52739     52738     52740
     52741     52742     52741     52743     52744     52745     52744     52746
     52747     52748     52747     52749     52750     52751     52750     52752
     52753     52754     52753     52755     52756     52757     52756     52758
     52759     52760     52759     52761     52762     52763     52762     52764
     52765     52766     52765     52767     52768     52769     52768     52770
     52771     52772     52771     52773     52774     52775     52774     52776
     52777     52778     52777     52779     52780     52781     52780     52782
     52783     52784     52783     52785     52786     52787     52786     52788
     52789     52790     52789     52791     52792     52793     52792     52794
     52795     52796     52795     52797     52798     52799     52798     52800
     52801     52802     52801     52803     52804     52805     52804     52806
     52807     52808     52807     52809     52810     52811     52810     52812
     52813     52814     52813     52815     52816     52817     52816     52818
     52819     52820     52819     52821     52822     52823     52822     52824
     52825     52826     52825     52827     52828     52829     52828     52830
     52831     52832     52831     52833     52834     52835     52834     52836
     52837     52838     52837     52839     52840     52841     52840     52842
     52843     52844     52843     52845     52846     52847     52846     52848
     52849     52850     52849     52851     52852     52853     52852     52854
     52855     52856     52855     52857     52858     52859     52858     52860
     52861     52862     52861     52863     52864     52865     52864     52866
     52867     52868     52867     52869     52870     52871     52870     52872
     52873     52874     52873     52875     52876     52877     52876     52878
     52879     52880     52879     52881     52882     52883     52882     52884
     52885     52886     52885     52887     52888     52889     52888     52890
     52891     52892     52891     52893     52894     52895     52894     52896
     52897     52898     52897     52899     52900     52901     52900     52902
     52903     52904     52903     52905     52906     52907     52906     52908
     52909     52910     52909     52911     52912     52913     52912     52914
     52915     52916     52915     52917     52918     52919     52918     52920
     52921     52922     52921     52923     52924     52925     52924     52926
     52927     52928     52927     52929     52930     52931     52930     52932
     52933     52934     52933     52935     52936     52937     52936     52938
     52939     52940     52939     52941     52942     52943     52942     52944
     52945     52946     52945     52947     52948     52949     52948     52950
     52951     52952     52951     52953     52954     52955     52954     52956
     52957     52958     52957     52959     52960     52961     52960     52962
     52963     52964     52963     52965     52966     52967     52966     52968
     52969     52970     52969     52971     52972     52973     52972     52974
     52975     52976     52975     52977     52978     52979     52978     52980
     52981     52982     52981     52983     52984     52985     52984     52986
     52987     52988     52987     52989     52990     52991     52990     52992
     52993     52994     52993     52995     52996     52997     52996     52998
     52999     53000     52999     53001     53002     53003     53002     53004
     53005     53006     53005     53007     53008     53009     53008     53010
     53011     53012     53011     53013     53014     53015     53014     53016
     53017     53018     53017     53019     53020     53021     53020     53022
     53023     53024     53023     53025     53026     53027     53026     53028
     53029     53030     53029     53031     53032     53033     53032     53034
     53035     53036     53035     53037     53038     53039     53038     53040
     53041     53042     53041     53043     53044     53045     53044     53046
     53047     53048     53047     53049     53050     53051     53050     53052
     53053     53054     53053     53055     53056     53057     53056     53058
     53059     53060     53059     53061     53062     53063     53062     53064
     53065     53066     53065     53067     53068     53069     53068     53070
     53071     53072     53071     53073     53074     53075     53074     53076
     53077     53078     53077     53079     53080     53081     53080     53082
     53083     53084     53083     53085     53086     53087     53086     53088
     53089     53090     53089     53091     53092     53093     53092     53094
     53095     53096     53095     53097     53098     53099     53098     53100
     53101     53102     53101     53103     53104     53105     53104     53106
     53107     53108     53107     53109     53110     53111     53110     53112
     53113     53114     53113     53115     53116     53117     53116     53118
     53119     53120     53119     53121     53122     53123     53122     53124
     53125     53126     53125     53127     53128     53129     53128     53130
     53131     53132     53131     53133     53134     53135     53134     53136
     53137     53138     53137     53139     53140     53141     53140     53142
     53143     53144     53143     53145     53146     53147     53146     53148
     53149     53150     53149     53151     53152     53153     53152     53154
     53155     53156     53155     53157     53158     53159     53158     53160
     53161     53162     53161     53163     53164     53165     53164     53166
     53167     53168     53167     53169     53170     53171     53170     53172
     53173     53174     53173     53175     53176     53177     53176     53178
     53179     53180     53179     53181     53182     53183     53182     53184
     53185     53186     53185     53187     53188     53189     53188     53190
     53191     53192     53191     53193     53194     53195     53194     53196
     53197     53198     53197     53199     53200     53201     53200     53202
     53203     53204     53203     53205     53206     53207     53206     53208
     53209     53210     53209     53211     53212     53213     53212     53214
     53215     53216     53215     53217     53218     53219     53218     53220
     53221     53222     53221     53223     53224     53225     53224     53226
     53227     53228     53227     53229     53230     53231     53230     53232
     53233     53234     53233     53235     53236     53237     53236     53238
     53239     53240     53239     53241     53242     53243     53242     53244
     53245     53246     53245     53247     53248     53249     53248     53250
     53251     53252     53251     53253     53254     53255     53254     53256
     53257     53258     53257     53259     53260     53261     53260     53262
     53263     53264     53263     53265     53266     53267     53266     53268
     53269     53270     53269     53271     53272     53273     53272     53274
     53275     53276     53275     53277     53278     53279     53278     53280
     53281     53282     53281     53283     53284     53285     53284     53286
     53287     53288     53287     53289     53290     53291     53290     53292
     53293     53294     53293     53295     53296     53297     53296     53298
     53299     53300     53299     53301     53302     53303     53302     53304
     53305     53306     53305     53307     53308     53309     53308     53310
     53311     53312     53311     53313     53314     53315     53314     53316
     53317     53318     53317     53319     53320     53321     53320     53322
     53323     53324     53323     53325     53326     53327     53326     53328
     53329     53330     53329     53331     53332     53333     53332     53334
     53335     53336     53335     53337     53338     53339     53338     53340
     53341     53342     53341     53343     53344     53345     53344     53346
     53347     53348     53347     53349     53350     53351     53350     53352
     53353     53354     53353     53355     53356     53357     53356     53358
     53359     53360     53359     53361     53362     53363     53362     53364
     53365     53366     53365     53367     53368     53369     53368     53370
     53371     53372     53371     53373     53374     53375     53374     53376
     53377     53378     53377     53379     53380     53381     53380     53382
     53383     53384     53383     53385     53386     53387     53386     53388
     53389     53390     53389     53391     53392     53393     53392     53394
     53395     53396     53395     53397     53398     53399     53398     53400
     53401     53402     53401     53403     53404     53405     53404     53406
     53407     53408     53407     53409     53410     53411     53410     53412
     53413     53414     53413     53415     53416     53417     53416     53418
     53419     53420     53419     53421     53422     53423     53422     53424
     53425     53426     53425     53427     53428     53429     53428     53430
     53431     53432     53431     53433     53434     53435     53434     53436
     53437     53438     53437     53439     53440     53441     53440     53442
     53443     53444     53443     53445     53446     53447     53446     53448
     53449     53450     53449     53451     53452     53453     53452     53454
     53455     53456     53455     53457     53458     53459     53458     53460
     53461     53462     53461     53463     53464     53465     53464     53466
     53467     53468     53467     53469     53470     53471     53470     53472
     53473     53474     53473     53475     53476     53477     53476     53478
     53479     53480     53479     53481     53482     53483     53482     53484
     53485     53486     53485     53487     53488     53489     53488     53490
     53491     53492     53491     53493     53494     53495     53494     53496
     53497     53498     53497     53499     53500     53501     53500     53502
     53503     53504     53503     53505     53506     53507     53506     53508
     53509     53510     53509     53511     53512     53513     53512     53514
     53515     53516     53515     53517     53518     53519     53518     53520
     53521     53522     53521     53523     53524     53525     53524     53526
     53527     53528     53527     53529     53530     53531     53530     53532
     53533     53534     53533     53535     53536     53537     53536     53538
     53539     53540     53539     53541     53542     53543     53542     53544
     53545     53546     53545     53547     53548     53549     53548     53550
     53551     53552     53551     53553     53554     53555     53554     53556
     53557     53558     53557     53559     53560     53561     53560     53562
     53563     53564     53563     53565     53566     53567     53566     53568
     53569     53570     53569     53571     53572     53573     53572     53574
     53575     53576     53575     53577     53578     53579     53578     53580
     53581     53582     53581     53583     53584     53585     53584     53586
     53587     53588     53587     53589     53590     53591     53590     53592
     53593     53594     53593     53595     53596     53597     53596     53598
     53599     53600     53599     53601     53602     53603     53602     53604
     53605     53606     53605     53607     53608     53609     53608     53610
     53611     53612     53611     53613     53614     53615     53614     53616
     53617     53618     53617     53619     53620     53621     53620     53622
     53623     53624     53623     53625     53626     53627     53626     53628
     53629     53630     53629     53631     53632     53633     53632     53634
     53635     53636     53635     53637     53638     53639     53638     53640
     53641     53642     53641     53643     53644     53645     53644     53646
     53647     53648     53647     53649     53650     53651     53650     53652
     53653     53654     53653     53655     53656     53657     53656     53658
     53659     53660     53659     53661     53662     53663     53662     53664
     53665     53666     53665     53667     53668     53669     53668     53670
     53671     53672     53671     53673     53674     53675     53674     53676
     53677     53678     53677     53679     53680     53681     53680     53682
     53683     53684     53683     53685     53686     53687     53686     53688
     53689     53690     53689     53691     53692     53693     53692     53694
     53695     53696     53695     53697     53698     53699     53698     53700
     53701     53702     53701     53703     53704     53705     53704     53706
     53707     53708     53707     53709     53710     53711     53710     53712
     53713     53714     53713     53715     53716     53717     53716     53718
     53719     53720     53719     53721     53722     53723     53722     53724
     53725     53726     53725     53727     53728     53729     53728     53730
     53731     53732     53731     53733     53734     53735     53734     53736
     53737     53738     53737     53739     53740     53741     53740     53742
     53743     53744     53743     53745     53746     53747     53746     53748
     53749     53750     53749     53751     53752     53753     53752     53754
     53755     53756     53755     53757     53758     53759     53758     53760
     53761     53762     53761     53763     53764     53765     53764     53766
     53767     53768     53767     53769     53770     53771     53770     53772
     53773     53774     53773     53775     53776     53777     53776     53778
     53779     53780     53779     53781     53782     53783     53782     53784
     53785     53786     53785     53787     53788     53789     53788     53790
     53791     53792     53791     53793     53794     53795     53794     53796
     53797     53798     53797     53799     53800     53801     53800     53802
     53803     53804     53803     53805     53806     53807     53806     53808
     53809     53810     53809     53811     53812     53813     53812     53814
     53815     53816     53815     53817     53818     53819     53818     53820
     53821     53822     53821     53823     53824     53825     53824     53826
     53827     53828     53827     53829     53830     53831     53830     53832
     53833     53834     53833     53835     53836     53837     53836     53838
     53839     53840     53839     53841     53842     53843     53842     53844
     53845     53846     53845     53847     53848     53849     53848     53850
     53851     53852     53851     53853     53854     53855     53854     53856
     53857     53858     53857     53859     53860     53861     53860     53862
     53863     53864     53863     53865     53866     53867     53866     53868
     53869     53870     53869     53871     53872     53873     53872     53874
     53875     53876     53875     53877     53878     53879     53878     53880
     53881     53882     53881     53883     53884     53885     53884     53886
     53887     53888     53887     53889     53890     53891     53890     53892
     53893     53894     53893     53895     53896     53897     53896     53898
     53899     53900     53899     53901     53902     53903     53902     53904
     53905     53906     53905     53907     53908     53909     53908     53910
     53911     53912     53911     53913     53914     53915     53914     53916
     53917     53918     53917     53919     53920     53921     53920     53922
     53923     53924     53923     53925     53926     53927     53926     53928
     53929     53930     53929     53931     53932     53933     53932     53934
     53935     53936     53935     53937     53938     53939     53938     53940
     53941     53942     53941     53943     53944     53945     53944     53946
     53947     53948     53947     53949     53950     53951     53950     53952
     53953     53954     53953     53955     53956     53957     53956     53958
     53959     53960     53959     53961     53962     53963     53962     53964
     53965     53966     53965     53967     53968     53969     53968     53970
     53971     53972     53971     53973     53974     53975     53974     53976
     53977     53978     53977     53979     53980     53981     53980     53982
     53983     53984     53983     53985     53986     53987     53986     53988
     53989     53990     53989     53991     53992     53993     53992     53994
     53995     53996     53995     53997     53998     53999     53998     54000
     54001     54002     54001     54003     54004     54005     54004     54006
     54007     54008     54007     54009     54010     54011     54010     54012
     54013     54014     54013     54015     54016     54017     54016     54018
     54019     54020     54019     54021     54022     54023     54022     54024
     54025     54026     54025     54027     54028     54029     54028     54030
     54031     54032     54031     54033     54034     54035     54034     54036
     54037     54038     54037     54039     54040     54041     54040     54042
     54043     54044     54043     54045     54046     54047     54046     54048
     54049     54050     54049     54051     54052     54053     54052     54054
     54055     54056     54055     54057     54058     54059     54058     54060
     54061     54062     54061     54063     54064     54065     54064     54066
     54067     54068     54067     54069     54070     54071     54070     54072
     54073     54074     54073     54075     54076     54077     54076     54078
     54079     54080     54079     54081     54082     54083     54082     54084
     54085     54086     54085     54087     54088     54089     54088     54090
     54091     54092     54091     54093     54094     54095     54094     54096
     54097     54098     54097     54099     54100     54101     54100     54102
     54103     54104     54103     54105     54106     54107     54106     54108
     54109     54110     54109     54111     54112     54113     54112     54114
     54115     54116     54115     54117     54118     54119     54118     54120
     54121     54122     54121     54123     54124     54125     54124     54126
     54127     54128     54127     54129     54130     54131     54130     54132
     54133     54134     54133     54135     54136     54137     54136     54138
     54139     54140     54139     54141     54142     54143     54142     54144
     54145     54146     54145     54147     54148     54149     54148     54150
     54151     54152     54151     54153     54154     54155     54154     54156
     54157     54158     54157     54159     54160     54161     54160     54162
     54163     54164     54163     54165     54166     54167     54166     54168
     54169     54170     54169     54171     54172     54173     54172     54174
     54175     54176     54175     54177     54178     54179     54178     54180
     54181     54182     54181     54183     54184     54185     54184     54186
     54187     54188     54187     54189     54190     54191     54190     54192
     54193     54194     54193     54195     54196     54197     54196     54198
     54199     54200     54199     54201     54202     54203     54202     54204
     54205     54206     54205     54207     54208     54209     54208     54210
     54211     54212     54211     54213     54214     54215     54214     54216
     54217     54218     54217     54219     54220     54221     54220     54222
     54223     54224     54223     54225     54226     54227     54226     54228
     54229     54230     54229     54231     54232     54233     54232     54234
     54235     54236     54235     54237     54238     54239     54238     54240
     54241     54242     54241     54243     54244     54245     54244     54246
     54247     54248     54247     54249     54250     54251     54250     54252
     54253     54254     54253     54255     54256     54257     54256     54258
     54259     54260     54259     54261     54262     54263     54262     54264
     54265     54266     54265     54267     54268     54269     54268     54270
     54271     54272     54271     54273     54274     54275     54274     54276
     54277     54278     54277     54279     54280     54281     54280     54282
     54283     54284     54283     54285     54286     54287     54286     54288
     54289     54290     54289     54291     54292     54293     54292     54294
     54295     54296     54295     54297     54298     54299     54298     54300
     54301     54302     54301     54303     54304     54305     54304     54306
     54307     54308     54307     54309     54310     54311     54310     54312
     54313     54314     54313     54315     54316     54317     54316     54318
     54319     54320     54319     54321     54322     54323     54322     54324
     54325     54326     54325     54327     54328     54329     54328     54330
     54331     54332     54331     54333     54334     54335     54334     54336
     54337     54338     54337     54339     54340     54341     54340     54342
     54343     54344     54343     54345     54346     54347     54346     54348
     54349     54350     54349     54351     54352     54353     54352     54354
     54355     54356     54355     54357     54358     54359     54358     54360
     54361     54362     54361     54363     54364     54365     54364     54366
     54367     54368     54367     54369     54370     54371     54370     54372
     54373     54374     54373     54375     54376     54377     54376     54378
     54379     54380     54379     54381     54382     54383     54382     54384
     54385     54386     54385     54387     54388     54389     54388     54390
     54391     54392     54391     54393     54394     54395     54394     54396
     54397     54398     54397     54399     54400     54401     54400     54402
     54403     54404     54403     54405     54406     54407     54406     54408
     54409     54410     54409     54411     54412     54413     54412     54414
     54415     54416     54415     54417     54418     54419     54418     54420
     54421     54422     54421     54423     54424     54425     54424     54426
     54427     54428     54427     54429     54430     54431     54430     54432
     54433     54434     54433     54435     54436     54437     54436     54438
     54439     54440     54439     54441     54442     54443     54442     54444
     54445     54446     54445     54447     54448     54449     54448     54450
     54451     54452     54451     54453     54454     54455     54454     54456
     54457     54458     54457     54459     54460     54461     54460     54462
     54463     54464     54463     54465     54466     54467     54466     54468
     54469     54470     54469     54471     54472     54473     54472     54474
     54475     54476     54475     54477     54478     54479     54478     54480
     54481     54482     54481     54483     54484     54485     54484     54486
     54487     54488     54487     54489     54490     54491     54490     54492
     54493     54494     54493     54495     54496     54497     54496     54498
     54499     54500     54499     54501     54502     54503     54502     54504
     54505     54506     54505     54507     54508     54509     54508     54510
     54511     54512     54511     54513     54514     54515     54514     54516
     54517     54518     54517     54519     54520     54521     54520     54522
     54523     54524     54523     54525     54526     54527     54526     54528
     54529     54530     54529     54531     54532     54533     54532     54534
     54535     54536     54535     54537     54538     54539     54538     54540
     54541     54542     54541     54543     54544     54545     54544     54546
     54547     54548     54547     54549     54550     54551     54550     54552
     54553     54554     54553     54555     54556     54557     54556     54558
     54559     54560     54559     54561     54562     54563     54562     54564
     54565     54566     54565     54567     54568     54569     54568     54570
     54571     54572     54571     54573     54574     54575     54574     54576
     54577     54578     54577     54579     54580     54581     54580     54582
     54583     54584     54583     54585     54586     54587     54586     54588
     54589     54590     54589     54591     54592     54593     54592     54594
     54595     54596     54595     54597     54598     54599     54598     54600
     54601     54602     54601     54603     54604     54605     54604     54606
     54607     54608     54607     54609     54610     54611     54610     54612
     54613     54614     54613     54615     54616     54617     54616     54618
     54619     54620     54619     54621     54622     54623     54622     54624
     54625     54626     54625     54627     54628     54629     54628     54630
     54631     54632     54631     54633     54634     54635     54634     54636
     54637     54638     54637     54639     54640     54641     54640     54642
     54643     54644     54643     54645     54646     54647     54646     54648
     54649     54650     54649     54651     54652     54653     54652     54654
     54655     54656     54655     54657     54658     54659     54658     54660
     54661     54662     54661     54663     54664     54665     54664     54666
     54667     54668     54667     54669     54670     54671     54670     54672
     54673     54674     54673     54675     54676     54677     54676     54678
     54679     54680     54679     54681     54682     54683     54682     54684
     54685     54686     54685     54687     54688     54689     54688     54690
     54691     54692     54691     54693     54694     54695     54694     54696
     54697     54698     54697     54699     54700     54701     54700     54702
     54703     54704     54703     54705     54706     54707     54706     54708
     54709     54710     54709     54711     54712     54713     54712     54714
     54715     54716     54715     54717     54718     54719     54718     54720
     54721     54722     54721     54723     54724     54725     54724     54726
     54727     54728     54727     54729     54730     54731     54730     54732
     54733     54734     54733     54735     54736     54737     54736     54738
     54739     54740     54739     54741     54742     54743     54742     54744
     54745     54746     54745     54747     54748     54749     54748     54750
     54751     54752     54751     54753     54754     54755     54754     54756
     54757     54758     54757     54759     54760     54761     54760     54762
     54763     54764     54763     54765     54766     54767     54766     54768
     54769     54770     54769     54771     54772     54773     54772     54774
     54775     54776     54775     54777     54778     54779     54778     54780
     54781     54782     54781     54783     54784     54785     54784     54786
     54787     54788     54787     54789     54790     54791     54790     54792
     54793     54794     54793     54795     54796     54797     54796     54798
     54799     54800     54799     54801     54802     54803     54802     54804
     54805     54806     54805     54807     54808     54809     54808     54810
     54811     54812     54811     54813     54814     54815     54814     54816
     54817     54818     54817     54819     54820     54821     54820     54822
     54823     54824     54823     54825     54826     54827     54826     54828
     54829     54830     54829     54831     54832     54833     54832     54834
     54835     54836     54835     54837     54838     54839     54838     54840
     54841     54842     54841     54843     54844     54845     54844     54846
     54847     54848     54847     54849     54850     54851     54850     54852
     54853     54854     54853     54855     54856     54857     54856     54858
     54859     54860     54859     54861     54862     54863     54862     54864
     54865     54866     54865     54867     54868     54869     54868     54870
     54871     54872     54871     54873     54874     54875     54874     54876
     54877     54878     54877     54879     54880     54881     54880     54882
     54883     54884     54883     54885     54886     54887     54886     54888
     54889     54890     54889     54891     54892     54893     54892     54894
     54895     54896     54895     54897     54898     54899     54898     54900
     54901     54902     54901     54903     54904     54905     54904     54906
     54907     54908     54907     54909     54910     54911     54910     54912
     54913     54914     54913     54915     54916     54917     54916     54918
     54919     54920     54919     54921     54922     54923     54922     54924
     54925     54926     54925     54927     54928     54929     54928     54930
     54931     54932     54931     54933     54934     54935     54934     54936
     54937     54938     54937     54939     54940     54941     54940     54942
     54943     54944     54943     54945     54946     54947     54946     54948
     54949     54950     54949     54951     54952     54953     54952     54954
     54955     54956     54955     54957     54958     54959     54958     54960
     54961     54962     54961     54963     54964     54965     54964     54966
     54967     54968     54967     54969     54970     54971     54970     54972
     54973     54974     54973     54975     54976     54977     54976     54978
     54979     54980     54979     54981     54982     54983     54982     54984
     54985     54986     54985     54987     54988     54989     54988     54990
     54991     54992     54991     54993     54994     54995     54994     54996
     54997     54998     54997     54999     55000     55001     55000     55002
     55003     55004     55003     55005     55006     55007     55006     55008
     55009     55010     55009     55011     55012     55013     55012     55014
     55015     55016     55015     55017     55018     55019     55018     55020
     55021     55022     55021     55023     55024     55025     55024     55026
     55027     55028     55027     55029     55030     55031     55030     55032
     55033     55034     55033     55035     55036     55037     55036     55038
     55039     55040     55039     55041     55042     55043     55042     55044
     55045     55046     55045     55047     55048     55049     55048     55050
     55051     55052     55051     55053     55054     55055     55054     55056
     55057     55058     55057     55059     55060     55061     55060     55062
     55063     55064     55063     55065     55066     55067     55066     55068
     55069     55070     55069     55071     55072     55073     55072     55074
     55075     55076     55075     55077     55078     55079     55078     55080
     55081     55082     55081     55083     55084     55085     55084     55086
     55087     55088     55087     55089     55090     55091     55090     55092
     55093     55094     55093     55095     55096     55097     55096     55098
     55099     55100     55099     55101     55102     55103     55102     55104
     55105     55106     55105     55107     55108     55109     55108     55110
     55111     55112     55111     55113     55114     55115     55114     55116
     55117     55118     55117     55119     55120     55121     55120     55122
     55123     55124     55123     55125     55126     55127     55126     55128
     55129     55130     55129     55131     55132     55133     55132     55134
     55135     55136     55135     55137     55138     55139     55138     55140
     55141     55142     55141     55143     55144     55145     55144     55146
     55147     55148     55147     55149     55150     55151     55150     55152
     55153     55154     55153     55155     55156     55157     55156     55158
     55159     55160     55159     55161     55162     55163     55162     55164
     55165     55166     55165     55167     55168     55169     55168     55170
     55171     55172     55171     55173     55174     55175     55174     55176
     55177     55178     55177     55179     55180     55181     55180     55182
     55183     55184     55183     55185     55186     55187     55186     55188
     55189     55190     55189     55191     55192     55193     55192     55194
     55195     55196     55195     55197     55198     55199     55198     55200
     55201     55202     55201     55203     55204     55205     55204     55206
     55207     55208     55207     55209     55210     55211     55210     55212
     55213     55214     55213     55215     55216     55217     55216     55218
     55219     55220     55219     55221     55222     55223     55222     55224
     55225     55226     55225     55227     55228     55229     55228     55230
     55231     55232     55231     55233     55234     55235     55234     55236
     55237     55238     55237     55239     55240     55241     55240     55242
     55243     55244     55243     55245     55246     55247     55246     55248
     55249     55250     55249     55251     55252     55253     55252     55254
     55255     55256     55255     55257     55258     55259     55258     55260
     55261     55262     55261     55263     55264     55265     55264     55266
     55267     55268     55267     55269     55270     55271     55270     55272
     55273     55274     55273     55275     55276     55277     55276     55278
     55279     55280     55279     55281     55282     55283     55282     55284
     55285     55286     55285     55287     55288     55289     55288     55290
     55291     55292     55291     55293     55294     55295     55294     55296
     55297     55298     55297     55299     55300     55301     55300     55302
     55303     55304     55303     55305     55306     55307     55306     55308
     55309     55310     55309     55311     55312     55313     55312     55314
     55315     55316     55315     55317     55318     55319     55318     55320
     55321     55322     55321     55323     55324     55325     55324     55326
     55327     55328     55327     55329     55330     55331     55330     55332
     55333     55334     55333     55335     55336     55337     55336     55338
     55339     55340     55339     55341     55342     55343     55342     55344
     55345     55346     55345     55347     55348     55349     55348     55350
     55351     55352     55351     55353     55354     55355     55354     55356
     55357     55358     55357     55359     55360     55361     55360     55362
     55363     55364     55363     55365     55366     55367     55366     55368
     55369     55370     55369     55371     55372     55373     55372     55374
     55375     55376     55375     55377     55378     55379     55378     55380
     55381     55382     55381     55383     55384     55385     55384     55386
     55387     55388     55387     55389     55390     55391     55390     55392
     55393     55394     55393     55395     55396     55397     55396     55398
     55399     55400     55399     55401     55402     55403     55402     55404
     55405     55406     55405     55407     55408     55409     55408     55410
     55411     55412     55411     55413     55414     55415     55414     55416
     55417     55418     55417     55419     55420     55421     55420     55422
     55423     55424     55423     55425     55426     55427     55426     55428
     55429     55430     55429     55431     55432     55433     55432     55434
     55435     55436     55435     55437     55438     55439     55438     55440
     55441     55442     55441     55443     55444     55445     55444     55446
     55447     55448     55447     55449     55450     55451     55450     55452
     55453     55454     55453     55455     55456     55457     55456     55458
     55459     55460     55459     55461     55462     55463     55462     55464
     55465     55466     55465     55467     55468     55469     55468     55470
     55471     55472     55471     55473     55474     55475     55474     55476
     55477     55478     55477     55479     55480     55481     55480     55482
     55483     55484     55483     55485     55486     55487     55486     55488
     55489     55490     55489     55491     55492     55493     55492     55494
     55495     55496     55495     55497     55498     55499     55498     55500
     55501     55502     55501     55503     55504     55505     55504     55506
     55507     55508     55507     55509     55510     55511     55510     55512
     55513     55514     55513     55515     55516     55517     55516     55518
     55519     55520     55519     55521     55522     55523     55522     55524
     55525     55526     55525     55527     55528     55529     55528     55530
     55531     55532     55531     55533     55534     55535     55534     55536
     55537     55538     55537     55539     55540     55541     55540     55542
     55543     55544     55543     55545     55546     55547     55546     55548
     55549     55550     55549     55551     55552     55553     55552     55554
     55555     55556     55555     55557     55558     55559     55558     55560
     55561     55562     55561     55563     55564     55565     55564     55566
     55567     55568     55567     55569     55570     55571     55570     55572
     55573     55574     55573     55575     55576     55577     55576     55578
     55579     55580     55579     55581     55582     55583     55582     55584
     55585     55586     55585     55587     55588     55589     55588     55590
     55591     55592     55591     55593     55594     55595     55594     55596
     55597     55598     55597     55599     55600     55601     55600     55602
     55603     55604     55603     55605     55606     55607     55606     55608
     55609     55610     55609     55611     55612     55613     55612     55614
     55615     55616     55615     55617     55618     55619     55618     55620
     55621     55622     55621     55623     55624     55625     55624     55626
     55627     55628     55627     55629     55630     55631     55630     55632
     55633     55634     55633     55635     55636     55637     55636     55638
     55639     55640     55639     55641     55642     55643     55642     55644
     55645     55646     55645     55647     55648     55649     55648     55650
     55651     55652     55651     55653     55654     55655     55654     55656
     55657     55658     55657     55659     55660     55661     55660     55662
     55663     55664     55663     55665     55666     55667     55666     55668
     55669     55670     55669     55671     55672     55673     55672     55674
     55675     55676     55675     55677     55678     55679     55678     55680
     55681     55682     55681     55683     55684     55685     55684     55686
     55687     55688     55687     55689     55690     55691     55690     55692
     55693     55694     55693     55695     55696     55697     55696     55698
     55699     55700     55699     55701     55702     55703     55702     55704
     55705     55706     55705     55707     55708     55709     55708     55710
     55711     55712     55711     55713     55714     55715     55714     55716
     55717     55718     55717     55719     55720     55721     55720     55722
     55723     55724     55723     55725     55726     55727     55726     55728
     55729     55730     55729     55731     55732     55733     55732     55734
     55735     55736     55735     55737     55738     55739     55738     55740
     55741     55742     55741     55743     55744     55745     55744     55746
     55747     55748     55747     55749     55750     55751     55750     55752
     55753     55754     55753     55755     55756     55757     55756     55758
     55759     55760     55759     55761     55762     55763     55762     55764
     55765     55766     55765     55767     55768     55769     55768     55770
     55771     55772     55771     55773     55774     55775     55774     55776
     55777     55778     55777     55779     55780     55781     55780     55782
     55783     55784     55783     55785     55786     55787     55786     55788
     55789     55790     55789     55791     55792     55793     55792     55794
     55795     55796     55795     55797     55798     55799     55798     55800
     55801     55802     55801     55803     55804     55805     55804     55806
     55807     55808     55807     55809     55810     55811     55810     55812
     55813     55814     55813     55815     55816     55817     55816     55818
     55819     55820     55819     55821     55822     55823     55822     55824
     55825     55826     55825     55827     55828     55829     55828     55830
     55831     55832     55831     55833     55834     55835     55834     55836
     55837     55838     55837     55839     55840     55841     55840     55842
     55843     55844     55843     55845     55846     55847     55846     55848
     55849     55850     55849     55851     55852     55853     55852     55854
     55855     55856     55855     55857     55858     55859     55858     55860
     55861     55862     55861     55863     55864     55865     55864     55866
     55867     55868     55867     55869     55870     55871     55870     55872
     55873     55874     55873     55875     55876     55877     55876     55878
     55879     55880     55879     55881     55882     55883     55882     55884
     55885     55886     55885     55887     55888     55889     55888     55890
     55891     55892     55891     55893     55894     55895     55894     55896
     55897     55898     55897     55899     55900     55901     55900     55902
     55903     55904     55903     55905     55906     55907     55906     55908
     55909     55910     55909     55911     55912     55913     55912     55914
     55915     55916     55915     55917     55918     55919     55918     55920
     55921     55922     55921     55923     55924     55925     55924     55926
     55927     55928     55927     55929     55930     55931     55930     55932
     55933     55934     55933     55935     55936     55937     55936     55938
     55939     55940     55939     55941     55942     55943     55942     55944
     55945     55946     55945     55947     55948     55949     55948     55950
     55951     55952     55951     55953     55954     55955     55954     55956
     55957     55958     55957     55959     55960     55961     55960     55962
     55963     55964     55963     55965     55966     55967     55966     55968
     55969     55970     55969     55971     55972     55973     55972     55974
     55975     55976     55975     55977     55978     55979     55978     55980
     55981     55982     55981     55983     55984     55985     55984     55986
     55987     55988     55987     55989     55990     55991     55990     55992
     55993     55994     55993     55995     55996     55997     55996     55998
     55999     56000     55999     56001     56002     56003     56002     56004
     56005     56006     56005     56007     56008     56009     56008     56010
     56011     56012     56011     56013     56014     56015     56014     56016
     56017     56018     56017     56019     56020     56021     56020     56022
     56023     56024     56023     56025     56026     56027     56026     56028
     56029     56030     56029     56031     56032     56033     56032     56034
     56035     56036     56035     56037     56038     56039     56038     56040
     56041     56042     56041     56043     56044     56045     56044     56046
     56047     56048     56047     56049     56050     56051     56050     56052
     56053     56054     56053     56055     56056     56057     56056     56058
     56059     56060     56059     56061     56062     56063     56062     56064
     56065     56066     56065     56067     56068     56069     56068     56070
     56071     56072     56071     56073     56074     56075     56074     56076
     56077     56078     56077     56079     56080     56081     56080     56082
     56083     56084     56083     56085     56086     56087     56086     56088
     56089     56090     56089     56091     56092     56093     56092     56094
     56095     56096     56095     56097     56098     56099     56098     56100
     56101     56102     56101     56103     56104     56105     56104     56106
     56107     56108     56107     56109     56110     56111     56110     56112
     56113     56114     56113     56115     56116     56117     56116     56118
     56119     56120     56119     56121     56122     56123     56122     56124
     56125     56126     56125     56127     56128     56129     56128     56130
     56131     56132     56131     56133     56134     56135     56134     56136
     56137     56138     56137     56139     56140     56141     56140     56142
     56143     56144     56143     56145     56146     56147     56146     56148
     56149     56150     56149     56151     56152     56153     56152     56154
     56155     56156     56155     56157     56158     56159     56158     56160
     56161     56162     56161     56163     56164     56165     56164     56166
     56167     56168     56167     56169     56170     56171     56170     56172
     56173     56174     56173     56175     56176     56177     56176     56178
     56179     56180     56179     56181     56182     56183     56182     56184
     56185     56186     56185     56187     56188     56189     56188     56190
     56191     56192     56191     56193     56194     56195     56194     56196
     56197     56198     56197     56199     56200     56201     56200     56202
     56203     56204     56203     56205     56206     56207     56206     56208
     56209     56210     56209     56211     56212     56213     56212     56214
     56215     56216     56215     56217     56218     56219     56218     56220
     56221     56222     56221     56223     56224     56225     56224     56226
     56227     56228     56227     56229     56230     56231     56230     56232
     56233     56234     56233     56235     56236     56237     56236     56238
     56239     56240     56239     56241     56242     56243     56242     56244
     56245     56246     56245     56247     56248     56249     56248     56250
     56251     56252     56251     56253     56254     56255     56254     56256
     56257     56258     56257     56259     56260     56261     56260     56262
     56263     56264     56263     56265     56266     56267     56266     56268
     56269     56270     56269     56271     56272     56273     56272     56274
     56275     56276     56275     56277     56278     56279     56278     56280
     56281     56282     56281     56283     56284     56285     56284     56286
     56287     56288     56287     56289     56290     56291     56290     56292
     56293     56294     56293     56295     56296     56297     56296     56298
     56299     56300     56299     56301     56302     56303     56302     56304
     56305     56306     56305     56307     56308     56309     56308     56310
     56311     56312     56311     56313     56314     56315     56314     56316
     56317     56318     56317     56319     56320     56321     56320     56322
     56323     56324     56323     56325     56326     56327     56326     56328
     56329     56330     56329     56331     56332     56333     56332     56334
     56335     56336     56335     56337     56338     56339     56338     56340
     56341     56342     56341     56343     56344     56345     56344     56346
     56347     56348     56347     56349     56350     56351     56350     56352
     56353     56354     56353     56355     56356     56357     56356     56358
     56359     56360     56359     56361     56362     56363     56362     56364
     56365     56366     56365     56367     56368     56369     56368     56370
     56371     56372     56371     56373     56374     56375     56374     56376
     56377     56378     56377     56379     56380     56381     56380     56382
     56383     56384     56383     56385     56386     56387     56386     56388
     56389     56390     56389     56391     56392     56393     56392     56394
     56395     56396     56395     56397     56398     56399     56398     56400
     56401     56402     56401     56403     56404     56405     56404     56406
     56407     56408     56407     56409     56410     56411     56410     56412
     56413     56414     56413     56415     56416     56417     56416     56418
     56419     56420     56419     56421     56422     56423     56422     56424
     56425     56426     56425     56427     56428     56429     56428     56430
     56431     56432     56431     56433     56434     56435     56434     56436
     56437     56438     56437     56439     56440     56441     56440     56442
     56443     56444     56443     56445     56446     56447     56446     56448
     56449     56450     56449     56451     56452     56453     56452     56454
     56455     56456     56455     56457     56458     56459     56458     56460
     56461     56462     56461     56463     56464     56465     56464     56466
     56467     56468     56467     56469     56470     56471     56470     56472
     56473     56474     56473     56475     56476     56477     56476     56478
     56479     56480     56479     56481     56482     56483     56482     56484
     56485     56486     56485     56487     56488     56489     56488     56490
     56491     56492     56491     56493     56494     56495     56494     56496
     56497     56498     56497     56499     56500     56501     56500     56502
     56503     56504     56503     56505     56506     56507     56506     56508
     56509     56510     56509     56511     56512     56513     56512     56514
     56515     56516     56515     56517     56518     56519     56518     56520
     56521     56522     56521     56523     56524     56525     56524     56526
     56527     56528     56527     56529     56530     56531     56530     56532
     56533     56534     56533     56535     56536     56537     56536     56538
     56539     56540     56539     56541     56542     56543     56542     56544
     56545     56546     56545     56547     56548     56549     56548     56550
     56551     56552     56551     56553     56554     56555     56554     56556
     56557     56558     56557     56559     56560     56561     56560     56562
     56563     56564     56563     56565     56566     56567     56566     56568
     56569     56570     56569     56571     56572     56573     56572     56574
     56575     56576     56575     56577     56578     56579     56578     56580
     56581     56582     56581     56583     56584     56585     56584     56586
     56587     56588     56587     56589     56590     56591     56590     56592
     56593     56594     56593     56595     56596     56597     56596     56598
     56599     56600     56599     56601     56602     56603     56602     56604
     56605     56606     56605     56607     56608     56609     56608     56610
     56611     56612     56611     56613     56614     56615     56614     56616
     56617     56618     56617     56619     56620     56621     56620     56622
     56623     56624     56623     56625     56626     56627     56626     56628
     56629     56630     56629     56631     56632     56633     56632     56634
     56635     56636     56635     56637     56638     56639     56638     56640
     56641     56642     56641     56643     56644     56645     56644     56646
     56647     56648     56647     56649     56650     56651     56650     56652
     56653     56654     56653     56655     56656     56657     56656     56658
     56659     56660     56659     56661     56662     56663     56662     56664
     56665     56666     56665     56667     56668     56669     56668     56670
     56671     56672     56671     56673     56674     56675     56674     56676
     56677     56678     56677     56679     56680     56681     56680     56682
     56683     56684     56683     56685     56686     56687     56686     56688
     56689     56690     56689     56691     56692     56693     56692     56694
     56695     56696     56695     56697     56698     56699     56698     56700
     56701     56702     56701     56703     56704     56705     56704     56706
     56707     56708     56707     56709     56710     56711     56710     56712
     56713     56714     56713     56715     56716     56717     56716     56718
     56719     56720     56719     56721     56722     56723     56722     56724
     56725     56726     56725     56727     56728     56729     56728     56730
     56731     56732     56731     56733     56734     56735     56734     56736
     56737     56738     56737     56739     56740     56741     56740     56742
     56743     56744     56743     56745     56746     56747     56746     56748
     56749     56750     56749     56751     56752     56753     56752     56754
     56755     56756     56755     56757     56758     56759     56758     56760
     56761     56762     56761     56763     56764     56765     56764     56766
     56767     56768     56767     56769     56770     56771     56770     56772
     56773     56774     56773     56775     56776     56777     56776     56778
     56779     56780     56779     56781     56782     56783     56782     56784
     56785     56786     56785     56787     56788     56789     56788     56790
     56791     56792     56791     56793     56794     56795     56794     56796
     56797     56798     56797     56799     56800     56801     56800     56802
     56803     56804     56803     56805     56806     56807     56806     56808
     56809     56810     56809     56811     56812     56813     56812     56814
     56815     56816     56815     56817     56818     56819     56818     56820
     56821     56822     56821     56823     56824     56825     56824     56826
     56827     56828     56827     56829     56830     56831     56830     56832
     56833     56834     56833     56835     56836     56837     56836     56838
     56839     56840     56839     56841     56842     56843     56842     56844
     56845     56846     56845     56847     56848     56849     56848     56850
     56851     56852     56851     56853     56854     56855     56854     56856
     56857     56858     56857     56859     56860     56861     56860     56862
     56863     56864     56863     56865     56866     56867     56866     56868
     56869     56870     56869     56871     56872     56873     56872     56874
     56875     56876     56875     56877     56878     56879     56878     56880
     56881     56882     56881     56883     56884     56885     56884     56886
     56887     56888     56887     56889     56890     56891     56890     56892
     56893     56894     56893     56895     56896     56897     56896     56898
     56899     56900     56899     56901     56902     56903     56902     56904
     56905     56906     56905     56907     56908     56909     56908     56910
     56911     56912     56911     56913     56914     56915     56914     56916
     56917     56918     56917     56919     56920     56921     56920     56922
     56923     56924     56923     56925     56926     56927     56926     56928
     56929     56930     56929     56931     56932     56933     56932     56934
     56935     56936     56935     56937     56938     56939     56938     56940
     56941     56942     56941     56943     56944     56945     56944     56946
     56947     56948     56947     56949     56950     56951     56950     56952
     56953     56954     56953     56955     56956     56957     56956     56958
     56959     56960     56959     56961     56962     56963     56962     56964
     56965     56966     56965     56967     56968     56969     56968     56970
     56971     56972     56971     56973     56974     56975     56974     56976
     56977     56978     56977     56979     56980     56981     56980     56982
     56983     56984     56983     56985     56986     56987     56986     56988
     56989     56990     56989     56991     56992     56993     56992     56994
     56995     56996     56995     56997     56998     56999     56998     57000
     57001     57002     57001     57003     57004     57005     57004     57006
     57007     57008     57007     57009     57010     57011     57010     57012
     57013     57014     57013     57015     57016     57017     57016     57018
     57019     57020     57019     57021     57022     57023     57022     57024
     57025     57026     57025     57027     57028     57029     57028     57030
     57031     57032     57031     57033     57034     57035     57034     57036
     57037     57038     57037     57039     57040     57041     57040     57042
     57043     57044     57043     57045     57046     57047     57046     57048
     57049     57050     57049     57051     57052     57053     57052     57054
     57055     57056     57055     57057     57058     57059     57058     57060
     57061     57062     57061     57063     57064     57065     57064     57066
     57067     57068     57067     57069     57070     57071     57070     57072
     57073     57074     57073     57075     57076     57077     57076     57078
     57079     57080     57079     57081     57082     57083     57082     57084
     57085     57086     57085     57087     57088     57089     57088     57090
     57091     57092     57091     57093     57094     57095     57094     57096
     57097     57098     57097     57099     57100     57101     57100     57102
     57103     57104     57103     57105     57106     57107     57106     57108
     57109     57110     57109     57111     57112     57113     57112     57114
     57115     57116     57115     57117     57118     57119     57118     57120
     57121     57122     57121     57123     57124     57125     57124     57126
     57127     57128     57127     57129     57130     57131     57130     57132
     57133     57134     57133     57135     57136     57137     57136     57138
     57139     57140     57139     57141     57142     57143     57142     57144
     57145     57146     57145     57147     57148     57149     57148     57150
     57151     57152     57151     57153     57154     57155     57154     57156
     57157     57158     57157     57159     57160     57161     57160     57162
     57163     57164     57163     57165     57166     57167     57166     57168
     57169     57170     57169     57171     57172     57173     57172     57174
     57175     57176     57175     57177     57178     57179     57178     57180
     57181     57182     57181     57183     57184     57185     57184     57186
     57187     57188     57187     57189     57190     57191     57190     57192
     57193     57194     57193     57195     57196     57197     57196     57198
     57199     57200     57199     57201     57202     57203     57202     57204
     57205     57206     57205     57207     57208     57209     57208     57210
     57211     57212     57211     57213     57214     57215     57214     57216
     57217     57218     57217     57219     57220     57221     57220     57222
     57223     57224     57223     57225     57226     57227     57226     57228
     57229     57230     57229     57231     57232     57233     57232     57234
     57235     57236     57235     57237     57238     57239     57238     57240
     57241     57242     57241     57243     57244     57245     57244     57246
     57247     57248     57247     57249     57250     57251     57250     57252
     57253     57254     57253     57255     57256     57257     57256     57258
     57259     57260     57259     57261     57262     57263     57262     57264
     57265     57266     57265     57267     57268     57269     57268     57270
     57271     57272     57271     57273     57274     57275     57274     57276
     57277     57278     57277     57279     57280     57281     57280     57282
     57283     57284     57283     57285     57286     57287     57286     57288
     57289     57290     57289     57291     57292     57293     57292     57294
     57295     57296     57295     57297     57298     57299     57298     57300
     57301     57302     57301     57303     57304     57305     57304     57306
     57307     57308     57307     57309     57310     57311     57310     57312
     57313     57314     57313     57315     57316     57317     57316     57318
     57319     57320     57319     57321     57322     57323     57322     57324
     57325     57326     57325     57327     57328     57329     57328     57330
     57331     57332     57331     57333     57334     57335     57334     57336
     57337     57338     57337     57339     57340     57341     57340     57342
     57343     57344     57343     57345     57346     57347     57346     57348
     57349     57350     57349     57351     57352     57353     57352     57354
     57355     57356     57355     57357     57358     57359     57358     57360
     57361     57362     57361     57363     57364     57365     57364     57366
     57367     57368     57367     57369     57370     57371     57370     57372
     57373     57374     57373     57375     57376     57377     57376     57378
     57379     57380     57379     57381     57382     57383     57382     57384
     57385     57386     57385     57387     57388     57389     57388     57390
     57391     57392     57391     57393     57394     57395     57394     57396
     57397     57398     57397     57399     57400     57401     57400     57402
     57403     57404     57403     57405     57406     57407     57406     57408
     57409     57410     57409     57411     57412     57413     57412     57414
     57415     57416     57415     57417     57418     57419     57418     57420
     57421     57422     57421     57423     57424     57425     57424     57426
     57427     57428     57427     57429     57430     57431     57430     57432
     57433     57434     57433     57435     57436     57437     57436     57438
     57439     57440     57439     57441     57442     57443     57442     57444
     57445     57446     57445     57447     57448     57449     57448     57450
     57451     57452     57451     57453     57454     57455     57454     57456
     57457     57458     57457     57459     57460     57461     57460     57462
     57463     57464     57463     57465     57466     57467     57466     57468
     57469     57470     57469     57471     57472     57473     57472     57474
     57475     57476     57475     57477     57478     57479     57478     57480
     57481     57482     57481     57483     57484     57485     57484     57486
     57487     57488     57487     57489     57490     57491     57490     57492
     57493     57494     57493     57495     57496     57497     57496     57498
     57499     57500     57499     57501     57502     57503     57502     57504
     57505     57506     57505     57507     57508     57509     57508     57510
     57511     57512     57511     57513     57514     57515     57514     57516
     57517     57518     57517     57519     57520     57521     57520     57522
     57523     57524     57523     57525     57526     57527     57526     57528
     57529     57530     57529     57531     57532     57533     57532     57534
     57535     57536     57535     57537     57538     57539     57538     57540
     57541     57542     57541     57543     57544     57545     57544     57546
     57547     57548     57547     57549     57550     57551     57550     57552
     57553     57554     57553     57555     57556     57557     57556     57558
     57559     57560     57559     57561     57562     57563     57562     57564
     57565     57566     57565     57567     57568     57569     57568     57570
     57571     57572     57571     57573     57574     57575     57574     57576
     57577     57578     57577     57579     57580     57581     57580     57582
     57583     57584     57583     57585     57586     57587     57586     57588
     57589     57590     57589     57591     57592     57593     57592     57594
     57595     57596     57595     57597     57598     57599     57598     57600
     57601     57602     57601     57603     57604     57605     57604     57606
     57607     57608     57607     57609     57610     57611     57610     57612
     57613     57614     57613     57615     57616     57617     57616     57618
     57619     57620     57619     57621     57622     57623     57622     57624
     57625     57626     57625     57627     57628     57629     57628     57630
     57631     57632     57631     57633     57634     57635     57634     57636
     57637     57638     57637     57639     57640     57641     57640     57642
     57643     57644     57643     57645     57646     57647     57646     57648
     57649     57650     57649     57651     57652     57653     57652     57654
     57655     57656     57655     57657     57658     57659     57658     57660
     57661     57662     57661     57663     57664     57665     57664     57666
     57667     57668     57667     57669     57670     57671     57670     57672
     57673     57674     57673     57675     57676     57677     57676     57678
     57679     57680     57679     57681     57682     57683     57682     57684
     57685     57686     57685     57687     57688     57689     57688     57690
     57691     57692     57691     57693     57694     57695     57694     57696
     57697     57698     57697     57699     57700     57701     57700     57702
     57703     57704     57703     57705     57706     57707     57706     57708
     57709     57710     57709     57711     57712     57713     57712     57714
     57715     57716     57715     57717     57718     57719     57718     57720
     57721     57722     57721     57723     57724     57725     57724     57726
     57727     57728     57727     57729     57730     57731     57730     57732
     57733     57734     57733     57735     57736     57737     57736     57738
     57739     57740     57739     57741     57742     57743     57742     57744
     57745     57746     57745     57747     57748     57749     57748     57750
     57751     57752     57751     57753     57754     57755     57754     57756
     57757     57758     57757     57759     57760     57761     57760     57762
     57763     57764     57763     57765     57766     57767     57766     57768
     57769     57770     57769     57771     57772     57773     57772     57774
     57775     57776     57775     57777     57778     57779     57778     57780
     57781     57782     57781     57783     57784     57785     57784     57786
     57787     57788     57787     57789     57790     57791     57790     57792
     57793     57794     57793     57795     57796     57797     57796     57798
     57799     57800     57799     57801     57802     57803     57802     57804
     57805     57806     57805     57807     57808     57809     57808     57810
     57811     57812     57811     57813     57814     57815     57814     57816
     57817     57818     57817     57819     57820     57821     57820     57822
     57823     57824     57823     57825     57826     57827     57826     57828
     57829     57830     57829     57831     57832     57833     57832     57834
     57835     57836     57835     57837     57838     57839     57838     57840
     57841     57842     57841     57843     57844     57845     57844     57846
     57847     57848     57847     57849     57850     57851     57850     57852
     57853     57854     57853     57855     57856     57857     57856     57858
     57859     57860     57859     57861     57862     57863     57862     57864
     57865     57866     57865     57867     57868     57869     57868     57870
     57871     57872     57871     57873     57874     57875     57874     57876
     57877     57878     57877     57879     57880     57881     57880     57882
     57883     57884     57883     57885     57886     57887     57886     57888
     57889     57890     57889     57891     57892     57893     57892     57894
     57895     57896     57895     57897     57898     57899     57898     57900
     57901     57902     57901     57903     57904     57905     57904     57906
     57907     57908     57907     57909     57910     57911     57910     57912
     57913     57914     57913     57915     57916     57917     57916     57918
     57919     57920     57919     57921     57922     57923     57922     57924
     57925     57926     57925     57927     57928     57929     57928     57930
     57931     57932     57931     57933     57934     57935     57934     57936
     57937     57938     57937     57939     57940     57941     57940     57942
     57943     57944     57943     57945     57946     57947     57946     57948
     57949     57950     57949     57951     57952     57953     57952     57954
     57955     57956     57955     57957     57958     57959     57958     57960
     57961     57962     57961     57963     57964     57965     57964     57966
     57967     57968     57967     57969     57970     57971     57970     57972
     57973     57974     57973     57975     57976     57977     57976     57978
     57979     57980     57979     57981     57982     57983     57982     57984
     57985     57986     57985     57987     57988     57989     57988     57990
     57991     57992     57991     57993     57994     57995     57994     57996
     57997     57998     57997     57999     58000     58001     58000     58002
     58003     58004     58003     58005     58006     58007     58006     58008
     58009     58010     58009     58011     58012     58013     58012     58014
     58015     58016     58015     58017     58018     58019     58018     58020
     58021     58022     58021     58023     58024     58025     58024     58026
     58027     58028     58027     58029     58030     58031     58030     58032
     58033     58034     58033     58035     58036     58037     58036     58038
     58039     58040     58039     58041     58042     58043     58042     58044
     58045     58046     58045     58047     58048     58049     58048     58050
     58051     58052     58051     58053     58054     58055     58054     58056
     58057     58058     58057     58059     58060     58061     58060     58062
     58063     58064     58063     58065     58066     58067     58066     58068
     58069     58070     58069     58071     58072     58073     58072     58074
     58075     58076     58075     58077     58078     58079     58078     58080
     58081     58082     58081     58083     58084     58085     58084     58086
     58087     58088     58087     58089     58090     58091     58090     58092
     58093     58094     58093     58095     58096     58097     58096     58098
     58099     58100     58099     58101     58102     58103     58102     58104
     58105     58106     58105     58107     58108     58109     58108     58110
     58111     58112     58111     58113     58114     58115     58114     58116
     58117     58118     58117     58119     58120     58121     58120     58122
     58123     58124     58123     58125     58126     58127     58126     58128
     58129     58130     58129     58131     58132     58133     58132     58134
     58135     58136     58135     58137     58138     58139     58138     58140
     58141     58142     58141     58143     58144     58145     58144     58146
     58147     58148     58147     58149     58150     58151     58150     58152
     58153     58154     58153     58155     58156     58157     58156     58158
     58159     58160     58159     58161     58162     58163     58162     58164
     58165     58166     58165     58167     58168     58169     58168     58170
     58171     58172     58171     58173     58174     58175     58174     58176
     58177     58178     58177     58179     58180     58181     58180     58182
     58183     58184     58183     58185     58186     58187     58186     58188
     58189     58190     58189     58191     58192     58193     58192     58194
     58195     58196     58195     58197     58198     58199     58198     58200
     58201     58202     58201     58203     58204     58205     58204     58206
     58207     58208     58207     58209     58210     58211     58210     58212
     58213     58214     58213     58215     58216     58217     58216     58218
     58219     58220     58219     58221     58222     58223     58222     58224
     58225     58226     58225     58227     58228     58229     58228     58230
     58231     58232     58231     58233     58234     58235     58234     58236
     58237     58238     58237     58239     58240     58241     58240     58242
     58243     58244     58243     58245     58246     58247     58246     58248
     58249     58250     58249     58251     58252     58253     58252     58254
     58255     58256     58255     58257     58258     58259     58258     58260
     58261     58262     58261     58263     58264     58265     58264     58266
     58267     58268     58267     58269     58270     58271     58270     58272
     58273     58274     58273     58275     58276     58277     58276     58278
     58279     58280     58279     58281     58282     58283     58282     58284
     58285     58286     58285     58287     58288     58289     58288     58290
     58291     58292     58291     58293     58294     58295     58294     58296
     58297     58298     58297     58299     58300     58301     58300     58302
     58303     58304     58303     58305     58306     58307     58306     58308
     58309     58310     58309     58311     58312     58313     58312     58314
     58315     58316     58315     58317     58318     58319     58318     58320
     58321     58322     58321     58323     58324     58325     58324     58326
     58327     58328     58327     58329     58330     58331     58330     58332
     58333     58334     58333     58335     58336     58337     58336     58338
     58339     58340     58339     58341     58342     58343     58342     58344
     58345     58346     58345     58347     58348     58349     58348     58350
     58351     58352     58351     58353     58354     58355     58354     58356
     58357     58358     58357     58359     58360     58361     58360     58362
     58363     58364     58363     58365     58366     58367     58366     58368
     58369     58370     58369     58371     58372     58373     58372     58374
     58375     58376     58375     58377     58378     58379     58378     58380
     58381     58382     58381     58383     58384     58385     58384     58386
     58387     58388     58387     58389     58390     58391     58390     58392
     58393     58394     58393     58395     58396     58397     58396     58398
     58399     58400     58399     58401     58402     58403     58402     58404
     58405     58406     58405     58407     58408     58409     58408     58410
     58411     58412     58411     58413     58414     58415     58414     58416
     58417     58418     58417     58419     58420     58421     58420     58422
     58423     58424     58423     58425     58426     58427     58426     58428
     58429     58430     58429     58431     58432     58433     58432     58434
     58435     58436     58435     58437     58438     58439     58438     58440
     58441     58442     58441     58443     58444     58445     58444     58446
     58447     58448     58447     58449     58450     58451     58450     58452
     58453     58454     58453     58455     58456     58457     58456     58458
     58459     58460     58459     58461     58462     58463     58462     58464
     58465     58466     58465     58467     58468     58469     58468     58470
     58471     58472     58471     58473     58474     58475     58474     58476
     58477     58478     58477     58479     58480     58481     58480     58482
     58483     58484     58483     58485     58486     58487     58486     58488
     58489     58490     58489     58491     58492     58493     58492     58494
     58495     58496     58495     58497     58498     58499     58498     58500
     58501     58502     58501     58503     58504     58505     58504     58506
     58507     58508     58507     58509     58510     58511     58510     58512
     58513     58514     58513     58515     58516     58517     58516     58518
     58519     58520     58519     58521     58522     58523     58522     58524
     58525     58526     58525     58527     58528     58529     58528     58530
     58531     58532     58531     58533     58534     58535     58534     58536
     58537     58538     58537     58539     58540     58541     58540     58542
     58543     58544     58543     58545     58546     58547     58546     58548
     58549     58550     58549     58551     58552     58553     58552     58554
     58555     58556     58555     58557     58558     58559     58558     58560
     58561     58562     58561     58563     58564     58565     58564     58566
     58567     58568     58567     58569     58570     58571     58570     58572
     58573     58574     58573     58575     58576     58577     58576     58578
     58579     58580     58579     58581     58582     58583     58582     58584
     58585     58586     58585     58587     58588     58589     58588     58590
     58591     58592     58591     58593     58594     58595     58594     58596
     58597     58598     58597     58599     58600     58601     58600     58602
     58603     58604     58603     58605     58606     58607     58606     58608
     58609     58610     58609     58611     58612     58613     58612     58614
     58615     58616     58615     58617     58618     58619     58618     58620
     58621     58622     58621     58623     58624     58625     58624     58626
     58627     58628     58627     58629     58630     58631     58630     58632
     58633     58634     58633     58635     58636     58637     58636     58638
     58639     58640     58639     58641     58642     58643     58642     58644
     58645     58646     58645     58647     58648     58649     58648     58650
     58651     58652     58651     58653     58654     58655     58654     58656
     58657     58658     58657     58659     58660     58661     58660     58662
     58663     58664     58663     58665     58666     58667     58666     58668
     58669     58670     58669     58671     58672     58673     58672     58674
     58675     58676     58675     58677     58678     58679     58678     58680
     58681     58682     58681     58683     58684     58685     58684     58686
     58687     58688     58687     58689     58690     58691     58690     58692
     58693     58694     58693     58695     58696     58697     58696     58698
     58699     58700     58699     58701     58702     58703     58702     58704
     58705     58706     58705     58707     58708     58709     58708     58710
     58711     58712     58711     58713     58714     58715     58714     58716
     58717     58718     58717     58719     58720     58721     58720     58722
     58723     58724     58723     58725     58726     58727     58726     58728
     58729     58730     58729     58731     58732     58733     58732     58734
     58735     58736     58735     58737     58738     58739     58738     58740
     58741     58742     58741     58743     58744     58745     58744     58746
     58747     58748     58747     58749     58750     58751     58750     58752
     58753     58754     58753     58755     58756     58757     58756     58758
     58759     58760     58759     58761     58762     58763     58762     58764
     58765     58766     58765     58767     58768     58769     58768     58770
     58771     58772     58771     58773     58774     58775     58774     58776
     58777     58778     58777     58779     58780     58781     58780     58782
     58783     58784     58783     58785     58786     58787     58786     58788
     58789     58790     58789     58791     58792     58793     58792     58794
     58795     58796     58795     58797     58798     58799     58798     58800
     58801     58802     58801     58803     58804     58805     58804     58806
     58807     58808     58807     58809     58810     58811     58810     58812
     58813     58814     58813     58815     58816     58817     58816     58818
     58819     58820     58819     58821     58822     58823     58822     58824
     58825     58826     58825     58827     58828     58829     58828     58830
     58831     58832     58831     58833     58834     58835     58834     58836
     58837     58838     58837     58839     58840     58841     58840     58842
     58843     58844     58843     58845     58846     58847     58846     58848
     58849     58850     58849     58851     58852     58853     58852     58854
     58855     58856     58855     58857     58858     58859     58858     58860
     58861     58862     58861     58863     58864     58865     58864     58866
     58867     58868     58867     58869     58870     58871     58870     58872
     58873     58874     58873     58875     58876     58877     58876     58878
     58879     58880     58879     58881     58882     58883     58882     58884
     58885     58886     58885     58887     58888     58889     58888     58890
     58891     58892     58891     58893     58894     58895     58894     58896
     58897     58898     58897     58899     58900     58901     58900     58902
     58903     58904     58903     58905     58906     58907     58906     58908
     58909     58910     58909     58911     58912     58913     58912     58914
     58915     58916     58915     58917     58918     58919     58918     58920
     58921     58922     58921     58923     58924     58925     58924     58926
     58927     58928     58927     58929     58930     58931     58930     58932
     58933     58934     58933     58935     58936     58937     58936     58938
     58939     58940     58939     58941     58942     58943     58942     58944
     58945     58946     58945     58947     58948     58949     58948     58950
     58951     58952     58951     58953     58954     58955     58954     58956
     58957     58958     58957     58959     58960     58961     58960     58962
     58963     58964     58963     58965     58966     58967     58966     58968
     58969     58970     58969     58971     58972     58973     58972     58974
     58975     58976     58975     58977     58978     58979     58978     58980
     58981     58982     58981     58983     58984     58985     58984     58986
     58987     58988     58987     58989     58990     58991     58990     58992
     58993     58994     58993     58995     58996     58997     58996     58998
     58999     59000     58999     59001     59002     59003     59002     59004
     59005     59006     59005     59007     59008     59009     59008     59010
     59011     59012     59011     59013     59014     59015     59014     59016
     59017     59018     59017     59019     59020     59021     59020     59022
     59023     59024     59023     59025     59026     59027     59026     59028
     59029     59030     59029     59031     59032     59033     59032     59034
     59035     59036     59035     59037     59038     59039     59038     59040
     59041     59042     59041     59043     59044     59045     59044     59046
     59047     59048     59047     59049     59050     59051     59050     59052
     59053     59054     59053     59055     59056     59057     59056     59058
     59059     59060     59059     59061     59062     59063     59062     59064
     59065     59066     59065     59067     59068     59069     59068     59070
     59071     59072     59071     59073     59074     59075     59074     59076
     59077     59078     59077     59079     59080     59081     59080     59082
     59083     59084     59083     59085     59086     59087     59086     59088
     59089     59090     59089     59091     59092     59093     59092     59094
     59095     59096     59095     59097     59098     59099     59098     59100
     59101     59102     59101     59103     59104     59105     59104     59106
     59107     59108     59107     59109     59110     59111     59110     59112
     59113     59114     59113     59115     59116     59117     59116     59118
     59119     59120     59119     59121     59122     59123     59122     59124
     59125     59126     59125     59127     59128     59129     59128     59130
     59131     59132     59131     59133     59134     59135     59134     59136
     59137     59138     59137     59139     59140     59141     59140     59142
     59143     59144     59143     59145     59146     59147     59146     59148
     59149     59150     59149     59151     59152     59153     59152     59154
     59155     59156     59155     59157     59158     59159     59158     59160
     59161     59162     59161     59163     59164     59165     59164     59166
     59167     59168     59167     59169     59170     59171     59170     59172
     59173     59174     59173     59175     59176     59177     59176     59178
     59179     59180     59179     59181     59182     59183     59182     59184
     59185     59186     59185     59187     59188     59189     59188     59190
     59191     59192     59191     59193     59194     59195     59194     59196
     59197     59198     59197     59199     59200     59201     59200     59202
     59203     59204     59203     59205     59206     59207     59206     59208
     59209     59210     59209     59211     59212     59213     59212     59214
     59215     59216     59215     59217     59218     59219     59218     59220
     59221     59222     59221     59223     59224     59225     59224     59226
     59227     59228     59227     59229     59230     59231     59230     59232
     59233     59234     59233     59235     59236     59237     59236     59238
     59239     59240     59239     59241     59242     59243     59242     59244
     59245     59246     59245     59247     59248     59249     59248     59250
     59251     59252     59251     59253     59254     59255     59254     59256
     59257     59258     59257     59259     59260     59261     59260     59262
     59263     59264     59263     59265     59266     59267     59266     59268
     59269     59270     59269     59271     59272     59273     59272     59274
     59275     59276     59275     59277     59278     59279     59278     59280
     59281     59282     59281     59283     59284     59285     59284     59286
     59287     59288     59287     59289     59290     59291     59290     59292
     59293     59294     59293     59295     59296     59297     59296     59298
     59299     59300     59299     59301     59302     59303     59302     59304
     59305     59306     59305     59307     59308     59309     59308     59310
     59311     59312     59311     59313     59314     59315     59314     59316
     59317     59318     59317     59319     59320     59321     59320     59322
     59323     59324     59323     59325     59326     59327     59326     59328
     59329     59330     59329     59331     59332     59333     59332     59334
     59335     59336     59335     59337     59338     59339     59338     59340
     59341     59342     59341     59343     59344     59345     59344     59346
     59347     59348     59347     59349     59350     59351     59350     59352
     59353     59354     59353     59355     59356     59357     59356     59358
     59359     59360     59359     59361     59362     59363     59362     59364
     59365     59366     59365     59367     59368     59369     59368     59370
     59371     59372     59371     59373     59374     59375     59374     59376
     59377     59378     59377     59379     59380     59381     59380     59382
     59383     59384     59383     59385     59386     59387     59386     59388
     59389     59390     59389     59391     59392     59393     59392     59394
     59395     59396     59395     59397     59398     59399     59398     59400
     59401     59402     59401     59403     59404     59405     59404     59406
     59407     59408     59407     59409     59410     59411     59410     59412
     59413     59414     59413     59415     59416     59417     59416     59418
     59419     59420     59419     59421     59422     59423     59422     59424
     59425     59426     59425     59427     59428     59429     59428     59430
     59431     59432     59431     59433     59434     59435     59434     59436
     59437     59438     59437     59439     59440     59441     59440     59442
     59443     59444     59443     59445     59446     59447     59446     59448
     59449     59450     59449     59451     59452     59453     59452     59454
     59455     59456     59455     59457     59458     59459     59458     59460
     59461     59462     59461     59463     59464     59465     59464     59466
     59467     59468     59467     59469     59470     59471     59470     59472
     59473     59474     59473     59475     59476     59477     59476     59478
     59479     59480     59479     59481     59482     59483     59482     59484
     59485     59486     59485     59487     59488     59489     59488     59490
     59491     59492     59491     59493     59494     59495     59494     59496
     59497     59498     59497     59499     59500     59501     59500     59502
     59503     59504     59503     59505     59506     59507     59506     59508
     59509     59510     59509     59511     59512     59513     59512     59514
     59515     59516     59515     59517     59518     59519     59518     59520
     59521     59522     59521     59523     59524     59525     59524     59526
     59527     59528     59527     59529     59530     59531     59530     59532
     59533     59534     59533     59535     59536     59537     59536     59538
     59539     59540     59539     59541     59542     59543     59542     59544
     59545     59546     59545     59547     59548     59549     59548     59550
     59551     59552     59551     59553     59554     59555     59554     59556
     59557     59558     59557     59559     59560     59561     59560     59562
     59563     59564     59563     59565     59566     59567     59566     59568
     59569     59570     59569     59571     59572     59573     59572     59574
     59575     59576     59575     59577     59578     59579     59578     59580
     59581     59582     59581     59583     59584     59585     59584     59586
     59587     59588     59587     59589     59590     59591     59590     59592
     59593     59594     59593     59595     59596     59597     59596     59598
     59599     59600     59599     59601     59602     59603     59602     59604
     59605     59606     59605     59607     59608     59609     59608     59610
     59611     59612     59611     59613     59614     59615     59614     59616
     59617     59618     59617     59619     59620     59621     59620     59622
     59623     59624     59623     59625     59626     59627     59626     59628
     59629     59630     59629     59631     59632     59633     59632     59634
     59635     59636     59635     59637     59638     59639     59638     59640
     59641     59642     59641     59643     59644     59645     59644     59646
     59647     59648     59647     59649     59650     59651     59650     59652
     59653     59654     59653     59655     59656     59657     59656     59658
     59659     59660     59659     59661     59662     59663     59662     59664
     59665     59666     59665     59667     59668     59669     59668     59670
     59671     59672     59671     59673     59674     59675     59674     59676
     59677     59678     59677     59679     59680     59681     59680     59682
     59683     59684     59683     59685     59686     59687     59686     59688
     59689     59690     59689     59691     59692     59693     59692     59694
     59695     59696     59695     59697     59698     59699     59698     59700
     59701     59702     59701     59703     59704     59705     59704     59706
     59707     59708     59707     59709     59710     59711     59710     59712
     59713     59714     59713     59715     59716     59717     59716     59718
     59719     59720     59719     59721     59722     59723     59722     59724
     59725     59726     59725     59727     59728     59729     59728     59730
     59731     59732     59731     59733     59734     59735     59734     59736
     59737     59738     59737     59739     59740     59741     59740     59742
     59743     59744     59743     59745     59746     59747     59746     59748
     59749     59750     59749     59751     59752     59753     59752     59754
     59755     59756     59755     59757     59758     59759     59758     59760
     59761     59762     59761     59763     59764     59765     59764     59766
     59767     59768     59767     59769     59770     59771     59770     59772
     59773     59774     59773     59775     59776     59777     59776     59778
     59779     59780     59779     59781     59782     59783     59782     59784
     59785     59786     59785     59787     59788     59789     59788     59790
     59791     59792     59791     59793     59794     59795     59794     59796
     59797     59798     59797     59799     59800     59801     59800     59802
     59803     59804     59803     59805     59806     59807     59806     59808
     59809     59810     59809     59811     59812     59813     59812     59814
     59815     59816     59815     59817     59818     59819     59818     59820
     59821     59822     59821     59823     59824     59825     59824     59826
     59827     59828     59827     59829     59830     59831     59830     59832
     59833     59834     59833     59835     59836     59837     59836     59838
     59839     59840     59839     59841     59842     59843     59842     59844
     59845     59846     59845     59847     59848     59849     59848     59850
     59851     59852     59851     59853     59854     59855     59854     59856
     59857     59858     59857     59859     59860     59861     59860     59862
     59863     59864     59863     59865     59866     59867     59866     59868
     59869     59870     59869     59871     59872     59873     59872     59874
     59875     59876     59875     59877     59878     59879     59878     59880
     59881     59882     59881     59883     59884     59885     59884     59886
     59887     59888     59887     59889     59890     59891     59890     59892
     59893     59894     59893     59895     59896     59897     59896     59898
     59899     59900     59899     59901     59902     59903     59902     59904
     59905     59906     59905     59907     59908     59909     59908     59910
     59911     59912     59911     59913     59914     59915     59914     59916
     59917     59918     59917     59919     59920     59921     59920     59922
     59923     59924     59923     59925     59926     59927     59926     59928
     59929     59930     59929     59931     59932     59933     59932     59934
     59935     59936     59935     59937     59938     59939     59938     59940
     59941     59942     59941     59943     59944     59945     59944     59946
     59947     59948     59947     59949     59950     59951     59950     59952
     59953     59954     59953     59955     59956     59957     59956     59958
     59959     59960     59959     59961     59962     59963     59962     59964
     59965     59966     59965     59967     59968     59969     59968     59970
     59971     59972     59971     59973     59974     59975     59974     59976
     59977     59978     59977     59979     59980     59981     59980     59982
     59983     59984     59983     59985     59986     59987     59986     59988
     59989     59990     59989     59991     59992     59993     59992     59994
     59995     59996     59995     59997     59998     59999     59998     60000
     60001     60002     60001     60003     60004     60005     60004     60006
     60007     60008     60007     60009     60010     60011     60010     60012
     60013     60014     60013     60015     60016     60017     60016     60018
     60019     60020     60019     60021     60022     60023     60022     60024
     60025     60026     60025     60027     60028     60029     60028     60030
     60031     60032     60031     60033     60034     60035     60034     60036
     60037     60038     60037     60039     60040     60041     60040     60042
     60043     60044     60043     60045     60046     60047     60046     60048
     60049     60050     60049     60051     60052     60053     60052     60054
     60055     60056     60055     60057     60058     60059     60058     60060
     60061     60062     60061     60063     60064     60065     60064     60066
     60067     60068     60067     60069     60070     60071     60070     60072
     60073     60074     60073     60075     60076     60077     60076     60078
     60079     60080     60079     60081     60082     60083     60082     60084
     60085     60086     60085     60087     60088     60089     60088     60090
     60091     60092     60091     60093     60094     60095     60094     60096
     60097     60098     60097     60099     60100     60101     60100     60102
     60103     60104     60103     60105     60106     60107     60106     60108
     60109     60110     60109     60111     60112     60113     60112     60114
     60115     60116     60115     60117     60118     60119     60118     60120
     60121     60122     60121     60123     60124     60125     60124     60126
     60127     60128     60127     60129     60130     60131     60130     60132
     60133     60134     60133     60135     60136     60137     60136     60138
     60139     60140     60139     60141     60142     60143     60142     60144
     60145     60146     60145     60147     60148     60149     60148     60150
     60151     60152     60151     60153     60154     60155     60154     60156
     60157     60158     60157     60159     60160     60161     60160     60162
     60163     60164     60163     60165     60166     60167     60166     60168
     60169     60170     60169     60171     60172     60173     60172     60174
     60175     60176     60175     60177     60178     60179     60178     60180
     60181     60182     60181     60183     60184     60185     60184     60186
     60187     60188     60187     60189     60190     60191     60190     60192
     60193     60194     60193     60195     60196     60197     60196     60198
     60199     60200     60199     60201     60202     60203     60202     60204
     60205     60206     60205     60207     60208     60209     60208     60210
     60211     60212     60211     60213     60214     60215     60214     60216
     60217     60218     60217     60219     60220     60221     60220     60222
     60223     60224     60223     60225     60226     60227     60226     60228
     60229     60230     60229     60231     60232     60233     60232     60234
     60235     60236     60235     60237     60238     60239     60238     60240
     60241     60242     60241     60243     60244     60245     60244     60246
     60247     60248     60247     60249     60250     60251     60250     60252
     60253     60254     60253     60255     60256     60257     60256     60258
     60259     60260     60259     60261     60262     60263     60262     60264
     60265     60266     60265     60267     60268     60269     60268     60270
     60271     60272     60271     60273     60274     60275     60274     60276
     60277     60278     60277     60279     60280     60281     60280     60282
     60283     60284     60283     60285     60286     60287     60286     60288
     60289     60290     60289     60291     60292     60293     60292     60294
     60295     60296     60295     60297     60298     60299     60298     60300
     60301     60302     60301     60303     60304     60305     60304     60306
     60307     60308     60307     60309     60310     60311     60310     60312
     60313     60314     60313     60315     60316     60317     60316     60318
     60319     60320     60319     60321     60322     60323     60322     60324
     60325     60326     60325     60327     60328     60329     60328     60330
     60331     60332     60331     60333     60334     60335     60334     60336
     60337     60338     60337     60339     60340     60341     60340     60342
     60343     60344     60343     60345     60346     60347     60346     60348
     60349     60350     60349     60351     60352     60353     60352     60354
     60355     60356     60355     60357     60358     60359     60358     60360
     60361     60362     60361     60363     60364     60365     60364     60366
     60367     60368     60367     60369     60370     60371     60370     60372
     60373     60374     60373     60375     60376     60377     60376     60378
     60379     60380     60379     60381     60382     60383     60382     60384
     60385     60386     60385     60387     60388     60389     60388     60390
     60391     60392     60391     60393     60394     60395     60394     60396
     60397     60398     60397     60399     60400     60401     60400     60402
     60403     60404     60403     60405     60406     60407     60406     60408
     60409     60410     60409     60411     60412     60413     60412     60414
     60415     60416     60415     60417     60418     60419     60418     60420
     60421     60422     60421     60423     60424     60425     60424     60426
     60427     60428     60427     60429     60430     60431     60430     60432
     60433     60434     60433     60435     60436     60437     60436     60438
     60439     60440     60439     60441     60442     60443     60442     60444
     60445     60446     60445     60447     60448     60449     60448     60450
     60451     60452     60451     60453     60454     60455     60454     60456
     60457     60458     60457     60459     60460     60461     60460     60462
     60463     60464     60463     60465     60466     60467     60466     60468
     60469     60470     60469     60471     60472     60473     60472     60474
     60475     60476     60475     60477     60478     60479     60478     60480
     60481     60482     60481     60483     60484     60485     60484     60486
     60487     60488     60487     60489     60490     60491     60490     60492
     60493     60494     60493     60495     60496     60497     60496     60498
     60499     60500     60499     60501     60502     60503     60502     60504
     60505     60506     60505     60507     60508     60509     60508     60510
     60511     60512     60511     60513     60514     60515     60514     60516
     60517     60518     60517     60519     60520     60521     60520     60522
     60523     60524     60523     60525     60526     60527     60526     60528
     60529     60530     60529     60531     60532     60533     60532     60534
     60535     60536     60535     60537     60538     60539     60538     60540
     60541     60542     60541     60543     60544     60545     60544     60546
     60547     60548     60547     60549     60550     60551     60550     60552
     60553     60554     60553     60555     60556     60557     60556     60558
     60559     60560     60559     60561     60562     60563     60562     60564
     60565     60566     60565     60567     60568     60569     60568     60570
     60571     60572     60571     60573     60574     60575     60574     60576
     60577     60578     60577     60579     60580     60581     60580     60582
     60583     60584     60583     60585     60586     60587     60586     60588
     60589     60590     60589     60591     60592     60593     60592     60594
     60595     60596     60595     60597     60598     60599     60598     60600
     60601     60602     60601     60603     60604     60605     60604     60606
     60607     60608     60607     60609     60610     60611     60610     60612
     60613     60614     60613     60615     60616     60617     60616     60618
     60619     60620     60619     60621     60622     60623     60622     60624
     60625     60626     60625     60627     60628     60629     60628     60630
     60631     60632     60631     60633     60634     60635     60634     60636
     60637     60638     60637     60639     60640     60641     60640     60642
     60643     60644     60643     60645     60646     60647     60646     60648
     60649     60650     60649     60651     60652     60653     60652     60654
     60655     60656     60655     60657     60658     60659     60658     60660
     60661     60662     60661     60663     60664     60665     60664     60666
     60667     60668     60667     60669     60670     60671     60670     60672
     60673     60674     60673     60675     60676     60677     60676     60678
     60679     60680     60679     60681     60682     60683     60682     60684
     60685     60686     60685     60687     60688     60689     60688     60690
     60691     60692     60691     60693     60694     60695     60694     60696
     60697     60698     60697     60699     60700     60701     60700     60702
     60703     60704     60703     60705     60706     60707     60706     60708
     60709     60710     60709     60711     60712     60713     60712     60714
     60715     60716     60715     60717     60718     60719     60718     60720
     60721     60722     60721     60723     60724     60725     60724     60726
     60727     60728     60727     60729     60730     60731     60730     60732
     60733     60734     60733     60735     60736     60737     60736     60738
     60739     60740     60739     60741     60742     60743     60742     60744
     60745     60746     60745     60747     60748     60749     60748     60750
     60751     60752     60751     60753     60754     60755     60754     60756
     60757     60758     60757     60759     60760     60761     60760     60762
     60763     60764     60763     60765     60766     60767     60766     60768
     60769     60770     60769     60771     60772     60773     60772     60774
     60775     60776     60775     60777     60778     60779     60778     60780
     60781     60782     60781     60783     60784     60785     60784     60786
     60787     60788     60787     60789     60790     60791     60790     60792
     60793     60794     60793     60795     60796     60797     60796     60798
     60799     60800     60799     60801     60802     60803     60802     60804
     60805     60806     60805     60807     60808     60809     60808     60810
     60811     60812     60811     60813     60814     60815     60814     60816
     60817     60818     60817     60819     60820     60821     60820     60822
     60823     60824     60823     60825     60826     60827     60826     60828
     60829     60830     60829     60831     60832     60833     60832     60834
     60835     60836     60835     60837     60838     60839     60838     60840
     60841     60842     60841     60843     60844     60845     60844     60846
     60847     60848     60847     60849     60850     60851     60850     60852
     60853     60854     60853     60855     60856     60857     60856     60858
     60859     60860     60859     60861     60862     60863     60862     60864
     60865     60866     60865     60867     60868     60869     60868     60870
     60871     60872     60871     60873     60874     60875     60874     60876
     60877     60878     60877     60879     60880     60881     60880     60882
     60883     60884     60883     60885     60886     60887     60886     60888
     60889     60890     60889     60891     60892     60893     60892     60894
     60895     60896     60895     60897     60898     60899     60898     60900
     60901     60902     60901     60903     60904     60905     60904     60906
     60907     60908     60907     60909     60910     60911     60910     60912
     60913     60914     60913     60915     60916     60917     60916     60918
     60919     60920     60919     60921     60922     60923     60922     60924
     60925     60926     60925     60927     60928     60929     60928     60930
     60931     60932     60931     60933     60934     60935     60934     60936
     60937     60938     60937     60939     60940     60941     60940     60942
     60943     60944     60943     60945     60946     60947     60946     60948
     60949     60950     60949     60951     60952     60953     60952     60954
     60955     60956     60955     60957     60958     60959     60958     60960
     60961     60962     60961     60963     60964     60965     60964     60966
     60967     60968     60967     60969     60970     60971     60970     60972
     60973     60974     60973     60975     60976     60977     60976     60978
     60979     60980     60979     60981     60982     60983     60982     60984
     60985     60986     60985     60987     60988     60989     60988     60990
     60991     60992     60991     60993     60994     60995     60994     60996
     60997     60998     60997     60999     61000     61001     61000     61002
     61003     61004     61003     61005     61006     61007     61006     61008
     61009     61010     61009     61011     61012     61013     61012     61014
     61015     61016     61015     61017     61018     61019     61018     61020
     61021     61022     61021     61023     61024     61025     61024     61026
     61027     61028     61027     61029     61030     61031     61030     61032
     61033     61034     61033     61035     61036     61037     61036     61038
     61039     61040     61039     61041     61042     61043     61042     61044
     61045     61046     61045     61047     61048     61049     61048     61050
     61051     61052     61051     61053     61054     61055     61054     61056
     61057     61058     61057     61059     61060     61061     61060     61062
     61063     61064     61063     61065     61066     61067     61066     61068
     61069     61070     61069     61071     61072     61073     61072     61074
     61075     61076     61075     61077     61078     61079     61078     61080
     61081     61082     61081     61083     61084     61085     61084     61086
     61087     61088     61087     61089     61090     61091     61090     61092
     61093     61094     61093     61095     61096     61097     61096     61098
     61099     61100     61099     61101     61102     61103     61102     61104
     61105     61106     61105     61107     61108     61109     61108     61110
     61111     61112     61111     61113     61114     61115     61114     61116
     61117     61118     61117     61119     61120     61121     61120     61122
     61123     61124     61123     61125     61126     61127     61126     61128
     61129     61130     61129     61131     61132     61133     61132     61134
     61135     61136     61135     61137     61138     61139     61138     61140
     61141     61142     61141     61143     61144     61145     61144     61146
     61147     61148     61147     61149     61150     61151     61150     61152
     61153     61154     61153     61155     61156     61157     61156     61158
     61159     61160     61159     61161     61162     61163     61162     61164
     61165     61166     61165     61167     61168     61169     61168     61170
     61171     61172     61171     61173     61174     61175     61174     61176
     61177     61178     61177     61179     61180     61181     61180     61182
     61183     61184     61183     61185     61186     61187     61186     61188
     61189     61190     61189     61191     61192     61193     61192     61194
     61195     61196     61195     61197     61198     61199     61198     61200
     61201     61202     61201     61203     61204     61205     61204     61206
     61207     61208     61207     61209     61210     61211     61210     61212
     61213     61214     61213     61215     61216     61217     61216     61218
     61219     61220     61219     61221     61222     61223     61222     61224
     61225     61226     61225     61227     61228     61229     61228     61230
     61231     61232     61231     61233     61234     61235     61234     61236
     61237     61238     61237     61239     61240     61241     61240     61242
     61243     61244     61243     61245     61246     61247     61246     61248
     61249     61250     61249     61251     61252     61253     61252     61254
     61255     61256     61255     61257     61258     61259     61258     61260
     61261     61262     61261     61263     61264     61265     61264     61266
     61267     61268     61267     61269     61270     61271     61270     61272
     61273     61274     61273     61275     61276     61277     61276     61278
     61279     61280     61279     61281     61282     61283     61282     61284
     61285     61286     61285     61287     61288     61289     61288     61290
     61291     61292     61291     61293     61294     61295     61294     61296
     61297     61298     61297     61299     61300     61301     61300     61302
     61303     61304     61303     61305     61306     61307     61306     61308
     61309     61310     61309     61311     61312     61313     61312     61314
     61315     61316     61315     61317     61318     61319     61318     61320
     61321     61322     61321     61323     61324     61325     61324     61326
     61327     61328     61327     61329     61330     61331     61330     61332
     61333     61334     61333     61335     61336     61337     61336     61338
     61339     61340     61339     61341     61342     61343     61342     61344
     61345     61346     61345     61347     61348     61349     61348     61350
     61351     61352     61351     61353     61354     61355     61354     61356
     61357     61358     61357     61359     61360     61361     61360     61362
     61363     61364     61363     61365     61366     61367     61366     61368
     61369     61370     61369     61371     61372     61373     61372     61374
     61375     61376     61375     61377     61378     61379     61378     61380
     61381     61382     61381     61383     61384     61385     61384     61386
     61387     61388     61387     61389     61390     61391     61390     61392
     61393     61394     61393     61395     61396     61397     61396     61398
     61399     61400     61399     61401     61402     61403     61402     61404
     61405     61406     61405     61407     61408     61409     61408     61410
     61411     61412     61411     61413     61414     61415     61414     61416
     61417     61418     61417     61419     61420     61421     61420     61422
     61423     61424     61423     61425     61426     61427     61426     61428
     61429     61430     61429     61431     61432     61433     61432     61434
     61435     61436     61435     61437     61438     61439     61438     61440
     61441     61442     61441     61443     61444     61445     61444     61446
     61447     61448     61447     61449     61450     61451     61450     61452
     61453     61454     61453     61455     61456     61457     61456     61458
     61459     61460     61459     61461     61462     61463     61462     61464
     61465     61466     61465     61467     61468     61469     61468     61470
     61471     61472     61471     61473     61474     61475     61474     61476
     61477     61478     61477     61479     61480     61481     61480     61482
     61483     61484     61483     61485     61486     61487     61486     61488
     61489     61490     61489     61491     61492     61493     61492     61494
     61495     61496     61495     61497     61498     61499     61498     61500
     61501     61502     61501     61503     61504     61505     61504     61506
     61507     61508     61507     61509     61510     61511     61510     61512
     61513     61514     61513     61515     61516     61517     61516     61518
     61519     61520     61519     61521     61522     61523     61522     61524
     61525     61526     61525     61527     61528     61529     61528     61530
     61531     61532     61531     61533     61534     61535     61534     61536
     61537     61538     61537     61539     61540     61541     61540     61542
     61543     61544     61543     61545     61546     61547     61546     61548
     61549     61550     61549     61551     61552     61553     61552     61554
     61555     61556     61555     61557     61558     61559     61558     61560
     61561     61562     61561     61563     61564     61565     61564     61566
     61567     61568     61567     61569     61570     61571     61570     61572
     61573     61574     61573     61575     61576     61577     61576     61578
     61579     61580     61579     61581     61582     61583     61582     61584
     61585     61586     61585     61587     61588     61589     61588     61590
     61591     61592     61591     61593     61594     61595     61594     61596
     61597     61598     61597     61599     61600     61601     61600     61602
     61603     61604     61603     61605     61606     61607     61606     61608
     61609     61610     61609     61611     61612     61613     61612     61614
     61615     61616     61615     61617     61618     61619     61618     61620
     61621     61622     61621     61623     61624     61625     61624     61626
     61627     61628     61627     61629     61630     61631     61630     61632
     61633     61634     61633     61635     61636     61637     61636     61638
     61639     61640     61639     61641     61642     61643     61642     61644
     61645     61646     61645     61647     61648     61649     61648     61650
     61651     61652     61651     61653     61654     61655     61654     61656
     61657     61658     61657     61659     61660     61661     61660     61662
     61663     61664     61663     61665     61666     61667     61666     61668
     61669     61670     61669     61671     61672     61673     61672     61674
     61675     61676     61675     61677     61678     61679     61678     61680
     61681     61682     61681     61683     61684     61685     61684     61686
     61687     61688     61687     61689     61690     61691     61690     61692
     61693     61694     61693     61695     61696     61697     61696     61698
     61699     61700     61699     61701     61702     61703     61702     61704
     61705     61706     61705     61707     61708     61709     61708     61710
     61711     61712     61711     61713     61714     61715     61714     61716
     61717     61718     61717     61719     61720     61721     61720     61722
     61723     61724     61723     61725     61726     61727     61726     61728
     61729     61730     61729     61731     61732     61733     61732     61734
     61735     61736     61735     61737     61738     61739     61738     61740
     61741     61742     61741     61743     61744     61745     61744     61746
     61747     61748     61747     61749     61750     61751     61750     61752
     61753     61754     61753     61755     61756     61757     61756     61758
     61759     61760     61759     61761     61762     61763     61762     61764
     61765     61766     61765     61767     61768     61769     61768     61770
     61771     61772     61771     61773     61774     61775     61774     61776
     61777     61778     61777     61779     61780     61781     61780     61782
     61783     61784     61783     61785     61786     61787     61786     61788
     61789     61790     61789     61791     61792     61793     61792     61794
     61795     61796     61795     61797     61798     61799     61798     61800
     61801     61802     61801     61803     61804     61805     61804     61806
     61807     61808     61807     61809     61810     61811     61810     61812
     61813     61814     61813     61815     61816     61817     61816     61818
     61819     61820     61819     61821     61822     61823     61822     61824
     61825     61826     61825     61827     61828     61829     61828     61830
     61831     61832     61831     61833     61834     61835     61834     61836
     61837     61838     61837     61839     61840     61841     61840     61842
     61843     61844     61843     61845     61846     61847     61846     61848
     61849     61850     61849     61851     61852     61853     61852     61854
     61855     61856     61855     61857     61858     61859     61858     61860
     61861     61862     61861     61863     61864     61865     61864     61866
     61867     61868     61867     61869     61870     61871     61870     61872
     61873     61874     61873     61875     61876     61877     61876     61878
     61879     61880     61879     61881     61882     61883     61882     61884
     61885     61886     61885     61887     61888     61889     61888     61890
     61891     61892     61891     61893     61894     61895     61894     61896
     61897     61898     61897     61899     61900     61901     61900     61902
     61903     61904     61903     61905     61906     61907     61906     61908
     61909     61910     61909     61911     61912     61913     61912     61914
     61915     61916     61915     61917     61918     61919     61918     61920
     61921     61922     61921     61923     61924     61925     61924     61926
     61927     61928     61927     61929     61930     61931     61930     61932
     61933     61934     61933     61935     61936     61937     61936     61938
     61939     61940     61939     61941     61942     61943     61942     61944
     61945     61946     61945     61947     61948     61949     61948     61950
     61951     61952     61951     61953     61954     61955     61954     61956
     61957     61958     61957     61959     61960     61961     61960     61962
     61963     61964     61963     61965     61966     61967     61966     61968
     61969     61970     61969     61971     61972     61973     61972     61974
     61975     61976     61975     61977     61978     61979     61978     61980
     61981     61982     61981     61983     61984     61985     61984     61986
     61987     61988     61987     61989     61990     61991     61990     61992
     61993     61994     61993     61995     61996     61997     61996     61998
     61999     62000     61999     62001     62002     62003     62002     62004
     62005     62006     62005     62007     62008     62009     62008     62010
     62011     62012     62011     62013     62014     62015     62014     62016
     62017     62018     62017     62019     62020     62021     62020     62022
     62023     62024     62023     62025     62026     62027     62026     62028
     62029     62030     62029     62031     62032     62033     62032     62034
     62035     62036     62035     62037     62038     62039     62038     62040
     62041     62042     62041     62043     62044     62045     62044     62046
     62047     62048     62047     62049     62050     62051     62050     62052
     62053     62054     62053     62055     62056     62057     62056     62058
     62059     62060     62059     62061     62062     62063     62062     62064
     62065     62066     62065     62067     62068     62069     62068     62070
     62071     62072     62071     62073     62074     62075     62074     62076
     62077     62078     62077     62079     62080     62081     62080     62082
     62083     62084     62083     62085     62086     62087     62086     62088
     62089     62090     62089     62091     62092     62093     62092     62094
     62095     62096     62095     62097     62098     62099     62098     62100
     62101     62102     62101     62103     62104     62105     62104     62106
     62107     62108     62107     62109     62110     62111     62110     62112
     62113     62114     62113     62115     62116     62117     62116     62118
     62119     62120     62119     62121     62122     62123     62122     62124
     62125     62126     62125     62127     62128     62129     62128     62130
     62131     62132     62131     62133     62134     62135     62134     62136
     62137     62138     62137     62139     62140     62141     62140     62142
     62143     62144     62143     62145     62146     62147     62146     62148
     62149     62150     62149     62151     62152     62153     62152     62154
     62155     62156     62155     62157     62158     62159     62158     62160
     62161     62162     62161     62163     62164     62165     62164     62166
     62167     62168     62167     62169     62170     62171     62170     62172
     62173     62174     62173     62175     62176     62177     62176     62178
     62179     62180     62179     62181     62182     62183     62182     62184
     62185     62186     62185     62187     62188     62189     62188     62190
     62191     62192     62191     62193     62194     62195     62194     62196
     62197     62198     62197     62199     62200     62201     62200     62202
     62203     62204     62203     62205     62206     62207     62206     62208
     62209     62210     62209     62211     62212     62213     62212     62214
     62215     62216     62215     62217     62218     62219     62218     62220
     62221     62222     62221     62223     62224     62225     62224     62226
     62227     62228     62227     62229     62230     62231     62230     62232
     62233     62234     62233     62235     62236     62237     62236     62238
     62239     62240     62239     62241     62242     62243     62242     62244
     62245     62246     62245     62247     62248     62249     62248     62250
     62251     62252     62251     62253     62254     62255     62254     62256
     62257     62258     62257     62259     62260     62261     62260     62262
     62263     62264     62263     62265     62266     62267     62266     62268
     62269     62270     62269     62271     62272     62273     62272     62274
     62275     62276     62275     62277     62278     62279     62278     62280
     62281     62282     62281     62283     62284     62285     62284     62286
     62287     62288     62287     62289     62290     62291     62290     62292
     62293     62294     62293     62295     62296     62297     62296     62298
     62299     62300     62299     62301     62302     62303     62302     62304
     62305     62306     62305     62307     62308     62309     62308     62310
     62311     62312     62311     62313     62314     62315     62314     62316
     62317     62318     62317     62319     62320     62321     62320     62322
     62323     62324     62323     62325     62326     62327     62326     62328
     62329     62330     62329     62331     62332     62333     62332     62334
     62335     62336     62335     62337     62338     62339     62338     62340
     62341     62342     62341     62343     62344     62345     62344     62346
     62347     62348     62347     62349     62350     62351     62350     62352
     62353     62354     62353     62355     62356     62357     62356     62358
     62359     62360     62359     62361     62362     62363     62362     62364
     62365     62366     62365     62367     62368     62369     62368     62370
     62371     62372     62371     62373     62374     62375     62374     62376
     62377     62378     62377     62379     62380     62381     62380     62382
     62383     62384     62383     62385     62386     62387     62386     62388
     62389     62390     62389     62391     62392     62393     62392     62394
     62395     62396     62395     62397     62398     62399     62398     62400
     62401     62402     62401     62403     62404     62405     62404     62406
     62407     62408     62407     62409     62410     62411     62410     62412
     62413     62414     62413     62415     62416     62417     62416     62418
     62419     62420     62419     62421     62422     62423     62422     62424
     62425     62426     62425     62427     62428     62429     62428     62430
     62431     62432     62431     62433     62434     62435     62434     62436
     62437     62438     62437     62439     62440     62441     62440     62442
     62443     62444     62443     62445     62446     62447     62446     62448
     62449     62450     62449     62451     62452     62453     62452     62454
     62455     62456     62455     62457     62458     62459     62458     62460
     62461     62462     62461     62463     62464     62465     62464     62466
     62467     62468     62467     62469     62470     62471     62470     62472
     62473     62474     62473     62475     62476     62477     62476     62478
     62479     62480     62479     62481     62482     62483     62482     62484
     62485     62486     62485     62487     62488     62489     62488     62490
     62491     62492     62491     62493     62494     62495     62494     62496
     62497     62498     62497     62499     62500     62501     62500     62502
     62503     62504     62503     62505     62506     62507     62506     62508
     62509     62510     62509     62511     62512     62513     62512     62514
     62515     62516     62515     62517     62518     62519     62518     62520
     62521     62522     62521     62523     62524     62525     62524     62526
     62527     62528     62527     62529     62530     62531     62530     62532
     62533     62534     62533     62535     62536     62537     62536     62538
     62539     62540     62539     62541     62542     62543     62542     62544
     62545     62546     62545     62547     62548     62549     62548     62550
     62551     62552     62551     62553     62554     62555     62554     62556
     62557     62558     62557     62559     62560     62561     62560     62562
     62563     62564     62563     62565     62566     62567     62566     62568
     62569     62570     62569     62571     62572     62573     62572     62574
     62575     62576     62575     62577     62578     62579     62578     62580
     62581     62582     62581     62583     62584     62585     62584     62586
     62587     62588     62587     62589     62590     62591     62590     62592
     62593     62594     62593     62595     62596     62597     62596     62598
     62599     62600     62599     62601     62602     62603     62602     62604
     62605     62606     62605     62607     62608     62609     62608     62610
     62611     62612     62611     62613     62614     62615     62614     62616
     62617     62618     62617     62619     62620     62621     62620     62622
     62623     62624     62623     62625     62626     62627     62626     62628
     62629     62630     62629     62631     62632     62633     62632     62634
     62635     62636     62635     62637     62638     62639     62638     62640
     62641     62642     62641     62643     62644     62645     62644     62646
     62647     62648     62647     62649     62650     62651     62650     62652
     62653     62654     62653     62655     62656     62657     62656     62658
     62659     62660     62659     62661     62662     62663     62662     62664
     62665     62666     62665     62667     62668     62669     62668     62670
     62671     62672     62671     62673     62674     62675     62674     62676
     62677     62678     62677     62679     62680     62681     62680     62682
     62683     62684     62683     62685     62686     62687     62686     62688
     62689     62690     62689     62691     62692     62693     62692     62694
     62695     62696     62695     62697     62698     62699     62698     62700
     62701     62702     62701     62703     62704     62705     62704     62706
     62707     62708     62707     62709     62710     62711     62710     62712
     62713     62714     62713     62715     62716     62717     62716     62718
     62719     62720     62719     62721     62722     62723     62722     62724
     62725     62726     62725     62727     62728     62729     62728     62730
     62731     62732     62731     62733     62734     62735     62734     62736
     62737     62738     62737     62739     62740     62741     62740     62742
     62743     62744     62743     62745     62746     62747     62746     62748
     62749     62750     62749     62751     62752     62753     62752     62754
     62755     62756     62755     62757     62758     62759     62758     62760
     62761     62762     62761     62763     62764     62765     62764     62766
     62767     62768     62767     62769     62770     62771     62770     62772
     62773     62774     62773     62775     62776     62777     62776     62778
     62779     62780     62779     62781     62782     62783     62782     62784
     62785     62786     62785     62787     62788     62789     62788     62790
     62791     62792     62791     62793     62794     62795     62794     62796
     62797     62798     62797     62799     62800     62801     62800     62802
     62803     62804     62803     62805     62806     62807     62806     62808
     62809     62810     62809     62811     62812     62813     62812     62814
     62815     62816     62815     62817     62818     62819     62818     62820
     62821     62822     62821     62823     62824     62825     62824     62826
     62827     62828     62827     62829     62830     62831     62830     62832
     62833     62834     62833     62835     62836     62837     62836     62838
     62839     62840     62839     62841     62842     62843     62842     62844
     62845     62846     62845     62847     62848     62849     62848     62850
     62851     62852     62851     62853     62854     62855     62854     62856
     62857     62858     62857     62859     62860     62861     62860     62862
     62863     62864     62863     62865     62866     62867     62866     62868
     62869     62870     62869     62871     62872     62873     62872     62874
     62875     62876     62875     62877     62878     62879     62878     62880
     62881     62882     62881     62883     62884     62885     62884     62886
     62887     62888     62887     62889     62890     62891     62890     62892
     62893     62894     62893     62895     62896     62897     62896     62898
     62899     62900     62899     62901     62902     62903     62902     62904
     62905     62906     62905     62907     62908     62909     62908     62910
     62911     62912     62911     62913     62914     62915     62914     62916
     62917     62918     62917     62919     62920     62921     62920     62922
     62923     62924     62923     62925     62926     62927     62926     62928
     62929     62930     62929     62931     62932     62933     62932     62934
     62935     62936     62935     62937     62938     62939     62938     62940
     62941     62942     62941     62943     62944     62945     62944     62946
     62947     62948     62947     62949     62950     62951     62950     62952
     62953     62954     62953     62955     62956     62957     62956     62958
     62959     62960     62959     62961     62962     62963     62962     62964
     62965     62966     62965     62967     62968     62969     62968     62970
     62971     62972     62971     62973     62974     62975     62974     62976
     62977     62978     62977     62979     62980     62981     62980     62982
     62983     62984     62983     62985     62986     62987     62986     62988
     62989     62990     62989     62991     62992     62993     62992     62994
     62995     62996     62995     62997     62998     62999     62998     63000
     63001     63002     63001     63003     63004     63005     63004     63006
     63007     63008     63007     63009     63010     63011     63010     63012
     63013     63014     63013     63015     63016     63017     63016     63018
     63019     63020     63019     63021     63022     63023     63022     63024
     63025     63026     63025     63027     63028     63029     63028     63030
     63031     63032     63031     63033     63034     63035     63034     63036
     63037     63038     63037     63039     63040     63041     63040     63042
     63043     63044     63043     63045     63046     63047     63046     63048
     63049     63050     63049     63051     63052     63053     63052     63054
     63055     63056     63055     63057     63058     63059     63058     63060
     63061     63062     63061     63063     63064     63065     63064     63066
     63067     63068     63067     63069     63070     63071     63070     63072
     63073     63074     63073     63075     63076     63077     63076     63078
     63079     63080     63079     63081     63082     63083     63082     63084
     63085     63086     63085     63087     63088     63089     63088     63090
     63091     63092     63091     63093     63094     63095     63094     63096
     63097     63098     63097     63099     63100     63101     63100     63102
     63103     63104     63103     63105     63106     63107     63106     63108
     63109     63110     63109     63111     63112     63113     63112     63114
     63115     63116     63115     63117     63118     63119     63118     63120
     63121     63122     63121     63123     63124     63125     63124     63126
     63127     63128     63127     63129     63130     63131     63130     63132
     63133     63134     63133     63135     63136     63137     63136     63138
     63139     63140     63139     63141     63142     63143     63142     63144
     63145     63146     63145     63147     63148     63149     63148     63150
     63151     63152     63151     63153     63154     63155     63154     63156
     63157     63158     63157     63159     63160     63161     63160     63162
     63163     63164     63163     63165     63166     63167     63166     63168
     63169     63170     63169     63171     63172     63173     63172     63174
     63175     63176     63175     63177     63178     63179     63178     63180
     63181     63182     63181     63183     63184     63185     63184     63186
     63187     63188     63187     63189     63190     63191     63190     63192
     63193     63194     63193     63195     63196     63197     63196     63198
     63199     63200     63199     63201     63202     63203     63202     63204
     63205     63206     63205     63207     63208     63209     63208     63210
     63211     63212     63211     63213     63214     63215     63214     63216
     63217     63218     63217     63219     63220     63221     63220     63222
     63223     63224     63223     63225     63226     63227     63226     63228
     63229     63230     63229     63231     63232     63233     63232     63234
     63235     63236     63235     63237     63238     63239     63238     63240
     63241     63242     63241     63243     63244     63245     63244     63246
     63247     63248     63247     63249     63250     63251     63250     63252
     63253     63254     63253     63255     63256     63257     63256     63258
     63259     63260     63259     63261     63262     63263     63262     63264
     63265     63266     63265     63267     63268     63269     63268     63270
     63271     63272     63271     63273     63274     63275     63274     63276
     63277     63278     63277     63279     63280     63281     63280     63282
     63283     63284     63283     63285     63286     63287     63286     63288
     63289     63290     63289     63291     63292     63293     63292     63294
     63295     63296     63295     63297     63298     63299     63298     63300
     63301     63302     63301     63303     63304     63305     63304     63306
     63307     63308     63307     63309     63310     63311     63310     63312
     63313     63314     63313     63315     63316     63317     63316     63318
     63319     63320     63319     63321     63322     63323     63322     63324
     63325     63326     63325     63327     63328     63329     63328     63330
     63331     63332     63331     63333     63334     63335     63334     63336
     63337     63338     63337     63339     63340     63341     63340     63342
     63343     63344     63343     63345     63346     63347     63346     63348
     63349     63350     63349     63351     63352     63353     63352     63354
     63355     63356     63355     63357     63358     63359     63358     63360
     63361     63362     63361     63363     63364     63365     63364     63366
     63367     63368     63367     63369     63370     63371     63370     63372
     63373     63374     63373     63375     63376     63377     63376     63378
     63379     63380     63379     63381     63382     63383     63382     63384
     63385     63386     63385     63387     63388     63389     63388     63390
     63391     63392     63391     63393     63394     63395     63394     63396
     63397     63398     63397     63399     63400     63401     63400     63402
     63403     63404     63403     63405     63406     63407     63406     63408
     63409     63410     63409     63411     63412     63413     63412     63414
     63415     63416     63415     63417     63418     63419     63418     63420
     63421     63422     63421     63423     63424     63425     63424     63426
     63427     63428     63427     63429     63430     63431     63430     63432
     63433     63434     63433     63435     63436     63437     63436     63438
     63439     63440     63439     63441     63442     63443     63442     63444
     63445     63446     63445     63447     63448     63449     63448     63450
     63451     63452     63451     63453     63454     63455     63454     63456
     63457     63458     63457     63459     63460     63461     63460     63462
     63463     63464     63463     63465     63466     63467     63466     63468
     63469     63470     63469     63471     63472     63473     63472     63474
     63475     63476     63475     63477     63478     63479     63478     63480
     63481     63482     63481     63483     63484     63485     63484     63486
     63487     63488     63487     63489     63490     63491     63490     63492
     63493     63494     63493     63495     63496     63497     63496     63498
     63499     63500     63499     63501     63502     63503     63502     63504
     63505     63506     63505     63507     63508     63509     63508     63510
     63511     63512     63511     63513     63514     63515     63514     63516
     63517     63518     63517     63519     63520     63521     63520     63522
     63523     63524     63523     63525     63526     63527     63526     63528
     63529     63530     63529     63531     63532     63533     63532     63534
     63535     63536     63535     63537     63538     63539     63538     63540
     63541     63542     63541     63543     63544     63545     63544     63546
     63547     63548     63547     63549     63550     63551     63550     63552
     63553     63554     63553     63555     63556     63557     63556     63558
     63559     63560     63559     63561     63562     63563     63562     63564
     63565     63566     63565     63567     63568     63569     63568     63570
     63571     63572     63571     63573     63574     63575     63574     63576
     63577     63578     63577     63579     63580     63581     63580     63582
     63583     63584     63583     63585     63586     63587     63586     63588
     63589     63590     63589     63591     63592     63593     63592     63594
     63595     63596     63595     63597     63598     63599     63598     63600
     63601     63602     63601     63603     63604     63605     63604     63606
     63607     63608     63607     63609     63610     63611     63610     63612
     63613     63614     63613     63615     63616     63617     63616     63618
     63619     63620     63619     63621     63622     63623     63622     63624
     63625     63626     63625     63627     63628     63629     63628     63630
     63631     63632     63631     63633     63634     63635     63634     63636
     63637     63638     63637     63639     63640     63641     63640     63642
     63643     63644     63643     63645     63646     63647     63646     63648
     63649     63650     63649     63651     63652     63653     63652     63654
     63655     63656     63655     63657     63658     63659     63658     63660
     63661     63662     63661     63663     63664     63665     63664     63666
     63667     63668     63667     63669     63670     63671     63670     63672
     63673     63674     63673     63675     63676     63677     63676     63678
     63679     63680     63679     63681     63682     63683     63682     63684
     63685     63686     63685     63687     63688     63689     63688     63690
     63691     63692     63691     63693     63694     63695     63694     63696
     63697     63698     63697     63699     63700     63701     63700     63702
     63703     63704     63703     63705     63706     63707     63706     63708
     63709     63710     63709     63711     63712     63713     63712     63714
     63715     63716     63715     63717     63718     63719     63718     63720
     63721     63722     63721     63723     63724     63725     63724     63726
     63727     63728     63727     63729     63730     63731     63730     63732
     63733     63734     63733     63735     63736     63737     63736     63738
     63739     63740     63739     63741     63742     63743     63742     63744
     63745     63746     63745     63747     63748     63749     63748     63750
     63751     63752     63751     63753     63754     63755     63754     63756
     63757     63758     63757     63759     63760     63761     63760     63762
     63763     63764     63763     63765     63766     63767     63766     63768
     63769     63770     63769     63771     63772     63773     63772     63774
     63775     63776     63775     63777     63778     63779     63778     63780
     63781     63782     63781     63783     63784     63785     63784     63786
     63787     63788     63787     63789     63790     63791     63790     63792
     63793     63794     63793     63795     63796     63797     63796     63798
     63799     63800     63799     63801     63802     63803     63802     63804
     63805     63806     63805     63807     63808     63809     63808     63810
     63811     63812     63811     63813     63814     63815     63814     63816
     63817     63818     63817     63819     63820     63821     63820     63822
     63823     63824     63823     63825     63826     63827     63826     63828
     63829     63830     63829     63831     63832     63833     63832     63834
     63835     63836     63835     63837     63838     63839     63838     63840
     63841     63842     63841     63843     63844     63845     63844     63846
     63847     63848     63847     63849     63850     63851     63850     63852
     63853     63854     63853     63855     63856     63857     63856     63858
     63859     63860     63859     63861     63862     63863     63862     63864
     63865     63866     63865     63867     63868     63869     63868     63870
     63871     63872     63871     63873     63874     63875     63874     63876
     63877     63878     63877     63879     63880     63881     63880     63882
     63883     63884     63883     63885     63886     63887     63886     63888
     63889     63890     63889     63891     63892     63893     63892     63894
     63895     63896     63895     63897     63898     63899     63898     63900
     63901     63902     63901     63903     63904     63905     63904     63906
     63907     63908     63907     63909     63910     63911     63910     63912
     63913     63914     63913     63915     63916     63917     63916     63918
     63919     63920     63919     63921     63922     63923     63922     63924
     63925     63926     63925     63927     63928     63929     63928     63930
     63931     63932     63931     63933     63934     63935     63934     63936
     63937     63938     63937     63939     63940     63941     63940     63942
     63943     63944     63943     63945     63946     63947     63946     63948
     63949     63950     63949     63951     63952     63953     63952     63954
     63955     63956     63955     63957     63958     63959     63958     63960
     63961     63962     63961     63963     63964     63965     63964     63966
     63967     63968     63967     63969     63970     63971     63970     63972
     63973     63974     63973     63975     63976     63977     63976     63978
     63979     63980     63979     63981     63982     63983     63982     63984
     63985     63986     63985     63987     63988     63989     63988     63990
     63991     63992     63991     63993     63994     63995     63994     63996
     63997     63998     63997     63999     64000     64001     64000     64002
     64003     64004     64003     64005     64006     64007     64006     64008
     64009     64010     64009     64011     64012     64013     64012     64014
     64015     64016     64015     64017     64018     64019     64018     64020
     64021     64022     64021     64023     64024     64025     64024     64026
     64027     64028     64027     64029     64030     64031     64030     64032
     64033     64034     64033     64035     64036     64037     64036     64038
     64039     64040     64039     64041     64042     64043     64042     64044
     64045     64046     64045     64047     64048     64049     64048     64050
     64051     64052     64051     64053     64054     64055     64054     64056
     64057     64058     64057     64059     64060     64061     64060     64062
     64063     64064     64063     64065     64066     64067     64066     64068
     64069     64070     64069     64071     64072     64073     64072     64074
     64075     64076     64075     64077     64078     64079     64078     64080
     64081     64082     64081     64083     64084     64085     64084     64086
     64087     64088     64087     64089     64090     64091     64090     64092
     64093     64094     64093     64095     64096     64097     64096     64098
     64099     64100     64099     64101     64102     64103     64102     64104
     64105     64106     64105     64107     64108     64109     64108     64110
     64111     64112     64111     64113     64114     64115     64114     64116
     64117     64118     64117     64119     64120     64121     64120     64122
     64123     64124     64123     64125     64126     64127     64126     64128
     64129     64130     64129     64131     64132     64133     64132     64134
     64135     64136     64135     64137     64138     64139     64138     64140
     64141     64142     64141     64143     64144     64145     64144     64146
     64147     64148     64147     64149     64150     64151     64150     64152
     64153     64154     64153     64155     64156     64157     64156     64158
     64159     64160     64159     64161     64162     64163     64162     64164
     64165     64166     64165     64167     64168     64169     64168     64170
     64171     64172     64171     64173     64174     64175     64174     64176
     64177     64178     64177     64179     64180     64181     64180     64182
     64183     64184     64183     64185     64186     64187     64186     64188
     64189     64190     64189     64191     64192     64193     64192     64194
     64195     64196     64195     64197     64198     64199     64198     64200
     64201     64202     64201     64203     64204     64205     64204     64206
     64207     64208     64207     64209     64210     64211     64210     64212
     64213     64214     64213     64215     64216     64217     64216     64218
     64219     64220     64219     64221     64222     64223     64222     64224
     64225     64226     64225     64227     64228     64229     64228     64230
     64231     64232     64231     64233     64234     64235     64234     64236
     64237     64238     64237     64239     64240     64241     64240     64242
     64243     64244     64243     64245     64246     64247     64246     64248
     64249     64250     64249     64251     64252     64253     64252     64254
     64255     64256     64255     64257     64258     64259     64258     64260
     64261     64262     64261     64263     64264     64265     64264     64266
     64267     64268     64267     64269     64270     64271     64270     64272
     64273     64274     64273     64275     64276     64277     64276     64278
     64279     64280     64279     64281     64282     64283     64282     64284
     64285     64286     64285     64287     64288     64289     64288     64290
     64291     64292     64291     64293     64294     64295     64294     64296
     64297     64298     64297     64299     64300     64301     64300     64302
     64303     64304     64303     64305     64306     64307     64306     64308
     64309     64310     64309     64311     64312     64313     64312     64314
     64315     64316     64315     64317     64318     64319     64318     64320
     64321     64322     64321     64323     64324     64325     64324     64326
     64327     64328     64327     64329     64330     64331     64330     64332
     64333     64334     64333     64335     64336     64337     64336     64338
     64339     64340     64339     64341     64342     64343     64342     64344
     64345     64346     64345     64347     64348     64349     64348     64350
     64351     64352     64351     64353     64354     64355     64354     64356
     64357     64358     64357     64359     64360     64361     64360     64362
     64363     64364     64363     64365     64366     64367     64366     64368
     64369     64370     64369     64371     64372     64373     64372     64374
     64375     64376     64375     64377     64378     64379     64378     64380
     64381     64382     64381     64383     64384     64385     64384     64386
     64387     64388     64387     64389     64390     64391     64390     64392
     64393     64394     64393     64395     64396     64397     64396     64398
     64399     64400     64399     64401     64402     64403     64402     64404
     64405     64406     64405     64407     64408     64409     64408     64410
     64411     64412     64411     64413     64414     64415     64414     64416
     64417     64418     64417     64419     64420     64421     64420     64422
     64423     64424     64423     64425     64426     64427     64426     64428
     64429     64430     64429     64431     64432     64433     64432     64434
     64435     64436     64435     64437     64438     64439     64438     64440
     64441     64442     64441     64443     64444     64445     64444     64446
     64447     64448     64447     64449     64450     64451     64450     64452
     64453     64454     64453     64455     64456     64457     64456     64458
     64459     64460     64459     64461     64462     64463     64462     64464
     64465     64466     64465     64467     64468     64469     64468     64470
     64471     64472     64471     64473     64474     64475     64474     64476
     64477     64478     64477     64479     64480     64481     64480     64482
     64483     64484     64483     64485     64486     64487     64486     64488
     64489     64490     64489     64491     64492     64493     64492     64494
     64495     64496     64495     64497     64498     64499     64498     64500
     64501     64502     64501     64503     64504     64505     64504     64506
     64507     64508     64507     64509     64510     64511     64510     64512
     64513     64514     64513     64515     64516     64517     64516     64518
     64519     64520     64519     64521     64522     64523     64522     64524
     64525     64526     64525     64527     64528     64529     64528     64530
     64531     64532     64531     64533     64534     64535     64534     64536
     64537     64538     64537     64539     64540     64541     64540     64542
     64543     64544     64543     64545     64546     64547     64546     64548
     64549     64550     64549     64551     64552     64553     64552     64554
     64555     64556     64555     64557     64558     64559     64558     64560
     64561     64562     64561     64563     64564     64565     64564     64566
     64567     64568     64567     64569     64570     64571     64570     64572
     64573     64574     64573     64575     64576     64577     64576     64578
     64579     64580     64579     64581     64582     64583     64582     64584
     64585     64586     64585     64587     64588     64589     64588     64590
     64591     64592     64591     64593     64594     64595     64594     64596
     64597     64598     64597     64599     64600     64601     64600     64602
     64603     64604     64603     64605     64606     64607     64606     64608
     64609     64610     64609     64611     64612     64613     64612     64614
     64615     64616     64615     64617     64618     64619     64618     64620
     64621     64622     64621     64623     64624     64625     64624     64626
     64627     64628     64627     64629     64630     64631     64630     64632
     64633     64634     64633     64635     64636     64637     64636     64638
     64639     64640     64639     64641     64642     64643     64642     64644
     64645     64646     64645     64647     64648     64649     64648     64650
     64651     64652     64651     64653     64654     64655     64654     64656
     64657     64658     64657     64659     64660     64661     64660     64662
     64663     64664     64663     64665     64666     64667     64666     64668
     64669     64670     64669     64671     64672     64673     64672     64674
     64675     64676     64675     64677     64678     64679     64678     64680
     64681     64682     64681     64683     64684     64685     64684     64686
     64687     64688     64687     64689     64690     64691     64690     64692
     64693     64694     64693     64695     64696     64697     64696     64698
     64699     64700     64699     64701     64702     64703     64702     64704
     64705     64706     64705     64707     64708     64709     64708     64710
     64711     64712     64711     64713     64714     64715     64714     64716
     64717     64718     64717     64719     64720     64721     64720     64722
     64723     64724     64723     64725     64726     64727     64726     64728
     64729     64730     64729     64731     64732     64733     64732     64734
     64735     64736     64735     64737     64738     64739     64738     64740
     64741     64742     64741     64743     64744     64745     64744     64746
     64747     64748     64747     64749     64750     64751     64750     64752
     64753     64754     64753     64755     64756     64757     64756     64758
     64759     64760     64759     64761     64762     64763     64762     64764
     64765     64766     64765     64767     64768     64769     64768     64770
     64771     64772     64771     64773     64774     64775     64774     64776
     64777     64778     64777     64779     64780     64781     64780     64782
     64783     64784     64783     64785     64786     64787     64786     64788
     64789     64790     64789     64791     64792     64793     64792     64794
     64795     64796     64795     64797     64798     64799     64798     64800
     64801     64802     64801     64803     64804     64805     64804     64806
     64807     64808     64807     64809     64810     64811     64810     64812
     64813     64814     64813     64815     64816     64817     64816     64818
     64819     64820     64819     64821     64822     64823     64822     64824
     64825     64826     64825     64827     64828     64829     64828     64830
     64831     64832     64831     64833     64834     64835     64834     64836
     64837     64838     64837     64839     64840     64841     64840     64842
     64843     64844     64843     64845     64846     64847     64846     64848
     64849     64850     64849     64851     64852     64853     64852     64854
     64855     64856     64855     64857     64858     64859     64858     64860
     64861     64862     64861     64863     64864     64865     64864     64866
     64867     64868     64867     64869     64870     64871     64870     64872
     64873     64874     64873     64875     64876     64877     64876     64878
     64879     64880     64879     64881     64882     64883     64882     64884
     64885     64886     64885     64887     64888     64889     64888     64890
     64891     64892     64891     64893     64894     64895     64894     64896
     64897     64898     64897     64899     64900     64901     64900     64902
     64903     64904     64903     64905     64906     64907     64906     64908
     64909     64910     64909     64911     64912     64913     64912     64914
     64915     64916     64915     64917     64918     64919     64918     64920
     64921     64922     64921     64923     64924     64925     64924     64926
     64927     64928     64927     64929     64930     64931     64930     64932
     64933     64934     64933     64935     64936     64937     64936     64938
     64939     64940     64939     64941     64942     64943     64942     64944
     64945     64946     64945     64947     64948     64949     64948     64950
     64951     64952     64951     64953     64954     64955     64954     64956
     64957     64958     64957     64959     64960     64961     64960     64962
     64963     64964     64963     64965     64966     64967     64966     64968
     64969     64970     64969     64971     64972     64973     64972     64974
     64975     64976     64975     64977     64978     64979     64978     64980
     64981     64982     64981     64983     64984     64985     64984     64986
     64987     64988     64987     64989     64990     64991     64990     64992
     64993     64994     64993     64995     64996     64997     64996     64998
     64999     65000     64999     65001     65002     65003     65002     65004
     65005     65006     65005     65007     65008     65009     65008     65010
     65011     65012     65011     65013     65014     65015     65014     65016
     65017     65018     65017     65019     65020     65021     65020     65022
     65023     65024     65023     65025     65026     65027     65026     65028
     65029     65030     65029     65031     65032     65033     65032     65034
     65035     65036     65035     65037     65038     65039     65038     65040
     65041     65042     65041     65043     65044     65045     65044     65046
     65047     65048     65047     65049     65050     65051     65050     65052
     65053     65054     65053     65055     65056     65057     65056     65058
     65059     65060     65059     65061     65062     65063     65062     65064
     65065     65066     65065     65067     65068     65069     65068     65070
     65071     65072     65071     65073     65074     65075     65074     65076
     65077     65078     65077     65079     65080     65081     65080     65082
     65083     65084     65083     65085     65086     65087     65086     65088
     65089     65090     65089     65091     65092     65093     65092     65094
     65095     65096     65095     65097     65098     65099     65098     65100
     65101     65102     65101     65103     65104     65105     65104     65106
     65107     65108     65107     65109     65110     65111     65110     65112
     65113     65114     65113     65115     65116     65117     65116     65118
     65119     65120     65119     65121     65122     65123     65122     65124
     65125     65126     65125     65127     65128     65129     65128     65130
     65131     65132     65131     65133     65134     65135     65134     65136
     65137     65138     65137     65139     65140     65141     65140     65142
     65143     65144     65143     65145     65146     65147     65146     65148
     65149     65150     65149     65151     65152     65153     65152     65154
     65155     65156     65155     65157     65158     65159     65158     65160
     65161     65162     65161     65163     65164     65165     65164     65166
     65167     65168     65167     65169     65170     65171     65170     65172
     65173     65174     65173     65175     65176     65177     65176     65178
     65179     65180     65179     65181     65182     65183     65182     65184
     65185     65186     65185     65187     65188     65189     65188     65190
     65191     65192     65191     65193     65194     65195     65194     65196
     65197     65198     65197     65199     65200     65201     65200     65202
     65203     65204     65203     65205     65206     65207     65206     65208
     65209     65210     65209     65211     65212     65213     65212     65214
     65215     65216     65215     65217     65218     65219     65218     65220
     65221     65222     65221     65223     65224     65225     65224     65226
     65227     65228     65227     65229     65230     65231     65230     65232
     65233     65234     65233     65235     65236     65237     65236     65238
     65239     65240     65239     65241     65242     65243     65242     65244
     65245     65246     65245     65247     65248     65249     65248     65250
     65251     65252     65251     65253     65254     65255     65254     65256
     65257     65258     65257     65259     65260     65261     65260     65262
     65263     65264     65263     65265     65266     65267     65266     65268
     65269     65270     65269     65271     65272     65273     65272     65274
     65275     65276     65275     65277     65278     65279     65278     65280
     65281     65282     65281     65283     65284     65285     65284     65286
     65287     65288     65287     65289     65290     65291     65290     65292
     65293     65294     65293     65295     65296     65297     65296     65298
     65299     65300     65299     65301     65302     65303     65302     65304
     65305     65306     65305     65307     65308     65309     65308     65310
     65311     65312     65311     65313     65314     65315     65314     65316
     65317     65318     65317     65319     65320     65321     65320     65322
     65323     65324     65323     65325     65326     65327     65326     65328
     65329     65330     65329     65331     65332     65333     65332     65334
     65335     65336     65335     65337     65338     65339     65338     65340
     65341     65342     65341     65343     65344     65345     65344     65346
     65347     65348     65347     65349     65350     65351     65350     65352
     65353     65354     65353     65355     65356     65357     65356     65358
     65359     65360     65359     65361     65362     65363     65362     65364
     65365     65366     65365     65367     65368     65369     65368     65370
     65371     65372     65371     65373     65374     65375     65374     65376
     65377     65378     65377     65379     65380     65381     65380     65382
     65383     65384     65383     65385     65386     65387     65386     65388
     65389     65390     65389     65391     65392     65393     65392     65394
     65395     65396     65395     65397     65398     65399     65398     65400
     65401     65402     65401     65403     65404     65405     65404     65406
     65407     65408     65407     65409     65410     65411     65410     65412
     65413     65414     65413     65415     65416     65417     65416     65418
     65419     65420     65419     65421     65422     65423     65422     65424
     65425     65426     65425     65427     65428     65429     65428     65430
     65431     65432     65431     65433     65434     65435     65434     65436
     65437     65438     65437     65439     65440     65441     65440     65442
     65443     65444     65443     65445     65446     65447     65446     65448
     65449     65450     65449     65451     65452     65453     65452     65454
     65455     65456     65455     65457     65458     65459     65458     65460
     65461     65462     65461     65463     65464     65465     65464     65466
     65467     65468     65467     65469     65470     65471     65470     65472
     65473     65474     65473     65475     65476     65477     65476     65478
     65479     65480     65479     65481     65482     65483     65482     65484
     65485     65486     65485     65487     65488     65489     65488     65490
     65491     65492     65491     65493     65494     65495     65494     65496
     65497     65498     65497     65499     65500     65501     65500     65502
     65503     65504     65503     65505     65506     65507     65506     65508
     65509     65510     65509     65511     65512     65513     65512     65514
     65515     65516     65515     65517     65518     65519     65518     65520
     65521     65522     65521     65523     65524     65525     65524     65526
     65527     65528     65527     65529     65530     65531     65530     65532
     65533     65534     65533     65535     65536     65537     65536     65538
     65539     65540     65539     65541     65542     65543     65542     65544
     65545     65546     65545     65547     65548     65549     65548     65550
     65551     65552     65551     65553     65554     65555     65554     65556
     65557     65558     65557     65559     65560     65561     65560     65562
     65563     65564     65563     65565     65566     65567     65566     65568
     65569     65570     65569     65571     65572     65573     65572     65574
     65575     65576     65575     65577     65578     65579     65578     65580
     65581     65582     65581     65583     65584     65585     65584     65586
     65587     65588     65587     65589     65590     65591     65590     65592
     65593     65594     65593     65595     65596     65597     65596     65598
     65599     65600     65599     65601     65602     65603     65602     65604
     65605     65606     65605     65607     65608     65609     65608     65610
     65611     65612     65611     65613     65614     65615     65614     65616
     65617     65618     65617     65619     65620     65621     65620     65622
     65623     65624     65623     65625     65626     65627     65626     65628
     65629     65630     65629     65631     65632     65633     65632     65634
     65635     65636     65635     65637     65638     65639     65638     65640
     65641     65642     65641     65643     65644     65645     65644     65646
     65647     65648     65647     65649     65650     65651     65650     65652
     65653     65654     65653     65655     65656     65657     65656     65658
     65659     65660     65659     65661     65662     65663     65662     65664
     65665     65666     65665     65667     65668     65669     65668     65670
     65671     65672     65671     65673     65674     65675     65674     65676
     65677     65678     65677     65679     65680     65681     65680     65682
     65683     65684     65683     65685     65686     65687     65686     65688
     65689     65690     65689     65691     65692     65693     65692     65694
     65695     65696     65695     65697     65698     65699     65698     65700
     65701     65702     65701     65703     65704     65705     65704     65706
     65707     65708     65707     65709     65710     65711     65710     65712
     65713     65714     65713     65715     65716     65717     65716     65718
     65719     65720     65719     65721     65722     65723     65722     65724
     65725     65726     65725     65727     65728     65729     65728     65730
     65731     65732     65731     65733     65734     65735     65734     65736
     65737     65738     65737     65739     65740     65741     65740     65742
     65743     65744     65743     65745     65746     65747     65746     65748
     65749     65750     65749     65751     65752     65753     65752     65754
     65755     65756     65755     65757     65758     65759     65758     65760
     65761     65762     65761     65763     65764     65765     65764     65766
     65767     65768     65767     65769     65770     65771     65770     65772
     65773     65774     65773     65775     65776     65777     65776     65778
     65779     65780     65779     65781     65782     65783     65782     65784
     65785     65786     65785     65787     65788     65789     65788     65790
     65791     65792     65791     65793     65794     65795     65794     65796
     65797     65798     65797     65799     65800     65801     65800     65802
     65803     65804     65803     65805     65806     65807     65806     65808
     65809     65810     65809     65811     65812     65813     65812     65814
     65815     65816     65815     65817     65818     65819     65818     65820
     65821     65822     65821     65823     65824     65825     65824     65826
     65827     65828     65827     65829     65830     65831     65830     65832
     65833     65834     65833     65835     65836     65837     65836     65838
     65839     65840     65839     65841     65842     65843     65842     65844
     65845     65846     65845     65847     65848     65849     65848     65850
     65851     65852     65851     65853     65854     65855     65854     65856
     65857     65858     65857     65859     65860     65861     65860     65862
     65863     65864     65863     65865     65866     65867     65866     65868
     65869     65870     65869     65871     65872     65873     65872     65874
     65875     65876     65875     65877     65878     65879     65878     65880
     65881     65882     65881     65883     65884     65885     65884     65886
     65887     65888     65887     65889     65890     65891     65890     65892
     65893     65894     65893     65895     65896     65897     65896     65898
     65899     65900     65899     65901     65902     65903     65902     65904
     65905     65906     65905     65907     65908     65909     65908     65910
     65911     65912     65911     65913     65914     65915     65914     65916
     65917     65918     65917     65919     65920     65921     65920     65922
     65923     65924     65923     65925     65926     65927     65926     65928
     65929     65930     65929     65931     65932     65933     65932     65934
     65935     65936     65935     65937     65938     65939     65938     65940
     65941     65942     65941     65943     65944     65945     65944     65946
     65947     65948     65947     65949     65950     65951     65950     65952
     65953     65954     65953     65955     65956     65957     65956     65958
     65959     65960     65959     65961     65962     65963     65962     65964
     65965     65966     65965     65967     65968     65969     65968     65970
     65971     65972     65971     65973     65974     65975     65974     65976
     65977     65978     65977     65979     65980     65981     65980     65982
     65983     65984     65983     65985     65986     65987     65986     65988
     65989     65990     65989     65991     65992     65993     65992     65994
     65995     65996     65995     65997     65998     65999     65998     66000
     66001     66002     66001     66003     66004     66005     66004     66006
     66007     66008     66007     66009     66010     66011     66010     66012
     66013     66014     66013     66015     66016     66017     66016     66018
     66019     66020     66019     66021     66022     66023     66022     66024
     66025     66026     66025     66027     66028     66029     66028     66030
     66031     66032     66031     66033     66034     66035     66034     66036
     66037     66038     66037     66039     66040     66041     66040     66042
     66043     66044     66043     66045     66046     66047     66046     66048
     66049     66050     66049     66051     66052     66053     66052     66054
     66055     66056     66055     66057     66058     66059     66058     66060
     66061     66062     66061     66063     66064     66065     66064     66066
     66067     66068     66067     66069     66070     66071     66070     66072
     66073     66074     66073     66075     66076     66077     66076     66078
     66079     66080     66079     66081     66082     66083     66082     66084
     66085     66086     66085     66087     66088     66089     66088     66090
     66091     66092     66091     66093     66094     66095     66094     66096
     66097     66098     66097     66099     66100     66101     66100     66102
     66103     66104     66103     66105     66106     66107     66106     66108
     66109     66110     66109     66111     66112     66113     66112     66114
     66115     66116     66115     66117     66118     66119     66118     66120
     66121     66122     66121     66123     66124     66125     66124     66126
     66127     66128     66127     66129     66130     66131     66130     66132
     66133     66134     66133     66135     66136     66137     66136     66138
     66139     66140     66139     66141     66142     66143     66142     66144
     66145     66146     66145     66147     66148     66149     66148     66150
     66151     66152     66151     66153     66154     66155     66154     66156
     66157     66158     66157     66159     66160     66161     66160     66162
     66163     66164     66163     66165     66166     66167     66166     66168
     66169     66170     66169     66171     66172     66173     66172     66174
     66175     66176     66175     66177     66178     66179     66178     66180
     66181     66182     66181     66183     66184     66185     66184     66186
     66187     66188     66187     66189     66190     66191     66190     66192
     66193     66194     66193     66195     66196     66197     66196     66198
     66199     66200     66199     66201     66202     66203     66202     66204
     66205     66206     66205     66207     66208     66209     66208     66210
     66211     66212     66211     66213     66214     66215     66214     66216
     66217     66218     66217     66219     66220     66221     66220     66222
     66223     66224     66223     66225     66226     66227     66226     66228
     66229     66230     66229     66231     66232     66233     66232     66234
     66235     66236     66235     66237     66238     66239     66238     66240
     66241     66242     66241     66243     66244     66245     66244     66246
     66247     66248     66247     66249     66250     66251     66250     66252
     66253     66254     66253     66255     66256     66257     66256     66258
     66259     66260     66259     66261     66262     66263     66262     66264
     66265     66266     66265     66267     66268     66269     66268     66270
     66271     66272     66271     66273     66274     66275     66274     66276
     66277     66278     66277     66279     66280     66281     66280     66282
     66283     66284     66283     66285     66286     66287     66286     66288
     66289     66290     66289     66291     66292     66293     66292     66294
     66295     66296     66295     66297     66298     66299     66298     66300
     66301     66302     66301     66303     66304     66305     66304     66306
     66307     66308     66307     66309     66310     66311     66310     66312
     66313     66314     66313     66315     66316     66317     66316     66318
     66319     66320     66319     66321     66322     66323     66322     66324
     66325     66326     66325     66327     66328     66329     66328     66330
     66331     66332     66331     66333     66334     66335     66334     66336
     66337     66338     66337     66339     66340     66341     66340     66342
     66343     66344     66343     66345     66346     66347     66346     66348
     66349     66350     66349     66351     66352     66353     66352     66354
     66355     66356     66355     66357     66358     66359     66358     66360
     66361     66362     66361     66363     66364     66365     66364     66366
     66367     66368     66367     66369     66370     66371     66370     66372
     66373     66374     66373     66375     66376     66377     66376     66378
     66379     66380     66379     66381     66382     66383     66382     66384
     66385     66386     66385     66387     66388     66389     66388     66390
     66391     66392     66391     66393     66394     66395     66394     66396
     66397     66398     66397     66399     66400     66401     66400     66402
     66403     66404     66403     66405     66406     66407     66406     66408
     66409     66410     66409     66411     66412     66413     66412     66414
     66415     66416     66415     66417     66418     66419     66418     66420
     66421     66422     66421     66423     66424     66425     66424     66426
     66427     66428     66427     66429     66430     66431     66430     66432
     66433     66434     66433     66435     66436     66437     66436     66438
     66439     66440     66439     66441     66442     66443     66442     66444
     66445     66446     66445     66447     66448     66449     66448     66450
     66451     66452     66451     66453     66454     66455     66454     66456
     66457     66458     66457     66459     66460     66461     66460     66462
     66463     66464     66463     66465     66466     66467     66466     66468
     66469     66470     66469     66471     66472     66473     66472     66474
     66475     66476     66475     66477     66478     66479     66478     66480
     66481     66482     66481     66483     66484     66485     66484     66486
     66487     66488     66487     66489     66490     66491     66490     66492
     66493     66494     66493     66495     66496     66497     66496     66498
     66499     66500     66499     66501     66502     66503     66502     66504
     66505     66506     66505     66507     66508     66509     66508     66510
     66511     66512     66511     66513     66514     66515     66514     66516
     66517     66518     66517     66519     66520     66521     66520     66522
     66523     66524     66523     66525     66526     66527     66526     66528
     66529     66530     66529     66531     66532     66533     66532     66534
     66535     66536     66535     66537     66538     66539     66538     66540
     66541     66542     66541     66543     66544     66545     66544     66546
     66547     66548     66547     66549     66550     66551     66550     66552
     66553     66554     66553     66555     66556     66557     66556     66558
     66559     66560     66559     66561     66562     66563     66562     66564
     66565     66566     66565     66567     66568     66569     66568     66570
     66571     66572     66571     66573     66574     66575     66574     66576
     66577     66578     66577     66579     66580     66581     66580     66582
     66583     66584     66583     66585     66586     66587     66586     66588
     66589     66590     66589     66591     66592     66593     66592     66594
     66595     66596     66595     66597     66598     66599     66598     66600
     66601     66602     66601     66603     66604     66605     66604     66606
     66607     66608     66607     66609     66610     66611     66610     66612
     66613     66614     66613     66615     66616     66617     66616     66618
     66619     66620     66619     66621     66622     66623     66622     66624
     66625     66626     66625     66627     66628     66629     66628     66630
     66631     66632     66631     66633     66634     66635     66634     66636
     66637     66638     66637     66639     66640     66641     66640     66642
     66643     66644     66643     66645     66646     66647     66646     66648
     66649     66650     66649     66651     66652     66653     66652     66654
     66655     66656     66655     66657     66658     66659     66658     66660
     66661     66662     66661     66663     66664     66665     66664     66666
     66667     66668     66667     66669     66670     66671     66670     66672
     66673     66674     66673     66675     66676     66677     66676     66678
     66679     66680     66679     66681     66682     66683     66682     66684
     66685     66686     66685     66687     66688     66689     66688     66690
     66691     66692     66691     66693     66694     66695     66694     66696
     66697     66698     66697     66699     66700     66701     66700     66702
     66703     66704     66703     66705     66706     66707     66706     66708
     66709     66710     66709     66711     66712     66713     66712     66714
     66715     66716     66715     66717     66718     66719     66718     66720
     66721     66722     66721     66723     66724     66725     66724     66726
     66727     66728     66727     66729     66730     66731     66730     66732
     66733     66734     66733     66735     66736     66737     66736     66738
     66739     66740     66739     66741     66742     66743     66742     66744
     66745     66746     66745     66747     66748     66749     66748     66750
     66751     66752     66751     66753     66754     66755     66754     66756
     66757     66758     66757     66759     66760     66761     66760     66762
     66763     66764     66763     66765     66766     66767     66766     66768
     66769     66770     66769     66771     66772     66773     66772     66774
     66775     66776     66775     66777     66778     66779     66778     66780
     66781     66782     66781     66783     66784     66785     66784     66786
     66787     66788     66787     66789     66790     66791     66790     66792
     66793     66794     66793     66795     66796     66797     66796     66798
     66799     66800     66799     66801     66802     66803     66802     66804
     66805     66806     66805     66807     66808     66809     66808     66810
     66811     66812     66811     66813     66814     66815     66814     66816
     66817     66818     66817     66819     66820     66821     66820     66822
     66823     66824     66823     66825     66826     66827     66826     66828
     66829     66830     66829     66831     66832     66833     66832     66834
     66835     66836     66835     66837     66838     66839     66838     66840
     66841     66842     66841     66843     66844     66845     66844     66846
     66847     66848     66847     66849     66850     66851     66850     66852
     66853     66854     66853     66855     66856     66857     66856     66858
     66859     66860     66859     66861     66862     66863     66862     66864
     66865     66866     66865     66867     66868     66869     66868     66870
     66871     66872     66871     66873     66874     66875     66874     66876
     66877     66878     66877     66879     66880     66881     66880     66882
     66883     66884     66883     66885     66886     66887     66886     66888
     66889     66890     66889     66891     66892     66893     66892     66894
     66895     66896     66895     66897     66898     66899     66898     66900
     66901     66902     66901     66903     66904     66905     66904     66906
     66907     66908     66907     66909     66910     66911     66910     66912
     66913     66914     66913     66915     66916     66917     66916     66918
     66919     66920     66919     66921     66922     66923     66922     66924
     66925     66926     66925     66927     66928     66929     66928     66930
     66931     66932     66931     66933     66934     66935     66934     66936
     66937     66938     66937     66939     66940     66941     66940     66942
     66943     66944     66943     66945     66946     66947     66946     66948
     66949     66950     66949     66951     66952     66953     66952     66954
     66955     66956     66955     66957     66958     66959     66958     66960
     66961     66962     66961     66963     66964     66965     66964     66966
     66967     66968     66967     66969     66970     66971     66970     66972
     66973     66974     66973     66975     66976     66977     66976     66978
     66979     66980     66979     66981     66982     66983     66982     66984
     66985     66986     66985     66987     66988     66989     66988     66990
     66991     66992     66991     66993     66994     66995     66994     66996
     66997     66998     66997     66999     67000     67001     67000     67002
     67003     67004     67003     67005     67006     67007     67006     67008
     67009     67010     67009     67011     67012     67013     67012     67014
     67015     67016     67015     67017     67018     67019     67018     67020
     67021     67022     67021     67023     67024     67025     67024     67026
     67027     67028     67027     67029     67030     67031     67030     67032
     67033     67034     67033     67035     67036     67037     67036     67038
     67039     67040     67039     67041     67042     67043     67042     67044
     67045     67046     67045     67047     67048     67049     67048     67050
     67051     67052     67051     67053     67054     67055     67054     67056
     67057     67058     67057     67059     67060     67061     67060     67062
     67063     67064     67063     67065     67066     67067     67066     67068
     67069     67070     67069     67071     67072     67073     67072     67074
     67075     67076     67075     67077     67078     67079     67078     67080
     67081     67082     67081     67083     67084     67085     67084     67086
     67087     67088     67087     67089     67090     67091     67090     67092
     67093     67094     67093     67095     67096     67097     67096     67098
     67099     67100     67099     67101     67102     67103     67102     67104
     67105     67106     67105     67107     67108     67109     67108     67110
     67111     67112     67111     67113     67114     67115     67114     67116
     67117     67118     67117     67119     67120     67121     67120     67122
     67123     67124     67123     67125     67126     67127     67126     67128
     67129     67130     67129     67131     67132     67133     67132     67134
     67135     67136     67135     67137     67138     67139     67138     67140
     67141     67142     67141     67143     67144     67145     67144     67146
     67147     67148     67147     67149     67150     67151     67150     67152
     67153     67154     67153     67155     67156     67157     67156     67158
     67159     67160     67159     67161     67162     67163     67162     67164
     67165     67166     67165     67167     67168     67169     67168     67170
     67171     67172     67171     67173     67174     67175     67174     67176
     67177     67178     67177     67179     67180     67181     67180     67182
     67183     67184     67183     67185     67186     67187     67186     67188
     67189     67190     67189     67191     67192     67193     67192     67194
     67195     67196     67195     67197     67198     67199     67198     67200
     67201     67202     67201     67203     67204     67205     67204     67206
     67207     67208     67207     67209     67210     67211     67210     67212
     67213     67214     67213     67215     67216     67217     67216     67218
     67219     67220     67219     67221     67222     67223     67222     67224
     67225     67226     67225     67227     67228     67229     67228     67230
     67231     67232     67231     67233     67234     67235     67234     67236
     67237     67238     67237     67239     67240     67241     67240     67242
     67243     67244     67243     67245     67246     67247     67246     67248
     67249     67250     67249     67251     67252     67253     67252     67254
     67255     67256     67255     67257     67258     67259     67258     67260
     67261     67262     67261     67263     67264     67265     67264     67266
     67267     67268     67267     67269     67270     67271     67270     67272
     67273     67274     67273     67275     67276     67277     67276     67278
     67279     67280     67279     67281     67282     67283     67282     67284
     67285     67286     67285     67287     67288     67289     67288     67290
     67291     67292     67291     67293     67294     67295     67294     67296
     67297     67298     67297     67299     67300     67301     67300     67302
     67303     67304     67303     67305     67306     67307     67306     67308
     67309     67310     67309     67311     67312     67313     67312     67314
     67315     67316     67315     67317     67318     67319     67318     67320
     67321     67322     67321     67323     67324     67325     67324     67326
     67327     67328     67327     67329     67330     67331     67330     67332
     67333     67334     67333     67335     67336     67337     67336     67338
     67339     67340     67339     67341     67342     67343     67342     67344
     67345     67346     67345     67347     67348     67349     67348     67350
     67351     67352     67351     67353     67354     67355     67354     67356
     67357     67358     67357     67359     67360     67361     67360     67362
     67363     67364     67363     67365     67366     67367     67366     67368
     67369     67370     67369     67371     67372     67373     67372     67374
     67375     67376     67375     67377     67378     67379     67378     67380
     67381     67382     67381     67383     67384     67385     67384     67386
     67387     67388     67387     67389     67390     67391     67390     67392
     67393     67394     67393     67395     67396     67397     67396     67398
     67399     67400     67399     67401     67402     67403     67402     67404
     67405     67406     67405     67407     67408     67409     67408     67410
     67411     67412     67411     67413     67414     67415     67414     67416
     67417     67418     67417     67419     67420     67421     67420     67422
     67423     67424     67423     67425     67426     67427     67426     67428
     67429     67430     67429     67431     67432     67433     67432     67434
     67435     67436     67435     67437     67438     67439     67438     67440
     67441     67442     67441     67443     67444     67445     67444     67446
     67447     67448     67447     67449     67450     67451     67450     67452
     67453     67454     67453     67455     67456     67457     67456     67458
     67459     67460     67459     67461     67462     67463     67462     67464
     67465     67466     67465     67467     67468     67469     67468     67470
     67471     67472     67471     67473     67474     67475     67474     67476
     67477     67478     67477     67479     67480     67481     67480     67482
     67483     67484     67483     67485     67486     67487     67486     67488
     67489     67490     67489     67491     67492     67493     67492     67494
     67495     67496     67495     67497     67498     67499     67498     67500
     67501     67502     67501     67503     67504     67505     67504     67506
     67507     67508     67507     67509     67510     67511     67510     67512
     67513     67514     67513     67515     67516     67517     67516     67518
     67519     67520     67519     67521     67522     67523     67522     67524
     67525     67526     67525     67527     67528     67529     67528     67530
     67531     67532     67531     67533     67534     67535     67534     67536
     67537     67538     67537     67539     67540     67541     67540     67542
     67543     67544     67543     67545     67546     67547     67546     67548
     67549     67550     67549     67551     67552     67553     67552     67554
     67555     67556     67555     67557     67558     67559     67558     67560
     67561     67562     67561     67563     67564     67565     67564     67566
     67567     67568     67567     67569     67570     67571     67570     67572
     67573     67574     67573     67575     67576     67577     67576     67578
     67579     67580     67579     67581     67582     67583     67582     67584
     67585     67586     67585     67587     67588     67589     67588     67590
     67591     67592     67591     67593     67594     67595     67594     67596
     67597     67598     67597     67599     67600     67601     67600     67602
     67603     67604     67603     67605     67606     67607     67606     67608
     67609     67610     67609     67611     67612     67613     67612     67614
     67615     67616     67615     67617     67618     67619     67618     67620
     67621     67622     67621     67623     67624     67625     67624     67626
     67627     67628     67627     67629     67630     67631     67630     67632
     67633     67634     67633     67635     67636     67637     67636     67638
     67639     67640     67639     67641     67642     67643     67642     67644
     67645     67646     67645     67647     67648     67649     67648     67650
     67651     67652     67651     67653     67654     67655     67654     67656
     67657     67658     67657     67659     67660     67661     67660     67662
     67663     67664     67663     67665     67666     67667     67666     67668
     67669     67670     67669     67671     67672     67673     67672     67674
     67675     67676     67675     67677     67678     67679     67678     67680
     67681     67682     67681     67683     67684     67685     67684     67686
     67687     67688     67687     67689     67690     67691     67690     67692
     67693     67694     67693     67695     67696     67697     67696     67698
     67699     67700     67699     67701     67702     67703     67702     67704
     67705     67706     67705     67707     67708     67709     67708     67710
     67711     67712     67711     67713     67714     67715     67714     67716
     67717     67718     67717     67719     67720     67721     67720     67722
     67723     67724     67723     67725     67726     67727     67726     67728
     67729     67730     67729     67731     67732     67733     67732     67734
     67735     67736     67735     67737     67738     67739     67738     67740
     67741     67742     67741     67743     67744     67745     67744     67746
     67747     67748     67747     67749     67750     67751     67750     67752
     67753     67754     67753     67755     67756     67757     67756     67758
     67759     67760     67759     67761     67762     67763     67762     67764
     67765     67766     67765     67767     67768     67769     67768     67770
     67771     67772     67771     67773     67774     67775     67774     67776
     67777     67778     67777     67779     67780     67781     67780     67782
     67783     67784     67783     67785     67786     67787     67786     67788
     67789     67790     67789     67791     67792     67793     67792     67794
     67795     67796     67795     67797     67798     67799     67798     67800
     67801     67802     67801     67803     67804     67805     67804     67806
     67807     67808     67807     67809     67810     67811     67810     67812
     67813     67814     67813     67815     67816     67817     67816     67818
     67819     67820     67819     67821     67822     67823     67822     67824
     67825     67826     67825     67827     67828     67829     67828     67830
     67831     67832     67831     67833     67834     67835     67834     67836
     67837     67838     67837     67839     67840     67841     67840     67842
     67843     67844     67843     67845     67846     67847     67846     67848
     67849     67850     67849     67851     67852     67853     67852     67854
     67855     67856     67855     67857     67858     67859     67858     67860
     67861     67862     67861     67863     67864     67865     67864     67866
     67867     67868     67867     67869     67870     67871     67870     67872
     67873     67874     67873     67875     67876     67877     67876     67878
     67879     67880     67879     67881     67882     67883     67882     67884
     67885     67886     67885     67887     67888     67889     67888     67890
     67891     67892     67891     67893     67894     67895     67894     67896
     67897     67898     67897     67899     67900     67901     67900     67902
     67903     67904     67903     67905     67906     67907     67906     67908
     67909     67910     67909     67911     67912     67913     67912     67914
     67915     67916     67915     67917     67918     67919     67918     67920
     67921     67922     67921     67923     67924     67925     67924     67926
     67927     67928     67927     67929     67930     67931     67930     67932
     67933     67934     67933     67935     67936     67937     67936     67938
     67939     67940     67939     67941     67942     67943     67942     67944
     67945     67946     67945     67947     67948     67949     67948     67950
     67951     67952     67951     67953     67954     67955     67954     67956
     67957     67958     67957     67959     67960     67961     67960     67962
     67963     67964     67963     67965     67966     67967     67966     67968
     67969     67970     67969     67971     67972     67973     67972     67974
     67975     67976     67975     67977     67978     67979     67978     67980
     67981     67982     67981     67983     67984     67985     67984     67986
     67987     67988     67987     67989     67990     67991     67990     67992
     67993     67994     67993     67995     67996     67997     67996     67998
     67999     68000     67999     68001     68002     68003     68002     68004
     68005     68006     68005     68007     68008     68009     68008     68010
     68011     68012     68011     68013     68014     68015     68014     68016
     68017     68018     68017     68019     68020     68021     68020     68022
     68023     68024     68023     68025     68026     68027     68026     68028
     68029     68030     68029     68031     68032     68033     68032     68034
     68035     68036     68035     68037     68038     68039     68038     68040
     68041     68042     68041     68043     68044     68045     68044     68046
     68047     68048     68047     68049     68050     68051     68050     68052
     68053     68054     68053     68055     68056     68057     68056     68058
     68059     68060     68059     68061     68062     68063     68062     68064
     68065     68066     68065     68067     68068     68069     68068     68070
     68071     68072     68071     68073     68074     68075     68074     68076
     68077     68078     68077     68079     68080     68081     68080     68082
     68083     68084     68083     68085     68086     68087     68086     68088
     68089     68090     68089     68091     68092     68093     68092     68094
     68095     68096     68095     68097     68098     68099     68098     68100
     68101     68102     68101     68103     68104     68105     68104     68106
     68107     68108     68107     68109     68110     68111     68110     68112
     68113     68114     68113     68115     68116     68117     68116     68118
     68119     68120     68119     68121     68122     68123     68122     68124
     68125     68126     68125     68127     68128     68129     68128     68130
     68131     68132     68131     68133     68134     68135     68134     68136
     68137     68138     68137     68139     68140     68141     68140     68142
     68143     68144     68143     68145     68146     68147     68146     68148
     68149     68150     68149     68151     68152     68153     68152     68154
     68155     68156     68155     68157     68158     68159     68158     68160
     68161     68162     68161     68163     68164     68165     68164     68166
     68167     68168     68167     68169     68170     68171     68170     68172
     68173     68174     68173     68175     68176     68177     68176     68178
     68179     68180     68179     68181     68182     68183     68182     68184
     68185     68186     68185     68187     68188     68189     68188     68190
     68191     68192     68191     68193     68194     68195     68194     68196
     68197     68198     68197     68199     68200     68201     68200     68202
     68203     68204     68203     68205     68206     68207     68206     68208
     68209     68210     68209     68211     68212     68213     68212     68214
     68215     68216     68215     68217     68218     68219     68218     68220
     68221     68222     68221     68223     68224     68225     68224     68226
     68227     68228     68227     68229     68230     68231     68230     68232
     68233     68234     68233     68235     68236     68237     68236     68238
     68239     68240     68239     68241     68242     68243     68242     68244
     68245     68246     68245     68247     68248     68249     68248     68250
     68251     68252     68251     68253     68254     68255     68254     68256
     68257     68258     68257     68259     68260     68261     68260     68262
     68263     68264     68263     68265     68266     68267     68266     68268
     68269     68270     68269     68271     68272     68273     68272     68274
     68275     68276     68275     68277     68278     68279     68278     68280
     68281     68282     68281     68283     68284     68285     68284     68286
     68287     68288     68287     68289     68290     68291     68290     68292
     68293     68294     68293     68295     68296     68297     68296     68298
     68299     68300     68299     68301     68302     68303     68302     68304
     68305     68306     68305     68307     68308     68309     68308     68310
     68311     68312     68311     68313     68314     68315     68314     68316
     68317     68318     68317     68319     68320     68321     68320     68322
     68323     68324     68323     68325     68326     68327     68326     68328
     68329     68330     68329     68331     68332     68333     68332     68334
     68335     68336     68335     68337     68338     68339     68338     68340
     68341     68342     68341     68343     68344     68345     68344     68346
     68347     68348     68347     68349     68350     68351     68350     68352
     68353     68354     68353     68355     68356     68357     68356     68358
     68359     68360     68359     68361     68362     68363     68362     68364
     68365     68366     68365     68367     68368     68369     68368     68370
     68371     68372     68371     68373     68374     68375     68374     68376
     68377     68378     68377     68379     68380     68381     68380     68382
     68383     68384     68383     68385     68386     68387     68386     68388
     68389     68390     68389     68391     68392     68393     68392     68394
     68395     68396     68395     68397     68398     68399     68398     68400
     68401     68402     68401     68403     68404     68405     68404     68406
     68407     68408     68407     68409     68410     68411     68410     68412
     68413     68414     68413     68415     68416     68417     68416     68418
     68419     68420     68419     68421     68422     68423     68422     68424
     68425     68426     68425     68427     68428     68429     68428     68430
     68431     68432     68431     68433     68434     68435     68434     68436
     68437     68438     68437     68439     68440     68441     68440     68442
     68443     68444     68443     68445     68446     68447     68446     68448
     68449     68450     68449     68451     68452     68453     68452     68454
     68455     68456     68455     68457     68458     68459     68458     68460
     68461     68462     68461     68463     68464     68465     68464     68466
     68467     68468     68467     68469     68470     68471     68470     68472
     68473     68474     68473     68475     68476     68477     68476     68478
     68479     68480     68479     68481     68482     68483     68482     68484
     68485     68486     68485     68487     68488     68489     68488     68490
     68491     68492     68491     68493     68494     68495     68494     68496
     68497     68498     68497     68499     68500     68501     68500     68502
     68503     68504     68503     68505     68506     68507     68506     68508
     68509     68510     68509     68511     68512     68513     68512     68514
     68515     68516     68515     68517     68518     68519     68518     68520
     68521     68522     68521     68523     68524     68525     68524     68526
     68527     68528     68527     68529     68530     68531     68530     68532
     68533     68534     68533     68535     68536     68537     68536     68538
     68539     68540     68539     68541     68542     68543     68542     68544
     68545     68546     68545     68547     68548     68549     68548     68550
     68551     68552     68551     68553     68554     68555     68554     68556
     68557     68558     68557     68559     68560     68561     68560     68562
     68563     68564     68563     68565     68566     68567     68566     68568
     68569     68570     68569     68571     68572     68573     68572     68574
     68575     68576     68575     68577     68578     68579     68578     68580
     68581     68582     68581     68583     68584     68585     68584     68586
     68587     68588     68587     68589     68590     68591     68590     68592
     68593     68594     68593     68595     68596     68597     68596     68598
     68599     68600     68599     68601     68602     68603     68602     68604
     68605     68606     68605     68607     68608     68609     68608     68610
     68611     68612     68611     68613     68614     68615     68614     68616
     68617     68618     68617     68619     68620     68621     68620     68622
     68623     68624     68623     68625     68626     68627     68626     68628
     68629     68630     68629     68631     68632     68633     68632     68634
     68635     68636     68635     68637     68638     68639     68638     68640
     68641     68642     68641     68643     68644     68645     68644     68646
     68647     68648     68647     68649     68650     68651     68650     68652
     68653     68654     68653     68655     68656     68657     68656     68658
     68659     68660     68659     68661     68662     68663     68662     68664
     68665     68666     68665     68667     68668     68669     68668     68670
     68671     68672     68671     68673     68674     68675     68674     68676
     68677     68678     68677     68679     68680     68681     68680     68682
     68683     68684     68683     68685     68686     68687     68686     68688
     68689     68690     68689     68691     68692     68693     68692     68694
     68695     68696     68695     68697     68698     68699     68698     68700
     68701     68702     68701     68703     68704     68705     68704     68706
     68707     68708     68707     68709     68710     68711     68710     68712
     68713     68714     68713     68715     68716     68717     68716     68718
     68719     68720     68719     68721     68722     68723     68722     68724
     68725     68726     68725     68727     68728     68729     68728     68730
     68731     68732     68731     68733     68734     68735     68734     68736
     68737     68738     68737     68739     68740     68741     68740     68742
     68743     68744     68743     68745     68746     68747     68746     68748
     68749     68750     68749     68751     68752     68753     68752     68754
     68755     68756     68755     68757     68758     68759     68758     68760
     68761     68762     68761     68763     68764     68765     68764     68766
     68767     68768     68767     68769     68770     68771     68770     68772
     68773     68774     68773     68775     68776     68777     68776     68778
     68779     68780     68779     68781     68782     68783     68782     68784
     68785     68786     68785     68787     68788     68789     68788     68790
     68791     68792     68791     68793     68794     68795     68794     68796
     68797     68798     68797     68799     68800     68801     68800     68802
     68803     68804     68803     68805     68806     68807     68806     68808
     68809     68810     68809     68811     68812     68813     68812     68814
     68815     68816     68815     68817     68818     68819     68818     68820
     68821     68822     68821     68823     68824     68825     68824     68826
     68827     68828     68827     68829     68830     68831     68830     68832
     68833     68834     68833     68835     68836     68837     68836     68838
     68839     68840     68839     68841     68842     68843     68842     68844
     68845     68846     68845     68847     68848     68849     68848     68850
     68851     68852     68851     68853     68854     68855     68854     68856
     68857     68858     68857     68859     68860     68861     68860     68862
     68863     68864     68863     68865     68866     68867     68866     68868
     68869     68870     68869     68871     68872     68873     68872     68874
     68875     68876     68875     68877     68878     68879     68878     68880
     68881     68882     68881     68883     68884     68885     68884     68886
     68887     68888     68887     68889     68890     68891     68890     68892
     68893     68894     68893     68895     68896     68897     68896     68898
     68899     68900     68899     68901     68902     68903     68902     68904
     68905     68906     68905     68907     68908     68909     68908     68910
     68911     68912     68911     68913     68914     68915     68914     68916
     68917     68918     68917     68919     68920     68921     68920     68922
     68923     68924     68923     68925     68926     68927     68926     68928
     68929     68930     68929     68931     68932     68933     68932     68934
     68935     68936     68935     68937     68938     68939     68938     68940
     68941     68942     68941     68943     68944     68945     68944     68946
     68947     68948     68947     68949     68950     68951     68950     68952
     68953     68954     68953     68955     68956     68957     68956     68958
     68959     68960     68959     68961     68962     68963     68962     68964
     68965     68966     68965     68967     68968     68969     68968     68970
     68971     68972     68971     68973     68974     68975     68974     68976
     68977     68978     68977     68979     68980     68981     68980     68982
     68983     68984     68983     68985     68986     68987     68986     68988
     68989     68990     68989     68991     68992     68993     68992     68994
     68995     68996     68995     68997     68998     68999     68998     69000
     69001     69002     69001     69003     69004     69005     69004     69006
     69007     69008     69007     69009     69010     69011     69010     69012
     69013     69014     69013     69015     69016     69017     69016     69018
     69019     69020     69019     69021     69022     69023     69022     69024
     69025     69026     69025     69027     69028     69029     69028     69030
     69031     69032     69031     69033     69034     69035     69034     69036
     69037     69038     69037     69039     69040     69041     69040     69042
     69043     69044     69043     69045     69046     69047     69046     69048
     69049     69050     69049     69051     69052     69053     69052     69054
     69055     69056     69055     69057     69058     69059     69058     69060
     69061     69062     69061     69063     69064     69065     69064     69066
     69067     69068     69067     69069     69070     69071     69070     69072
     69073     69074     69073     69075     69076     69077     69076     69078
     69079     69080     69079     69081     69082     69083     69082     69084
     69085     69086     69085     69087     69088     69089     69088     69090
     69091     69092     69091     69093     69094     69095     69094     69096
     69097     69098     69097     69099     69100     69101     69100     69102
     69103     69104     69103     69105     69106     69107     69106     69108
     69109     69110     69109     69111     69112     69113     69112     69114
     69115     69116     69115     69117     69118     69119     69118     69120
     69121     69122     69121     69123     69124     69125     69124     69126
     69127     69128     69127     69129     69130     69131     69130     69132
     69133     69134     69133     69135     69136     69137     69136     69138
     69139     69140     69139     69141     69142     69143     69142     69144
     69145     69146     69145     69147     69148     69149     69148     69150
     69151     69152     69151     69153     69154     69155     69154     69156
     69157     69158     69157     69159     69160     69161     69160     69162
     69163     69164     69163     69165     69166     69167     69166     69168
     69169     69170     69169     69171     69172     69173     69172     69174
     69175     69176     69175     69177     69178     69179     69178     69180
     69181     69182     69181     69183     69184     69185     69184     69186
     69187     69188     69187     69189     69190     69191     69190     69192
     69193     69194     69193     69195     69196     69197     69196     69198
     69199     69200     69199     69201     69202     69203     69202     69204
     69205     69206     69205     69207     69208     69209     69208     69210
     69211     69212     69211     69213     69214     69215     69214     69216
     69217     69218     69217     69219     69220     69221     69220     69222
     69223     69224     69223     69225     69226     69227     69226     69228
     69229     69230     69229     69231     69232     69233     69232     69234
     69235     69236     69235     69237     69238     69239     69238     69240
     69241     69242     69241     69243     69244     69245     69244     69246
     69247     69248     69247     69249     69250     69251     69250     69252
     69253     69254     69253     69255     69256     69257     69256     69258
     69259     69260     69259     69261     69262     69263     69262     69264
     69265     69266     69265     69267     69268     69269     69268     69270
     69271     69272     69271     69273     69274     69275     69274     69276
     69277     69278     69277     69279     69280     69281     69280     69282
     69283     69284     69283     69285     69286     69287     69286     69288
     69289     69290     69289     69291     69292     69293     69292     69294
     69295     69296     69295     69297     69298     69299     69298     69300
     69301     69302     69301     69303     69304     69305     69304     69306
     69307     69308     69307     69309     69310     69311     69310     69312
     69313     69314     69313     69315     69316     69317     69316     69318
     69319     69320     69319     69321     69322     69323     69322     69324
     69325     69326     69325     69327     69328     69329     69328     69330
     69331     69332     69331     69333     69334     69335     69334     69336
     69337     69338     69337     69339     69340     69341     69340     69342
     69343     69344     69343     69345     69346     69347     69346     69348
     69349     69350     69349     69351     69352     69353     69352     69354
     69355     69356     69355     69357     69358     69359     69358     69360
     69361     69362     69361     69363     69364     69365     69364     69366
     69367     69368     69367     69369     69370     69371     69370     69372
     69373     69374     69373     69375     69376     69377     69376     69378
     69379     69380     69379     69381     69382     69383     69382     69384
     69385     69386     69385     69387     69388     69389     69388     69390
     69391     69392     69391     69393     69394     69395     69394     69396
     69397     69398     69397     69399     69400     69401     69400     69402
     69403     69404     69403     69405     69406     69407     69406     69408
     69409     69410     69409     69411     69412     69413     69412     69414
     69415     69416     69415     69417     69418     69419     69418     69420
     69421     69422     69421     69423     69424     69425     69424     69426
     69427     69428     69427     69429     69430     69431     69430     69432
     69433     69434     69433     69435     69436     69437     69436     69438
     69439     69440     69439     69441     69442     69443     69442     69444
     69445     69446     69445     69447     69448     69449     69448     69450
     69451     69452     69451     69453     69454     69455     69454     69456
     69457     69458     69457     69459     69460     69461     69460     69462
     69463     69464     69463     69465     69466     69467     69466     69468
     69469     69470     69469     69471     69472     69473     69472     69474
     69475     69476     69475     69477     69478     69479     69478     69480
     69481     69482     69481     69483     69484     69485     69484     69486
     69487     69488     69487     69489     69490     69491     69490     69492
     69493     69494     69493     69495     69496     69497     69496     69498
     69499     69500     69499     69501     69502     69503     69502     69504
     69505     69506     69505     69507     69508     69509     69508     69510
     69511     69512     69511     69513     69514     69515     69514     69516
     69517     69518     69517     69519     69520     69521     69520     69522
     69523     69524     69523     69525     69526     69527     69526     69528
     69529     69530     69529     69531     69532     69533     69532     69534
     69535     69536     69535     69537     69538     69539     69538     69540
     69541     69542     69541     69543     69544     69545     69544     69546
     69547     69548     69547     69549     69550     69551     69550     69552
     69553     69554     69553     69555     69556     69557     69556     69558
     69559     69560     69559     69561     69562     69563     69562     69564
     69565     69566     69565     69567     69568     69569     69568     69570
     69571     69572     69571     69573     69574     69575     69574     69576
     69577     69578     69577     69579     69580     69581     69580     69582
     69583     69584     69583     69585     69586     69587     69586     69588
     69589     69590     69589     69591     69592     69593     69592     69594
     69595     69596     69595     69597     69598     69599     69598     69600
     69601     69602     69601     69603     69604     69605     69604     69606
     69607     69608     69607     69609     69610     69611     69610     69612
     69613     69614     69613     69615     69616     69617     69616     69618
     69619     69620     69619     69621     69622     69623     69622     69624
     69625     69626     69625     69627     69628     69629     69628     69630
     69631     69632     69631     69633     69634     69635     69634     69636
     69637     69638     69637     69639     69640     69641     69640     69642
     69643     69644     69643     69645     69646     69647     69646     69648
     69649     69650     69649     69651     69652     69653     69652     69654
     69655     69656     69655     69657     69658     69659     69658     69660
     69661     69662     69661     69663     69664     69665     69664     69666
     69667     69668     69667     69669     69670     69671     69670     69672
     69673     69674     69673     69675     69676     69677     69676     69678
     69679     69680     69679     69681     69682     69683     69682     69684
     69685     69686     69685     69687     69688     69689     69688     69690
     69691     69692     69691     69693     69694     69695     69694     69696
     69697     69698     69697     69699     69700     69701     69700     69702
     69703     69704     69703     69705     69706     69707     69706     69708
     69709     69710     69709     69711     69712     69713     69712     69714
     69715     69716     69715     69717     69718     69719     69718     69720
     69721     69722     69721     69723     69724     69725     69724     69726
     69727     69728     69727     69729     69730     69731     69730     69732
     69733     69734     69733     69735     69736     69737     69736     69738
     69739     69740     69739     69741     69742     69743     69742     69744
     69745     69746     69745     69747     69748     69749     69748     69750
     69751     69752     69751     69753     69754     69755     69754     69756
     69757     69758     69757     69759     69760     69761     69760     69762
     69763     69764     69763     69765     69766     69767     69766     69768
     69769     69770     69769     69771     69772     69773     69772     69774
     69775     69776     69775     69777     69778     69779     69778     69780
     69781     69782     69781     69783     69784     69785     69784     69786
     69787     69788     69787     69789     69790     69791     69790     69792
     69793     69794     69793     69795     69796     69797     69796     69798
     69799     69800     69799     69801     69802     69803     69802     69804
     69805     69806     69805     69807     69808     69809     69808     69810
     69811     69812     69811     69813     69814     69815     69814     69816
     69817     69818     69817     69819     69820     69821     69820     69822
     69823     69824     69823     69825     69826     69827     69826     69828
     69829     69830     69829     69831     69832     69833     69832     69834
     69835     69836     69835     69837     69838     69839     69838     69840
     69841     69842     69841     69843     69844     69845     69844     69846
     69847     69848     69847     69849     69850     69851     69850     69852
     69853     69854     69853     69855     69856     69857     69856     69858
     69859     69860     69859     69861     69862     69863     69862     69864
     69865     69866     69865     69867     69868     69869     69868     69870
     69871     69872     69871     69873     69874     69875     69874     69876
     69877     69878     69877     69879     69880     69881     69880     69882
     69883     69884     69883     69885     69886     69887     69886     69888
     69889     69890     69889     69891     69892     69893     69892     69894
     69895     69896     69895     69897     69898     69899     69898     69900
     69901     69902     69901     69903     69904     69905     69904     69906
     69907     69908     69907     69909     69910     69911     69910     69912
     69913     69914     69913     69915     69916     69917     69916     69918
     69919     69920     69919     69921     69922     69923     69922     69924
     69925     69926     69925     69927     69928     69929     69928     69930
     69931     69932     69931     69933     69934     69935     69934     69936
     69937     69938     69937     69939     69940     69941     69940     69942
     69943     69944     69943     69945     69946     69947     69946     69948
     69949     69950     69949     69951     69952     69953     69952     69954
     69955     69956     69955     69957     69958     69959     69958     69960
     69961     69962     69961     69963     69964     69965     69964     69966
     69967     69968     69967     69969     69970     69971     69970     69972
     69973     69974     69973     69975     69976     69977     69976     69978
     69979     69980     69979     69981     69982     69983     69982     69984
     69985     69986     69985     69987     69988     69989     69988     69990
     69991     69992     69991     69993     69994     69995     69994     69996
     69997     69998     69997     69999     70000     70001     70000     70002
     70003     70004     70003     70005     70006     70007     70006     70008
     70009     70010     70009     70011     70012     70013     70012     70014
     70015     70016     70015     70017     70018     70019     70018     70020
     70021     70022     70021     70023     70024     70025     70024     70026
     70027     70028     70027     70029     70030     70031     70030     70032
     70033     70034     70033     70035     70036     70037     70036     70038
     70039     70040     70039     70041     70042     70043     70042     70044
     70045     70046     70045     70047     70048     70049     70048     70050
     70051     70052     70051     70053     70054     70055     70054     70056
     70057     70058     70057     70059     70060     70061     70060     70062
     70063     70064     70063     70065     70066     70067     70066     70068
     70069     70070     70069     70071     70072     70073     70072     70074
     70075     70076     70075     70077     70078     70079     70078     70080
     70081     70082     70081     70083     70084     70085     70084     70086
     70087     70088     70087     70089     70090     70091     70090     70092
     70093     70094     70093     70095     70096     70097     70096     70098
     70099     70100     70099     70101     70102     70103     70102     70104
     70105     70106     70105     70107     70108     70109     70108     70110
     70111     70112     70111     70113     70114     70115     70114     70116
     70117     70118     70117     70119     70120     70121     70120     70122
     70123     70124     70123     70125     70126     70127     70126     70128
     70129     70130     70129     70131     70132     70133     70132     70134
     70135     70136     70135     70137     70138     70139     70138     70140
     70141     70142     70141     70143     70144     70145     70144     70146
     70147     70148     70147     70149     70150     70151     70150     70152
     70153     70154     70153     70155     70156     70157     70156     70158
     70159     70160     70159     70161     70162     70163     70162     70164
     70165     70166     70165     70167     70168     70169     70168     70170
     70171     70172     70171     70173     70174     70175     70174     70176
     70177     70178     70177     70179     70180     70181     70180     70182
     70183     70184     70183     70185     70186     70187     70186     70188
     70189     70190     70189     70191     70192     70193     70192     70194
     70195     70196     70195     70197     70198     70199     70198     70200
     70201     70202     70201     70203     70204     70205     70204     70206
     70207     70208     70207     70209     70210     70211     70210     70212
     70213     70214     70213     70215     70216     70217     70216     70218
     70219     70220     70219     70221     70222     70223     70222     70224
     70225     70226     70225     70227     70228     70229     70228     70230
     70231     70232     70231     70233     70234     70235     70234     70236
     70237     70238     70237     70239     70240     70241     70240     70242
     70243     70244     70243     70245     70246     70247     70246     70248
     70249     70250     70249     70251     70252     70253     70252     70254
     70255     70256     70255     70257     70258     70259     70258     70260
     70261     70262     70261     70263     70264     70265     70264     70266
     70267     70268     70267     70269     70270     70271     70270     70272
     70273     70274     70273     70275     70276     70277     70276     70278
     70279     70280     70279     70281     70282     70283     70282     70284
     70285     70286     70285     70287     70288     70289     70288     70290
     70291     70292     70291     70293     70294     70295     70294     70296
     70297     70298     70297     70299     70300     70301     70300     70302
     70303     70304     70303     70305     70306     70307     70306     70308
     70309     70310     70309     70311     70312     70313     70312     70314
     70315     70316     70315     70317     70318     70319     70318     70320
     70321     70322     70321     70323     70324     70325     70324     70326
     70327     70328     70327     70329     70330     70331     70330     70332
     70333     70334     70333     70335     70336     70337     70336     70338
     70339     70340     70339     70341     70342     70343     70342     70344
     70345     70346     70345     70347     70348     70349     70348     70350
     70351     70352     70351     70353     70354     70355     70354     70356
     70357     70358     70357     70359     70360     70361     70360     70362
     70363     70364     70363     70365     70366     70367     70366     70368
     70369     70370     70369     70371     70372     70373     70372     70374
     70375     70376     70375     70377     70378     70379     70378     70380
     70381     70382     70381     70383     70384     70385     70384     70386
     70387     70388     70387     70389     70390     70391     70390     70392
     70393     70394     70393     70395     70396     70397     70396     70398
     70399     70400     70399     70401     70402     70403     70402     70404
     70405     70406     70405     70407     70408     70409     70408     70410
     70411     70412     70411     70413     70414     70415     70414     70416
     70417     70418     70417     70419     70420     70421     70420     70422
     70423     70424     70423     70425     70426     70427     70426     70428
     70429     70430     70429     70431     70432     70433     70432     70434
     70435     70436     70435     70437     70438     70439     70438     70440
     70441     70442     70441     70443     70444     70445     70444     70446
     70447     70448     70447     70449     70450     70451     70450     70452
     70453     70454     70453     70455     70456     70457     70456     70458
     70459     70460     70459     70461     70462     70463     70462     70464
     70465     70466     70465     70467     70468     70469     70468     70470
     70471     70472     70471     70473     70474     70475     70474     70476
     70477     70478     70477     70479     70480     70481     70480     70482
     70483     70484     70483     70485     70486     70487     70486     70488
     70489     70490     70489     70491     70492     70493     70492     70494
     70495     70496     70495     70497     70498     70499     70498     70500
     70501     70502     70501     70503     70504     70505     70504     70506
     70507     70508     70507     70509     70510     70511     70510     70512
     70513     70514     70513     70515     70516     70517     70516     70518
     70519     70520     70519     70521     70522     70523     70522     70524
     70525     70526     70525     70527     70528     70529     70528     70530
     70531     70532     70531     70533     70534     70535     70534     70536
     70537     70538     70537     70539     70540     70541     70540     70542
     70543     70544     70543     70545     70546     70547     70546     70548
     70549     70550     70549     70551     70552     70553     70552     70554
     70555     70556     70555     70557     70558     70559     70558     70560
     70561     70562     70561     70563     70564     70565     70564     70566
     70567     70568     70567     70569     70570     70571     70570     70572
     70573     70574     70573     70575     70576     70577     70576     70578
     70579     70580     70579     70581     70582     70583     70582     70584
     70585     70586     70585     70587     70588     70589     70588     70590
     70591     70592     70591     70593     70594     70595     70594     70596
     70597     70598     70597     70599     70600     70601     70600     70602
     70603     70604     70603     70605     70606     70607     70606     70608
     70609     70610     70609     70611     70612     70613     70612     70614
     70615     70616     70615     70617     70618     70619     70618     70620
     70621     70622     70621     70623     70624     70625     70624     70626
     70627     70628     70627     70629     70630     70631     70630     70632
     70633     70634     70633     70635     70636     70637     70636     70638
     70639     70640     70639     70641     70642     70643     70642     70644
     70645     70646     70645     70647     70648     70649     70648     70650
     70651     70652     70651     70653     70654     70655     70654     70656
     70657     70658     70657     70659     70660     70661     70660     70662
     70663     70664     70663     70665     70666     70667     70666     70668
     70669     70670     70669     70671     70672     70673     70672     70674
     70675     70676     70675     70677     70678     70679     70678     70680
     70681     70682     70681     70683     70684     70685     70684     70686
     70687     70688     70687     70689     70690     70691     70690     70692
     70693     70694     70693     70695     70696     70697     70696     70698
     70699     70700     70699     70701     70702     70703     70702     70704
     70705     70706     70705     70707     70708     70709     70708     70710
     70711     70712     70711     70713     70714     70715     70714     70716
     70717     70718     70717     70719     70720     70721     70720     70722
     70723     70724     70723     70725     70726     70727     70726     70728
     70729     70730     70729     70731     70732     70733     70732     70734
     70735     70736     70735     70737     70738     70739     70738     70740
     70741     70742     70741     70743     70744     70745     70744     70746
     70747     70748     70747     70749     70750     70751     70750     70752
     70753     70754     70753     70755     70756     70757     70756     70758
     70759     70760     70759     70761     70762     70763     70762     70764
     70765     70766     70765     70767     70768     70769     70768     70770
     70771     70772     70771     70773     70774     70775     70774     70776
     70777     70778     70777     70779     70780     70781     70780     70782
     70783     70784     70783     70785     70786     70787     70786     70788
     70789     70790     70789     70791     70792     70793     70792     70794
     70795     70796     70795     70797     70798     70799     70798     70800
     70801     70802     70801     70803     70804     70805     70804     70806
     70807     70808     70807     70809     70810     70811     70810     70812
     70813     70814     70813     70815     70816     70817     70816     70818
     70819     70820     70819     70821     70822     70823     70822     70824
     70825     70826     70825     70827     70828     70829     70828     70830
     70831     70832     70831     70833     70834     70835     70834     70836
     70837     70838     70837     70839     70840     70841     70840     70842
     70843     70844     70843     70845     70846     70847     70846     70848
     70849     70850     70849     70851     70852     70853     70852     70854
     70855     70856     70855     70857     70858     70859     70858     70860
     70861     70862     70861     70863     70864     70865     70864     70866
     70867     70868     70867     70869     70870     70871     70870     70872
     70873     70874     70873     70875     70876     70877     70876     70878
     70879     70880     70879     70881     70882     70883     70882     70884
     70885     70886     70885     70887     70888     70889     70888     70890
     70891     70892     70891     70893     70894     70895     70894     70896
     70897     70898     70897     70899     70900     70901     70900     70902
     70903     70904     70903     70905     70906     70907     70906     70908
     70909     70910     70909     70911     70912     70913     70912     70914
     70915     70916     70915     70917     70918     70919     70918     70920
     70921     70922     70921     70923     70924     70925     70924     70926
     70927     70928     70927     70929     70930     70931     70930     70932
     70933     70934     70933     70935     70936     70937     70936     70938
     70939     70940     70939     70941     70942     70943     70942     70944
     70945     70946     70945     70947     70948     70949     70948     70950
     70951     70952     70951     70953     70954     70955     70954     70956
     70957     70958     70957     70959     70960     70961     70960     70962
     70963     70964     70963     70965     70966     70967     70966     70968
     70969     70970     70969     70971     70972     70973     70972     70974
     70975     70976     70975     70977     70978     70979     70978     70980
     70981     70982     70981     70983     70984     70985     70984     70986
     70987     70988     70987     70989     70990     70991     70990     70992
     70993     70994     70993     70995     70996     70997     70996     70998
     70999     71000     70999     71001     71002     71003     71002     71004
     71005     71006     71005     71007     71008     71009     71008     71010
     71011     71012     71011     71013     71014     71015     71014     71016
     71017     71018     71017     71019     71020     71021     71020     71022
     71023     71024     71023     71025     71026     71027     71026     71028
     71029     71030     71029     71031     71032     71033     71032     71034
     71035     71036     71035     71037     71038     71039     71038     71040
     71041     71042     71041     71043     71044     71045     71044     71046
     71047     71048     71047     71049     71050     71051     71050     71052
     71053     71054     71053     71055     71056     71057     71056     71058
     71059     71060     71059     71061     71062     71063     71062     71064
     71065     71066     71065     71067     71068     71069     71068     71070
     71071     71072     71071     71073     71074     71075     71074     71076
     71077     71078     71077     71079     71080     71081     71080     71082
     71083     71084     71083     71085     71086     71087     71086     71088
     71089     71090     71089     71091     71092     71093     71092     71094
     71095     71096     71095     71097     71098     71099     71098     71100
     71101     71102     71101     71103     71104     71105     71104     71106
     71107     71108     71107     71109     71110     71111     71110     71112
     71113     71114     71113     71115     71116     71117     71116     71118
     71119     71120     71119     71121     71122     71123     71122     71124
     71125     71126     71125     71127     71128     71129     71128     71130
     71131     71132     71131     71133     71134     71135     71134     71136
     71137     71138     71137     71139     71140     71141     71140     71142
     71143     71144     71143     71145     71146     71147     71146     71148
     71149     71150     71149     71151     71152     71153     71152     71154
     71155     71156     71155     71157     71158     71159     71158     71160
     71161     71162     71161     71163     71164     71165     71164     71166
     71167     71168     71167     71169     71170     71171     71170     71172
     71173     71174     71173     71175     71176     71177     71176     71178
     71179     71180     71179     71181     71182     71183     71182     71184
     71185     71186     71185     71187     71188     71189     71188     71190
     71191     71192     71191     71193     71194     71195     71194     71196
     71197     71198     71197     71199     71200     71201     71200     71202
     71203     71204     71203     71205     71206     71207     71206     71208
     71209     71210     71209     71211     71212     71213     71212     71214
     71215     71216     71215     71217     71218     71219     71218     71220
     71221     71222     71221     71223     71224     71225     71224     71226
     71227     71228     71227     71229     71230     71231     71230     71232
     71233     71234     71233     71235     71236     71237     71236     71238
     71239     71240     71239     71241     71242     71243     71242     71244
     71245     71246     71245     71247     71248     71249     71248     71250
     71251     71252     71251     71253     71254     71255     71254     71256
     71257     71258     71257     71259     71260     71261     71260     71262
     71263     71264     71263     71265     71266     71267     71266     71268
     71269     71270     71269     71271     71272     71273     71272     71274
     71275     71276     71275     71277     71278     71279     71278     71280
     71281     71282     71281     71283     71284     71285     71284     71286
     71287     71288     71287     71289     71290     71291     71290     71292
     71293     71294     71293     71295     71296     71297     71296     71298
     71299     71300     71299     71301     71302     71303     71302     71304
     71305     71306     71305     71307     71308     71309     71308     71310
     71311     71312     71311     71313     71314     71315     71314     71316
     71317     71318     71317     71319     71320     71321     71320     71322
     71323     71324     71323     71325     71326     71327     71326     71328
     71329     71330     71329     71331     71332     71333     71332     71334
     71335     71336     71335     71337     71338     71339     71338     71340
     71341     71342     71341     71343     71344     71345     71344     71346
     71347     71348     71347     71349     71350     71351     71350     71352
     71353     71354     71353     71355     71356     71357     71356     71358
     71359     71360     71359     71361     71362     71363     71362     71364
     71365     71366     71365     71367     71368     71369     71368     71370
     71371     71372     71371     71373     71374     71375     71374     71376
     71377     71378     71377     71379     71380     71381     71380     71382
     71383     71384     71383     71385     71386     71387     71386     71388
     71389     71390     71389     71391     71392     71393     71392     71394
     71395     71396     71395     71397     71398     71399     71398     71400
     71401     71402     71401     71403     71404     71405     71404     71406
     71407     71408     71407     71409     71410     71411     71410     71412
     71413     71414     71413     71415     71416     71417     71416     71418
     71419     71420     71419     71421     71422     71423     71422     71424
     71425     71426     71425     71427     71428     71429     71428     71430
     71431     71432     71431     71433     71434     71435     71434     71436
     71437     71438     71437     71439     71440     71441     71440     71442
     71443     71444     71443     71445     71446     71447     71446     71448
     71449     71450     71449     71451     71452     71453     71452     71454
     71455     71456     71455     71457     71458     71459     71458     71460
     71461     71462     71461     71463     71464     71465     71464     71466
     71467     71468     71467     71469     71470     71471     71470     71472
     71473     71474     71473     71475     71476     71477     71476     71478
     71479     71480     71479     71481     71482     71483     71482     71484
     71485     71486     71485     71487     71488     71489     71488     71490
     71491     71492     71491     71493     71494     71495     71494     71496
     71497     71498     71497     71499     71500     71501     71500     71502
     71503     71504     71503     71505     71506     71507     71506     71508
     71509     71510     71509     71511     71512     71513     71512     71514
     71515     71516     71515     71517     71518     71519     71518     71520
     71521     71522     71521     71523     71524     71525     71524     71526
     71527     71528     71527     71529     71530     71531     71530     71532
     71533     71534     71533     71535     71536     71537     71536     71538
     71539     71540     71539     71541     71542     71543     71542     71544
     71545     71546     71545     71547     71548     71549     71548     71550
     71551     71552     71551     71553     71554     71555     71554     71556
     71557     71558     71557     71559     71560     71561     71560     71562
     71563     71564     71563     71565     71566     71567     71566     71568
     71569     71570     71569     71571     71572     71573     71572     71574
     71575     71576     71575     71577     71578     71579     71578     71580
     71581     71582     71581     71583     71584     71585     71584     71586
     71587     71588     71587     71589     71590     71591     71590     71592
     71593     71594     71593     71595     71596     71597     71596     71598
     71599     71600     71599     71601     71602     71603     71602     71604
     71605     71606     71605     71607     71608     71609     71608     71610
     71611     71612     71611     71613     71614     71615     71614     71616
     71617     71618     71617     71619     71620     71621     71620     71622
     71623     71624     71623     71625     71626     71627     71626     71628
     71629     71630     71629     71631     71632     71633     71632     71634
     71635     71636     71635     71637     71638     71639     71638     71640
     71641     71642     71641     71643     71644     71645     71644     71646
     71647     71648     71647     71649     71650     71651     71650     71652
     71653     71654     71653     71655     71656     71657     71656     71658
     71659     71660     71659     71661     71662     71663     71662     71664
     71665     71666     71665     71667     71668     71669     71668     71670
     71671     71672     71671     71673     71674     71675     71674     71676
     71677     71678     71677     71679     71680     71681     71680     71682
     71683     71684     71683     71685     71686     71687     71686     71688
     71689     71690     71689     71691     71692     71693     71692     71694
     71695     71696     71695     71697     71698     71699     71698     71700
     71701     71702     71701     71703     71704     71705     71704     71706
     71707     71708     71707     71709     71710     71711     71710     71712
     71713     71714     71713     71715     71716     71717     71716     71718
     71719     71720     71719     71721     71722     71723     71722     71724
     71725     71726     71725     71727     71728     71729     71728     71730
     71731     71732     71731     71733     71734     71735     71734     71736
     71737     71738     71737     71739     71740     71741     71740     71742
     71743     71744     71743     71745     71746     71747     71746     71748
     71749     71750     71749     71751     71752     71753     71752     71754
     71755     71756     71755     71757     71758     71759     71758     71760
     71761     71762     71761     71763     71764     71765     71764     71766
     71767     71768     71767     71769     71770     71771     71770     71772
     71773     71774     71773     71775     71776     71777     71776     71778
     71779     71780     71779     71781     71782     71783     71782     71784
     71785     71786     71785     71787     71788     71789     71788     71790
     71791     71792     71791     71793     71794     71795     71794     71796
     71797     71798     71797     71799     71800     71801     71800     71802
     71803     71804     71803     71805     71806     71807     71806     71808
     71809     71810     71809     71811     71812     71813     71812     71814
     71815     71816     71815     71817     71818     71819     71818     71820
     71821     71822     71821     71823     71824     71825     71824     71826
     71827     71828     71827     71829     71830     71831     71830     71832
     71833     71834     71833     71835     71836     71837     71836     71838
     71839     71840     71839     71841     71842     71843     71842     71844
     71845     71846     71845     71847     71848     71849     71848     71850
     71851     71852     71851     71853     71854     71855     71854     71856
     71857     71858     71857     71859     71860     71861     71860     71862
     71863     71864     71863     71865     71866     71867     71866     71868
     71869     71870     71869     71871     71872     71873     71872     71874
     71875     71876     71875     71877     71878     71879     71878     71880
     71881     71882     71881     71883     71884     71885     71884     71886
     71887     71888     71887     71889     71890     71891     71890     71892
     71893     71894     71893     71895     71896     71897     71896     71898
     71899     71900     71899     71901     71902     71903     71902     71904
     71905     71906     71905     71907     71908     71909     71908     71910
     71911     71912     71911     71913     71914     71915     71914     71916
     71917     71918     71917     71919     71920     71921     71920     71922
     71923     71924     71923     71925     71926     71927     71926     71928
     71929     71930     71929     71931     71932     71933     71932     71934
     71935     71936     71935     71937     71938     71939     71938     71940
     71941     71942     71941     71943     71944     71945     71944     71946
     71947     71948     71947     71949     71950     71951     71950     71952
     71953     71954     71953     71955     71956     71957     71956     71958
     71959     71960     71959     71961     71962     71963     71962     71964
     71965     71966     71965     71967     71968     71969     71968     71970
     71971     71972     71971     71973     71974     71975     71974     71976
     71977     71978     71977     71979     71980     71981     71980     71982
     71983     71984     71983     71985     71986     71987     71986     71988
     71989     71990     71989     71991     71992     71993     71992     71994
     71995     71996     71995     71997     71998     71999     71998     72000
     72001     72002     72001     72003     72004     72005     72004     72006
     72007     72008     72007     72009     72010     72011     72010     72012
     72013     72014     72013     72015     72016     72017     72016     72018
     72019     72020     72019     72021     72022     72023     72022     72024
     72025     72026     72025     72027     72028     72029     72028     72030
     72031     72032     72031     72033     72034     72035     72034     72036
     72037     72038     72037     72039     72040     72041     72040     72042
     72043     72044     72043     72045     72046     72047     72046     72048
     72049     72050     72049     72051     72052     72053     72052     72054
     72055     72056     72055     72057     72058     72059     72058     72060
     72061     72062     72061     72063     72064     72065     72064     72066
     72067     72068     72067     72069     72070     72071     72070     72072
     72073     72074     72073     72075     72076     72077     72076     72078
     72079     72080     72079     72081     72082     72083     72082     72084
     72085     72086     72085     72087     72088     72089     72088     72090
     72091     72092     72091     72093     72094     72095     72094     72096
     72097     72098     72097     72099     72100     72101     72100     72102
     72103     72104     72103     72105     72106     72107     72106     72108
     72109     72110     72109     72111     72112     72113     72112     72114
     72115     72116     72115     72117     72118     72119     72118     72120
     72121     72122     72121     72123     72124     72125     72124     72126
     72127     72128     72127     72129     72130     72131     72130     72132
     72133     72134     72133     72135     72136     72137     72136     72138
     72139     72140     72139     72141     72142     72143     72142     72144
     72145     72146     72145     72147     72148     72149     72148     72150
     72151     72152     72151     72153     72154     72155     72154     72156
     72157     72158     72157     72159     72160     72161     72160     72162
     72163     72164     72163     72165     72166     72167     72166     72168
     72169     72170     72169     72171     72172     72173     72172     72174
     72175     72176     72175     72177     72178     72179     72178     72180
     72181     72182     72181     72183     72184     72185     72184     72186
     72187     72188     72187     72189     72190     72191     72190     72192
     72193     72194     72193     72195     72196     72197     72196     72198
     72199     72200     72199     72201     72202     72203     72202     72204
     72205     72206     72205     72207     72208     72209     72208     72210
     72211     72212     72211     72213     72214     72215     72214     72216
     72217     72218     72217     72219     72220     72221     72220     72222
     72223     72224     72223     72225     72226     72227     72226     72228
     72229     72230     72229     72231     72232     72233     72232     72234
     72235     72236     72235     72237     72238     72239     72238     72240
     72241     72242     72241     72243     72244     72245     72244     72246
     72247     72248     72247     72249     72250     72251     72250     72252
     72253     72254     72253     72255     72256     72257     72256     72258
     72259     72260     72259     72261     72262     72263     72262     72264
     72265     72266     72265     72267     72268     72269     72268     72270
     72271     72272     72271     72273     72274     72275     72274     72276
     72277     72278     72277     72279     72280     72281     72280     72282
     72283     72284     72283     72285     72286     72287     72286     72288
     72289     72290     72289     72291     72292     72293     72292     72294
     72295     72296     72295     72297     72298     72299     72298     72300
     72301     72302     72301     72303     72304     72305     72304     72306
     72307     72308     72307     72309     72310     72311     72310     72312
     72313     72314     72313     72315     72316     72317     72316     72318
     72319     72320     72319     72321     72322     72323     72322     72324
     72325     72326     72325     72327     72328     72329     72328     72330
     72331     72332     72331     72333     72334     72335     72334     72336
     72337     72338     72337     72339     72340     72341     72340     72342
     72343     72344     72343     72345     72346     72347     72346     72348
     72349     72350     72349     72351     72352     72353     72352     72354
     72355     72356     72355     72357     72358     72359     72358     72360
     72361     72362     72361     72363     72364     72365     72364     72366
     72367     72368     72367     72369     72370     72371     72370     72372
     72373     72374     72373     72375     72376     72377     72376     72378
     72379     72380     72379     72381     72382     72383     72382     72384
     72385     72386     72385     72387     72388     72389     72388     72390
     72391     72392     72391     72393     72394     72395     72394     72396
     72397     72398     72397     72399     72400     72401     72400     72402
     72403     72404     72403     72405     72406     72407     72406     72408
     72409     72410     72409     72411     72412     72413     72412     72414
     72415     72416     72415     72417     72418     72419     72418     72420
     72421     72422     72421     72423     72424     72425     72424     72426
     72427     72428     72427     72429     72430     72431     72430     72432
     72433     72434     72433     72435     72436     72437     72436     72438
     72439     72440     72439     72441     72442     72443     72442     72444
     72445     72446     72445     72447     72448     72449     72448     72450
     72451     72452     72451     72453     72454     72455     72454     72456
     72457     72458     72457     72459     72460     72461     72460     72462
     72463     72464     72463     72465     72466     72467     72466     72468
     72469     72470     72469     72471     72472     72473     72472     72474
     72475     72476     72475     72477     72478     72479     72478     72480
     72481     72482     72481     72483     72484     72485     72484     72486
     72487     72488     72487     72489     72490     72491     72490     72492
     72493     72494     72493     72495     72496     72497     72496     72498
     72499     72500     72499     72501     72502     72503     72502     72504
     72505     72506     72505     72507     72508     72509     72508     72510
     72511     72512     72511     72513     72514     72515     72514     72516
     72517     72518     72517     72519     72520     72521     72520     72522
     72523     72524     72523     72525     72526     72527     72526     72528
     72529     72530     72529     72531     72532     72533     72532     72534
     72535     72536     72535     72537     72538     72539     72538     72540
     72541     72542     72541     72543     72544     72545     72544     72546
     72547     72548     72547     72549     72550     72551     72550     72552
     72553     72554     72553     72555     72556     72557     72556     72558
     72559     72560     72559     72561     72562     72563     72562     72564
     72565     72566     72565     72567     72568     72569     72568     72570
     72571     72572     72571     72573     72574     72575     72574     72576
     72577     72578     72577     72579     72580     72581     72580     72582
     72583     72584     72583     72585     72586     72587     72586     72588
     72589     72590     72589     72591     72592     72593     72592     72594
     72595     72596     72595     72597     72598     72599     72598     72600
     72601     72602     72601     72603     72604     72605     72604     72606
     72607     72608     72607     72609     72610     72611     72610     72612
     72613     72614     72613     72615     72616     72617     72616     72618
     72619     72620     72619     72621     72622     72623     72622     72624
     72625     72626     72625     72627     72628     72629     72628     72630
     72631     72632     72631     72633     72634     72635     72634     72636
     72637     72638     72637     72639     72640     72641     72640     72642
     72643     72644     72643     72645     72646     72647     72646     72648
     72649     72650     72649     72651     72652     72653     72652     72654
     72655     72656     72655     72657     72658     72659     72658     72660
     72661     72662     72661     72663     72664     72665     72664     72666
     72667     72668     72667     72669     72670     72671     72670     72672
     72673     72674     72673     72675     72676     72677     72676     72678
     72679     72680     72679     72681     72682     72683     72682     72684
     72685     72686     72685     72687     72688     72689     72688     72690
     72691     72692     72691     72693     72694     72695     72694     72696
     72697     72698     72697     72699     72700     72701     72700     72702
     72703     72704     72703     72705     72706     72707     72706     72708
     72709     72710     72709     72711     72712     72713     72712     72714
     72715     72716     72715     72717     72718     72719     72718     72720
     72721     72722     72721     72723     72724     72725     72724     72726
     72727     72728     72727     72729     72730     72731     72730     72732
     72733     72734     72733     72735     72736     72737     72736     72738
     72739     72740     72739     72741     72742     72743     72742     72744
     72745     72746     72745     72747     72748     72749     72748     72750
     72751     72752     72751     72753     72754     72755     72754     72756
     72757     72758     72757     72759     72760     72761     72760     72762
     72763     72764     72763     72765     72766     72767     72766     72768
     72769     72770     72769     72771     72772     72773     72772     72774
     72775     72776     72775     72777     72778     72779     72778     72780
     72781     72782     72781     72783     72784     72785     72784     72786
     72787     72788     72787     72789     72790     72791     72790     72792
     72793     72794     72793     72795     72796     72797     72796     72798
     72799     72800     72799     72801     72802     72803     72802     72804
     72805     72806     72805     72807     72808     72809     72808     72810
     72811     72812     72811     72813     72814     72815     72814     72816
     72817     72818     72817     72819     72820     72821     72820     72822
     72823     72824     72823     72825     72826     72827     72826     72828
     72829     72830     72829     72831     72832     72833     72832     72834
     72835     72836     72835     72837     72838     72839     72838     72840
     72841     72842     72841     72843     72844     72845     72844     72846
     72847     72848     72847     72849     72850     72851     72850     72852
     72853     72854     72853     72855     72856     72857     72856     72858
     72859     72860     72859     72861     72862     72863     72862     72864
     72865     72866     72865     72867     72868     72869     72868     72870
     72871     72872     72871     72873     72874     72875     72874     72876
     72877     72878     72877     72879     72880     72881     72880     72882
     72883     72884     72883     72885     72886     72887     72886     72888
     72889     72890     72889     72891     72892     72893     72892     72894
     72895     72896     72895     72897     72898     72899     72898     72900
     72901     72902     72901     72903     72904     72905     72904     72906
     72907     72908     72907     72909     72910     72911     72910     72912
     72913     72914     72913     72915     72916     72917     72916     72918
     72919     72920     72919     72921     72922     72923     72922     72924
     72925     72926     72925     72927     72928     72929     72928     72930
     72931     72932     72931     72933     72934     72935     72934     72936
     72937     72938     72937     72939     72940     72941     72940     72942
     72943     72944     72943     72945     72946     72947     72946     72948
     72949     72950     72949     72951     72952     72953     72952     72954
     72955     72956     72955     72957     72958     72959     72958     72960
     72961     72962     72961     72963     72964     72965     72964     72966
     72967     72968     72967     72969     72970     72971     72970     72972
     72973     72974     72973     72975     72976     72977     72976     72978
     72979     72980     72979     72981     72982     72983     72982     72984
     72985     72986     72985     72987     72988     72989     72988     72990
     72991     72992     72991     72993     72994     72995     72994     72996
     72997     72998     72997     72999     73000     73001     73000     73002
     73003     73004     73003     73005     73006     73007     73006     73008
     73009     73010     73009     73011     73012     73013     73012     73014
     73015     73016     73015     73017     73018     73019     73018     73020
     73021     73022     73021     73023     73024     73025     73024     73026
     73027     73028     73027     73029     73030     73031     73030     73032
     73033     73034     73033     73035     73036     73037     73036     73038
     73039     73040     73039     73041     73042     73043     73042     73044
     73045     73046     73045     73047     73048     73049     73048     73050
     73051     73052     73051     73053     73054     73055     73054     73056
     73057     73058     73057     73059     73060     73061     73060     73062
     73063     73064     73063     73065     73066     73067     73066     73068
     73069     73070     73069     73071     73072     73073     73072     73074
     73075     73076     73075     73077     73078     73079     73078     73080
     73081     73082     73081     73083     73084     73085     73084     73086
     73087     73088     73087     73089     73090     73091     73090     73092
     73093     73094     73093     73095     73096     73097     73096     73098
     73099     73100     73099     73101     73102     73103     73102     73104
     73105     73106     73105     73107     73108     73109     73108     73110
     73111     73112     73111     73113     73114     73115     73114     73116
     73117     73118     73117     73119     73120     73121     73120     73122
     73123     73124     73123     73125     73126     73127     73126     73128
     73129     73130     73129     73131     73132     73133     73132     73134
     73135     73136     73135     73137     73138     73139     73138     73140
     73141     73142     73141     73143     73144     73145     73144     73146
     73147     73148     73147     73149     73150     73151     73150     73152
     73153     73154     73153     73155     73156     73157     73156     73158
     73159     73160     73159     73161     73162     73163     73162     73164
     73165     73166     73165     73167     73168     73169     73168     73170
     73171     73172     73171     73173     73174     73175     73174     73176
     73177     73178     73177     73179     73180     73181     73180     73182
     73183     73184     73183     73185     73186     73187     73186     73188
     73189     73190     73189     73191     73192     73193     73192     73194
     73195     73196     73195     73197     73198     73199     73198     73200
     73201     73202     73201     73203     73204     73205     73204     73206
     73207     73208     73207     73209     73210     73211     73210     73212
     73213     73214     73213     73215     73216     73217     73216     73218
     73219     73220     73219     73221     73222     73223     73222     73224
     73225     73226     73225     73227     73228     73229     73228     73230
     73231     73232     73231     73233     73234     73235     73234     73236
     73237     73238     73237     73239     73240     73241     73240     73242
     73243     73244     73243     73245     73246     73247     73246     73248
     73249     73250     73249     73251     73252     73253     73252     73254
     73255     73256     73255     73257     73258     73259     73258     73260
     73261     73262     73261     73263     73264     73265     73264     73266
     73267     73268     73267     73269     73270     73271     73270     73272
     73273     73274     73273     73275     73276     73277     73276     73278
     73279     73280     73279     73281     73282     73283     73282     73284
     73285     73286     73285     73287     73288     73289     73288     73290
     73291     73292     73291     73293     73294     73295     73294     73296
     73297     73298     73297     73299     73300     73301     73300     73302
     73303     73304     73303     73305     73306     73307     73306     73308
     73309     73310     73309     73311     73312     73313     73312     73314
     73315     73316     73315     73317     73318     73319     73318     73320
     73321     73322     73321     73323     73324     73325     73324     73326
     73327     73328     73327     73329     73330     73331     73330     73332
     73333     73334     73333     73335     73336     73337     73336     73338
     73339     73340     73339     73341     73342     73343     73342     73344
     73345     73346     73345     73347     73348     73349     73348     73350
     73351     73352     73351     73353     73354     73355     73354     73356
     73357     73358     73357     73359     73360     73361     73360     73362
     73363     73364     73363     73365     73366     73367     73366     73368
     73369     73370     73369     73371     73372     73373     73372     73374
     73375     73376     73375     73377     73378     73379     73378     73380
     73381     73382     73381     73383     73384     73385     73384     73386
     73387     73388     73387     73389     73390     73391     73390     73392
     73393     73394     73393     73395     73396     73397     73396     73398
     73399     73400     73399     73401     73402     73403     73402     73404
     73405     73406     73405     73407     73408     73409     73408     73410
     73411     73412     73411     73413     73414     73415     73414     73416
     73417     73418     73417     73419     73420     73421     73420     73422
     73423     73424     73423     73425     73426     73427     73426     73428
     73429     73430     73429     73431     73432     73433     73432     73434
     73435     73436     73435     73437     73438     73439     73438     73440
     73441     73442     73441     73443     73444     73445     73444     73446
     73447     73448     73447     73449     73450     73451     73450     73452
     73453     73454     73453     73455     73456     73457     73456     73458
     73459     73460     73459     73461     73462     73463     73462     73464
     73465     73466     73465     73467     73468     73469     73468     73470
     73471     73472     73471     73473     73474     73475     73474     73476
     73477     73478     73477     73479     73480     73481     73480     73482
     73483     73484     73483     73485     73486     73487     73486     73488
     73489     73490     73489     73491     73492     73493     73492     73494
     73495     73496     73495     73497     73498     73499     73498     73500
     73501     73502     73501     73503     73504     73505     73504     73506
     73507     73508     73507     73509     73510     73511     73510     73512
     73513     73514     73513     73515     73516     73517     73516     73518
     73519     73520     73519     73521     73522     73523     73522     73524
     73525     73526     73525     73527     73528     73529     73528     73530
     73531     73532     73531     73533     73534     73535     73534     73536
     73537     73538     73537     73539     73540     73541     73540     73542
     73543     73544     73543     73545     73546     73547     73546     73548
     73549     73550     73549     73551     73552     73553     73552     73554
     73555     73556     73555     73557     73558     73559     73558     73560
     73561     73562     73561     73563     73564     73565     73564     73566
     73567     73568     73567     73569     73570     73571     73570     73572
     73573     73574     73573     73575     73576     73577     73576     73578
     73579     73580     73579     73581     73582     73583     73582     73584
     73585     73586     73585     73587     73588     73589     73588     73590
     73591     73592     73591     73593     73594     73595     73594     73596
     73597     73598     73597     73599     73600     73601     73600     73602
     73603     73604     73603     73605     73606     73607     73606     73608
     73609     73610     73609     73611     73612     73613     73612     73614
     73615     73616     73615     73617     73618     73619     73618     73620
     73621     73622     73621     73623     73624     73625     73624     73626
     73627     73628     73627     73629     73630     73631     73630     73632
     73633     73634     73633     73635     73636     73637     73636     73638
     73639     73640     73639     73641     73642     73643     73642     73644
     73645     73646     73645     73647     73648     73649     73648     73650
     73651     73652     73651     73653     73654     73655     73654     73656
     73657     73658     73657     73659     73660     73661     73660     73662
     73663     73664     73663     73665     73666     73667     73666     73668
     73669     73670     73669     73671     73672     73673     73672     73674
     73675     73676     73675     73677     73678     73679     73678     73680
     73681     73682     73681     73683     73684     73685     73684     73686
     73687     73688     73687     73689     73690     73691     73690     73692
     73693     73694     73693     73695     73696     73697     73696     73698
     73699     73700     73699     73701     73702     73703     73702     73704
     73705     73706     73705     73707     73708     73709     73708     73710
     73711     73712     73711     73713     73714     73715     73714     73716
     73717     73718     73717     73719     73720     73721     73720     73722
     73723     73724     73723     73725     73726     73727     73726     73728
     73729     73730     73729     73731     73732     73733     73732     73734
     73735     73736     73735     73737     73738     73739     73738     73740
     73741     73742     73741     73743     73744     73745     73744     73746
     73747     73748     73747     73749     73750     73751     73750     73752
     73753     73754     73753     73755     73756     73757     73756     73758
     73759     73760     73759     73761     73762     73763     73762     73764
     73765     73766     73765     73767     73768     73769     73768     73770
     73771     73772     73771     73773     73774     73775     73774     73776
     73777     73778     73777     73779     73780     73781     73780     73782
     73783     73784     73783     73785     73786     73787     73786     73788
     73789     73790     73789     73791     73792     73793     73792     73794
     73795     73796     73795     73797     73798     73799     73798     73800
     73801     73802     73801     73803     73804     73805     73804     73806
     73807     73808     73807     73809     73810     73811     73810     73812
     73813     73814     73813     73815     73816     73817     73816     73818
     73819     73820     73819     73821     73822     73823     73822     73824
     73825     73826     73825     73827     73828     73829     73828     73830
     73831     73832     73831     73833     73834     73835     73834     73836
     73837     73838     73837     73839     73840     73841     73840     73842
     73843     73844     73843     73845     73846     73847     73846     73848
     73849     73850     73849     73851     73852     73853     73852     73854
     73855     73856     73855     73857     73858     73859     73858     73860
     73861     73862     73861     73863     73864     73865     73864     73866
     73867     73868     73867     73869     73870     73871     73870     73872
     73873     73874     73873     73875     73876     73877     73876     73878
     73879     73880     73879     73881     73882     73883     73882     73884
     73885     73886     73885     73887     73888     73889     73888     73890
     73891     73892     73891     73893     73894     73895     73894     73896
     73897     73898     73897     73899     73900     73901     73900     73902
     73903     73904     73903     73905     73906     73907     73906     73908
     73909     73910     73909     73911     73912     73913     73912     73914
     73915     73916     73915     73917     73918     73919     73918     73920
     73921     73922     73921     73923     73924     73925     73924     73926
     73927     73928     73927     73929     73930     73931     73930     73932
     73933     73934     73933     73935     73936     73937     73936     73938
     73939     73940     73939     73941     73942     73943     73942     73944
     73945     73946     73945     73947     73948     73949     73948     73950
     73951     73952     73951     73953     73954     73955     73954     73956
     73957     73958     73957     73959     73960     73961     73960     73962
     73963     73964     73963     73965     73966     73967     73966     73968
     73969     73970     73969     73971     73972     73973     73972     73974
     73975     73976     73975     73977     73978     73979     73978     73980
     73981     73982     73981     73983     73984     73985     73984     73986
     73987     73988     73987     73989     73990     73991     73990     73992
     73993     73994     73993     73995     73996     73997     73996     73998
     73999     74000     73999     74001     74002     74003     74002     74004
     74005     74006     74005     74007     74008     74009     74008     74010
     74011     74012     74011     74013     74014     74015     74014     74016
     74017     74018     74017     74019     74020     74021     74020     74022
     74023     74024     74023     74025     74026     74027     74026     74028
     74029     74030     74029     74031     74032     74033     74032     74034
     74035     74036     74035     74037     74038     74039     74038     74040
     74041     74042     74041     74043     74044     74045     74044     74046
     74047     74048     74047     74049     74050     74051     74050     74052
     74053     74054     74053     74055     74056     74057     74056     74058
     74059     74060     74059     74061     74062     74063     74062     74064
     74065     74066     74065     74067     74068     74069     74068     74070
     74071     74072     74071     74073     74074     74075     74074     74076
     74077     74078     74077     74079     74080     74081     74080     74082
     74083     74084     74083     74085     74086     74087     74086     74088
     74089     74090     74089     74091     74092     74093     74092     74094
     74095     74096     74095     74097     74098     74099     74098     74100
     74101     74102     74101     74103     74104     74105     74104     74106
     74107     74108     74107     74109     74110     74111     74110     74112
     74113     74114     74113     74115     74116     74117     74116     74118
     74119     74120     74119     74121     74122     74123     74122     74124
     74125     74126     74125     74127     74128     74129     74128     74130
     74131     74132     74131     74133     74134     74135     74134     74136
     74137     74138     74137     74139     74140     74141     74140     74142
     74143     74144     74143     74145     74146     74147     74146     74148
     74149     74150     74149     74151     74152     74153     74152     74154
     74155     74156     74155     74157     74158     74159     74158     74160
     74161     74162     74161     74163     74164     74165     74164     74166
     74167     74168     74167     74169     74170     74171     74170     74172
     74173     74174     74173     74175     74176     74177     74176     74178
     74179     74180     74179     74181     74182     74183     74182     74184
     74185     74186     74185     74187     74188     74189     74188     74190
     74191     74192     74191     74193     74194     74195     74194     74196
     74197     74198     74197     74199     74200     74201     74200     74202
     74203     74204     74203     74205     74206     74207     74206     74208
     74209     74210     74209     74211     74212     74213     74212     74214
     74215     74216     74215     74217     74218     74219     74218     74220
     74221     74222     74221     74223     74224     74225     74224     74226
     74227     74228     74227     74229     74230     74231     74230     74232
     74233     74234     74233     74235     74236     74237     74236     74238
     74239     74240     74239     74241     74242     74243     74242     74244
     74245     74246     74245     74247     74248     74249     74248     74250
     74251     74252     74251     74253     74254     74255     74254     74256
     74257     74258     74257     74259     74260     74261     74260     74262
     74263     74264     74263     74265     74266     74267     74266     74268
     74269     74270     74269     74271     74272     74273     74272     74274
     74275     74276     74275     74277     74278     74279     74278     74280
     74281     74282     74281     74283     74284     74285     74284     74286
     74287     74288     74287     74289     74290     74291     74290     74292
     74293     74294     74293     74295     74296     74297     74296     74298
     74299     74300     74299     74301     74302     74303     74302     74304
     74305     74306     74305     74307     74308     74309     74308     74310
     74311     74312     74311     74313     74314     74315     74314     74316
     74317     74318     74317     74319     74320     74321     74320     74322
     74323     74324     74323     74325     74326     74327     74326     74328
     74329     74330     74329     74331     74332     74333     74332     74334
     74335     74336     74335     74337     74338     74339     74338     74340
     74341     74342     74341     74343     74344     74345     74344     74346
     74347     74348     74347     74349     74350     74351     74350     74352
     74353     74354     74353     74355     74356     74357     74356     74358
     74359     74360     74359     74361     74362     74363     74362     74364
     74365     74366     74365     74367     74368     74369     74368     74370
     74371     74372     74371     74373     74374     74375     74374     74376
     74377     74378     74377     74379     74380     74381     74380     74382
     74383     74384     74383     74385     74386     74387     74386     74388
     74389     74390     74389     74391     74392     74393     74392     74394
     74395     74396     74395     74397     74398     74399     74398     74400
     74401     74402     74401     74403     74404     74405     74404     74406
     74407     74408     74407     74409     74410     74411     74410     74412
     74413     74414     74413     74415     74416     74417     74416     74418
     74419     74420     74419     74421     74422     74423     74422     74424
     74425     74426     74425     74427     74428     74429     74428     74430
     74431     74432     74431     74433     74434     74435     74434     74436
     74437     74438     74437     74439     74440     74441     74440     74442
     74443     74444     74443     74445     74446     74447     74446     74448
     74449     74450     74449     74451     74452     74453     74452     74454
     74455     74456     74455     74457     74458     74459     74458     74460
     74461     74462     74461     74463     74464     74465     74464     74466
     74467     74468     74467     74469     74470     74471     74470     74472
     74473     74474     74473     74475     74476     74477     74476     74478
     74479     74480     74479     74481     74482     74483     74482     74484
     74485     74486     74485     74487     74488     74489     74488     74490
     74491     74492     74491     74493     74494     74495     74494     74496
     74497     74498     74497     74499     74500     74501     74500     74502
     74503     74504     74503     74505     74506     74507     74506     74508
     74509     74510     74509     74511     74512     74513     74512     74514
     74515     74516     74515     74517     74518     74519     74518     74520
     74521     74522     74521     74523     74524     74525     74524     74526
     74527     74528     74527     74529     74530     74531     74530     74532
     74533     74534     74533     74535     74536     74537     74536     74538
     74539     74540     74539     74541     74542     74543     74542     74544
     74545     74546     74545     74547     74548     74549     74548     74550
     74551     74552     74551     74553     74554     74555     74554     74556
     74557     74558     74557     74559     74560     74561     74560     74562
     74563     74564     74563     74565     74566     74567     74566     74568
     74569     74570     74569     74571     74572     74573     74572     74574
     74575     74576     74575     74577     74578     74579     74578     74580
     74581     74582     74581     74583     74584     74585     74584     74586
     74587     74588     74587     74589     74590     74591     74590     74592
     74593     74594     74593     74595     74596     74597     74596     74598
     74599     74600     74599     74601     74602     74603     74602     74604
     74605     74606     74605     74607     74608     74609     74608     74610
     74611     74612     74611     74613     74614     74615     74614     74616
     74617     74618     74617     74619     74620     74621     74620     74622
     74623     74624     74623     74625     74626     74627     74626     74628
     74629     74630     74629     74631     74632     74633     74632     74634
     74635     74636     74635     74637     74638     74639     74638     74640
     74641     74642     74641     74643     74644     74645     74644     74646
     74647     74648     74647     74649     74650     74651     74650     74652
     74653     74654     74653     74655     74656     74657     74656     74658
     74659     74660     74659     74661     74662     74663     74662     74664
     74665     74666     74665     74667     74668     74669     74668     74670
     74671     74672     74671     74673     74674     74675     74674     74676
     74677     74678     74677     74679     74680     74681     74680     74682
     74683     74684     74683     74685     74686     74687     74686     74688
     74689     74690     74689     74691     74692     74693     74692     74694
     74695     74696     74695     74697     74698     74699     74698     74700
     74701     74702     74701     74703     74704     74705     74704     74706
     74707     74708     74707     74709     74710     74711     74710     74712
     74713     74714     74713     74715     74716     74717     74716     74718
     74719     74720     74719     74721     74722     74723     74722     74724
     74725     74726     74725     74727     74728     74729     74728     74730
     74731     74732     74731     74733     74734     74735     74734     74736
     74737     74738     74737     74739     74740     74741     74740     74742
     74743     74744     74743     74745     74746     74747     74746     74748
     74749     74750     74749     74751     74752     74753     74752     74754
     74755     74756     74755     74757     74758     74759     74758     74760
     74761     74762     74761     74763     74764     74765     74764     74766
     74767     74768     74767     74769     74770     74771     74770     74772
     74773     74774     74773     74775     74776     74777     74776     74778
     74779     74780     74779     74781     74782     74783     74782     74784
     74785     74786     74785     74787     74788     74789     74788     74790
     74791     74792     74791     74793     74794     74795     74794     74796
     74797     74798     74797     74799     74800     74801     74800     74802
     74803     74804     74803     74805     74806     74807     74806     74808
     74809     74810     74809     74811     74812     74813     74812     74814
     74815     74816     74815     74817     74818     74819     74818     74820
     74821     74822     74821     74823     74824     74825     74824     74826
     74827     74828     74827     74829     74830     74831     74830     74832
     74833     74834     74833     74835     74836     74837     74836     74838
     74839     74840     74839     74841     74842     74843     74842     74844
     74845     74846     74845     74847     74848     74849     74848     74850
     74851     74852     74851     74853     74854     74855     74854     74856
     74857     74858     74857     74859     74860     74861     74860     74862
     74863     74864     74863     74865     74866     74867     74866     74868
     74869     74870     74869     74871     74872     74873     74872     74874
     74875     74876     74875     74877     74878     74879     74878     74880
     74881     74882     74881     74883     74884     74885     74884     74886
     74887     74888     74887     74889     74890     74891     74890     74892
     74893     74894     74893     74895     74896     74897     74896     74898
     74899     74900     74899     74901     74902     74903     74902     74904
     74905     74906     74905     74907     74908     74909     74908     74910
     74911     74912     74911     74913     74914     74915     74914     74916
     74917     74918     74917     74919     74920     74921     74920     74922
     74923     74924     74923     74925     74926     74927     74926     74928
     74929     74930     74929     74931     74932     74933     74932     74934
     74935     74936     74935     74937     74938     74939     74938     74940
     74941     74942     74941     74943     74944     74945     74944     74946
     74947     74948     74947     74949     74950     74951     74950     74952
     74953     74954     74953     74955     74956     74957     74956     74958
     74959     74960     74959     74961     74962     74963     74962     74964
     74965     74966     74965     74967     74968     74969     74968     74970
     74971     74972     74971     74973     74974     74975     74974     74976
     74977     74978     74977     74979     74980     74981     74980     74982
     74983     74984     74983     74985     74986     74987     74986     74988
     74989     74990     74989     74991     74992     74993     74992     74994
     74995     74996     74995     74997     74998     74999     74998     75000
     75001     75002     75001     75003     75004     75005     75004     75006
     75007     75008     75007     75009     75010     75011     75010     75012
     75013     75014     75013     75015     75016     75017     75016     75018
     75019     75020     75019     75021     75022     75023     75022     75024
     75025     75026     75025     75027     75028     75029     75028     75030
     75031     75032     75031     75033     75034     75035     75034     75036
     75037     75038     75037     75039     75040     75041     75040     75042
     75043     75044     75043     75045     75046     75047     75046     75048
     75049     75050     75049     75051     75052     75053     75052     75054
     75055     75056     75055     75057     75058     75059     75058     75060
     75061     75062     75061     75063     75064     75065     75064     75066
     75067     75068     75067     75069     75070     75071     75070     75072
     75073     75074     75073     75075     75076     75077     75076     75078
     75079     75080     75079     75081     75082     75083     75082     75084
     75085     75086     75085     75087     75088     75089     75088     75090
     75091     75092     75091     75093     75094     75095     75094     75096
     75097     75098     75097     75099     75100     75101     75100     75102
     75103     75104     75103     75105     75106     75107     75106     75108
     75109     75110     75109     75111     75112     75113     75112     75114
     75115     75116     75115     75117     75118     75119     75118     75120
     75121     75122     75121     75123     75124     75125     75124     75126
     75127     75128     75127     75129     75130     75131     75130     75132
     75133     75134     75133     75135     75136     75137     75136     75138
     75139     75140     75139     75141     75142     75143     75142     75144
     75145     75146     75145     75147     75148     75149     75148     75150
     75151     75152     75151     75153     75154     75155     75154     75156
     75157     75158     75157     75159     75160     75161     75160     75162
     75163     75164     75163     75165     75166     75167     75166     75168
     75169     75170     75169     75171     75172     75173     75172     75174
     75175     75176     75175     75177     75178     75179     75178     75180
     75181     75182     75181     75183     75184     75185     75184     75186
     75187     75188     75187     75189     75190     75191     75190     75192
     75193     75194     75193     75195     75196     75197     75196     75198
     75199     75200     75199     75201     75202     75203     75202     75204
     75205     75206     75205     75207     75208     75209     75208     75210
     75211     75212     75211     75213     75214     75215     75214     75216
     75217     75218     75217     75219     75220     75221     75220     75222
     75223     75224     75223     75225     75226     75227     75226     75228
     75229     75230     75229     75231     75232     75233     75232     75234
     75235     75236     75235     75237     75238     75239     75238     75240
     75241     75242     75241     75243     75244     75245     75244     75246
     75247     75248     75247     75249     75250     75251     75250     75252
     75253     75254     75253     75255     75256     75257     75256     75258
     75259     75260     75259     75261     75262     75263     75262     75264
     75265     75266     75265     75267     75268     75269     75268     75270
     75271     75272     75271     75273     75274     75275     75274     75276
     75277     75278     75277     75279     75280     75281     75280     75282
     75283     75284     75283     75285     75286     75287     75286     75288
     75289     75290     75289     75291     75292     75293     75292     75294
     75295     75296     75295     75297     75298     75299     75298     75300
     75301     75302     75301     75303     75304     75305     75304     75306
     75307     75308     75307     75309     75310     75311     75310     75312
     75313     75314     75313     75315     75316     75317     75316     75318
     75319     75320     75319     75321     75322     75323     75322     75324
     75325     75326     75325     75327     75328     75329     75328     75330
     75331     75332     75331     75333     75334     75335     75334     75336
     75337     75338     75337     75339     75340     75341     75340     75342
     75343     75344     75343     75345     75346     75347     75346     75348
     75349     75350     75349     75351     75352     75353     75352     75354
     75355     75356     75355     75357     75358     75359     75358     75360
     75361     75362     75361     75363     75364     75365     75364     75366
     75367     75368     75367     75369     75370     75371     75370     75372
     75373     75374     75373     75375     75376     75377     75376     75378
     75379     75380     75379     75381     75382     75383     75382     75384
     75385     75386     75385     75387     75388     75389     75388     75390
     75391     75392     75391     75393     75394     75395     75394     75396
     75397     75398     75397     75399     75400     75401     75400     75402
     75403     75404     75403     75405     75406     75407     75406     75408
     75409     75410     75409     75411     75412     75413     75412     75414
     75415     75416     75415     75417     75418     75419     75418     75420
     75421     75422     75421     75423     75424     75425     75424     75426
     75427     75428     75427     75429     75430     75431     75430     75432
     75433     75434     75433     75435     75436     75437     75436     75438
     75439     75440     75439     75441     75442     75443     75442     75444
     75445     75446     75445     75447     75448     75449     75448     75450
     75451     75452     75451     75453     75454     75455     75454     75456
     75457     75458     75457     75459     75460     75461     75460     75462
     75463     75464     75463     75465     75466     75467     75466     75468
     75469     75470     75469     75471     75472     75473     75472     75474
     75475     75476     75475     75477     75478     75479     75478     75480
     75481     75482     75481     75483     75484     75485     75484     75486
     75487     75488     75487     75489     75490     75491     75490     75492
     75493     75494     75493     75495     75496     75497     75496     75498
     75499     75500     75499     75501     75502     75503     75502     75504
     75505     75506     75505     75507     75508     75509     75508     75510
     75511     75512     75511     75513     75514     75515     75514     75516
     75517     75518     75517     75519     75520     75521     75520     75522
     75523     75524     75523     75525     75526     75527     75526     75528
     75529     75530     75529     75531     75532     75533     75532     75534
     75535     75536     75535     75537     75538     75539     75538     75540
     75541     75542     75541     75543     75544     75545     75544     75546
     75547     75548     75547     75549     75550     75551     75550     75552
     75553     75554     75553     75555     75556     75557     75556     75558
     75559     75560     75559     75561     75562     75563     75562     75564
     75565     75566     75565     75567     75568     75569     75568     75570
     75571     75572     75571     75573     75574     75575     75574     75576
     75577     75578     75577     75579     75580     75581     75580     75582
     75583     75584     75583     75585     75586     75587     75586     75588
     75589     75590     75589     75591     75592     75593     75592     75594
     75595     75596     75595     75597     75598     75599     75598     75600
     75601     75602     75601     75603     75604     75605     75604     75606
     75607     75608     75607     75609     75610     75611     75610     75612
     75613     75614     75613     75615     75616     75617     75616     75618
     75619     75620     75619     75621     75622     75623     75622     75624
     75625     75626     75625     75627     75628     75629     75628     75630
     75631     75632     75631     75633     75634     75635     75634     75636
     75637     75638     75637     75639     75640     75641     75640     75642
     75643     75644     75643     75645     75646     75647     75646     75648
     75649     75650     75649     75651     75652     75653     75652     75654
     75655     75656     75655     75657     75658     75659     75658     75660
     75661     75662     75661     75663     75664     75665     75664     75666
     75667     75668     75667     75669     75670     75671     75670     75672
     75673     75674     75673     75675     75676     75677     75676     75678
     75679     75680     75679     75681     75682     75683     75682     75684
     75685     75686     75685     75687     75688     75689     75688     75690
     75691     75692     75691     75693     75694     75695     75694     75696
     75697     75698     75697     75699     75700     75701     75700     75702
     75703     75704     75703     75705     75706     75707     75706     75708
     75709     75710     75709     75711     75712     75713     75712     75714
     75715     75716     75715     75717     75718     75719     75718     75720
     75721     75722     75721     75723     75724     75725     75724     75726
     75727     75728     75727     75729     75730     75731     75730     75732
     75733     75734     75733     75735     75736     75737     75736     75738
     75739     75740     75739     75741     75742     75743     75742     75744
     75745     75746     75745     75747     75748     75749     75748     75750
     75751     75752     75751     75753     75754     75755     75754     75756
     75757     75758     75757     75759     75760     75761     75760     75762
     75763     75764     75763     75765     75766     75767     75766     75768
     75769     75770     75769     75771     75772     75773     75772     75774
     75775     75776     75775     75777     75778     75779     75778     75780
     75781     75782     75781     75783     75784     75785     75784     75786
     75787     75788     75787     75789     75790     75791     75790     75792
     75793     75794     75793     75795     75796     75797     75796     75798
     75799     75800     75799     75801     75802     75803     75802     75804
     75805     75806     75805     75807     75808     75809     75808     75810
     75811     75812     75811     75813     75814     75815     75814     75816
     75817     75818     75817     75819     75820     75821     75820     75822
     75823     75824     75823     75825     75826     75827     75826     75828
     75829     75830     75829     75831     75832     75833     75832     75834
     75835     75836     75835     75837     75838     75839     75838     75840
     75841     75842     75841     75843     75844     75845     75844     75846
     75847     75848     75847     75849     75850     75851     75850     75852
     75853     75854     75853     75855     75856     75857     75856     75858
     75859     75860     75859     75861     75862     75863     75862     75864
     75865     75866     75865     75867     75868     75869     75868     75870
     75871     75872     75871     75873     75874     75875     75874     75876
     75877     75878     75877     75879     75880     75881     75880     75882
     75883     75884     75883     75885     75886     75887     75886     75888
     75889     75890     75889     75891     75892     75893     75892     75894
     75895     75896     75895     75897     75898     75899     75898     75900
     75901     75902     75901     75903     75904     75905     75904     75906
     75907     75908     75907     75909     75910     75911     75910     75912
     75913     75914     75913     75915     75916     75917     75916     75918
     75919     75920     75919     75921     75922     75923     75922     75924
     75925     75926     75925     75927     75928     75929     75928     75930
     75931     75932     75931     75933     75934     75935     75934     75936
     75937     75938     75937     75939     75940     75941     75940     75942
     75943     75944     75943     75945     75946     75947     75946     75948
     75949     75950     75949     75951     75952     75953     75952     75954
     75955     75956     75955     75957     75958     75959     75958     75960
     75961     75962     75961     75963     75964     75965     75964     75966
     75967     75968     75967     75969     75970     75971     75970     75972
     75973     75974     75973     75975     75976     75977     75976     75978
     75979     75980     75979     75981     75982     75983     75982     75984
     75985     75986     75985     75987     75988     75989     75988     75990
     75991     75992     75991     75993     75994     75995     75994     75996
     75997     75998     75997     75999     76000     76001     76000     76002
     76003     76004     76003     76005     76006     76007     76006     76008
     76009     76010     76009     76011     76012     76013     76012     76014
     76015     76016     76015     76017     76018     76019     76018     76020
     76021     76022     76021     76023     76024     76025     76024     76026
     76027     76028     76027     76029     76030     76031     76030     76032
     76033     76034     76033     76035     76036     76037     76036     76038
     76039     76040     76039     76041     76042     76043     76042     76044
     76045     76046     76045     76047     76048     76049     76048     76050
     76051     76052     76051     76053     76054     76055     76054     76056
     76057     76058     76057     76059     76060     76061     76060     76062
     76063     76064     76063     76065     76066     76067     76066     76068
     76069     76070     76069     76071     76072     76073     76072     76074
     76075     76076     76075     76077     76078     76079     76078     76080
     76081     76082     76081     76083     76084     76085     76084     76086
     76087     76088     76087     76089     76090     76091     76090     76092
     76093     76094     76093     76095     76096     76097     76096     76098
     76099     76100     76099     76101     76102     76103     76102     76104
     76105     76106     76105     76107     76108     76109     76108     76110
     76111     76112     76111     76113     76114     76115     76114     76116
     76117     76118     76117     76119     76120     76121     76120     76122
     76123     76124     76123     76125     76126     76127     76126     76128
     76129     76130     76129     76131     76132     76133     76132     76134
     76135     76136     76135     76137     76138     76139     76138     76140
     76141     76142     76141     76143     76144     76145     76144     76146
     76147     76148     76147     76149     76150     76151     76150     76152
     76153     76154     76153     76155     76156     76157     76156     76158
     76159     76160     76159     76161     76162     76163     76162     76164
     76165     76166     76165     76167     76168     76169     76168     76170
     76171     76172     76171     76173     76174     76175     76174     76176
     76177     76178     76177     76179     76180     76181     76180     76182
     76183     76184     76183     76185     76186     76187     76186     76188
     76189     76190     76189     76191     76192     76193     76192     76194
     76195     76196     76195     76197     76198     76199     76198     76200
     76201     76202     76201     76203     76204     76205     76204     76206
     76207     76208     76207     76209     76210     76211     76210     76212
     76213     76214     76213     76215     76216     76217     76216     76218
     76219     76220     76219     76221     76222     76223     76222     76224
     76225     76226     76225     76227     76228     76229     76228     76230
     76231     76232     76231     76233     76234     76235     76234     76236
     76237     76238     76237     76239     76240     76241     76240     76242
     76243     76244     76243     76245     76246     76247     76246     76248
     76249     76250     76249     76251     76252     76253     76252     76254
     76255     76256     76255     76257     76258     76259     76258     76260
     76261     76262     76261     76263     76264     76265     76264     76266
     76267     76268     76267     76269     76270     76271     76270     76272
     76273     76274     76273     76275     76276     76277     76276     76278
     76279     76280     76279     76281     76282     76283     76282     76284
     76285     76286     76285     76287     76288     76289     76288     76290
     76291     76292     76291     76293     76294     76295     76294     76296
     76297     76298     76297     76299     76300     76301     76300     76302
     76303     76304     76303     76305     76306     76307     76306     76308
     76309     76310     76309     76311     76312     76313     76312     76314
     76315     76316     76315     76317     76318     76319     76318     76320
     76321     76322     76321     76323     76324     76325     76324     76326
     76327     76328     76327     76329     76330     76331     76330     76332
     76333     76334     76333     76335     76336     76337     76336     76338
     76339     76340     76339     76341     76342     76343     76342     76344
     76345     76346     76345     76347     76348     76349     76348     76350
     76351     76352     76351     76353     76354     76355     76354     76356
     76357     76358     76357     76359     76360     76361     76360     76362
     76363     76364     76363     76365     76366     76367     76366     76368
     76369     76370     76369     76371     76372     76373     76372     76374
     76375     76376     76375     76377     76378     76379     76378     76380
     76381     76382     76381     76383     76384     76385     76384     76386
     76387     76388     76387     76389     76390     76391     76390     76392
     76393     76394     76393     76395     76396     76397     76396     76398
     76399     76400     76399     76401     76402     76403     76402     76404
     76405     76406     76405     76407     76408     76409     76408     76410
     76411     76412     76411     76413     76414     76415     76414     76416
     76417     76418     76417     76419     76420     76421     76420     76422
     76423     76424     76423     76425     76426     76427     76426     76428
     76429     76430     76429     76431     76432     76433     76432     76434
     76435     76436     76435     76437     76438     76439     76438     76440
     76441     76442     76441     76443     76444     76445     76444     76446
     76447     76448     76447     76449     76450     76451     76450     76452
     76453     76454     76453     76455     76456     76457     76456     76458
     76459     76460     76459     76461     76462     76463     76462     76464
     76465     76466     76465     76467     76468     76469     76468     76470
     76471     76472     76471     76473     76474     76475     76474     76476
     76477     76478     76477     76479     76480     76481     76480     76482
     76483     76484     76483     76485     76486     76487     76486     76488
     76489     76490     76489     76491     76492     76493     76492     76494
     76495     76496     76495     76497     76498     76499     76498     76500
     76501     76502     76501     76503     76504     76505     76504     76506
     76507     76508     76507     76509     76510     76511     76510     76512
     76513     76514     76513     76515     76516     76517     76516     76518
     76519     76520     76519     76521     76522     76523     76522     76524
     76525     76526     76525     76527     76528     76529     76528     76530
     76531     76532     76531     76533     76534     76535     76534     76536
     76537     76538     76537     76539     76540     76541     76540     76542
     76543     76544     76543     76545     76546     76547     76546     76548
     76549     76550     76549     76551     76552     76553     76552     76554
     76555     76556     76555     76557     76558     76559     76558     76560
     76561     76562     76561     76563     76564     76565     76564     76566
     76567     76568     76567     76569     76570     76571     76570     76572
     76573     76574     76573     76575     76576     76577     76576     76578
     76579     76580     76579     76581     76582     76583     76582     76584
     76585     76586     76585     76587     76588     76589     76588     76590
     76591     76592     76591     76593     76594     76595     76594     76596
     76597     76598     76597     76599     76600     76601     76600     76602
     76603     76604     76603     76605     76606     76607     76606     76608
     76609     76610     76609     76611     76612     76613     76612     76614
     76615     76616     76615     76617     76618     76619     76618     76620
     76621     76622     76621     76623     76624     76625     76624     76626
     76627     76628     76627     76629     76630     76631     76630     76632
     76633     76634     76633     76635     76636     76637     76636     76638
     76639     76640     76639     76641     76642     76643     76642     76644
     76645     76646     76645     76647     76648     76649     76648     76650
     76651     76652     76651     76653     76654     76655     76654     76656
     76657     76658     76657     76659     76660     76661     76660     76662
     76663     76664     76663     76665     76666     76667     76666     76668
     76669     76670     76669     76671     76672     76673     76672     76674
     76675     76676     76675     76677     76678     76679     76678     76680
     76681     76682     76681     76683     76684     76685     76684     76686
     76687     76688     76687     76689     76690     76691     76690     76692
     76693     76694     76693     76695     76696     76697     76696     76698
     76699     76700     76699     76701     76702     76703     76702     76704
     76705     76706     76705     76707     76708     76709     76708     76710
     76711     76712     76711     76713     76714     76715     76714     76716
     76717     76718     76717     76719     76720     76721     76720     76722
     76723     76724     76723     76725     76726     76727     76726     76728
     76729     76730     76729     76731     76732     76733     76732     76734
     76735     76736     76735     76737     76738     76739     76738     76740
     76741     76742     76741     76743     76744     76745     76744     76746
     76747     76748     76747     76749     76750     76751     76750     76752
     76753     76754     76753     76755     76756     76757     76756     76758
     76759     76760     76759     76761     76762     76763     76762     76764
     76765     76766     76765     76767     76768     76769     76768     76770
     76771     76772     76771     76773     76774     76775     76774     76776
     76777     76778     76777     76779     76780     76781     76780     76782
     76783     76784     76783     76785     76786     76787     76786     76788
     76789     76790     76789     76791     76792     76793     76792     76794
     76795     76796     76795     76797     76798     76799     76798     76800
     76801     76802     76801     76803     76804     76805     76804     76806
     76807     76808     76807     76809     76810     76811     76810     76812
     76813     76814     76813     76815     76816     76817     76816     76818
     76819     76820     76819     76821     76822     76823     76822     76824
     76825     76826     76825     76827     76828     76829     76828     76830
     76831     76832     76831     76833     76834     76835     76834     76836
     76837     76838     76837     76839     76840     76841     76840     76842
     76843     76844     76843     76845     76846     76847     76846     76848
     76849     76850     76849     76851     76852     76853     76852     76854
     76855     76856     76855     76857     76858     76859     76858     76860
     76861     76862     76861     76863     76864     76865     76864     76866
     76867     76868     76867     76869     76870     76871     76870     76872
     76873     76874     76873     76875     76876     76877     76876     76878
     76879     76880     76879     76881     76882     76883     76882     76884
     76885     76886     76885     76887     76888     76889     76888     76890
     76891     76892     76891     76893     76894     76895     76894     76896
     76897     76898     76897     76899     76900     76901     76900     76902
     76903     76904     76903     76905     76906     76907     76906     76908
     76909     76910     76909     76911     76912     76913     76912     76914
     76915     76916     76915     76917     76918     76919     76918     76920
     76921     76922     76921     76923     76924     76925     76924     76926
     76927     76928     76927     76929     76930     76931     76930     76932
     76933     76934     76933     76935     76936     76937     76936     76938
     76939     76940     76939     76941     76942     76943     76942     76944
     76945     76946     76945     76947     76948     76949     76948     76950
     76951     76952     76951     76953     76954     76955     76954     76956
     76957     76958     76957     76959     76960     76961     76960     76962
     76963     76964     76963     76965     76966     76967     76966     76968
     76969     76970     76969     76971     76972     76973     76972     76974
     76975     76976     76975     76977     76978     76979     76978     76980
     76981     76982     76981     76983     76984     76985     76984     76986
     76987     76988     76987     76989     76990     76991     76990     76992
     76993     76994     76993     76995     76996     76997     76996     76998
     76999     77000     76999     77001     77002     77003     77002     77004
     77005     77006     77005     77007     77008     77009     77008     77010
     77011     77012     77011     77013     77014     77015     77014     77016
     77017     77018     77017     77019     77020     77021     77020     77022
     77023     77024     77023     77025     77026     77027     77026     77028
     77029     77030     77029     77031     77032     77033     77032     77034
     77035     77036     77035     77037     77038     77039     77038     77040
     77041     77042     77041     77043     77044     77045     77044     77046
     77047     77048     77047     77049     77050     77051     77050     77052
     77053     77054     77053     77055     77056     77057     77056     77058
     77059     77060     77059     77061     77062     77063     77062     77064
     77065     77066     77065     77067     77068     77069     77068     77070
     77071     77072     77071     77073     77074     77075     77074     77076
     77077     77078     77077     77079     77080     77081     77080     77082
     77083     77084     77083     77085     77086     77087     77086     77088
     77089     77090     77089     77091     77092     77093     77092     77094
     77095     77096     77095     77097     77098     77099     77098     77100
     77101     77102     77101     77103     77104     77105     77104     77106
     77107     77108     77107     77109     77110     77111     77110     77112
     77113     77114     77113     77115     77116     77117     77116     77118
     77119     77120     77119     77121     77122     77123     77122     77124
     77125     77126     77125     77127     77128     77129     77128     77130
     77131     77132     77131     77133     77134     77135     77134     77136
     77137     77138     77137     77139     77140     77141     77140     77142
     77143     77144     77143     77145     77146     77147     77146     77148
     77149     77150     77149     77151     77152     77153     77152     77154
     77155     77156     77155     77157     77158     77159     77158     77160
     77161     77162     77161     77163     77164     77165     77164     77166
     77167     77168     77167     77169     77170     77171     77170     77172
     77173     77174     77173     77175     77176     77177     77176     77178
     77179     77180     77179     77181     77182     77183     77182     77184
     77185     77186     77185     77187     77188     77189     77188     77190
     77191     77192     77191     77193     77194     77195     77194     77196
     77197     77198     77197     77199     77200     77201     77200     77202
     77203     77204     77203     77205     77206     77207     77206     77208
     77209     77210     77209     77211     77212     77213     77212     77214
     77215     77216     77215     77217     77218     77219     77218     77220
     77221     77222     77221     77223     77224     77225     77224     77226
     77227     77228     77227     77229     77230     77231     77230     77232
     77233     77234     77233     77235     77236     77237     77236     77238
     77239     77240     77239     77241     77242     77243     77242     77244
     77245     77246     77245     77247     77248     77249     77248     77250
     77251     77252     77251     77253     77254     77255     77254     77256
     77257     77258     77257     77259     77260     77261     77260     77262
     77263     77264     77263     77265     77266     77267     77266     77268
     77269     77270     77269     77271     77272     77273     77272     77274
     77275     77276     77275     77277     77278     77279     77278     77280
     77281     77282     77281     77283     77284     77285     77284     77286
     77287     77288     77287     77289     77290     77291     77290     77292
     77293     77294     77293     77295     77296     77297     77296     77298
     77299     77300     77299     77301     77302     77303     77302     77304
     77305     77306     77305     77307     77308     77309     77308     77310
     77311     77312     77311     77313     77314     77315     77314     77316
     77317     77318     77317     77319     77320     77321     77320     77322
     77323     77324     77323     77325     77326     77327     77326     77328
     77329     77330     77329     77331     77332     77333     77332     77334
     77335     77336     77335     77337     77338     77339     77338     77340
     77341     77342     77341     77343     77344     77345     77344     77346
     77347     77348     77347     77349     77350     77351     77350     77352
     77353     77354     77353     77355     77356     77357     77356     77358
     77359     77360     77359     77361     77362     77363     77362     77364
     77365     77366     77365     77367     77368     77369     77368     77370
     77371     77372     77371     77373     77374     77375     77374     77376
     77377     77378     77377     77379     77380     77381     77380     77382
     77383     77384     77383     77385     77386     77387     77386     77388
     77389     77390     77389     77391     77392     77393     77392     77394
     77395     77396     77395     77397     77398     77399     77398     77400
     77401     77402     77401     77403     77404     77405     77404     77406
     77407     77408     77407     77409     77410     77411     77410     77412
     77413     77414     77413     77415     77416     77417     77416     77418
     77419     77420     77419     77421     77422     77423     77422     77424
     77425     77426     77425     77427     77428     77429     77428     77430
     77431     77432     77431     77433     77434     77435     77434     77436
     77437     77438     77437     77439     77440     77441     77440     77442
     77443     77444     77443     77445     77446     77447     77446     77448
     77449     77450     77449     77451     77452     77453     77452     77454
     77455     77456     77455     77457     77458     77459     77458     77460
     77461     77462     77461     77463     77464     77465     77464     77466
     77467     77468     77467     77469     77470     77471     77470     77472
     77473     77474     77473     77475     77476     77477     77476     77478
     77479     77480     77479     77481     77482     77483     77482     77484
     77485     77486     77485     77487     77488     77489     77488     77490
     77491     77492     77491     77493     77494     77495     77494     77496
     77497     77498     77497     77499     77500     77501     77500     77502
     77503     77504     77503     77505     77506     77507     77506     77508
     77509     77510     77509     77511     77512     77513     77512     77514
     77515     77516     77515     77517     77518     77519     77518     77520
     77521     77522     77521     77523     77524     77525     77524     77526
     77527     77528     77527     77529     77530     77531     77530     77532
     77533     77534     77533     77535     77536     77537     77536     77538
     77539     77540     77539     77541     77542     77543     77542     77544
     77545     77546     77545     77547     77548     77549     77548     77550
     77551     77552     77551     77553     77554     77555     77554     77556
     77557     77558     77557     77559     77560     77561     77560     77562
     77563     77564     77563     77565     77566     77567     77566     77568
     77569     77570     77569     77571     77572     77573     77572     77574
     77575     77576     77575     77577     77578     77579     77578     77580
     77581     77582     77581     77583     77584     77585     77584     77586
     77587     77588     77587     77589     77590     77591     77590     77592
     77593     77594     77593     77595     77596     77597     77596     77598
     77599     77600     77599     77601     77602     77603     77602     77604
     77605     77606     77605     77607     77608     77609     77608     77610
     77611     77612     77611     77613     77614     77615     77614     77616
     77617     77618     77617     77619     77620     77621     77620     77622
     77623     77624     77623     77625     77626     77627     77626     77628
     77629     77630     77629     77631     77632     77633     77632     77634
     77635     77636     77635     77637     77638     77639     77638     77640
     77641     77642     77641     77643     77644     77645     77644     77646
     77647     77648     77647     77649     77650     77651     77650     77652
     77653     77654     77653     77655     77656     77657     77656     77658
     77659     77660     77659     77661     77662     77663     77662     77664
     77665     77666     77665     77667     77668     77669     77668     77670
     77671     77672     77671     77673     77674     77675     77674     77676
     77677     77678     77677     77679     77680     77681     77680     77682
     77683     77684     77683     77685     77686     77687     77686     77688
     77689     77690     77689     77691     77692     77693     77692     77694
     77695     77696     77695     77697     77698     77699     77698     77700
     77701     77702     77701     77703     77704     77705     77704     77706
     77707     77708     77707     77709     77710     77711     77710     77712
     77713     77714     77713     77715     77716     77717     77716     77718
     77719     77720     77719     77721     77722     77723     77722     77724
     77725     77726     77725     77727     77728     77729     77728     77730
     77731     77732     77731     77733     77734     77735     77734     77736
     77737     77738     77737     77739     77740     77741     77740     77742
     77743     77744     77743     77745     77746     77747     77746     77748
     77749     77750     77749     77751     77752     77753     77752     77754
     77755     77756     77755     77757     77758     77759     77758     77760
     77761     77762     77761     77763     77764     77765     77764     77766
     77767     77768     77767     77769     77770     77771     77770     77772
     77773     77774     77773     77775     77776     77777     77776     77778
     77779     77780     77779     77781     77782     77783     77782     77784
     77785     77786     77785     77787     77788     77789     77788     77790
     77791     77792     77791     77793     77794     77795     77794     77796
     77797     77798     77797     77799     77800     77801     77800     77802
     77803     77804     77803     77805     77806     77807     77806     77808
     77809     77810     77809     77811     77812     77813     77812     77814
     77815     77816     77815     77817     77818     77819     77818     77820
     77821     77822     77821     77823     77824     77825     77824     77826
     77827     77828     77827     77829     77830     77831     77830     77832
     77833     77834     77833     77835     77836     77837     77836     77838
     77839     77840     77839     77841     77842     77843     77842     77844
     77845     77846     77845     77847     77848     77849     77848     77850
     77851     77852     77851     77853     77854     77855     77854     77856
     77857     77858     77857     77859     77860     77861     77860     77862
     77863     77864     77863     77865     77866     77867     77866     77868
     77869     77870     77869     77871     77872     77873     77872     77874
     77875     77876     77875     77877     77878     77879     77878     77880
     77881     77882     77881     77883     77884     77885     77884     77886
     77887     77888     77887     77889     77890     77891     77890     77892
     77893     77894     77893     77895     77896     77897     77896     77898
     77899     77900     77899     77901     77902     77903     77902     77904
     77905     77906     77905     77907     77908     77909     77908     77910
     77911     77912     77911     77913     77914     77915     77914     77916
     77917     77918     77917     77919     77920     77921     77920     77922
     77923     77924     77923     77925     77926     77927     77926     77928
     77929     77930     77929     77931     77932     77933     77932     77934
     77935     77936     77935     77937     77938     77939     77938     77940
     77941     77942     77941     77943     77944     77945     77944     77946
     77947     77948     77947     77949     77950     77951     77950     77952
     77953     77954     77953     77955     77956     77957     77956     77958
     77959     77960     77959     77961     77962     77963     77962     77964
     77965     77966     77965     77967     77968     77969     77968     77970
     77971     77972     77971     77973     77974     77975     77974     77976
     77977     77978     77977     77979     77980     77981     77980     77982
     77983     77984     77983     77985     77986     77987     77986     77988
     77989     77990     77989     77991     77992     77993     77992     77994
     77995     77996     77995     77997     77998     77999     77998     78000
     78001     78002     78001     78003     78004     78005     78004     78006
     78007     78008     78007     78009     78010     78011     78010     78012
     78013     78014     78013     78015     78016     78017     78016     78018
     78019     78020     78019     78021     78022     78023     78022     78024
     78025     78026     78025     78027     78028     78029     78028     78030
     78031     78032     78031     78033     78034     78035     78034     78036
     78037     78038     78037     78039     78040     78041     78040     78042
     78043     78044     78043     78045     78046     78047     78046     78048
     78049     78050     78049     78051     78052     78053     78052     78054
     78055     78056     78055     78057     78058     78059     78058     78060
     78061     78062     78061     78063     78064     78065     78064     78066
     78067     78068     78067     78069     78070     78071     78070     78072
     78073     78074     78073     78075     78076     78077     78076     78078
     78079     78080     78079     78081     78082     78083     78082     78084
     78085     78086     78085     78087     78088     78089     78088     78090
     78091     78092     78091     78093     78094     78095     78094     78096
     78097     78098     78097     78099     78100     78101     78100     78102
     78103     78104     78103     78105     78106     78107     78106     78108
     78109     78110     78109     78111     78112     78113     78112     78114
     78115     78116     78115     78117     78118     78119     78118     78120
     78121     78122     78121     78123     78124     78125     78124     78126
     78127     78128     78127     78129     78130     78131     78130     78132
     78133     78134     78133     78135     78136     78137     78136     78138
     78139     78140     78139     78141     78142     78143     78142     78144
     78145     78146     78145     78147     78148     78149     78148     78150
     78151     78152     78151     78153     78154     78155     78154     78156
     78157     78158     78157     78159     78160     78161     78160     78162
     78163     78164     78163     78165     78166     78167     78166     78168
     78169     78170     78169     78171     78172     78173     78172     78174
     78175     78176     78175     78177     78178     78179     78178     78180
     78181     78182     78181     78183     78184     78185     78184     78186
     78187     78188     78187     78189     78190     78191     78190     78192
     78193     78194     78193     78195     78196     78197     78196     78198
     78199     78200     78199     78201     78202     78203     78202     78204
     78205     78206     78205     78207     78208     78209     78208     78210
     78211     78212     78211     78213     78214     78215     78214     78216
     78217     78218     78217     78219     78220     78221     78220     78222
     78223     78224     78223     78225     78226     78227     78226     78228
     78229     78230     78229     78231     78232     78233     78232     78234
     78235     78236     78235     78237     78238     78239     78238     78240
     78241     78242     78241     78243     78244     78245     78244     78246
     78247     78248     78247     78249     78250     78251     78250     78252
     78253     78254     78253     78255     78256     78257     78256     78258
     78259     78260     78259     78261     78262     78263     78262     78264
     78265     78266     78265     78267     78268     78269     78268     78270
     78271     78272     78271     78273     78274     78275     78274     78276
     78277     78278     78277     78279     78280     78281     78280     78282
     78283     78284     78283     78285     78286     78287     78286     78288
     78289     78290     78289     78291     78292     78293     78292     78294
     78295     78296     78295     78297     78298     78299     78298     78300
     78301     78302     78301     78303     78304     78305     78304     78306
     78307     78308     78307     78309     78310     78311     78310     78312
     78313     78314     78313     78315     78316     78317     78316     78318
     78319     78320     78319     78321     78322     78323     78322     78324
     78325     78326     78325     78327     78328     78329     78328     78330
     78331     78332     78331     78333     78334     78335     78334     78336
     78337     78338     78337     78339     78340     78341     78340     78342
     78343     78344     78343     78345     78346     78347     78346     78348
     78349     78350     78349     78351     78352     78353     78352     78354
     78355     78356     78355     78357     78358     78359     78358     78360
     78361     78362     78361     78363     78364     78365     78364     78366
     78367     78368     78367     78369     78370     78371     78370     78372
     78373     78374     78373     78375     78376     78377     78376     78378
     78379     78380     78379     78381     78382     78383     78382     78384
     78385     78386     78385     78387     78388     78389     78388     78390
     78391     78392     78391     78393     78394     78395     78394     78396
     78397     78398     78397     78399     78400     78401     78400     78402
     78403     78404     78403     78405     78406     78407     78406     78408
     78409     78410     78409     78411     78412     78413     78412     78414
     78415     78416     78415     78417     78418     78419     78418     78420
     78421     78422     78421     78423     78424     78425     78424     78426
     78427     78428     78427     78429     78430     78431     78430     78432
     78433     78434     78433     78435     78436     78437     78436     78438
     78439     78440     78439     78441     78442     78443     78442     78444
     78445     78446     78445     78447     78448     78449     78448     78450
     78451     78452     78451     78453     78454     78455     78454     78456
     78457     78458     78457     78459     78460     78461     78460     78462
     78463     78464     78463     78465     78466     78467     78466     78468
     78469     78470     78469     78471     78472     78473     78472     78474
     78475     78476     78475     78477     78478     78479     78478     78480
     78481     78482     78481     78483     78484     78485     78484     78486
     78487     78488     78487     78489     78490     78491     78490     78492
     78493     78494     78493     78495     78496     78497     78496     78498
     78499     78500     78499     78501     78502     78503     78502     78504
     78505     78506     78505     78507     78508     78509     78508     78510
     78511     78512     78511     78513     78514     78515     78514     78516
     78517     78518     78517     78519     78520     78521     78520     78522
     78523     78524     78523     78525     78526     78527     78526     78528
     78529     78530     78529     78531     78532     78533     78532     78534
     78535     78536     78535     78537     78538     78539     78538     78540
     78541     78542     78541     78543     78544     78545     78544     78546
     78547     78548     78547     78549     78550     78551     78550     78552
     78553     78554     78553     78555     78556     78557     78556     78558
     78559     78560     78559     78561     78562     78563     78562     78564
     78565     78566     78565     78567     78568     78569     78568     78570
     78571     78572     78571     78573     78574     78575     78574     78576
     78577     78578     78577     78579     78580     78581     78580     78582
     78583     78584     78583     78585     78586     78587     78586     78588
     78589     78590     78589     78591     78592     78593     78592     78594
     78595     78596     78595     78597     78598     78599     78598     78600
     78601     78602     78601     78603     78604     78605     78604     78606
     78607     78608     78607     78609     78610     78611     78610     78612
     78613     78614     78613     78615     78616     78617     78616     78618
     78619     78620     78619     78621     78622     78623     78622     78624
     78625     78626     78625     78627     78628     78629     78628     78630
     78631     78632     78631     78633     78634     78635     78634     78636
     78637     78638     78637     78639     78640     78641     78640     78642
     78643     78644     78643     78645     78646     78647     78646     78648
     78649     78650     78649     78651     78652     78653     78652     78654
     78655     78656     78655     78657     78658     78659     78658     78660
     78661     78662     78661     78663     78664     78665     78664     78666
     78667     78668     78667     78669     78670     78671     78670     78672
     78673     78674     78673     78675     78676     78677     78676     78678
     78679     78680     78679     78681     78682     78683     78682     78684
     78685     78686     78685     78687     78688     78689     78688     78690
     78691     78692     78691     78693     78694     78695     78694     78696
     78697     78698     78697     78699     78700     78701     78700     78702
     78703     78704     78703     78705     78706     78707     78706     78708
     78709     78710     78709     78711     78712     78713     78712     78714
     78715     78716     78715     78717     78718     78719     78718     78720
     78721     78722     78721     78723     78724     78725     78724     78726
     78727     78728     78727     78729     78730     78731     78730     78732
     78733     78734     78733     78735     78736     78737     78736     78738
     78739     78740     78739     78741     78742     78743     78742     78744
     78745     78746     78745     78747     78748     78749     78748     78750
     78751     78752     78751     78753     78754     78755     78754     78756
     78757     78758     78757     78759     78760     78761     78760     78762
     78763     78764     78763     78765     78766     78767     78766     78768
     78769     78770     78769     78771     78772     78773     78772     78774
     78775     78776     78775     78777     78778     78779     78778     78780
     78781     78782     78781     78783     78784     78785     78784     78786
     78787     78788     78787     78789     78790     78791     78790     78792
     78793     78794     78793     78795     78796     78797     78796     78798
     78799     78800     78799     78801     78802     78803     78802     78804
     78805     78806     78805     78807     78808     78809     78808     78810
     78811     78812     78811     78813     78814     78815     78814     78816
     78817     78818     78817     78819     78820     78821     78820     78822
     78823     78824     78823     78825     78826     78827     78826     78828
     78829     78830     78829     78831     78832     78833     78832     78834
     78835     78836     78835     78837     78838     78839     78838     78840
     78841     78842     78841     78843     78844     78845     78844     78846
     78847     78848     78847     78849     78850     78851     78850     78852
     78853     78854     78853     78855     78856     78857     78856     78858
     78859     78860     78859     78861     78862     78863     78862     78864
     78865     78866     78865     78867     78868     78869     78868     78870
     78871     78872     78871     78873     78874     78875     78874     78876
     78877     78878     78877     78879     78880     78881     78880     78882
     78883     78884     78883     78885     78886     78887     78886     78888
     78889     78890     78889     78891     78892     78893     78892     78894
     78895     78896     78895     78897     78898     78899     78898     78900
     78901     78902     78901     78903     78904     78905     78904     78906
     78907     78908     78907     78909     78910     78911     78910     78912
     78913     78914     78913     78915     78916     78917     78916     78918
     78919     78920     78919     78921     78922     78923     78922     78924
     78925     78926     78925     78927     78928     78929     78928     78930
     78931     78932     78931     78933     78934     78935     78934     78936
     78937     78938     78937     78939     78940     78941     78940     78942
     78943     78944     78943     78945     78946     78947     78946     78948
     78949     78950     78949     78951     78952     78953     78952     78954
     78955     78956     78955     78957     78958     78959     78958     78960
     78961     78962     78961     78963     78964     78965     78964     78966
     78967     78968     78967     78969     78970     78971     78970     78972
     78973     78974     78973     78975     78976     78977     78976     78978
     78979     78980     78979     78981     78982     78983     78982     78984
     78985     78986     78985     78987     78988     78989     78988     78990
     78991     78992     78991     78993     78994     78995     78994     78996
     78997     78998     78997     78999     79000     79001     79000     79002
     79003     79004     79003     79005     79006     79007     79006     79008
     79009     79010     79009     79011     79012     79013     79012     79014
     79015     79016     79015     79017     79018     79019     79018     79020
     79021     79022     79021     79023     79024     79025     79024     79026
     79027     79028     79027     79029     79030     79031     79030     79032
     79033     79034     79033     79035     79036     79037     79036     79038
     79039     79040     79039     79041     79042     79043     79042     79044
     79045     79046     79045     79047     79048     79049     79048     79050
     79051     79052     79051     79053     79054     79055     79054     79056
     79057     79058     79057     79059     79060     79061     79060     79062
     79063     79064     79063     79065     79066     79067     79066     79068
     79069     79070     79069     79071     79072     79073     79072     79074
     79075     79076     79075     79077     79078     79079     79078     79080
     79081     79082     79081     79083     79084     79085     79084     79086
     79087     79088     79087     79089     79090     79091     79090     79092
     79093     79094     79093     79095     79096     79097     79096     79098
     79099     79100     79099     79101     79102     79103     79102     79104
     79105     79106     79105     79107     79108     79109     79108     79110
     79111     79112     79111     79113     79114     79115     79114     79116
     79117     79118     79117     79119     79120     79121     79120     79122
     79123     79124     79123     79125     79126     79127     79126     79128
     79129     79130     79129     79131     79132     79133     79132     79134
     79135     79136     79135     79137     79138     79139     79138     79140
     79141     79142     79141     79143     79144     79145     79144     79146
     79147     79148     79147     79149     79150     79151     79150     79152
     79153     79154     79153     79155     79156     79157     79156     79158
     79159     79160     79159     79161     79162     79163     79162     79164
     79165     79166     79165     79167     79168     79169     79168     79170
     79171     79172     79171     79173     79174     79175     79174     79176
     79177     79178     79177     79179     79180     79181     79180     79182
     79183     79184     79183     79185     79186     79187     79186     79188
     79189     79190     79189     79191     79192     79193     79192     79194
     79195     79196     79195     79197     79198     79199     79198     79200
     79201     79202     79201     79203     79204     79205     79204     79206
     79207     79208     79207     79209     79210     79211     79210     79212
     79213     79214     79213     79215     79216     79217     79216     79218
     79219     79220     79219     79221     79222     79223     79222     79224
     79225     79226     79225     79227     79228     79229     79228     79230
     79231     79232     79231     79233     79234     79235     79234     79236
     79237     79238     79237     79239     79240     79241     79240     79242
     79243     79244     79243     79245     79246     79247     79246     79248
     79249     79250     79249     79251     79252     79253     79252     79254
     79255     79256     79255     79257     79258     79259     79258     79260
     79261     79262     79261     79263     79264     79265     79264     79266
     79267     79268     79267     79269     79270     79271     79270     79272
     79273     79274     79273     79275     79276     79277     79276     79278
     79279     79280     79279     79281     79282     79283     79282     79284
     79285     79286     79285     79287     79288     79289     79288     79290
     79291     79292     79291     79293     79294     79295     79294     79296
     79297     79298     79297     79299     79300     79301     79300     79302
     79303     79304     79303     79305     79306     79307     79306     79308
     79309     79310     79309     79311     79312     79313     79312     79314
     79315     79316     79315     79317     79318     79319     79318     79320
     79321     79322     79321     79323     79324     79325     79324     79326
     79327     79328     79327     79329     79330     79331     79330     79332
     79333     79334     79333     79335     79336     79337     79336     79338
     79339     79340     79339     79341     79342     79343     79342     79344
     79345     79346     79345     79347     79348     79349     79348     79350
     79351     79352     79351     79353     79354     79355     79354     79356
     79357     79358     79357     79359     79360     79361     79360     79362
     79363     79364     79363     79365     79366     79367     79366     79368
     79369     79370     79369     79371     79372     79373     79372     79374
     79375     79376     79375     79377     79378     79379     79378     79380
     79381     79382     79381     79383     79384     79385     79384     79386
     79387     79388     79387     79389     79390     79391     79390     79392
     79393     79394     79393     79395     79396     79397     79396     79398
     79399     79400     79399     79401     79402     79403     79402     79404
     79405     79406     79405     79407     79408     79409     79408     79410
     79411     79412     79411     79413     79414     79415     79414     79416
     79417     79418     79417     79419     79420     79421     79420     79422
     79423     79424     79423     79425     79426     79427     79426     79428
     79429     79430     79429     79431     79432     79433     79432     79434
     79435     79436     79435     79437     79438     79439     79438     79440
     79441     79442     79441     79443     79444     79445     79444     79446
     79447     79448     79447     79449     79450     79451     79450     79452
     79453     79454     79453     79455     79456     79457     79456     79458
     79459     79460     79459     79461     79462     79463     79462     79464
     79465     79466     79465     79467     79468     79469     79468     79470
     79471     79472     79471     79473     79474     79475     79474     79476
     79477     79478     79477     79479     79480     79481     79480     79482
     79483     79484     79483     79485     79486     79487     79486     79488
     79489     79490     79489     79491     79492     79493     79492     79494
     79495     79496     79495     79497     79498     79499     79498     79500
     79501     79502     79501     79503     79504     79505     79504     79506
     79507     79508     79507     79509     79510     79511     79510     79512
     79513     79514     79513     79515     79516     79517     79516     79518
     79519     79520     79519     79521     79522     79523     79522     79524
     79525     79526     79525     79527     79528     79529     79528     79530
     79531     79532     79531     79533     79534     79535     79534     79536
     79537     79538     79537     79539     79540     79541     79540     79542
     79543     79544     79543     79545     79546     79547     79546     79548
     79549     79550     79549     79551     79552     79553     79552     79554
     79555     79556     79555     79557     79558     79559     79558     79560
     79561     79562     79561     79563     79564     79565     79564     79566
     79567     79568     79567     79569     79570     79571     79570     79572
     79573     79574     79573     79575     79576     79577     79576     79578
     79579     79580     79579     79581     79582     79583     79582     79584
     79585     79586     79585     79587     79588     79589     79588     79590
     79591     79592     79591     79593     79594     79595     79594     79596
     79597     79598     79597     79599     79600     79601     79600     79602
     79603     79604     79603     79605     79606     79607     79606     79608
     79609     79610     79609     79611     79612     79613     79612     79614
     79615     79616     79615     79617     79618     79619     79618     79620
     79621     79622     79621     79623     79624     79625     79624     79626
     79627     79628     79627     79629     79630     79631     79630     79632
     79633     79634     79633     79635     79636     79637     79636     79638
     79639     79640     79639     79641     79642     79643     79642     79644
     79645     79646     79645     79647     79648     79649     79648     79650
     79651     79652     79651     79653     79654     79655     79654     79656
     79657     79658     79657     79659     79660     79661     79660     79662
     79663     79664     79663     79665     79666     79667     79666     79668
     79669     79670     79669     79671     79672     79673     79672     79674
     79675     79676     79675     79677     79678     79679     79678     79680
     79681     79682     79681     79683     79684     79685     79684     79686
     79687     79688     79687     79689     79690     79691     79690     79692
     79693     79694     79693     79695     79696     79697     79696     79698
     79699     79700     79699     79701     79702     79703     79702     79704
     79705     79706     79705     79707     79708     79709     79708     79710
     79711     79712     79711     79713     79714     79715     79714     79716
     79717     79718     79717     79719     79720     79721     79720     79722
     79723     79724     79723     79725     79726     79727     79726     79728
     79729     79730     79729     79731     79732     79733     79732     79734
     79735     79736     79735     79737     79738     79739     79738     79740
     79741     79742     79741     79743     79744     79745     79744     79746
     79747     79748     79747     79749     79750     79751     79750     79752
     79753     79754     79753     79755     79756     79757     79756     79758
     79759     79760     79759     79761     79762     79763     79762     79764
     79765     79766     79765     79767     79768     79769     79768     79770
     79771     79772     79771     79773     79774     79775     79774     79776
     79777     79778     79777     79779     79780     79781     79780     79782
     79783     79784     79783     79785     79786     79787     79786     79788
     79789     79790     79789     79791     79792     79793     79792     79794
     79795     79796     79795     79797     79798     79799     79798     79800
     79801     79802     79801     79803     79804     79805     79804     79806
     79807     79808     79807     79809     79810     79811     79810     79812
     79813     79814     79813     79815     79816     79817     79816     79818
     79819     79820     79819     79821     79822     79823     79822     79824
     79825     79826     79825     79827     79828     79829     79828     79830
     79831     79832     79831     79833     79834     79835     79834     79836
     79837     79838     79837     79839     79840     79841     79840     79842
     79843     79844     79843     79845     79846     79847     79846     79848
     79849     79850     79849     79851     79852     79853     79852     79854
     79855     79856     79855     79857     79858     79859     79858     79860
     79861     79862     79861     79863     79864     79865     79864     79866
     79867     79868     79867     79869     79870     79871     79870     79872
     79873     79874     79873     79875     79876     79877     79876     79878
     79879     79880     79879     79881     79882     79883     79882     79884
     79885     79886     79885     79887     79888     79889     79888     79890
     79891     79892     79891     79893     79894     79895     79894     79896
     79897     79898     79897     79899     79900     79901     79900     79902
     79903     79904     79903     79905     79906     79907     79906     79908
     79909     79910     79909     79911     79912     79913     79912     79914
     79915     79916     79915     79917     79918     79919     79918     79920
     79921     79922     79921     79923     79924     79925     79924     79926
     79927     79928     79927     79929     79930     79931     79930     79932
     79933     79934     79933     79935     79936     79937     79936     79938
     79939     79940     79939     79941     79942     79943     79942     79944
     79945     79946     79945     79947     79948     79949     79948     79950
     79951     79952     79951     79953     79954     79955     79954     79956
     79957     79958     79957     79959     79960     79961     79960     79962
     79963     79964     79963     79965     79966     79967     79966     79968
     79969     79970     79969     79971     79972     79973     79972     79974
     79975     79976     79975     79977     79978     79979     79978     79980
     79981     79982     79981     79983     79984     79985     79984     79986
     79987     79988     79987     79989     79990     79991     79990     79992
     79993     79994     79993     79995     79996     79997     79996     79998
     79999     80000     79999     80001     80002     80003     80002     80004
     80005     80006     80005     80007     80008     80009     80008     80010
     80011     80012     80011     80013     80014     80015     80014     80016
     80017     80018     80017     80019     80020     80021     80020     80022
     80023     80024     80023     80025     80026     80027     80026     80028
     80029     80030     80029     80031     80032     80033     80032     80034
     80035     80036     80035     80037     80038     80039     80038     80040
     80041     80042     80041     80043     80044     80045     80044     80046
     80047     80048     80047     80049     80050     80051     80050     80052
     80053     80054     80053     80055     80056     80057     80056     80058
     80059     80060     80059     80061     80062     80063     80062     80064
     80065     80066     80065     80067     80068     80069     80068     80070
     80071     80072     80071     80073     80074     80075     80074     80076
     80077     80078     80077     80079     80080     80081     80080     80082
     80083     80084     80083     80085     80086     80087     80086     80088
     80089     80090     80089     80091     80092     80093     80092     80094
     80095     80096     80095     80097     80098     80099     80098     80100
     80101     80102     80101     80103     80104     80105     80104     80106
     80107     80108     80107     80109     80110     80111     80110     80112
     80113     80114     80113     80115     80116     80117     80116     80118
     80119     80120     80119     80121     80122     80123     80122     80124
     80125     80126     80125     80127     80128     80129     80128     80130
     80131     80132     80131     80133     80134     80135     80134     80136
     80137     80138     80137     80139     80140     80141     80140     80142
     80143     80144     80143     80145     80146     80147     80146     80148
     80149     80150     80149     80151     80152     80153     80152     80154
     80155     80156     80155     80157     80158     80159     80158     80160
     80161     80162     80161     80163     80164     80165     80164     80166
     80167     80168     80167     80169     80170     80171     80170     80172
     80173     80174     80173     80175     80176     80177     80176     80178
     80179     80180     80179     80181     80182     80183     80182     80184
     80185     80186     80185     80187     80188     80189     80188     80190
     80191     80192     80191     80193     80194     80195     80194     80196
     80197     80198     80197     80199     80200     80201     80200     80202
     80203     80204     80203     80205     80206     80207     80206     80208
     80209     80210     80209     80211     80212     80213     80212     80214
     80215     80216     80215     80217     80218     80219     80218     80220
     80221     80222     80221     80223     80224     80225     80224     80226
     80227     80228     80227     80229     80230     80231     80230     80232
     80233     80234     80233     80235     80236     80237     80236     80238
     80239     80240     80239     80241     80242     80243     80242     80244
     80245     80246     80245     80247     80248     80249     80248     80250
     80251     80252     80251     80253     80254     80255     80254     80256
     80257     80258     80257     80259     80260     80261     80260     80262
     80263     80264     80263     80265     80266     80267     80266     80268
     80269     80270     80269     80271     80272     80273     80272     80274
     80275     80276     80275     80277     80278     80279     80278     80280
     80281     80282     80281     80283     80284     80285     80284     80286
     80287     80288     80287     80289     80290     80291     80290     80292
     80293     80294     80293     80295     80296     80297     80296     80298
     80299     80300     80299     80301     80302     80303     80302     80304
     80305     80306     80305     80307     80308     80309     80308     80310
     80311     80312     80311     80313     80314     80315     80314     80316
     80317     80318     80317     80319     80320     80321     80320     80322
     80323     80324     80323     80325     80326     80327     80326     80328
     80329     80330     80329     80331     80332     80333     80332     80334
     80335     80336     80335     80337     80338     80339     80338     80340
     80341     80342     80341     80343     80344     80345     80344     80346
     80347     80348     80347     80349     80350     80351     80350     80352
     80353     80354     80353     80355     80356     80357     80356     80358
     80359     80360     80359     80361     80362     80363     80362     80364
     80365     80366     80365     80367     80368     80369     80368     80370
     80371     80372     80371     80373     80374     80375     80374     80376
     80377     80378     80377     80379     80380     80381     80380     80382
     80383     80384     80383     80385     80386     80387     80386     80388
     80389     80390     80389     80391     80392     80393     80392     80394
     80395     80396     80395     80397     80398     80399     80398     80400
     80401     80402     80401     80403     80404     80405     80404     80406
     80407     80408     80407     80409     80410     80411     80410     80412
     80413     80414     80413     80415     80416     80417     80416     80418
     80419     80420     80419     80421     80422     80423     80422     80424
     80425     80426     80425     80427     80428     80429     80428     80430
     80431     80432     80431     80433     80434     80435     80434     80436
     80437     80438     80437     80439     80440     80441     80440     80442
     80443     80444     80443     80445     80446     80447     80446     80448
     80449     80450     80449     80451     80452     80453     80452     80454
     80455     80456     80455     80457     80458     80459     80458     80460
     80461     80462     80461     80463     80464     80465     80464     80466
     80467     80468     80467     80469     80470     80471     80470     80472
     80473     80474     80473     80475     80476     80477     80476     80478
     80479     80480     80479     80481     80482     80483     80482     80484
     80485     80486     80485     80487     80488     80489     80488     80490
     80491     80492     80491     80493     80494     80495     80494     80496
     80497     80498     80497     80499     80500     80501     80500     80502
     80503     80504     80503     80505     80506     80507     80506     80508
     80509     80510     80509     80511     80512     80513     80512     80514
     80515     80516     80515     80517     80518     80519     80518     80520
     80521     80522     80521     80523     80524     80525     80524     80526
     80527     80528     80527     80529     80530     80531     80530     80532
     80533     80534     80533     80535     80536     80537     80536     80538
     80539     80540     80539     80541     80542     80543     80542     80544
     80545     80546     80545     80547     80548     80549     80548     80550
     80551     80552     80551     80553     80554     80555     80554     80556
     80557     80558     80557     80559     80560     80561     80560     80562
     80563     80564     80563     80565     80566     80567     80566     80568
     80569     80570     80569     80571     80572     80573     80572     80574
     80575     80576     80575     80577     80578     80579     80578     80580
     80581     80582     80581     80583     80584     80585     80584     80586
     80587     80588     80587     80589     80590     80591     80590     80592
     80593     80594     80593     80595     80596     80597     80596     80598
     80599     80600     80599     80601     80602     80603     80602     80604
     80605     80606     80605     80607     80608     80609     80608     80610
     80611     80612     80611     80613     80614     80615     80614     80616
     80617     80618     80617     80619     80620     80621     80620     80622
     80623     80624     80623     80625     80626     80627     80626     80628
     80629     80630     80629     80631     80632     80633     80632     80634
     80635     80636     80635     80637     80638     80639     80638     80640
     80641     80642     80641     80643     80644     80645     80644     80646
     80647     80648     80647     80649     80650     80651     80650     80652
     80653     80654     80653     80655     80656     80657     80656     80658
     80659     80660     80659     80661     80662     80663     80662     80664
     80665     80666     80665     80667     80668     80669     80668     80670
     80671     80672     80671     80673     80674     80675     80674     80676
     80677     80678     80677     80679     80680     80681     80680     80682
     80683     80684     80683     80685     80686     80687     80686     80688
     80689     80690     80689     80691     80692     80693     80692     80694
     80695     80696     80695     80697     80698     80699     80698     80700
     80701     80702     80701     80703     80704     80705     80704     80706
     80707     80708     80707     80709     80710     80711     80710     80712
     80713     80714     80713     80715     80716     80717     80716     80718
     80719     80720     80719     80721     80722     80723     80722     80724
     80725     80726     80725     80727     80728     80729     80728     80730
     80731     80732     80731     80733     80734     80735     80734     80736
     80737     80738     80737     80739     80740     80741     80740     80742
     80743     80744     80743     80745     80746     80747     80746     80748
     80749     80750     80749     80751     80752     80753     80752     80754
     80755     80756     80755     80757     80758     80759     80758     80760
     80761     80762     80761     80763     80764     80765     80764     80766
     80767     80768     80767     80769     80770     80771     80770     80772
     80773     80774     80773     80775     80776     80777     80776     80778
     80779     80780     80779     80781     80782     80783     80782     80784
     80785     80786     80785     80787     80788     80789     80788     80790
     80791     80792     80791     80793     80794     80795     80794     80796
     80797     80798     80797     80799     80800     80801     80800     80802
     80803     80804     80803     80805     80806     80807     80806     80808
     80809     80810     80809     80811     80812     80813     80812     80814
     80815     80816     80815     80817     80818     80819     80818     80820
     80821     80822     80821     80823     80824     80825     80824     80826
     80827     80828     80827     80829     80830     80831     80830     80832
     80833     80834     80833     80835     80836     80837     80836     80838
     80839     80840     80839     80841     80842     80843     80842     80844
     80845     80846     80845     80847     80848     80849     80848     80850
     80851     80852     80851     80853     80854     80855     80854     80856
     80857     80858     80857     80859     80860     80861     80860     80862
     80863     80864     80863     80865     80866     80867     80866     80868
     80869     80870     80869     80871     80872     80873     80872     80874
     80875     80876     80875     80877     80878     80879     80878     80880
     80881     80882     80881     80883

     26961 !NACC: acceptors
         1         0         4         0         7         0        10         0
        13         0        16         0        19         0        22         0
        25         0        28         0        31         0        34         0
        37         0        40         0        43         0        46         0
        49         0        52         0        55         0        58         0
        61         0        64         0        67         0        70         0
        73         0        76         0        79         0        82         0
        85         0        88         0        91         0        94         0
        97         0       100         0       103         0       106         0
       109         0       112         0       115         0       118         0
       121         0       124         0       127         0       130         0
       133         0       136         0       139         0       142         0
       145         0       148         0       151         0       154         0
       157         0       160         0       163         0       166         0
       169         0       172         0       175         0       178         0
       181         0       184         0       187         0       190         0
       193         0       196         0       199         0       202         0
       205         0       208         0       211         0       214         0
       217         0       220         0       223         0       226         0
       229         0       232         0       235         0       238         0
       241         0       244         0       247         0       250         0
       253         0       256         0       259         0       262         0
       265         0       268         0       271         0       274         0
       277         0       280         0       283         0       286         0
       289         0       292         0       295         0       298         0
       301         0       304         0       307         0       310         0
       313         0       316         0       319         0       322         0
       325         0       328         0       331         0       334         0
       337         0       340         0       343         0       346         0
       349         0       352         0       355         0       358         0
       361         0       364         0       367         0       370         0
       373         0       376         0       379         0       382         0
       385         0       388         0       391         0       394         0
       397         0       400         0       403         0       406         0
       409         0       412         0       415         0       418         0
       421         0       424         0       427         0       430         0
       433         0       436         0       439         0       442         0
       445         0       448         0       451         0       454         0
       457         0       460         0       463         0       466         0
       469         0       472         0       475         0       478         0
       481         0       484         0       487         0       490         0
       493         0       496         0       499         0       502         0
       505         0       508         0       511         0       514         0
       517         0       520         0       523         0       526         0
       529         0       532         0       535         0       538         0
       541         0       544         0       547         0       550         0
       553         0       556         0       559         0       562         0
       565         0       568         0       571         0       574         0
       577         0       580         0       583         0       586         0
       589         0       592         0       595         0       598         0
       601         0       604         0       607         0       610         0
       613         0       616         0       619         0       622         0
       625         0       628         0       631         0       634         0
       637         0       640         0       643         0       646         0
       649         0       652         0       655         0       658         0
       661         0       664         0       667         0       670         0
       673         0       676         0       679         0       682         0
       685         0       688         0       691         0       694         0
       697         0       700         0       703         0       706         0
       709         0       712         0       715         0       718         0
       721         0       724         0       727         0       730         0
       733         0       736         0       739         0       742         0
       745         0       748         0       751         0       754         0
       757         0       760         0       763         0       766         0
       769         0       772         0       775         0       778         0
       781         0       784         0       787         0       790         0
       793         0       796         0       799         0       802         0
       805         0       808         0       811         0       814         0
       817         0       820         0       823         0       826         0
       829         0       832         0       835         0       838         0
       841         0       844         0       847         0       850         0
       853         0       856         0       859         0       862         0
       865         0       868         0       871         0       874         0
       877         0       880         0       883         0       886         0
       889         0       892         0       895         0       898         0
       901         0       904         0       907         0       910         0
       913         0       916         0       919         0       922         0
       925         0       928         0       931         0       934         0
       937         0       940         0       943         0       946         0
       949         0       952         0       955         0       958         0
       961         0       964         0       967         0       970         0
       973         0       976         0       979         0       982         0
       985         0       988         0       991         0       994         0
       997         0      1000         0      1003         0      1006         0
      1009         0      1012         0      1015         0      1018         0
      1021         0      1024         0      1027         0      1030         0
      1033         0      1036         0      1039         0      1042         0
      1045         0      1048         0      1051         0      1054         0
      1057         0      1060         0      1063         0      1066         0
      1069         0      1072         0      1075         0      1078         0
      1081         0      1084         0      1087         0      1090         0
      1093         0      1096         0      1099         0      1102         0
      1105         0      1108         0      1111         0      1114         0
      1117         0      1120         0      1123         0      1126         0
      1129         0      1132         0      1135         0      1138         0
      1141         0      1144         0      1147         0      1150         0
      1153         0      1156         0      1159         0      1162         0
      1165         0      1168         0      1171         0      1174         0
      1177         0      1180         0      1183         0      1186         0
      1189         0      1192         0      1195         0      1198         0
      1201         0      1204         0      1207         0      1210         0
      1213         0      1216         0      1219         0      1222         0
      1225         0      1228         0      1231         0      1234         0
      1237         0      1240         0      1243         0      1246         0
      1249         0      1252         0      1255         0      1258         0
      1261         0      1264         0      1267         0      1270         0
      1273         0      1276         0      1279         0      1282         0
      1285         0      1288         0      1291         0      1294         0
      1297         0      1300         0      1303         0      1306         0
      1309         0      1312         0      1315         0      1318         0
      1321         0      1324         0      1327         0      1330         0
      1333         0      1336         0      1339         0      1342         0
      1345         0      1348         0      1351         0      1354         0
      1357         0      1360         0      1363         0      1366         0
      1369         0      1372         0      1375         0      1378         0
      1381         0      1384         0      1387         0      1390         0
      1393         0      1396         0      1399         0      1402         0
      1405         0      1408         0      1411         0      1414         0
      1417         0      1420         0      1423         0      1426         0
      1429         0      1432         0      1435         0      1438         0
      1441         0      1444         0      1447         0      1450         0
      1453         0      1456         0      1459         0      1462         0
      1465         0      1468         0      1471         0      1474         0
      1477         0      1480         0      1483         0      1486         0
      1489         0      1492         0      1495         0      1498         0
      1501         0      1504         0      1507         0      1510         0
      1513         0      1516         0      1519         0      1522         0
      1525         0      1528         0      1531         0      1534         0
      1537         0      1540         0      1543         0      1546         0
      1549         0      1552         0      1555         0      1558         0
      1561         0      1564         0      1567         0      1570         0
      1573         0      1576         0      1579         0      1582         0
      1585         0      1588         0      1591         0      1594         0
      1597         0      1600         0      1603         0      1606         0
      1609         0      1612         0      1615         0      1618         0
      1621         0      1624         0      1627         0      1630         0
      1633         0      1636         0      1639         0      1642         0
      1645         0      1648         0      1651         0      1654         0
      1657         0      1660         0      1663         0      1666         0
      1669         0      1672         0      1675         0      1678         0
      1681         0      1684         0      1687         0      1690         0
      1693         0      1696         0      1699         0      1702         0
      1705         0      1708         0      1711         0      1714         0
      1717         0      1720         0      1723         0      1726         0
      1729         0      1732         0      1735         0      1738         0
      1741         0      1744         0      1747         0      1750         0
      1753         0      1756         0      1759         0      1762         0
      1765         0      1768         0      1771         0      1774         0
      1777         0      1780         0      1783         0      1786         0
      1789         0      1792         0      1795         0      1798         0
      1801         0      1804         0      1807         0      1810         0
      1813         0      1816         0      1819         0      1822         0
      1825         0      1828         0      1831         0      1834         0
      1837         0      1840         0      1843         0      1846         0
      1849         0      1852         0      1855         0      1858         0
      1861         0      1864         0      1867         0      1870         0
      1873         0      1876         0      1879         0      1882         0
      1885         0      1888         0      1891         0      1894         0
      1897         0      1900         0      1903         0      1906         0
      1909         0      1912         0      1915         0      1918         0
      1921         0      1924         0      1927         0      1930         0
      1933         0      1936         0      1939         0      1942         0
      1945         0      1948         0      1951         0      1954         0
      1957         0      1960         0      1963         0      1966         0
      1969         0      1972         0      1975         0      1978         0
      1981         0      1984         0      1987         0      1990         0
      1993         0      1996         0      1999         0      2002         0
      2005         0      2008         0      2011         0      2014         0
      2017         0      2020         0      2023         0      2026         0
      2029         0      2032         0      2035         0      2038         0
      2041         0      2044         0      2047         0      2050         0
      2053         0      2056         0      2059         0      2062         0
      2065         0      2068         0      2071         0      2074         0
      2077         0      2080         0      2083         0      2086         0
      2089         0      2092         0      2095         0      2098         0
      2101         0      2104         0      2107         0      2110         0
      2113         0      2116         0      2119         0      2122         0
      2125         0      2128         0      2131         0      2134         0
      2137         0      2140         0      2143         0      2146         0
      2149         0      2152         0      2155         0      2158         0
      2161         0      2164         0      2167         0      2170         0
      2173         0      2176         0      2179         0      2182         0
      2185         0      2188         0      2191         0      2194         0
      2197         0      2200         0      2203         0      2206         0
      2209         0      2212         0      2215         0      2218         0
      2221         0      2224         0      2227         0      2230         0
      2233         0      2236         0      2239         0      2242         0
      2245         0      2248         0      2251         0      2254         0
      2257         0      2260         0      2263         0      2266         0
      2269         0      2272         0      2275         0      2278         0
      2281         0      2284         0      2287         0      2290         0
      2293         0      2296         0      2299         0      2302         0
      2305         0      2308         0      2311         0      2314         0
      2317         0      2320         0      2323         0      2326         0
      2329         0      2332         0      2335         0      2338         0
      2341         0      2344         0      2347         0      2350         0
      2353         0      2356         0      2359         0      2362         0
      2365         0      2368         0      2371         0      2374         0
      2377         0      2380         0      2383         0      2386         0
      2389         0      2392         0      2395         0      2398         0
      2401         0      2404         0      2407         0      2410         0
      2413         0      2416         0      2419         0      2422         0
      2425         0      2428         0      2431         0      2434         0
      2437         0      2440         0      2443         0      2446         0
      2449         0      2452         0      2455         0      2458         0
      2461         0      2464         0      2467         0      2470         0
      2473         0      2476         0      2479         0      2482         0
      2485         0      2488         0      2491         0      2494         0
      2497         0      2500         0      2503         0      2506         0
      2509         0      2512         0      2515         0      2518         0
      2521         0      2524         0      2527         0      2530         0
      2533         0      2536         0      2539         0      2542         0
      2545         0      2548         0      2551         0      2554         0
      2557         0      2560         0      2563         0      2566         0
      2569         0      2572         0      2575         0      2578         0
      2581         0      2584         0      2587         0      2590         0
      2593         0      2596         0      2599         0      2602         0
      2605         0      2608         0      2611         0      2614         0
      2617         0      2620         0      2623         0      2626         0
      2629         0      2632         0      2635         0      2638         0
      2641         0      2644         0      2647         0      2650         0
      2653         0      2656         0      2659         0      2662         0
      2665         0      2668         0      2671         0      2674         0
      2677         0      2680         0      2683         0      2686         0
      2689         0      2692         0      2695         0      2698         0
      2701         0      2704         0      2707         0      2710         0
      2713         0      2716         0      2719         0      2722         0
      2725         0      2728         0      2731         0      2734         0
      2737         0      2740         0      2743         0      2746         0
      2749         0      2752         0      2755         0      2758         0
      2761         0      2764         0      2767         0      2770         0
      2773         0      2776         0      2779         0      2782         0
      2785         0      2788         0      2791         0      2794         0
      2797         0      2800         0      2803         0      2806         0
      2809         0      2812         0      2815         0      2818         0
      2821         0      2824         0      2827         0      2830         0
      2833         0      2836         0      2839         0      2842         0
      2845         0      2848         0      2851         0      2854         0
      2857         0      2860         0      2863         0      2866         0
      2869         0      2872         0      2875         0      2878         0
      2881         0      2884         0      2887         0      2890         0
      2893         0      2896         0      2899         0      2902         0
      2905         0      2908         0      2911         0      2914         0
      2917         0      2920         0      2923         0      2926         0
      2929         0      2932         0      2935         0      2938         0
      2941         0      2944         0      2947         0      2950         0
      2953         0      2956         0      2959         0      2962         0
      2965         0      2968         0      2971         0      2974         0
      2977         0      2980         0      2983         0      2986         0
      2989         0      2992         0      2995         0      2998         0
      3001         0      3004         0      3007         0      3010         0
      3013         0      3016         0      3019         0      3022         0
      3025         0      3028         0      3031         0      3034         0
      3037         0      3040         0      3043         0      3046         0
      3049         0      3052         0      3055         0      3058         0
      3061         0      3064         0      3067         0      3070         0
      3073         0      3076         0      3079         0      3082         0
      3085         0      3088         0      3091         0      3094         0
      3097         0      3100         0      3103         0      3106         0
      3109         0      3112         0      3115         0      3118         0
      3121         0      3124         0      3127         0      3130         0
      3133         0      3136         0      3139         0      3142         0
      3145         0      3148         0      3151         0      3154         0
      3157         0      3160         0      3163         0      3166         0
      3169         0      3172         0      3175         0      3178         0
      3181         0      3184         0      3187         0      3190         0
      3193         0      3196         0      3199         0      3202         0
      3205         0      3208         0      3211         0      3214         0
      3217         0      3220         0      3223         0      3226         0
      3229         0      3232         0      3235         0      3238         0
      3241         0      3244         0      3247         0      3250         0
      3253         0      3256         0      3259         0      3262         0
      3265         0      3268         0      3271         0      3274         0
      3277         0      3280         0      3283         0      3286         0
      3289         0      3292         0      3295         0      3298         0
      3301         0      3304         0      3307         0      3310         0
      3313         0      3316         0      3319         0      3322         0
      3325         0      3328         0      3331         0      3334         0
      3337         0      3340         0      3343         0      3346         0
      3349         0      3352         0      3355         0      3358         0
      3361         0      3364         0      3367         0      3370         0
      3373         0      3376         0      3379         0      3382         0
      3385         0      3388         0      3391         0      3394         0
      3397         0      3400         0      3403         0      3406         0
      3409         0      3412         0      3415         0      3418         0
      3421         0      3424         0      3427         0      3430         0
      3433         0      3436         0      3439         0      3442         0
      3445         0      3448         0      3451         0      3454         0
      3457         0      3460         0      3463         0      3466         0
      3469         0      3472         0      3475         0      3478         0
      3481         0      3484         0      3487         0      3490         0
      3493         0      3496         0      3499         0      3502         0
      3505         0      3508         0      3511         0      3514         0
      3517         0      3520         0      3523         0      3526         0
      3529         0      3532         0      3535         0      3538         0
      3541         0      3544         0      3547         0      3550         0
      3553         0      3556         0      3559         0      3562         0
      3565         0      3568         0      3571         0      3574         0
      3577         0      3580         0      3583         0      3586         0
      3589         0      3592         0      3595         0      3598         0
      3601         0      3604         0      3607         0      3610         0
      3613         0      3616         0      3619         0      3622         0
      3625         0      3628         0      3631         0      3634         0
      3637         0      3640         0      3643         0      3646         0
      3649         0      3652         0      3655         0      3658         0
      3661         0      3664         0      3667         0      3670         0
      3673         0      3676         0      3679         0      3682         0
      3685         0      3688         0      3691         0      3694         0
      3697         0      3700         0      3703         0      3706         0
      3709         0      3712         0      3715         0      3718         0
      3721         0      3724         0      3727         0      3730         0
      3733         0      3736         0      3739         0      3742         0
      3745         0      3748         0      3751         0      3754         0
      3757         0      3760         0      3763         0      3766         0
      3769         0      3772         0      3775         0      3778         0
      3781         0      3784         0      3787         0      3790         0
      3793         0      3796         0      3799         0      3802         0
      3805         0      3808         0      3811         0      3814         0
      3817         0      3820         0      3823         0      3826         0
      3829         0      3832         0      3835         0      3838         0
      3841         0      3844         0      3847         0      3850         0
      3853         0      3856         0      3859         0      3862         0
      3865         0      3868         0      3871         0      3874         0
      3877         0      3880         0      3883         0      3886         0
      3889         0      3892         0      3895         0      3898         0
      3901         0      3904         0      3907         0      3910         0
      3913         0      3916         0      3919         0      3922         0
      3925         0      3928         0      3931         0      3934         0
      3937         0      3940         0      3943         0      3946         0
      3949         0      3952         0      3955         0      3958         0
      3961         0      3964         0      3967         0      3970         0
      3973         0      3976         0      3979         0      3982         0
      3985         0      3988         0      3991         0      3994         0
      3997         0      4000         0      4003         0      4006         0
      4009         0      4012         0      4015         0      4018         0
      4021         0      4024         0      4027         0      4030         0
      4033         0      4036         0      4039         0      4042         0
      4045         0      4048         0      4051         0      4054         0
      4057         0      4060         0      4063         0      4066         0
      4069         0      4072         0      4075         0      4078         0
      4081         0      4084         0      4087         0      4090         0
      4093         0      4096         0      4099         0      4102         0
      4105         0      4108         0      4111         0      4114         0
      4117         0      4120         0      4123         0      4126         0
      4129         0      4132         0      4135         0      4138         0
      4141         0      4144         0      4147         0      4150         0
      4153         0      4156         0      4159         0      4162         0
      4165         0      4168         0      4171         0      4174         0
      4177         0      4180         0      4183         0      4186         0
      4189         0      4192         0      4195         0      4198         0
      4201         0      4204         0      4207         0      4210         0
      4213         0      4216         0      4219         0      4222         0
      4225         0      4228         0      4231         0      4234         0
      4237         0      4240         0      4243         0      4246         0
      4249         0      4252         0      4255         0      4258         0
      4261         0      4264         0      4267         0      4270         0
      4273         0      4276         0      4279         0      4282         0
      4285         0      4288         0      4291         0      4294         0
      4297         0      4300         0      4303         0      4306         0
      4309         0      4312         0      4315         0      4318         0
      4321         0      4324         0      4327         0      4330         0
      4333         0      4336         0      4339         0      4342         0
      4345         0      4348         0      4351         0      4354         0
      4357         0      4360         0      4363         0      4366         0
      4369         0      4372         0      4375         0      4378         0
      4381         0      4384         0      4387         0      4390         0
      4393         0      4396         0      4399         0      4402         0
      4405         0      4408         0      4411         0      4414         0
      4417         0      4420         0      4423         0      4426         0
      4429         0      4432         0      4435         0      4438         0
      4441         0      4444         0      4447         0      4450         0
      4453         0      4456         0      4459         0      4462         0
      4465         0      4468         0      4471         0      4474         0
      4477         0      4480         0      4483         0      4486         0
      4489         0      4492         0      4495         0      4498         0
      4501         0      4504         0      4507         0      4510         0
      4513         0      4516         0      4519         0      4522         0
      4525         0      4528         0      4531         0      4534         0
      4537         0      4540         0      4543         0      4546         0
      4549         0      4552         0      4555         0      4558         0
      4561         0      4564         0      4567         0      4570         0
      4573         0      4576         0      4579         0      4582         0
      4585         0      4588         0      4591         0      4594         0
      4597         0      4600         0      4603         0      4606         0
      4609         0      4612         0      4615         0      4618         0
      4621         0      4624         0      4627         0      4630         0
      4633         0      4636         0      4639         0      4642         0
      4645         0      4648         0      4651         0      4654         0
      4657         0      4660         0      4663         0      4666         0
      4669         0      4672         0      4675         0      4678         0
      4681         0      4684         0      4687         0      4690         0
      4693         0      4696         0      4699         0      4702         0
      4705         0      4708         0      4711         0      4714         0
      4717         0      4720         0      4723         0      4726         0
      4729         0      4732         0      4735         0      4738         0
      4741         0      4744         0      4747         0      4750         0
      4753         0      4756         0      4759         0      4762         0
      4765         0      4768         0      4771         0      4774         0
      4777         0      4780         0      4783         0      4786         0
      4789         0      4792         0      4795         0      4798         0
      4801         0      4804         0      4807         0      4810         0
      4813         0      4816         0      4819         0      4822         0
      4825         0      4828         0      4831         0      4834         0
      4837         0      4840         0      4843         0      4846         0
      4849         0      4852         0      4855         0      4858         0
      4861         0      4864         0      4867         0      4870         0
      4873         0      4876         0      4879         0      4882         0
      4885         0      4888         0      4891         0      4894         0
      4897         0      4900         0      4903         0      4906         0
      4909         0      4912         0      4915         0      4918         0
      4921         0      4924         0      4927         0      4930         0
      4933         0      4936         0      4939         0      4942         0
      4945         0      4948         0      4951         0      4954         0
      4957         0      4960         0      4963         0      4966         0
      4969         0      4972         0      4975         0      4978         0
      4981         0      4984         0      4987         0      4990         0
      4993         0      4996         0      4999         0      5002         0
      5005         0      5008         0      5011         0      5014         0
      5017         0      5020         0      5023         0      5026         0
      5029         0      5032         0      5035         0      5038         0
      5041         0      5044         0      5047         0      5050         0
      5053         0      5056         0      5059         0      5062         0
      5065         0      5068         0      5071         0      5074         0
      5077         0      5080         0      5083         0      5086         0
      5089         0      5092         0      5095         0      5098         0
      5101         0      5104         0      5107         0      5110         0
      5113         0      5116         0      5119         0      5122         0
      5125         0      5128         0      5131         0      5134         0
      5137         0      5140         0      5143         0      5146         0
      5149         0      5152         0      5155         0      5158         0
      5161         0      5164         0      5167         0      5170         0
      5173         0      5176         0      5179         0      5182         0
      5185         0      5188         0      5191         0      5194         0
      5197         0      5200         0      5203         0      5206         0
      5209         0      5212         0      5215         0      5218         0
      5221         0      5224         0      5227         0      5230         0
      5233         0      5236         0      5239         0      5242         0
      5245         0      5248         0      5251         0      5254         0
      5257         0      5260         0      5263         0      5266         0
      5269         0      5272         0      5275         0      5278         0
      5281         0      5284         0      5287         0      5290         0
      5293         0      5296         0      5299         0      5302         0
      5305         0      5308         0      5311         0      5314         0
      5317         0      5320         0      5323         0      5326         0
      5329         0      5332         0      5335         0      5338         0
      5341         0      5344         0      5347         0      5350         0
      5353         0      5356         0      5359         0      5362         0
      5365         0      5368         0      5371         0      5374         0
      5377         0      5380         0      5383         0      5386         0
      5389         0      5392         0      5395         0      5398         0
      5401         0      5404         0      5407         0      5410         0
      5413         0      5416         0      5419         0      5422         0
      5425         0      5428         0      5431         0      5434         0
      5437         0      5440         0      5443         0      5446         0
      5449         0      5452         0      5455         0      5458         0
      5461         0      5464         0      5467         0      5470         0
      5473         0      5476         0      5479         0      5482         0
      5485         0      5488         0      5491         0      5494         0
      5497         0      5500         0      5503         0      5506         0
      5509         0      5512         0      5515         0      5518         0
      5521         0      5524         0      5527         0      5530         0
      5533         0      5536         0      5539         0      5542         0
      5545         0      5548         0      5551         0      5554         0
      5557         0      5560         0      5563         0      5566         0
      5569         0      5572         0      5575         0      5578         0
      5581         0      5584         0      5587         0      5590         0
      5593         0      5596         0      5599         0      5602         0
      5605         0      5608         0      5611         0      5614         0
      5617         0      5620         0      5623         0      5626         0
      5629         0      5632         0      5635         0      5638         0
      5641         0      5644         0      5647         0      5650         0
      5653         0      5656         0      5659         0      5662         0
      5665         0      5668         0      5671         0      5674         0
      5677         0      5680         0      5683         0      5686         0
      5689         0      5692         0      5695         0      5698         0
      5701         0      5704         0      5707         0      5710         0
      5713         0      5716         0      5719         0      5722         0
      5725         0      5728         0      5731         0      5734         0
      5737         0      5740         0      5743         0      5746         0
      5749         0      5752         0      5755         0      5758         0
      5761         0      5764         0      5767         0      5770         0
      5773         0      5776         0      5779         0      5782         0
      5785         0      5788         0      5791         0      5794         0
      5797         0      5800         0      5803         0      5806         0
      5809         0      5812         0      5815         0      5818         0
      5821         0      5824         0      5827         0      5830         0
      5833         0      5836         0      5839         0      5842         0
      5845         0      5848         0      5851         0      5854         0
      5857         0      5860         0      5863         0      5866         0
      5869         0      5872         0      5875         0      5878         0
      5881         0      5884         0      5887         0      5890         0
      5893         0      5896         0      5899         0      5902         0
      5905         0      5908         0      5911         0      5914         0
      5917         0      5920         0      5923         0      5926         0
      5929         0      5932         0      5935         0      5938         0
      5941         0      5944         0      5947         0      5950         0
      5953         0      5956         0      5959         0      5962         0
      5965         0      5968         0      5971         0      5974         0
      5977         0      5980         0      5983         0      5986         0
      5989         0      5992         0      5995         0      5998         0
      6001         0      6004         0      6007         0      6010         0
      6013         0      6016         0      6019         0      6022         0
      6025         0      6028         0      6031         0      6034         0
      6037         0      6040         0      6043         0      6046         0
      6049         0      6052         0      6055         0      6058         0
      6061         0      6064         0      6067         0      6070         0
      6073         0      6076         0      6079         0      6082         0
      6085         0      6088         0      6091         0      6094         0
      6097         0      6100         0      6103         0      6106         0
      6109         0      6112         0      6115         0      6118         0
      6121         0      6124         0      6127         0      6130         0
      6133         0      6136         0      6139         0      6142         0
      6145         0      6148         0      6151         0      6154         0
      6157         0      6160         0      6163         0      6166         0
      6169         0      6172         0      6175         0      6178         0
      6181         0      6184         0      6187         0      6190         0
      6193         0      6196         0      6199         0      6202         0
      6205         0      6208         0      6211         0      6214         0
      6217         0      6220         0      6223         0      6226         0
      6229         0      6232         0      6235         0      6238         0
      6241         0      6244         0      6247         0      6250         0
      6253         0      6256         0      6259         0      6262         0
      6265         0      6268         0      6271         0      6274         0
      6277         0      6280         0      6283         0      6286         0
      6289         0      6292         0      6295         0      6298         0
      6301         0      6304         0      6307         0      6310         0
      6313         0      6316         0      6319         0      6322         0
      6325         0      6328         0      6331         0      6334         0
      6337         0      6340         0      6343         0      6346         0
      6349         0      6352         0      6355         0      6358         0
      6361         0      6364         0      6367         0      6370         0
      6373         0      6376         0      6379         0      6382         0
      6385         0      6388         0      6391         0      6394         0
      6397         0      6400         0      6403         0      6406         0
      6409         0      6412         0      6415         0      6418         0
      6421         0      6424         0      6427         0      6430         0
      6433         0      6436         0      6439         0      6442         0
      6445         0      6448         0      6451         0      6454         0
      6457         0      6460         0      6463         0      6466         0
      6469         0      6472         0      6475         0      6478         0
      6481         0      6484         0      6487         0      6490         0
      6493         0      6496         0      6499         0      6502         0
      6505         0      6508         0      6511         0      6514         0
      6517         0      6520         0      6523         0      6526         0
      6529         0      6532         0      6535         0      6538         0
      6541         0      6544         0      6547         0      6550         0
      6553         0      6556         0      6559         0      6562         0
      6565         0      6568         0      6571         0      6574         0
      6577         0      6580         0      6583         0      6586         0
      6589         0      6592         0      6595         0      6598         0
      6601         0      6604         0      6607         0      6610         0
      6613         0      6616         0      6619         0      6622         0
      6625         0      6628         0      6631         0      6634         0
      6637         0      6640         0      6643         0      6646         0
      6649         0      6652         0      6655         0      6658         0
      6661         0      6664         0      6667         0      6670         0
      6673         0      6676         0      6679         0      6682         0
      6685         0      6688         0      6691         0      6694         0
      6697         0      6700         0      6703         0      6706         0
      6709         0      6712         0      6715         0      6718         0
      6721         0      6724         0      6727         0      6730         0
      6733         0      6736         0      6739         0      6742         0
      6745         0      6748         0      6751         0      6754         0
      6757         0      6760         0      6763         0      6766         0
      6769         0      6772         0      6775         0      6778         0
      6781         0      6784         0      6787         0      6790         0
      6793         0      6796         0      6799         0      6802         0
      6805         0      6808         0      6811         0      6814         0
      6817         0      6820         0      6823         0      6826         0
      6829         0      6832         0      6835         0      6838         0
      6841         0      6844         0      6847         0      6850         0
      6853         0      6856         0      6859         0      6862         0
      6865         0      6868         0      6871         0      6874         0
      6877         0      6880         0      6883         0      6886         0
      6889         0      6892         0      6895         0      6898         0
      6901         0      6904         0      6907         0      6910         0
      6913         0      6916         0      6919         0      6922         0
      6925         0      6928         0      6931         0      6934         0
      6937         0      6940         0      6943         0      6946         0
      6949         0      6952         0      6955         0      6958         0
      6961         0      6964         0      6967         0      6970         0
      6973         0      6976         0      6979         0      6982         0
      6985         0      6988         0      6991         0      6994         0
      6997         0      7000         0      7003         0      7006         0
      7009         0      7012         0      7015         0      7018         0
      7021         0      7024         0      7027         0      7030         0
      7033         0      7036         0      7039         0      7042         0
      7045         0      7048         0      7051         0      7054         0
      7057         0      7060         0      7063         0      7066         0
      7069         0      7072         0      7075         0      7078         0
      7081         0      7084         0      7087         0      7090         0
      7093         0      7096         0      7099         0      7102         0
      7105         0      7108         0      7111         0      7114         0
      7117         0      7120         0      7123         0      7126         0
      7129         0      7132         0      7135         0      7138         0
      7141         0      7144         0      7147         0      7150         0
      7153         0      7156         0      7159         0      7162         0
      7165         0      7168         0      7171         0      7174         0
      7177         0      7180         0      7183         0      7186         0
      7189         0      7192         0      7195         0      7198         0
      7201         0      7204         0      7207         0      7210         0
      7213         0      7216         0      7219         0      7222         0
      7225         0      7228         0      7231         0      7234         0
      7237         0      7240         0      7243         0      7246         0
      7249         0      7252         0      7255         0      7258         0
      7261         0      7264         0      7267         0      7270         0
      7273         0      7276         0      7279         0      7282         0
      7285         0      7288         0      7291         0      7294         0
      7297         0      7300         0      7303         0      7306         0
      7309         0      7312         0      7315         0      7318         0
      7321         0      7324         0      7327         0      7330         0
      7333         0      7336         0      7339         0      7342         0
      7345         0      7348         0      7351         0      7354         0
      7357         0      7360         0      7363         0      7366         0
      7369         0      7372         0      7375         0      7378         0
      7381         0      7384         0      7387         0      7390         0
      7393         0      7396         0      7399         0      7402         0
      7405         0      7408         0      7411         0      7414         0
      7417         0      7420         0      7423         0      7426         0
      7429         0      7432         0      7435         0      7438         0
      7441         0      7444         0      7447         0      7450         0
      7453         0      7456         0      7459         0      7462         0
      7465         0      7468         0      7471         0      7474         0
      7477         0      7480         0      7483         0      7486         0
      7489         0      7492         0      7495         0      7498         0
      7501         0      7504         0      7507         0      7510         0
      7513         0      7516         0      7519         0      7522         0
      7525         0      7528         0      7531         0      7534         0
      7537         0      7540         0      7543         0      7546         0
      7549         0      7552         0      7555         0      7558         0
      7561         0      7564         0      7567         0      7570         0
      7573         0      7576         0      7579         0      7582         0
      7585         0      7588         0      7591         0      7594         0
      7597         0      7600         0      7603         0      7606         0
      7609         0      7612         0      7615         0      7618         0
      7621         0      7624         0      7627         0      7630         0
      7633         0      7636         0      7639         0      7642         0
      7645         0      7648         0      7651         0      7654         0
      7657         0      7660         0      7663         0      7666         0
      7669         0      7672         0      7675         0      7678         0
      7681         0      7684         0      7687         0      7690         0
      7693         0      7696         0      7699         0      7702         0
      7705         0      7708         0      7711         0      7714         0
      7717         0      7720         0      7723         0      7726         0
      7729         0      7732         0      7735         0      7738         0
      7741         0      7744         0      7747         0      7750         0
      7753         0      7756         0      7759         0      7762         0
      7765         0      7768         0      7771         0      7774         0
      7777         0      7780         0      7783         0      7786         0
      7789         0      7792         0      7795         0      7798         0
      7801         0      7804         0      7807         0      7810         0
      7813         0      7816         0      7819         0      7822         0
      7825         0      7828         0      7831         0      7834         0
      7837         0      7840         0      7843         0      7846         0
      7849         0      7852         0      7855         0      7858         0
      7861         0      7864         0      7867         0      7870         0
      7873         0      7876         0      7879         0      7882         0
      7885         0      7888         0      7891         0      7894         0
      7897         0      7900         0      7903         0      7906         0
      7909         0      7912         0      7915         0      7918         0
      7921         0      7924         0      7927         0      7930         0
      7933         0      7936         0      7939         0      7942         0
      7945         0      7948         0      7951         0      7954         0
      7957         0      7960         0      7963         0      7966         0
      7969         0      7972         0      7975         0      7978         0
      7981         0      7984         0      7987         0      7990         0
      7993         0      7996         0      7999         0      8002         0
      8005         0      8008         0      8011         0      8014         0
      8017         0      8020         0      8023         0      8026         0
      8029         0      8032         0      8035         0      8038         0
      8041         0      8044         0      8047         0      8050         0
      8053         0      8056         0      8059         0      8062         0
      8065         0      8068         0      8071         0      8074         0
      8077         0      8080         0      8083         0      8086         0
      8089         0      8092         0      8095         0      8098         0
      8101         0      8104         0      8107         0      8110         0
      8113         0      8116         0      8119         0      8122         0
      8125         0      8128         0      8131         0      8134         0
      8137         0      8140         0      8143         0      8146         0
      8149         0      8152         0      8155         0      8158         0
      8161         0      8164         0      8167         0      8170         0
      8173         0      8176         0      8179         0      8182         0
      8185         0      8188         0      8191         0      8194         0
      8197         0      8200         0      8203         0      8206         0
      8209         0      8212         0      8215         0      8218         0
      8221         0      8224         0      8227         0      8230         0
      8233         0      8236         0      8239         0      8242         0
      8245         0      8248         0      8251         0      8254         0
      8257         0      8260         0      8263         0      8266         0
      8269         0      8272         0      8275         0      8278         0
      8281         0      8284         0      8287         0      8290         0
      8293         0      8296         0      8299         0      8302         0
      8305         0      8308         0      8311         0      8314         0
      8317         0      8320         0      8323         0      8326         0
      8329         0      8332         0      8335         0      8338         0
      8341         0      8344         0      8347         0      8350         0
      8353         0      8356         0      8359         0      8362         0
      8365         0      8368         0      8371         0      8374         0
      8377         0      8380         0      8383         0      8386         0
      8389         0      8392         0      8395         0      8398         0
      8401         0      8404         0      8407         0      8410         0
      8413         0      8416         0      8419         0      8422         0
      8425         0      8428         0      8431         0      8434         0
      8437         0      8440         0      8443         0      8446         0
      8449         0      8452         0      8455         0      8458         0
      8461         0      8464         0      8467         0      8470         0
      8473         0      8476         0      8479         0      8482         0
      8485         0      8488         0      8491         0      8494         0
      8497         0      8500         0      8503         0      8506         0
      8509         0      8512         0      8515         0      8518         0
      8521         0      8524         0      8527         0      8530         0
      8533         0      8536         0      8539         0      8542         0
      8545         0      8548         0      8551         0      8554         0
      8557         0      8560         0      8563         0      8566         0
      8569         0      8572         0      8575         0      8578         0
      8581         0      8584         0      8587         0      8590         0
      8593         0      8596         0      8599         0      8602         0
      8605         0      8608         0      8611         0      8614         0
      8617         0      8620         0      8623         0      8626         0
      8629         0      8632         0      8635         0      8638         0
      8641         0      8644         0      8647         0      8650         0
      8653         0      8656         0      8659         0      8662         0
      8665         0      8668         0      8671         0      8674         0
      8677         0      8680         0      8683         0      8686         0
      8689         0      8692         0      8695         0      8698         0
      8701         0      8704         0      8707         0      8710         0
      8713         0      8716         0      8719         0      8722         0
      8725         0      8728         0      8731         0      8734         0
      8737         0      8740         0      8743         0      8746         0
      8749         0      8752         0      8755         0      8758         0
      8761         0      8764         0      8767         0      8770         0
      8773         0      8776         0      8779         0      8782         0
      8785         0      8788         0      8791         0      8794         0
      8797         0      8800         0      8803         0      8806         0
      8809         0      8812         0      8815         0      8818         0
      8821         0      8824         0      8827         0      8830         0
      8833         0      8836         0      8839         0      8842         0
      8845         0      8848         0      8851         0      8854         0
      8857         0      8860         0      8863         0      8866         0
      8869         0      8872         0      8875         0      8878         0
      8881         0      8884         0      8887         0      8890         0
      8893         0      8896         0      8899         0      8902         0
      8905         0      8908         0      8911         0      8914         0
      8917         0      8920         0      8923         0      8926         0
      8929         0      8932         0      8935         0      8938         0
      8941         0      8944         0      8947         0      8950         0
      8953         0      8956         0      8959         0      8962         0
      8965         0      8968         0      8971         0      8974         0
      8977         0      8980         0      8983         0      8986         0
      8989         0      8992         0      8995         0      8998         0
      9001         0      9004         0      9007         0      9010         0
      9013         0      9016         0      9019         0      9022         0
      9025         0      9028         0      9031         0      9034         0
      9037         0      9040         0      9043         0      9046         0
      9049         0      9052         0      9055         0      9058         0
      9061         0      9064         0      9067         0      9070         0
      9073         0      9076         0      9079         0      9082         0
      9085         0      9088         0      9091         0      9094         0
      9097         0      9100         0      9103         0      9106         0
      9109         0      9112         0      9115         0      9118         0
      9121         0      9124         0      9127         0      9130         0
      9133         0      9136         0      9139         0      9142         0
      9145         0      9148         0      9151         0      9154         0
      9157         0      9160         0      9163         0      9166         0
      9169         0      9172         0      9175         0      9178         0
      9181         0      9184         0      9187         0      9190         0
      9193         0      9196         0      9199         0      9202         0
      9205         0      9208         0      9211         0      9214         0
      9217         0      9220         0      9223         0      9226         0
      9229         0      9232         0      9235         0      9238         0
      9241         0      9244         0      9247         0      9250         0
      9253         0      9256         0      9259         0      9262         0
      9265         0      9268         0      9271         0      9274         0
      9277         0      9280         0      9283         0      9286         0
      9289         0      9292         0      9295         0      9298         0
      9301         0      9304         0      9307         0      9310         0
      9313         0      9316         0      9319         0      9322         0
      9325         0      9328         0      9331         0      9334         0
      9337         0      9340         0      9343         0      9346         0
      9349         0      9352         0      9355         0      9358         0
      9361         0      9364         0      9367         0      9370         0
      9373         0      9376         0      9379         0      9382         0
      9385         0      9388         0      9391         0      9394         0
      9397         0      9400         0      9403         0      9406         0
      9409         0      9412         0      9415         0      9418         0
      9421         0      9424         0      9427         0      9430         0
      9433         0      9436         0      9439         0      9442         0
      9445         0      9448         0      9451         0      9454         0
      9457         0      9460         0      9463         0      9466         0
      9469         0      9472         0      9475         0      9478         0
      9481         0      9484         0      9487         0      9490         0
      9493         0      9496         0      9499         0      9502         0
      9505         0      9508         0      9511         0      9514         0
      9517         0      9520         0      9523         0      9526         0
      9529         0      9532         0      9535         0      9538         0
      9541         0      9544         0      9547         0      9550         0
      9553         0      9556         0      9559         0      9562         0
      9565         0      9568         0      9571         0      9574         0
      9577         0      9580         0      9583         0      9586         0
      9589         0      9592         0      9595         0      9598         0
      9601         0      9604         0      9607         0      9610         0
      9613         0      9616         0      9619         0      9622         0
      9625         0      9628         0      9631         0      9634         0
      9637         0      9640         0      9643         0      9646         0
      9649         0      9652         0      9655         0      9658         0
      9661         0      9664         0      9667         0      9670         0
      9673         0      9676         0      9679         0      9682         0
      9685         0      9688         0      9691         0      9694         0
      9697         0      9700         0      9703         0      9706         0
      9709         0      9712         0      9715         0      9718         0
      9721         0      9724         0      9727         0      9730         0
      9733         0      9736         0      9739         0      9742         0
      9745         0      9748         0      9751         0      9754         0
      9757         0      9760         0      9763         0      9766         0
      9769         0      9772         0      9775         0      9778         0
      9781         0      9784         0      9787         0      9790         0
      9793         0      9796         0      9799         0      9802         0
      9805         0      9808         0      9811         0      9814         0
      9817         0      9820         0      9823         0      9826         0
      9829         0      9832         0      9835         0      9838         0
      9841         0      9844         0      9847         0      9850         0
      9853         0      9856         0      9859         0      9862         0
      9865         0      9868         0      9871         0      9874         0
      9877         0      9880         0      9883         0      9886         0
      9889         0      9892         0      9895         0      9898         0
      9901         0      9904         0      9907         0      9910         0
      9913         0      9916         0      9919         0      9922         0
      9925         0      9928         0      9931         0      9934         0
      9937         0      9940         0      9943         0      9946         0
      9949         0      9952         0      9955         0      9958         0
      9961         0      9964         0      9967         0      9970         0
      9973         0      9976         0      9979         0      9982         0
      9985         0      9988         0      9991         0      9994         0
      9997         0     10000         0     10003         0     10006         0
     10009         0     10012         0     10015         0     10018         0
     10021         0     10024         0     10027         0     10030         0
     10033         0     10036         0     10039         0     10042         0
     10045         0     10048         0     10051         0     10054         0
     10057         0     10060         0     10063         0     10066         0
     10069         0     10072         0     10075         0     10078         0
     10081         0     10084         0     10087         0     10090         0
     10093         0     10096         0     10099         0     10102         0
     10105         0     10108         0     10111         0     10114         0
     10117         0     10120         0     10123         0     10126         0
     10129         0     10132         0     10135         0     10138         0
     10141         0     10144         0     10147         0     10150         0
     10153         0     10156         0     10159         0     10162         0
     10165         0     10168         0     10171         0     10174         0
     10177         0     10180         0     10183         0     10186         0
     10189         0     10192         0     10195         0     10198         0
     10201         0     10204         0     10207         0     10210         0
     10213         0     10216         0     10219         0     10222         0
     10225         0     10228         0     10231         0     10234         0
     10237         0     10240         0     10243         0     10246         0
     10249         0     10252         0     10255         0     10258         0
     10261         0     10264         0     10267         0     10270         0
     10273         0     10276         0     10279         0     10282         0
     10285         0     10288         0     10291         0     10294         0
     10297         0     10300         0     10303         0     10306         0
     10309         0     10312         0     10315         0     10318         0
     10321         0     10324         0     10327         0     10330         0
     10333         0     10336         0     10339         0     10342         0
     10345         0     10348         0     10351         0     10354         0
     10357         0     10360         0     10363         0     10366         0
     10369         0     10372         0     10375         0     10378         0
     10381         0     10384         0     10387         0     10390         0
     10393         0     10396         0     10399         0     10402         0
     10405         0     10408         0     10411         0     10414         0
     10417         0     10420         0     10423         0     10426         0
     10429         0     10432         0     10435         0     10438         0
     10441         0     10444         0     10447         0     10450         0
     10453         0     10456         0     10459         0     10462         0
     10465         0     10468         0     10471         0     10474         0
     10477         0     10480         0     10483         0     10486         0
     10489         0     10492         0     10495         0     10498         0
     10501         0     10504         0     10507         0     10510         0
     10513         0     10516         0     10519         0     10522         0
     10525         0     10528         0     10531         0     10534         0
     10537         0     10540         0     10543         0     10546         0
     10549         0     10552         0     10555         0     10558         0
     10561         0     10564         0     10567         0     10570         0
     10573         0     10576         0     10579         0     10582         0
     10585         0     10588         0     10591         0     10594         0
     10597         0     10600         0     10603         0     10606         0
     10609         0     10612         0     10615         0     10618         0
     10621         0     10624         0     10627         0     10630         0
     10633         0     10636         0     10639         0     10642         0
     10645         0     10648         0     10651         0     10654         0
     10657         0     10660         0     10663         0     10666         0
     10669         0     10672         0     10675         0     10678         0
     10681         0     10684         0     10687         0     10690         0
     10693         0     10696         0     10699         0     10702         0
     10705         0     10708         0     10711         0     10714         0
     10717         0     10720         0     10723         0     10726         0
     10729         0     10732         0     10735         0     10738         0
     10741         0     10744         0     10747         0     10750         0
     10753         0     10756         0     10759         0     10762         0
     10765         0     10768         0     10771         0     10774         0
     10777         0     10780         0     10783         0     10786         0
     10789         0     10792         0     10795         0     10798         0
     10801         0     10804         0     10807         0     10810         0
     10813         0     10816         0     10819         0     10822         0
     10825         0     10828         0     10831         0     10834         0
     10837         0     10840         0     10843         0     10846         0
     10849         0     10852         0     10855         0     10858         0
     10861         0     10864         0     10867         0     10870         0
     10873         0     10876         0     10879         0     10882         0
     10885         0     10888         0     10891         0     10894         0
     10897         0     10900         0     10903         0     10906         0
     10909         0     10912         0     10915         0     10918         0
     10921         0     10924         0     10927         0     10930         0
     10933         0     10936         0     10939         0     10942         0
     10945         0     10948         0     10951         0     10954         0
     10957         0     10960         0     10963         0     10966         0
     10969         0     10972         0     10975         0     10978         0
     10981         0     10984         0     10987         0     10990         0
     10993         0     10996         0     10999         0     11002         0
     11005         0     11008         0     11011         0     11014         0
     11017         0     11020         0     11023         0     11026         0
     11029         0     11032         0     11035         0     11038         0
     11041         0     11044         0     11047         0     11050         0
     11053         0     11056         0     11059         0     11062         0
     11065         0     11068         0     11071         0     11074         0
     11077         0     11080         0     11083         0     11086         0
     11089         0     11092         0     11095         0     11098         0
     11101         0     11104         0     11107         0     11110         0
     11113         0     11116         0     11119         0     11122         0
     11125         0     11128         0     11131         0     11134         0
     11137         0     11140         0     11143         0     11146         0
     11149         0     11152         0     11155         0     11158         0
     11161         0     11164         0     11167         0     11170         0
     11173         0     11176         0     11179         0     11182         0
     11185         0     11188         0     11191         0     11194         0
     11197         0     11200         0     11203         0     11206         0
     11209         0     11212         0     11215         0     11218         0
     11221         0     11224         0     11227         0     11230         0
     11233         0     11236         0     11239         0     11242         0
     11245         0     11248         0     11251         0     11254         0
     11257         0     11260         0     11263         0     11266         0
     11269         0     11272         0     11275         0     11278         0
     11281         0     11284         0     11287         0     11290         0
     11293         0     11296         0     11299         0     11302         0
     11305         0     11308         0     11311         0     11314         0
     11317         0     11320         0     11323         0     11326         0
     11329         0     11332         0     11335         0     11338         0
     11341         0     11344         0     11347         0     11350         0
     11353         0     11356         0     11359         0     11362         0
     11365         0     11368         0     11371         0     11374         0
     11377         0     11380         0     11383         0     11386         0
     11389         0     11392         0     11395         0     11398         0
     11401         0     11404         0     11407         0     11410         0
     11413         0     11416         0     11419         0     11422         0
     11425         0     11428         0     11431         0     11434         0
     11437         0     11440         0     11443         0     11446         0
     11449         0     11452         0     11455         0     11458         0
     11461         0     11464         0     11467         0     11470         0
     11473         0     11476         0     11479         0     11482         0
     11485         0     11488         0     11491         0     11494         0
     11497         0     11500         0     11503         0     11506         0
     11509         0     11512         0     11515         0     11518         0
     11521         0     11524         0     11527         0     11530         0
     11533         0     11536         0     11539         0     11542         0
     11545         0     11548         0     11551         0     11554         0
     11557         0     11560         0     11563         0     11566         0
     11569         0     11572         0     11575         0     11578         0
     11581         0     11584         0     11587         0     11590         0
     11593         0     11596         0     11599         0     11602         0
     11605         0     11608         0     11611         0     11614         0
     11617         0     11620         0     11623         0     11626         0
     11629         0     11632         0     11635         0     11638         0
     11641         0     11644         0     11647         0     11650         0
     11653         0     11656         0     11659         0     11662         0
     11665         0     11668         0     11671         0     11674         0
     11677         0     11680         0     11683         0     11686         0
     11689         0     11692         0     11695         0     11698         0
     11701         0     11704         0     11707         0     11710         0
     11713         0     11716         0     11719         0     11722         0
     11725         0     11728         0     11731         0     11734         0
     11737         0     11740         0     11743         0     11746         0
     11749         0     11752         0     11755         0     11758         0
     11761         0     11764         0     11767         0     11770         0
     11773         0     11776         0     11779         0     11782         0
     11785         0     11788         0     11791         0     11794         0
     11797         0     11800         0     11803         0     11806         0
     11809         0     11812         0     11815         0     11818         0
     11821         0     11824         0     11827         0     11830         0
     11833         0     11836         0     11839         0     11842         0
     11845         0     11848         0     11851         0     11854         0
     11857         0     11860         0     11863         0     11866         0
     11869         0     11872         0     11875         0     11878         0
     11881         0     11884         0     11887         0     11890         0
     11893         0     11896         0     11899         0     11902         0
     11905         0     11908         0     11911         0     11914         0
     11917         0     11920         0     11923         0     11926         0
     11929         0     11932         0     11935         0     11938         0
     11941         0     11944         0     11947         0     11950         0
     11953         0     11956         0     11959         0     11962         0
     11965         0     11968         0     11971         0     11974         0
     11977         0     11980         0     11983         0     11986         0
     11989         0     11992         0     11995         0     11998         0
     12001         0     12004         0     12007         0     12010         0
     12013         0     12016         0     12019         0     12022         0
     12025         0     12028         0     12031         0     12034         0
     12037         0     12040         0     12043         0     12046         0
     12049         0     12052         0     12055         0     12058         0
     12061         0     12064         0     12067         0     12070         0
     12073         0     12076         0     12079         0     12082         0
     12085         0     12088         0     12091         0     12094         0
     12097         0     12100         0     12103         0     12106         0
     12109         0     12112         0     12115         0     12118         0
     12121         0     12124         0     12127         0     12130         0
     12133         0     12136         0     12139         0     12142         0
     12145         0     12148         0     12151         0     12154         0
     12157         0     12160         0     12163         0     12166         0
     12169         0     12172         0     12175         0     12178         0
     12181         0     12184         0     12187         0     12190         0
     12193         0     12196         0     12199         0     12202         0
     12205         0     12208         0     12211         0     12214         0
     12217         0     12220         0     12223         0     12226         0
     12229         0     12232         0     12235         0     12238         0
     12241         0     12244         0     12247         0     12250         0
     12253         0     12256         0     12259         0     12262         0
     12265         0     12268         0     12271         0     12274         0
     12277         0     12280         0     12283         0     12286         0
     12289         0     12292         0     12295         0     12298         0
     12301         0     12304         0     12307         0     12310         0
     12313         0     12316         0     12319         0     12322         0
     12325         0     12328         0     12331         0     12334         0
     12337         0     12340         0     12343         0     12346         0
     12349         0     12352         0     12355         0     12358         0
     12361         0     12364         0     12367         0     12370         0
     12373         0     12376         0     12379         0     12382         0
     12385         0     12388         0     12391         0     12394         0
     12397         0     12400         0     12403         0     12406         0
     12409         0     12412         0     12415         0     12418         0
     12421         0     12424         0     12427         0     12430         0
     12433         0     12436         0     12439         0     12442         0
     12445         0     12448         0     12451         0     12454         0
     12457         0     12460         0     12463         0     12466         0
     12469         0     12472         0     12475         0     12478         0
     12481         0     12484         0     12487         0     12490         0
     12493         0     12496         0     12499         0     12502         0
     12505         0     12508         0     12511         0     12514         0
     12517         0     12520         0     12523         0     12526         0
     12529         0     12532         0     12535         0     12538         0
     12541         0     12544         0     12547         0     12550         0
     12553         0     12556         0     12559         0     12562         0
     12565         0     12568         0     12571         0     12574         0
     12577         0     12580         0     12583         0     12586         0
     12589         0     12592         0     12595         0     12598         0
     12601         0     12604         0     12607         0     12610         0
     12613         0     12616         0     12619         0     12622         0
     12625         0     12628         0     12631         0     12634         0
     12637         0     12640         0     12643         0     12646         0
     12649         0     12652         0     12655         0     12658         0
     12661         0     12664         0     12667         0     12670         0
     12673         0     12676         0     12679         0     12682         0
     12685         0     12688         0     12691         0     12694         0
     12697         0     12700         0     12703         0     12706         0
     12709         0     12712         0     12715         0     12718         0
     12721         0     12724         0     12727         0     12730         0
     12733         0     12736         0     12739         0     12742         0
     12745         0     12748         0     12751         0     12754         0
     12757         0     12760         0     12763         0     12766         0
     12769         0     12772         0     12775         0     12778         0
     12781         0     12784         0     12787         0     12790         0
     12793         0     12796         0     12799         0     12802         0
     12805         0     12808         0     12811         0     12814         0
     12817         0     12820         0     12823         0     12826         0
     12829         0     12832         0     12835         0     12838         0
     12841         0     12844         0     12847         0     12850         0
     12853         0     12856         0     12859         0     12862         0
     12865         0     12868         0     12871         0     12874         0
     12877         0     12880         0     12883         0     12886         0
     12889         0     12892         0     12895         0     12898         0
     12901         0     12904         0     12907         0     12910         0
     12913         0     12916         0     12919         0     12922         0
     12925         0     12928         0     12931         0     12934         0
     12937         0     12940         0     12943         0     12946         0
     12949         0     12952         0     12955         0     12958         0
     12961         0     12964         0     12967         0     12970         0
     12973         0     12976         0     12979         0     12982         0
     12985         0     12988         0     12991         0     12994         0
     12997         0     13000         0     13003         0     13006         0
     13009         0     13012         0     13015         0     13018         0
     13021         0     13024         0     13027         0     13030         0
     13033         0     13036         0     13039         0     13042         0
     13045         0     13048         0     13051         0     13054         0
     13057         0     13060         0     13063         0     13066         0
     13069         0     13072         0     13075         0     13078         0
     13081         0     13084         0     13087         0     13090         0
     13093         0     13096         0     13099         0     13102         0
     13105         0     13108         0     13111         0     13114         0
     13117         0     13120         0     13123         0     13126         0
     13129         0     13132         0     13135         0     13138         0
     13141         0     13144         0     13147         0     13150         0
     13153         0     13156         0     13159         0     13162         0
     13165         0     13168         0     13171         0     13174         0
     13177         0     13180         0     13183         0     13186         0
     13189         0     13192         0     13195         0     13198         0
     13201         0     13204         0     13207         0     13210         0
     13213         0     13216         0     13219         0     13222         0
     13225         0     13228         0     13231         0     13234         0
     13237         0     13240         0     13243         0     13246         0
     13249         0     13252         0     13255         0     13258         0
     13261         0     13264         0     13267         0     13270         0
     13273         0     13276         0     13279         0     13282         0
     13285         0     13288         0     13291         0     13294         0
     13297         0     13300         0     13303         0     13306         0
     13309         0     13312         0     13315         0     13318         0
     13321         0     13324         0     13327         0     13330         0
     13333         0     13336         0     13339         0     13342         0
     13345         0     13348         0     13351         0     13354         0
     13357         0     13360         0     13363         0     13366         0
     13369         0     13372         0     13375         0     13378         0
     13381         0     13384         0     13387         0     13390         0
     13393         0     13396         0     13399         0     13402         0
     13405         0     13408         0     13411         0     13414         0
     13417         0     13420         0     13423         0     13426         0
     13429         0     13432         0     13435         0     13438         0
     13441         0     13444         0     13447         0     13450         0
     13453         0     13456         0     13459         0     13462         0
     13465         0     13468         0     13471         0     13474         0
     13477         0     13480         0     13483         0     13486         0
     13489         0     13492         0     13495         0     13498         0
     13501         0     13504         0     13507         0     13510         0
     13513         0     13516         0     13519         0     13522         0
     13525         0     13528         0     13531         0     13534         0
     13537         0     13540         0     13543         0     13546         0
     13549         0     13552         0     13555         0     13558         0
     13561         0     13564         0     13567         0     13570         0
     13573         0     13576         0     13579         0     13582         0
     13585         0     13588         0     13591         0     13594         0
     13597         0     13600         0     13603         0     13606         0
     13609         0     13612         0     13615         0     13618         0
     13621         0     13624         0     13627         0     13630         0
     13633         0     13636         0     13639         0     13642         0
     13645         0     13648         0     13651         0     13654         0
     13657         0     13660         0     13663         0     13666         0
     13669         0     13672         0     13675         0     13678         0
     13681         0     13684         0     13687         0     13690         0
     13693         0     13696         0     13699         0     13702         0
     13705         0     13708         0     13711         0     13714         0
     13717         0     13720         0     13723         0     13726         0
     13729         0     13732         0     13735         0     13738         0
     13741         0     13744         0     13747         0     13750         0
     13753         0     13756         0     13759         0     13762         0
     13765         0     13768         0     13771         0     13774         0
     13777         0     13780         0     13783         0     13786         0
     13789         0     13792         0     13795         0     13798         0
     13801         0     13804         0     13807         0     13810         0
     13813         0     13816         0     13819         0     13822         0
     13825         0     13828         0     13831         0     13834         0
     13837         0     13840         0     13843         0     13846         0
     13849         0     13852         0     13855         0     13858         0
     13861         0     13864         0     13867         0     13870         0
     13873         0     13876         0     13879         0     13882         0
     13885         0     13888         0     13891         0     13894         0
     13897         0     13900         0     13903         0     13906         0
     13909         0     13912         0     13915         0     13918         0
     13921         0     13924         0     13927         0     13930         0
     13933         0     13936         0     13939         0     13942         0
     13945         0     13948         0     13951         0     13954         0
     13957         0     13960         0     13963         0     13966         0
     13969         0     13972         0     13975         0     13978         0
     13981         0     13984         0     13987         0     13990         0
     13993         0     13996         0     13999         0     14002         0
     14005         0     14008         0     14011         0     14014         0
     14017         0     14020         0     14023         0     14026         0
     14029         0     14032         0     14035         0     14038         0
     14041         0     14044         0     14047         0     14050         0
     14053         0     14056         0     14059         0     14062         0
     14065         0     14068         0     14071         0     14074         0
     14077         0     14080         0     14083         0     14086         0
     14089         0     14092         0     14095         0     14098         0
     14101         0     14104         0     14107         0     14110         0
     14113         0     14116         0     14119         0     14122         0
     14125         0     14128         0     14131         0     14134         0
     14137         0     14140         0     14143         0     14146         0
     14149         0     14152         0     14155         0     14158         0
     14161         0     14164         0     14167         0     14170         0
     14173         0     14176         0     14179         0     14182         0
     14185         0     14188         0     14191         0     14194         0
     14197         0     14200         0     14203         0     14206         0
     14209         0     14212         0     14215         0     14218         0
     14221         0     14224         0     14227         0     14230         0
     14233         0     14236         0     14239         0     14242         0
     14245         0     14248         0     14251         0     14254         0
     14257         0     14260         0     14263         0     14266         0
     14269         0     14272         0     14275         0     14278         0
     14281         0     14284         0     14287         0     14290         0
     14293         0     14296         0     14299         0     14302         0
     14305         0     14308         0     14311         0     14314         0
     14317         0     14320         0     14323         0     14326         0
     14329         0     14332         0     14335         0     14338         0
     14341         0     14344         0     14347         0     14350         0
     14353         0     14356         0     14359         0     14362         0
     14365         0     14368         0     14371         0     14374         0
     14377         0     14380         0     14383         0     14386         0
     14389         0     14392         0     14395         0     14398         0
     14401         0     14404         0     14407         0     14410         0
     14413         0     14416         0     14419         0     14422         0
     14425         0     14428         0     14431         0     14434         0
     14437         0     14440         0     14443         0     14446         0
     14449         0     14452         0     14455         0     14458         0
     14461         0     14464         0     14467         0     14470         0
     14473         0     14476         0     14479         0     14482         0
     14485         0     14488         0     14491         0     14494         0
     14497         0     14500         0     14503         0     14506         0
     14509         0     14512         0     14515         0     14518         0
     14521         0     14524         0     14527         0     14530         0
     14533         0     14536         0     14539         0     14542         0
     14545         0     14548         0     14551         0     14554         0
     14557         0     14560         0     14563         0     14566         0
     14569         0     14572         0     14575         0     14578         0
     14581         0     14584         0     14587         0     14590         0
     14593         0     14596         0     14599         0     14602         0
     14605         0     14608         0     14611         0     14614         0
     14617         0     14620         0     14623         0     14626         0
     14629         0     14632         0     14635         0     14638         0
     14641         0     14644         0     14647         0     14650         0
     14653         0     14656         0     14659         0     14662         0
     14665         0     14668         0     14671         0     14674         0
     14677         0     14680         0     14683         0     14686         0
     14689         0     14692         0     14695         0     14698         0
     14701         0     14704         0     14707         0     14710         0
     14713         0     14716         0     14719         0     14722         0
     14725         0     14728         0     14731         0     14734         0
     14737         0     14740         0     14743         0     14746         0
     14749         0     14752         0     14755         0     14758         0
     14761         0     14764         0     14767         0     14770         0
     14773         0     14776         0     14779         0     14782         0
     14785         0     14788         0     14791         0     14794         0
     14797         0     14800         0     14803         0     14806         0
     14809         0     14812         0     14815         0     14818         0
     14821         0     14824         0     14827         0     14830         0
     14833         0     14836         0     14839         0     14842         0
     14845         0     14848         0     14851         0     14854         0
     14857         0     14860         0     14863         0     14866         0
     14869         0     14872         0     14875         0     14878         0
     14881         0     14884         0     14887         0     14890         0
     14893         0     14896         0     14899         0     14902         0
     14905         0     14908         0     14911         0     14914         0
     14917         0     14920         0     14923         0     14926         0
     14929         0     14932         0     14935         0     14938         0
     14941         0     14944         0     14947         0     14950         0
     14953         0     14956         0     14959         0     14962         0
     14965         0     14968         0     14971         0     14974         0
     14977         0     14980         0     14983         0     14986         0
     14989         0     14992         0     14995         0     14998         0
     15001         0     15004         0     15007         0     15010         0
     15013         0     15016         0     15019         0     15022         0
     15025         0     15028         0     15031         0     15034         0
     15037         0     15040         0     15043         0     15046         0
     15049         0     15052         0     15055         0     15058         0
     15061         0     15064         0     15067         0     15070         0
     15073         0     15076         0     15079         0     15082         0
     15085         0     15088         0     15091         0     15094         0
     15097         0     15100         0     15103         0     15106         0
     15109         0     15112         0     15115         0     15118         0
     15121         0     15124         0     15127         0     15130         0
     15133         0     15136         0     15139         0     15142         0
     15145         0     15148         0     15151         0     15154         0
     15157         0     15160         0     15163         0     15166         0
     15169         0     15172         0     15175         0     15178         0
     15181         0     15184         0     15187         0     15190         0
     15193         0     15196         0     15199         0     15202         0
     15205         0     15208         0     15211         0     15214         0
     15217         0     15220         0     15223         0     15226         0
     15229         0     15232         0     15235         0     15238         0
     15241         0     15244         0     15247         0     15250         0
     15253         0     15256         0     15259         0     15262         0
     15265         0     15268         0     15271         0     15274         0
     15277         0     15280         0     15283         0     15286         0
     15289         0     15292         0     15295         0     15298         0
     15301         0     15304         0     15307         0     15310         0
     15313         0     15316         0     15319         0     15322         0
     15325         0     15328         0     15331         0     15334         0
     15337         0     15340         0     15343         0     15346         0
     15349         0     15352         0     15355         0     15358         0
     15361         0     15364         0     15367         0     15370         0
     15373         0     15376         0     15379         0     15382         0
     15385         0     15388         0     15391         0     15394         0
     15397         0     15400         0     15403         0     15406         0
     15409         0     15412         0     15415         0     15418         0
     15421         0     15424         0     15427         0     15430         0
     15433         0     15436         0     15439         0     15442         0
     15445         0     15448         0     15451         0     15454         0
     15457         0     15460         0     15463         0     15466         0
     15469         0     15472         0     15475         0     15478         0
     15481         0     15484         0     15487         0     15490         0
     15493         0     15496         0     15499         0     15502         0
     15505         0     15508         0     15511         0     15514         0
     15517         0     15520         0     15523         0     15526         0
     15529         0     15532         0     15535         0     15538         0
     15541         0     15544         0     15547         0     15550         0
     15553         0     15556         0     15559         0     15562         0
     15565         0     15568         0     15571         0     15574         0
     15577         0     15580         0     15583         0     15586         0
     15589         0     15592         0     15595         0     15598         0
     15601         0     15604         0     15607         0     15610         0
     15613         0     15616         0     15619         0     15622         0
     15625         0     15628         0     15631         0     15634         0
     15637         0     15640         0     15643         0     15646         0
     15649         0     15652         0     15655         0     15658         0
     15661         0     15664         0     15667         0     15670         0
     15673         0     15676         0     15679         0     15682         0
     15685         0     15688         0     15691         0     15694         0
     15697         0     15700         0     15703         0     15706         0
     15709         0     15712         0     15715         0     15718         0
     15721         0     15724         0     15727         0     15730         0
     15733         0     15736         0     15739         0     15742         0
     15745         0     15748         0     15751         0     15754         0
     15757         0     15760         0     15763         0     15766         0
     15769         0     15772         0     15775         0     15778         0
     15781         0     15784         0     15787         0     15790         0
     15793         0     15796         0     15799         0     15802         0
     15805         0     15808         0     15811         0     15814         0
     15817         0     15820         0     15823         0     15826         0
     15829         0     15832         0     15835         0     15838         0
     15841         0     15844         0     15847         0     15850         0
     15853         0     15856         0     15859         0     15862         0
     15865         0     15868         0     15871         0     15874         0
     15877         0     15880         0     15883         0     15886         0
     15889         0     15892         0     15895         0     15898         0
     15901         0     15904         0     15907         0     15910         0
     15913         0     15916         0     15919         0     15922         0
     15925         0     15928         0     15931         0     15934         0
     15937         0     15940         0     15943         0     15946         0
     15949         0     15952         0     15955         0     15958         0
     15961         0     15964         0     15967         0     15970         0
     15973         0     15976         0     15979         0     15982         0
     15985         0     15988         0     15991         0     15994         0
     15997         0     16000         0     16003         0     16006         0
     16009         0     16012         0     16015         0     16018         0
     16021         0     16024         0     16027         0     16030         0
     16033         0     16036         0     16039         0     16042         0
     16045         0     16048         0     16051         0     16054         0
     16057         0     16060         0     16063         0     16066         0
     16069         0     16072         0     16075         0     16078         0
     16081         0     16084         0     16087         0     16090         0
     16093         0     16096         0     16099         0     16102         0
     16105         0     16108         0     16111         0     16114         0
     16117         0     16120         0     16123         0     16126         0
     16129         0     16132         0     16135         0     16138         0
     16141         0     16144         0     16147         0     16150         0
     16153         0     16156         0     16159         0     16162         0
     16165         0     16168         0     16171         0     16174         0
     16177         0     16180         0     16183         0     16186         0
     16189         0     16192         0     16195         0     16198         0
     16201         0     16204         0     16207         0     16210         0
     16213         0     16216         0     16219         0     16222         0
     16225         0     16228         0     16231         0     16234         0
     16237         0     16240         0     16243         0     16246         0
     16249         0     16252         0     16255         0     16258         0
     16261         0     16264         0     16267         0     16270         0
     16273         0     16276         0     16279         0     16282         0
     16285         0     16288         0     16291         0     16294         0
     16297         0     16300         0     16303         0     16306         0
     16309         0     16312         0     16315         0     16318         0
     16321         0     16324         0     16327         0     16330         0
     16333         0     16336         0     16339         0     16342         0
     16345         0     16348         0     16351         0     16354         0
     16357         0     16360         0     16363         0     16366         0
     16369         0     16372         0     16375         0     16378         0
     16381         0     16384         0     16387         0     16390         0
     16393         0     16396         0     16399         0     16402         0
     16405         0     16408         0     16411         0     16414         0
     16417         0     16420         0     16423         0     16426         0
     16429         0     16432         0     16435         0     16438         0
     16441         0     16444         0     16447         0     16450         0
     16453         0     16456         0     16459         0     16462         0
     16465         0     16468         0     16471         0     16474         0
     16477         0     16480         0     16483         0     16486         0
     16489         0     16492         0     16495         0     16498         0
     16501         0     16504         0     16507         0     16510         0
     16513         0     16516         0     16519         0     16522         0
     16525         0     16528         0     16531         0     16534         0
     16537         0     16540         0     16543         0     16546         0
     16549         0     16552         0     16555         0     16558         0
     16561         0     16564         0     16567         0     16570         0
     16573         0     16576         0     16579         0     16582         0
     16585         0     16588         0     16591         0     16594         0
     16597         0     16600         0     16603         0     16606         0
     16609         0     16612         0     16615         0     16618         0
     16621         0     16624         0     16627         0     16630         0
     16633         0     16636         0     16639         0     16642         0
     16645         0     16648         0     16651         0     16654         0
     16657         0     16660         0     16663         0     16666         0
     16669         0     16672         0     16675         0     16678         0
     16681         0     16684         0     16687         0     16690         0
     16693         0     16696         0     16699         0     16702         0
     16705         0     16708         0     16711         0     16714         0
     16717         0     16720         0     16723         0     16726         0
     16729         0     16732         0     16735         0     16738         0
     16741         0     16744         0     16747         0     16750         0
     16753         0     16756         0     16759         0     16762         0
     16765         0     16768         0     16771         0     16774         0
     16777         0     16780         0     16783         0     16786         0
     16789         0     16792         0     16795         0     16798         0
     16801         0     16804         0     16807         0     16810         0
     16813         0     16816         0     16819         0     16822         0
     16825         0     16828         0     16831         0     16834         0
     16837         0     16840         0     16843         0     16846         0
     16849         0     16852         0     16855         0     16858         0
     16861         0     16864         0     16867         0     16870         0
     16873         0     16876         0     16879         0     16882         0
     16885         0     16888         0     16891         0     16894         0
     16897         0     16900         0     16903         0     16906         0
     16909         0     16912         0     16915         0     16918         0
     16921         0     16924         0     16927         0     16930         0
     16933         0     16936         0     16939         0     16942         0
     16945         0     16948         0     16951         0     16954         0
     16957         0     16960         0     16963         0     16966         0
     16969         0     16972         0     16975         0     16978         0
     16981         0     16984         0     16987         0     16990         0
     16993         0     16996         0     16999         0     17002         0
     17005         0     17008         0     17011         0     17014         0
     17017         0     17020         0     17023         0     17026         0
     17029         0     17032         0     17035         0     17038         0
     17041         0     17044         0     17047         0     17050         0
     17053         0     17056         0     17059         0     17062         0
     17065         0     17068         0     17071         0     17074         0
     17077         0     17080         0     17083         0     17086         0
     17089         0     17092         0     17095         0     17098         0
     17101         0     17104         0     17107         0     17110         0
     17113         0     17116         0     17119         0     17122         0
     17125         0     17128         0     17131         0     17134         0
     17137         0     17140         0     17143         0     17146         0
     17149         0     17152         0     17155         0     17158         0
     17161         0     17164         0     17167         0     17170         0
     17173         0     17176         0     17179         0     17182         0
     17185         0     17188         0     17191         0     17194         0
     17197         0     17200         0     17203         0     17206         0
     17209         0     17212         0     17215         0     17218         0
     17221         0     17224         0     17227         0     17230         0
     17233         0     17236         0     17239         0     17242         0
     17245         0     17248         0     17251         0     17254         0
     17257         0     17260         0     17263         0     17266         0
     17269         0     17272         0     17275         0     17278         0
     17281         0     17284         0     17287         0     17290         0
     17293         0     17296         0     17299         0     17302         0
     17305         0     17308         0     17311         0     17314         0
     17317         0     17320         0     17323         0     17326         0
     17329         0     17332         0     17335         0     17338         0
     17341         0     17344         0     17347         0     17350         0
     17353         0     17356         0     17359         0     17362         0
     17365         0     17368         0     17371         0     17374         0
     17377         0     17380         0     17383         0     17386         0
     17389         0     17392         0     17395         0     17398         0
     17401         0     17404         0     17407         0     17410         0
     17413         0     17416         0     17419         0     17422         0
     17425         0     17428         0     17431         0     17434         0
     17437         0     17440         0     17443         0     17446         0
     17449         0     17452         0     17455         0     17458         0
     17461         0     17464         0     17467         0     17470         0
     17473         0     17476         0     17479         0     17482         0
     17485         0     17488         0     17491         0     17494         0
     17497         0     17500         0     17503         0     17506         0
     17509         0     17512         0     17515         0     17518         0
     17521         0     17524         0     17527         0     17530         0
     17533         0     17536         0     17539         0     17542         0
     17545         0     17548         0     17551         0     17554         0
     17557         0     17560         0     17563         0     17566         0
     17569         0     17572         0     17575         0     17578         0
     17581         0     17584         0     17587         0     17590         0
     17593         0     17596         0     17599         0     17602         0
     17605         0     17608         0     17611         0     17614         0
     17617         0     17620         0     17623         0     17626         0
     17629         0     17632         0     17635         0     17638         0
     17641         0     17644         0     17647         0     17650         0
     17653         0     17656         0     17659         0     17662         0
     17665         0     17668         0     17671         0     17674         0
     17677         0     17680         0     17683         0     17686         0
     17689         0     17692         0     17695         0     17698         0
     17701         0     17704         0     17707         0     17710         0
     17713         0     17716         0     17719         0     17722         0
     17725         0     17728         0     17731         0     17734         0
     17737         0     17740         0     17743         0     17746         0
     17749         0     17752         0     17755         0     17758         0
     17761         0     17764         0     17767         0     17770         0
     17773         0     17776         0     17779         0     17782         0
     17785         0     17788         0     17791         0     17794         0
     17797         0     17800         0     17803         0     17806         0
     17809         0     17812         0     17815         0     17818         0
     17821         0     17824         0     17827         0     17830         0
     17833         0     17836         0     17839         0     17842         0
     17845         0     17848         0     17851         0     17854         0
     17857         0     17860         0     17863         0     17866         0
     17869         0     17872         0     17875         0     17878         0
     17881         0     17884         0     17887         0     17890         0
     17893         0     17896         0     17899         0     17902         0
     17905         0     17908         0     17911         0     17914         0
     17917         0     17920         0     17923         0     17926         0
     17929         0     17932         0     17935         0     17938         0
     17941         0     17944         0     17947         0     17950         0
     17953         0     17956         0     17959         0     17962         0
     17965         0     17968         0     17971         0     17974         0
     17977         0     17980         0     17983         0     17986         0
     17989         0     17992         0     17995         0     17998         0
     18001         0     18004         0     18007         0     18010         0
     18013         0     18016         0     18019         0     18022         0
     18025         0     18028         0     18031         0     18034         0
     18037         0     18040         0     18043         0     18046         0
     18049         0     18052         0     18055         0     18058         0
     18061         0     18064         0     18067         0     18070         0
     18073         0     18076         0     18079         0     18082         0
     18085         0     18088         0     18091         0     18094         0
     18097         0     18100         0     18103         0     18106         0
     18109         0     18112         0     18115         0     18118         0
     18121         0     18124         0     18127         0     18130         0
     18133         0     18136         0     18139         0     18142         0
     18145         0     18148         0     18151         0     18154         0
     18157         0     18160         0     18163         0     18166         0
     18169         0     18172         0     18175         0     18178         0
     18181         0     18184         0     18187         0     18190         0
     18193         0     18196         0     18199         0     18202         0
     18205         0     18208         0     18211         0     18214         0
     18217         0     18220         0     18223         0     18226         0
     18229         0     18232         0     18235         0     18238         0
     18241         0     18244         0     18247         0     18250         0
     18253         0     18256         0     18259         0     18262         0
     18265         0     18268         0     18271         0     18274         0
     18277         0     18280         0     18283         0     18286         0
     18289         0     18292         0     18295         0     18298         0
     18301         0     18304         0     18307         0     18310         0
     18313         0     18316         0     18319         0     18322         0
     18325         0     18328         0     18331         0     18334         0
     18337         0     18340         0     18343         0     18346         0
     18349         0     18352         0     18355         0     18358         0
     18361         0     18364         0     18367         0     18370         0
     18373         0     18376         0     18379         0     18382         0
     18385         0     18388         0     18391         0     18394         0
     18397         0     18400         0     18403         0     18406         0
     18409         0     18412         0     18415         0     18418         0
     18421         0     18424         0     18427         0     18430         0
     18433         0     18436         0     18439         0     18442         0
     18445         0     18448         0     18451         0     18454         0
     18457         0     18460         0     18463         0     18466         0
     18469         0     18472         0     18475         0     18478         0
     18481         0     18484         0     18487         0     18490         0
     18493         0     18496         0     18499         0     18502         0
     18505         0     18508         0     18511         0     18514         0
     18517         0     18520         0     18523         0     18526         0
     18529         0     18532         0     18535         0     18538         0
     18541         0     18544         0     18547         0     18550         0
     18553         0     18556         0     18559         0     18562         0
     18565         0     18568         0     18571         0     18574         0
     18577         0     18580         0     18583         0     18586         0
     18589         0     18592         0     18595         0     18598         0
     18601         0     18604         0     18607         0     18610         0
     18613         0     18616         0     18619         0     18622         0
     18625         0     18628         0     18631         0     18634         0
     18637         0     18640         0     18643         0     18646         0
     18649         0     18652         0     18655         0     18658         0
     18661         0     18664         0     18667         0     18670         0
     18673         0     18676         0     18679         0     18682         0
     18685         0     18688         0     18691         0     18694         0
     18697         0     18700         0     18703         0     18706         0
     18709         0     18712         0     18715         0     18718         0
     18721         0     18724         0     18727         0     18730         0
     18733         0     18736         0     18739         0     18742         0
     18745         0     18748         0     18751         0     18754         0
     18757         0     18760         0     18763         0     18766         0
     18769         0     18772         0     18775         0     18778         0
     18781         0     18784         0     18787         0     18790         0
     18793         0     18796         0     18799         0     18802         0
     18805         0     18808         0     18811         0     18814         0
     18817         0     18820         0     18823         0     18826         0
     18829         0     18832         0     18835         0     18838         0
     18841         0     18844         0     18847         0     18850         0
     18853         0     18856         0     18859         0     18862         0
     18865         0     18868         0     18871         0     18874         0
     18877         0     18880         0     18883         0     18886         0
     18889         0     18892         0     18895         0     18898         0
     18901         0     18904         0     18907         0     18910         0
     18913         0     18916         0     18919         0     18922         0
     18925         0     18928         0     18931         0     18934         0
     18937         0     18940         0     18943         0     18946         0
     18949         0     18952         0     18955         0     18958         0
     18961         0     18964         0     18967         0     18970         0
     18973         0     18976         0     18979         0     18982         0
     18985         0     18988         0     18991         0     18994         0
     18997         0     19000         0     19003         0     19006         0
     19009         0     19012         0     19015         0     19018         0
     19021         0     19024         0     19027         0     19030         0
     19033         0     19036         0     19039         0     19042         0
     19045         0     19048         0     19051         0     19054         0
     19057         0     19060         0     19063         0     19066         0
     19069         0     19072         0     19075         0     19078         0
     19081         0     19084         0     19087         0     19090         0
     19093         0     19096         0     19099         0     19102         0
     19105         0     19108         0     19111         0     19114         0
     19117         0     19120         0     19123         0     19126         0
     19129         0     19132         0     19135         0     19138         0
     19141         0     19144         0     19147         0     19150         0
     19153         0     19156         0     19159         0     19162         0
     19165         0     19168         0     19171         0     19174         0
     19177         0     19180         0     19183         0     19186         0
     19189         0     19192         0     19195         0     19198         0
     19201         0     19204         0     19207         0     19210         0
     19213         0     19216         0     19219         0     19222         0
     19225         0     19228         0     19231         0     19234         0
     19237         0     19240         0     19243         0     19246         0
     19249         0     19252         0     19255         0     19258         0
     19261         0     19264         0     19267         0     19270         0
     19273         0     19276         0     19279         0     19282         0
     19285         0     19288         0     19291         0     19294         0
     19297         0     19300         0     19303         0     19306         0
     19309         0     19312         0     19315         0     19318         0
     19321         0     19324         0     19327         0     19330         0
     19333         0     19336         0     19339         0     19342         0
     19345         0     19348         0     19351         0     19354         0
     19357         0     19360         0     19363         0     19366         0
     19369         0     19372         0     19375         0     19378         0
     19381         0     19384         0     19387         0     19390         0
     19393         0     19396         0     19399         0     19402         0
     19405         0     19408         0     19411         0     19414         0
     19417         0     19420         0     19423         0     19426         0
     19429         0     19432         0     19435         0     19438         0
     19441         0     19444         0     19447         0     19450         0
     19453         0     19456         0     19459         0     19462         0
     19465         0     19468         0     19471         0     19474         0
     19477         0     19480         0     19483         0     19486         0
     19489         0     19492         0     19495         0     19498         0
     19501         0     19504         0     19507         0     19510         0
     19513         0     19516         0     19519         0     19522         0
     19525         0     19528         0     19531         0     19534         0
     19537         0     19540         0     19543         0     19546         0
     19549         0     19552         0     19555         0     19558         0
     19561         0     19564         0     19567         0     19570         0
     19573         0     19576         0     19579         0     19582         0
     19585         0     19588         0     19591         0     19594         0
     19597         0     19600         0     19603         0     19606         0
     19609         0     19612         0     19615         0     19618         0
     19621         0     19624         0     19627         0     19630         0
     19633         0     19636         0     19639         0     19642         0
     19645         0     19648         0     19651         0     19654         0
     19657         0     19660         0     19663         0     19666         0
     19669         0     19672         0     19675         0     19678         0
     19681         0     19684         0     19687         0     19690         0
     19693         0     19696         0     19699         0     19702         0
     19705         0     19708         0     19711         0     19714         0
     19717         0     19720         0     19723         0     19726         0
     19729         0     19732         0     19735         0     19738         0
     19741         0     19744         0     19747         0     19750         0
     19753         0     19756         0     19759         0     19762         0
     19765         0     19768         0     19771         0     19774         0
     19777         0     19780         0     19783         0     19786         0
     19789         0     19792         0     19795         0     19798         0
     19801         0     19804         0     19807         0     19810         0
     19813         0     19816         0     19819         0     19822         0
     19825         0     19828         0     19831         0     19834         0
     19837         0     19840         0     19843         0     19846         0
     19849         0     19852         0     19855         0     19858         0
     19861         0     19864         0     19867         0     19870         0
     19873         0     19876         0     19879         0     19882         0
     19885         0     19888         0     19891         0     19894         0
     19897         0     19900         0     19903         0     19906         0
     19909         0     19912         0     19915         0     19918         0
     19921         0     19924         0     19927         0     19930         0
     19933         0     19936         0     19939         0     19942         0
     19945         0     19948         0     19951         0     19954         0
     19957         0     19960         0     19963         0     19966         0
     19969         0     19972         0     19975         0     19978         0
     19981         0     19984         0     19987         0     19990         0
     19993         0     19996         0     19999         0     20002         0
     20005         0     20008         0     20011         0     20014         0
     20017         0     20020         0     20023         0     20026         0
     20029         0     20032         0     20035         0     20038         0
     20041         0     20044         0     20047         0     20050         0
     20053         0     20056         0     20059         0     20062         0
     20065         0     20068         0     20071         0     20074         0
     20077         0     20080         0     20083         0     20086         0
     20089         0     20092         0     20095         0     20098         0
     20101         0     20104         0     20107         0     20110         0
     20113         0     20116         0     20119         0     20122         0
     20125         0     20128         0     20131         0     20134         0
     20137         0     20140         0     20143         0     20146         0
     20149         0     20152         0     20155         0     20158         0
     20161         0     20164         0     20167         0     20170         0
     20173         0     20176         0     20179         0     20182         0
     20185         0     20188         0     20191         0     20194         0
     20197         0     20200         0     20203         0     20206         0
     20209         0     20212         0     20215         0     20218         0
     20221         0     20224         0     20227         0     20230         0
     20233         0     20236         0     20239         0     20242         0
     20245         0     20248         0     20251         0     20254         0
     20257         0     20260         0     20263         0     20266         0
     20269         0     20272         0     20275         0     20278         0
     20281         0     20284         0     20287         0     20290         0
     20293         0     20296         0     20299         0     20302         0
     20305         0     20308         0     20311         0     20314         0
     20317         0     20320         0     20323         0     20326         0
     20329         0     20332         0     20335         0     20338         0
     20341         0     20344         0     20347         0     20350         0
     20353         0     20356         0     20359         0     20362         0
     20365         0     20368         0     20371         0     20374         0
     20377         0     20380         0     20383         0     20386         0
     20389         0     20392         0     20395         0     20398         0
     20401         0     20404         0     20407         0     20410         0
     20413         0     20416         0     20419         0     20422         0
     20425         0     20428         0     20431         0     20434         0
     20437         0     20440         0     20443         0     20446         0
     20449         0     20452         0     20455         0     20458         0
     20461         0     20464         0     20467         0     20470         0
     20473         0     20476         0     20479         0     20482         0
     20485         0     20488         0     20491         0     20494         0
     20497         0     20500         0     20503         0     20506         0
     20509         0     20512         0     20515         0     20518         0
     20521         0     20524         0     20527         0     20530         0
     20533         0     20536         0     20539         0     20542         0
     20545         0     20548         0     20551         0     20554         0
     20557         0     20560         0     20563         0     20566         0
     20569         0     20572         0     20575         0     20578         0
     20581         0     20584         0     20587         0     20590         0
     20593         0     20596         0     20599         0     20602         0
     20605         0     20608         0     20611         0     20614         0
     20617         0     20620         0     20623         0     20626         0
     20629         0     20632         0     20635         0     20638         0
     20641         0     20644         0     20647         0     20650         0
     20653         0     20656         0     20659         0     20662         0
     20665         0     20668         0     20671         0     20674         0
     20677         0     20680         0     20683         0     20686         0
     20689         0     20692         0     20695         0     20698         0
     20701         0     20704         0     20707         0     20710         0
     20713         0     20716         0     20719         0     20722         0
     20725         0     20728         0     20731         0     20734         0
     20737         0     20740         0     20743         0     20746         0
     20749         0     20752         0     20755         0     20758         0
     20761         0     20764         0     20767         0     20770         0
     20773         0     20776         0     20779         0     20782         0
     20785         0     20788         0     20791         0     20794         0
     20797         0     20800         0     20803         0     20806         0
     20809         0     20812         0     20815         0     20818         0
     20821         0     20824         0     20827         0     20830         0
     20833         0     20836         0     20839         0     20842         0
     20845         0     20848         0     20851         0     20854         0
     20857         0     20860         0     20863         0     20866         0
     20869         0     20872         0     20875         0     20878         0
     20881         0     20884         0     20887         0     20890         0
     20893         0     20896         0     20899         0     20902         0
     20905         0     20908         0     20911         0     20914         0
     20917         0     20920         0     20923         0     20926         0
     20929         0     20932         0     20935         0     20938         0
     20941         0     20944         0     20947         0     20950         0
     20953         0     20956         0     20959         0     20962         0
     20965         0     20968         0     20971         0     20974         0
     20977         0     20980         0     20983         0     20986         0
     20989         0     20992         0     20995         0     20998         0
     21001         0     21004         0     21007         0     21010         0
     21013         0     21016         0     21019         0     21022         0
     21025         0     21028         0     21031         0     21034         0
     21037         0     21040         0     21043         0     21046         0
     21049         0     21052         0     21055         0     21058         0
     21061         0     21064         0     21067         0     21070         0
     21073         0     21076         0     21079         0     21082         0
     21085         0     21088         0     21091         0     21094         0
     21097         0     21100         0     21103         0     21106         0
     21109         0     21112         0     21115         0     21118         0
     21121         0     21124         0     21127         0     21130         0
     21133         0     21136         0     21139         0     21142         0
     21145         0     21148         0     21151         0     21154         0
     21157         0     21160         0     21163         0     21166         0
     21169         0     21172         0     21175         0     21178         0
     21181         0     21184         0     21187         0     21190         0
     21193         0     21196         0     21199         0     21202         0
     21205         0     21208         0     21211         0     21214         0
     21217         0     21220         0     21223         0     21226         0
     21229         0     21232         0     21235         0     21238         0
     21241         0     21244         0     21247         0     21250         0
     21253         0     21256         0     21259         0     21262         0
     21265         0     21268         0     21271         0     21274         0
     21277         0     21280         0     21283         0     21286         0
     21289         0     21292         0     21295         0     21298         0
     21301         0     21304         0     21307         0     21310         0
     21313         0     21316         0     21319         0     21322         0
     21325         0     21328         0     21331         0     21334         0
     21337         0     21340         0     21343         0     21346         0
     21349         0     21352         0     21355         0     21358         0
     21361         0     21364         0     21367         0     21370         0
     21373         0     21376         0     21379         0     21382         0
     21385         0     21388         0     21391         0     21394         0
     21397         0     21400         0     21403         0     21406         0
     21409         0     21412         0     21415         0     21418         0
     21421         0     21424         0     21427         0     21430         0
     21433         0     21436         0     21439         0     21442         0
     21445         0     21448         0     21451         0     21454         0
     21457         0     21460         0     21463         0     21466         0
     21469         0     21472         0     21475         0     21478         0
     21481         0     21484         0     21487         0     21490         0
     21493         0     21496         0     21499         0     21502         0
     21505         0     21508         0     21511         0     21514         0
     21517         0     21520         0     21523         0     21526         0
     21529         0     21532         0     21535         0     21538         0
     21541         0     21544         0     21547         0     21550         0
     21553         0     21556         0     21559         0     21562         0
     21565         0     21568         0     21571         0     21574         0
     21577         0     21580         0     21583         0     21586         0
     21589         0     21592         0     21595         0     21598         0
     21601         0     21604         0     21607         0     21610         0
     21613         0     21616         0     21619         0     21622         0
     21625         0     21628         0     21631         0     21634         0
     21637         0     21640         0     21643         0     21646         0
     21649         0     21652         0     21655         0     21658         0
     21661         0     21664         0     21667         0     21670         0
     21673         0     21676         0     21679         0     21682         0
     21685         0     21688         0     21691         0     21694         0
     21697         0     21700         0     21703         0     21706         0
     21709         0     21712         0     21715         0     21718         0
     21721         0     21724         0     21727         0     21730         0
     21733         0     21736         0     21739         0     21742         0
     21745         0     21748         0     21751         0     21754         0
     21757         0     21760         0     21763         0     21766         0
     21769         0     21772         0     21775         0     21778         0
     21781         0     21784         0     21787         0     21790         0
     21793         0     21796         0     21799         0     21802         0
     21805         0     21808         0     21811         0     21814         0
     21817         0     21820         0     21823         0     21826         0
     21829         0     21832         0     21835         0     21838         0
     21841         0     21844         0     21847         0     21850         0
     21853         0     21856         0     21859         0     21862         0
     21865         0     21868         0     21871         0     21874         0
     21877         0     21880         0     21883         0     21886         0
     21889         0     21892         0     21895         0     21898         0
     21901         0     21904         0     21907         0     21910         0
     21913         0     21916         0     21919         0     21922         0
     21925         0     21928         0     21931         0     21934         0
     21937         0     21940         0     21943         0     21946         0
     21949         0     21952         0     21955         0     21958         0
     21961         0     21964         0     21967         0     21970         0
     21973         0     21976         0     21979         0     21982         0
     21985         0     21988         0     21991         0     21994         0
     21997         0     22000         0     22003         0     22006         0
     22009         0     22012         0     22015         0     22018         0
     22021         0     22024         0     22027         0     22030         0
     22033         0     22036         0     22039         0     22042         0
     22045         0     22048         0     22051         0     22054         0
     22057         0     22060         0     22063         0     22066         0
     22069         0     22072         0     22075         0     22078         0
     22081         0     22084         0     22087         0     22090         0
     22093         0     22096         0     22099         0     22102         0
     22105         0     22108         0     22111         0     22114         0
     22117         0     22120         0     22123         0     22126         0
     22129         0     22132         0     22135         0     22138         0
     22141         0     22144         0     22147         0     22150         0
     22153         0     22156         0     22159         0     22162         0
     22165         0     22168         0     22171         0     22174         0
     22177         0     22180         0     22183         0     22186         0
     22189         0     22192         0     22195         0     22198         0
     22201         0     22204         0     22207         0     22210         0
     22213         0     22216         0     22219         0     22222         0
     22225         0     22228         0     22231         0     22234         0
     22237         0     22240         0     22243         0     22246         0
     22249         0     22252         0     22255         0     22258         0
     22261         0     22264         0     22267         0     22270         0
     22273         0     22276         0     22279         0     22282         0
     22285         0     22288         0     22291         0     22294         0
     22297         0     22300         0     22303         0     22306         0
     22309         0     22312         0     22315         0     22318         0
     22321         0     22324         0     22327         0     22330         0
     22333         0     22336         0     22339         0     22342         0
     22345         0     22348         0     22351         0     22354         0
     22357         0     22360         0     22363         0     22366         0
     22369         0     22372         0     22375         0     22378         0
     22381         0     22384         0     22387         0     22390         0
     22393         0     22396         0     22399         0     22402         0
     22405         0     22408         0     22411         0     22414         0
     22417         0     22420         0     22423         0     22426         0
     22429         0     22432         0     22435         0     22438         0
     22441         0     22444         0     22447         0     22450         0
     22453         0     22456         0     22459         0     22462         0
     22465         0     22468         0     22471         0     22474         0
     22477         0     22480         0     22483         0     22486         0
     22489         0     22492         0     22495         0     22498         0
     22501         0     22504         0     22507         0     22510         0
     22513         0     22516         0     22519         0     22522         0
     22525         0     22528         0     22531         0     22534         0
     22537         0     22540         0     22543         0     22546         0
     22549         0     22552         0     22555         0     22558         0
     22561         0     22564         0     22567         0     22570         0
     22573         0     22576         0     22579         0     22582         0
     22585         0     22588         0     22591         0     22594         0
     22597         0     22600         0     22603         0     22606         0
     22609         0     22612         0     22615         0     22618         0
     22621         0     22624         0     22627         0     22630         0
     22633         0     22636         0     22639         0     22642         0
     22645         0     22648         0     22651         0     22654         0
     22657         0     22660         0     22663         0     22666         0
     22669         0     22672         0     22675         0     22678         0
     22681         0     22684         0     22687         0     22690         0
     22693         0     22696         0     22699         0     22702         0
     22705         0     22708         0     22711         0     22714         0
     22717         0     22720         0     22723         0     22726         0
     22729         0     22732         0     22735         0     22738         0
     22741         0     22744         0     22747         0     22750         0
     22753         0     22756         0     22759         0     22762         0
     22765         0     22768         0     22771         0     22774         0
     22777         0     22780         0     22783         0     22786         0
     22789         0     22792         0     22795         0     22798         0
     22801         0     22804         0     22807         0     22810         0
     22813         0     22816         0     22819         0     22822         0
     22825         0     22828         0     22831         0     22834         0
     22837         0     22840         0     22843         0     22846         0
     22849         0     22852         0     22855         0     22858         0
     22861         0     22864         0     22867         0     22870         0
     22873         0     22876         0     22879         0     22882         0
     22885         0     22888         0     22891         0     22894         0
     22897         0     22900         0     22903         0     22906         0
     22909         0     22912         0     22915         0     22918         0
     22921         0     22924         0     22927         0     22930         0
     22933         0     22936         0     22939         0     22942         0
     22945         0     22948         0     22951         0     22954         0
     22957         0     22960         0     22963         0     22966         0
     22969         0     22972         0     22975         0     22978         0
     22981         0     22984         0     22987         0     22990         0
     22993         0     22996         0     22999         0     23002         0
     23005         0     23008         0     23011         0     23014         0
     23017         0     23020         0     23023         0     23026         0
     23029         0     23032         0     23035         0     23038         0
     23041         0     23044         0     23047         0     23050         0
     23053         0     23056         0     23059         0     23062         0
     23065         0     23068         0     23071         0     23074         0
     23077         0     23080         0     23083         0     23086         0
     23089         0     23092         0     23095         0     23098         0
     23101         0     23104         0     23107         0     23110         0
     23113         0     23116         0     23119         0     23122         0
     23125         0     23128         0     23131         0     23134         0
     23137         0     23140         0     23143         0     23146         0
     23149         0     23152         0     23155         0     23158         0
     23161         0     23164         0     23167         0     23170         0
     23173         0     23176         0     23179         0     23182         0
     23185         0     23188         0     23191         0     23194         0
     23197         0     23200         0     23203         0     23206         0
     23209         0     23212         0     23215         0     23218         0
     23221         0     23224         0     23227         0     23230         0
     23233         0     23236         0     23239         0     23242         0
     23245         0     23248         0     23251         0     23254         0
     23257         0     23260         0     23263         0     23266         0
     23269         0     23272         0     23275         0     23278         0
     23281         0     23284         0     23287         0     23290         0
     23293         0     23296         0     23299         0     23302         0
     23305         0     23308         0     23311         0     23314         0
     23317         0     23320         0     23323         0     23326         0
     23329         0     23332         0     23335         0     23338         0
     23341         0     23344         0     23347         0     23350         0
     23353         0     23356         0     23359         0     23362         0
     23365         0     23368         0     23371         0     23374         0
     23377         0     23380         0     23383         0     23386         0
     23389         0     23392         0     23395         0     23398         0
     23401         0     23404         0     23407         0     23410         0
     23413         0     23416         0     23419         0     23422         0
     23425         0     23428         0     23431         0     23434         0
     23437         0     23440         0     23443         0     23446         0
     23449         0     23452         0     23455         0     23458         0
     23461         0     23464         0     23467         0     23470         0
     23473         0     23476         0     23479         0     23482         0
     23485         0     23488         0     23491         0     23494         0
     23497         0     23500         0     23503         0     23506         0
     23509         0     23512         0     23515         0     23518         0
     23521         0     23524         0     23527         0     23530         0
     23533         0     23536         0     23539         0     23542         0
     23545         0     23548         0     23551         0     23554         0
     23557         0     23560         0     23563         0     23566         0
     23569         0     23572         0     23575         0     23578         0
     23581         0     23584         0     23587         0     23590         0
     23593         0     23596         0     23599         0     23602         0
     23605         0     23608         0     23611         0     23614         0
     23617         0     23620         0     23623         0     23626         0
     23629         0     23632         0     23635         0     23638         0
     23641         0     23644         0     23647         0     23650         0
     23653         0     23656         0     23659         0     23662         0
     23665         0     23668         0     23671         0     23674         0
     23677         0     23680         0     23683         0     23686         0
     23689         0     23692         0     23695         0     23698         0
     23701         0     23704         0     23707         0     23710         0
     23713         0     23716         0     23719         0     23722         0
     23725         0     23728         0     23731         0     23734         0
     23737         0     23740         0     23743         0     23746         0
     23749         0     23752         0     23755         0     23758         0
     23761         0     23764         0     23767         0     23770         0
     23773         0     23776         0     23779         0     23782         0
     23785         0     23788         0     23791         0     23794         0
     23797         0     23800         0     23803         0     23806         0
     23809         0     23812         0     23815         0     23818         0
     23821         0     23824         0     23827         0     23830         0
     23833         0     23836         0     23839         0     23842         0
     23845         0     23848         0     23851         0     23854         0
     23857         0     23860         0     23863         0     23866         0
     23869         0     23872         0     23875         0     23878         0
     23881         0     23884         0     23887         0     23890         0
     23893         0     23896         0     23899         0     23902         0
     23905         0     23908         0     23911         0     23914         0
     23917         0     23920         0     23923         0     23926         0
     23929         0     23932         0     23935         0     23938         0
     23941         0     23944         0     23947         0     23950         0
     23953         0     23956         0     23959         0     23962         0
     23965         0     23968         0     23971         0     23974         0
     23977         0     23980         0     23983         0     23986         0
     23989         0     23992         0     23995         0     23998         0
     24001         0     24004         0     24007         0     24010         0
     24013         0     24016         0     24019         0     24022         0
     24025         0     24028         0     24031         0     24034         0
     24037         0     24040         0     24043         0     24046         0
     24049         0     24052         0     24055         0     24058         0
     24061         0     24064         0     24067         0     24070         0
     24073         0     24076         0     24079         0     24082         0
     24085         0     24088         0     24091         0     24094         0
     24097         0     24100         0     24103         0     24106         0
     24109         0     24112         0     24115         0     24118         0
     24121         0     24124         0     24127         0     24130         0
     24133         0     24136         0     24139         0     24142         0
     24145         0     24148         0     24151         0     24154         0
     24157         0     24160         0     24163         0     24166         0
     24169         0     24172         0     24175         0     24178         0
     24181         0     24184         0     24187         0     24190         0
     24193         0     24196         0     24199         0     24202         0
     24205         0     24208         0     24211         0     24214         0
     24217         0     24220         0     24223         0     24226         0
     24229         0     24232         0     24235         0     24238         0
     24241         0     24244         0     24247         0     24250         0
     24253         0     24256         0     24259         0     24262         0
     24265         0     24268         0     24271         0     24274         0
     24277         0     24280         0     24283         0     24286         0
     24289         0     24292         0     24295         0     24298         0
     24301         0     24304         0     24307         0     24310         0
     24313         0     24316         0     24319         0     24322         0
     24325         0     24328         0     24331         0     24334         0
     24337         0     24340         0     24343         0     24346         0
     24349         0     24352         0     24355         0     24358         0
     24361         0     24364         0     24367         0     24370         0
     24373         0     24376         0     24379         0     24382         0
     24385         0     24388         0     24391         0     24394         0
     24397         0     24400         0     24403         0     24406         0
     24409         0     24412         0     24415         0     24418         0
     24421         0     24424         0     24427         0     24430         0
     24433         0     24436         0     24439         0     24442         0
     24445         0     24448         0     24451         0     24454         0
     24457         0     24460         0     24463         0     24466         0
     24469         0     24472         0     24475         0     24478         0
     24481         0     24484         0     24487         0     24490         0
     24493         0     24496         0     24499         0     24502         0
     24505         0     24508         0     24511         0     24514         0
     24517         0     24520         0     24523         0     24526         0
     24529         0     24532         0     24535         0     24538         0
     24541         0     24544         0     24547         0     24550         0
     24553         0     24556         0     24559         0     24562         0
     24565         0     24568         0     24571         0     24574         0
     24577         0     24580         0     24583         0     24586         0
     24589         0     24592         0     24595         0     24598         0
     24601         0     24604         0     24607         0     24610         0
     24613         0     24616         0     24619         0     24622         0
     24625         0     24628         0     24631         0     24634         0
     24637         0     24640         0     24643         0     24646         0
     24649         0     24652         0     24655         0     24658         0
     24661         0     24664         0     24667         0     24670         0
     24673         0     24676         0     24679         0     24682         0
     24685         0     24688         0     24691         0     24694         0
     24697         0     24700         0     24703         0     24706         0
     24709         0     24712         0     24715         0     24718         0
     24721         0     24724         0     24727         0     24730         0
     24733         0     24736         0     24739         0     24742         0
     24745         0     24748         0     24751         0     24754         0
     24757         0     24760         0     24763         0     24766         0
     24769         0     24772         0     24775         0     24778         0
     24781         0     24784         0     24787         0     24790         0
     24793         0     24796         0     24799         0     24802         0
     24805         0     24808         0     24811         0     24814         0
     24817         0     24820         0     24823         0     24826         0
     24829         0     24832         0     24835         0     24838         0
     24841         0     24844         0     24847         0     24850         0
     24853         0     24856         0     24859         0     24862         0
     24865         0     24868         0     24871         0     24874         0
     24877         0     24880         0     24883         0     24886         0
     24889         0     24892         0     24895         0     24898         0
     24901         0     24904         0     24907         0     24910         0
     24913         0     24916         0     24919         0     24922         0
     24925         0     24928         0     24931         0     24934         0
     24937         0     24940         0     24943         0     24946         0
     24949         0     24952         0     24955         0     24958         0
     24961         0     24964         0     24967         0     24970         0
     24973         0     24976         0     24979         0     24982         0
     24985         0     24988         0     24991         0     24994         0
     24997         0     25000         0     25003         0     25006         0
     25009         0     25012         0     25015         0     25018         0
     25021         0     25024         0     25027         0     25030         0
     25033         0     25036         0     25039         0     25042         0
     25045         0     25048         0     25051         0     25054         0
     25057         0     25060         0     25063         0     25066         0
     25069         0     25072         0     25075         0     25078         0
     25081         0     25084         0     25087         0     25090         0
     25093         0     25096         0     25099         0     25102         0
     25105         0     25108         0     25111         0     25114         0
     25117         0     25120         0     25123         0     25126         0
     25129         0     25132         0     25135         0     25138         0
     25141         0     25144         0     25147         0     25150         0
     25153         0     25156         0     25159         0     25162         0
     25165         0     25168         0     25171         0     25174         0
     25177         0     25180         0     25183         0     25186         0
     25189         0     25192         0     25195         0     25198         0
     25201         0     25204         0     25207         0     25210         0
     25213         0     25216         0     25219         0     25222         0
     25225         0     25228         0     25231         0     25234         0
     25237         0     25240         0     25243         0     25246         0
     25249         0     25252         0     25255         0     25258         0
     25261         0     25264         0     25267         0     25270         0
     25273         0     25276         0     25279         0     25282         0
     25285         0     25288         0     25291         0     25294         0
     25297         0     25300         0     25303         0     25306         0
     25309         0     25312         0     25315         0     25318         0
     25321         0     25324         0     25327         0     25330         0
     25333         0     25336         0     25339         0     25342         0
     25345         0     25348         0     25351         0     25354         0
     25357         0     25360         0     25363         0     25366         0
     25369         0     25372         0     25375         0     25378         0
     25381         0     25384         0     25387         0     25390         0
     25393         0     25396         0     25399         0     25402         0
     25405         0     25408         0     25411         0     25414         0
     25417         0     25420         0     25423         0     25426         0
     25429         0     25432         0     25435         0     25438         0
     25441         0     25444         0     25447         0     25450         0
     25453         0     25456         0     25459         0     25462         0
     25465         0     25468         0     25471         0     25474         0
     25477         0     25480         0     25483         0     25486         0
     25489         0     25492         0     25495         0     25498         0
     25501         0     25504         0     25507         0     25510         0
     25513         0     25516         0     25519         0     25522         0
     25525         0     25528         0     25531         0     25534         0
     25537         0     25540         0     25543         0     25546         0
     25549         0     25552         0     25555         0     25558         0
     25561         0     25564         0     25567         0     25570         0
     25573         0     25576         0     25579         0     25582         0
     25585         0     25588         0     25591         0     25594         0
     25597         0     25600         0     25603         0     25606         0
     25609         0     25612         0     25615         0     25618         0
     25621         0     25624         0     25627         0     25630         0
     25633         0     25636         0     25639         0     25642         0
     25645         0     25648         0     25651         0     25654         0
     25657         0     25660         0     25663         0     25666         0
     25669         0     25672         0     25675         0     25678         0
     25681         0     25684         0     25687         0     25690         0
     25693         0     25696         0     25699         0     25702         0
     25705         0     25708         0     25711         0     25714         0
     25717         0     25720         0     25723         0     25726         0
     25729         0     25732         0     25735         0     25738         0
     25741         0     25744         0     25747         0     25750         0
     25753         0     25756         0     25759         0     25762         0
     25765         0     25768         0     25771         0     25774         0
     25777         0     25780         0     25783         0     25786         0
     25789         0     25792         0     25795         0     25798         0
     25801         0     25804         0     25807         0     25810         0
     25813         0     25816         0     25819         0     25822         0
     25825         0     25828         0     25831         0     25834         0
     25837         0     25840         0     25843         0     25846         0
     25849         0     25852         0     25855         0     25858         0
     25861         0     25864         0     25867         0     25870         0
     25873         0     25876         0     25879         0     25882         0
     25885         0     25888         0     25891         0     25894         0
     25897         0     25900         0     25903         0     25906         0
     25909         0     25912         0     25915         0     25918         0
     25921         0     25924         0     25927         0     25930         0
     25933         0     25936         0     25939         0     25942         0
     25945         0     25948         0     25951         0     25954         0
     25957         0     25960         0     25963         0     25966         0
     25969         0     25972         0     25975         0     25978         0
     25981         0     25984         0     25987         0     25990         0
     25993         0     25996         0     25999         0     26002         0
     26005         0     26008         0     26011         0     26014         0
     26017         0     26020         0     26023         0     26026         0
     26029         0     26032         0     26035         0     26038         0
     26041         0     26044         0     26047         0     26050         0
     26053         0     26056         0     26059         0     26062         0
     26065         0     26068         0     26071         0     26074         0
     26077         0     26080         0     26083         0     26086         0
     26089         0     26092         0     26095         0     26098         0
     26101         0     26104         0     26107         0     26110         0
     26113         0     26116         0     26119         0     26122         0
     26125         0     26128         0     26131         0     26134         0
     26137         0     26140         0     26143         0     26146         0
     26149         0     26152         0     26155         0     26158         0
     26161         0     26164         0     26167         0     26170         0
     26173         0     26176         0     26179         0     26182         0
     26185         0     26188         0     26191         0     26194         0
     26197         0     26200         0     26203         0     26206         0
     26209         0     26212         0     26215         0     26218         0
     26221         0     26224         0     26227         0     26230         0
     26233         0     26236         0     26239         0     26242         0
     26245         0     26248         0     26251         0     26254         0
     26257         0     26260         0     26263         0     26266         0
     26269         0     26272         0     26275         0     26278         0
     26281         0     26284         0     26287         0     26290         0
     26293         0     26296         0     26299         0     26302         0
     26305         0     26308         0     26311         0     26314         0
     26317         0     26320         0     26323         0     26326         0
     26329         0     26332         0     26335         0     26338         0
     26341         0     26344         0     26347         0     26350         0
     26353         0     26356         0     26359         0     26362         0
     26365         0     26368         0     26371         0     26374         0
     26377         0     26380         0     26383         0     26386         0
     26389         0     26392         0     26395         0     26398         0
     26401         0     26404         0     26407         0     26410         0
     26413         0     26416         0     26419         0     26422         0
     26425         0     26428         0     26431         0     26434         0
     26437         0     26440         0     26443         0     26446         0
     26449         0     26452         0     26455         0     26458         0
     26461         0     26464         0     26467         0     26470         0
     26473         0     26476         0     26479         0     26482         0
     26485         0     26488         0     26491         0     26494         0
     26497         0     26500         0     26503         0     26506         0
     26509         0     26512         0     26515         0     26518         0
     26521         0     26524         0     26527         0     26530         0
     26533         0     26536         0     26539         0     26542         0
     26545         0     26548         0     26551         0     26554         0
     26557         0     26560         0     26563         0     26566         0
     26569         0     26572         0     26575         0     26578         0
     26581         0     26584         0     26587         0     26590         0
     26593         0     26596         0     26599         0     26602         0
     26605         0     26608         0     26611         0     26614         0
     26617         0     26620         0     26623         0     26626         0
     26629         0     26632         0     26635         0     26638         0
     26641         0     26644         0     26647         0     26650         0
     26653         0     26656         0     26659         0     26662         0
     26665         0     26668         0     26671         0     26674         0
     26677         0     26680         0     26683         0     26686         0
     26689         0     26692         0     26695         0     26698         0
     26701         0     26704         0     26707         0     26710         0
     26713         0     26716         0     26719         0     26722         0
     26725         0     26728         0     26731         0     26734         0
     26737         0     26740         0     26743         0     26746         0
     26749         0     26752         0     26755         0     26758         0
     26761         0     26764         0     26767         0     26770         0
     26773         0     26776         0     26779         0     26782         0
     26785         0     26788         0     26791         0     26794         0
     26797         0     26800         0     26803         0     26806         0
     26809         0     26812         0     26815         0     26818         0
     26821         0     26824         0     26827         0     26830         0
     26833         0     26836         0     26839         0     26842         0
     26845         0     26848         0     26851         0     26854         0
     26857         0     26860         0     26863         0     26866         0
     26869         0     26872         0     26875         0     26878         0
     26881         0     26884         0     26887         0     26890         0
     26893         0     26896         0     26899         0     26902         0
     26905         0     26908         0     26911         0     26914         0
     26917         0     26920         0     26923         0     26926         0
     26929         0     26932         0     26935         0     26938         0
     26941         0     26944         0     26947         0     26950         0
     26953         0     26956         0     26959         0     26962         0
     26965         0     26968         0     26971         0     26974         0
     26977         0     26980         0     26983         0     26986         0
     26989         0     26992         0     26995         0     26998         0
     27001         0     27004         0     27007         0     27010         0
     27013         0     27016         0     27019         0     27022         0
     27025         0     27028         0     27031         0     27034         0
     27037         0     27040         0     27043         0     27046         0
     27049         0     27052         0     27055         0     27058         0
     27061         0     27064         0     27067         0     27070         0
     27073         0     27076         0     27079         0     27082         0
     27085         0     27088         0     27091         0     27094         0
     27097         0     27100         0     27103         0     27106         0
     27109         0     27112         0     27115         0     27118         0
     27121         0     27124         0     27127         0     27130         0
     27133         0     27136         0     27139         0     27142         0
     27145         0     27148         0     27151         0     27154         0
     27157         0     27160         0     27163         0     27166         0
     27169         0     27172         0     27175         0     27178         0
     27181         0     27184         0     27187         0     27190         0
     27193         0     27196         0     27199         0     27202         0
     27205         0     27208         0     27211         0     27214         0
     27217         0     27220         0     27223         0     27226         0
     27229         0     27232         0     27235         0     27238         0
     27241         0     27244         0     27247         0     27250         0
     27253         0     27256         0     27259         0     27262         0
     27265         0     27268         0     27271         0     27274         0
     27277         0     27280         0     27283         0     27286         0
     27289         0     27292         0     27295         0     27298         0
     27301         0     27304         0     27307         0     27310         0
     27313         0     27316         0     27319         0     27322         0
     27325         0     27328         0     27331         0     27334         0
     27337         0     27340         0     27343         0     27346         0
     27349         0     27352         0     27355         0     27358         0
     27361         0     27364         0     27367         0     27370         0
     27373         0     27376         0     27379         0     27382         0
     27385         0     27388         0     27391         0     27394         0
     27397         0     27400         0     27403         0     27406         0
     27409         0     27412         0     27415         0     27418         0
     27421         0     27424         0     27427         0     27430         0
     27433         0     27436         0     27439         0     27442         0
     27445         0     27448         0     27451         0     27454         0
     27457         0     27460         0     27463         0     27466         0
     27469         0     27472         0     27475         0     27478         0
     27481         0     27484         0     27487         0     27490         0
     27493         0     27496         0     27499         0     27502         0
     27505         0     27508         0     27511         0     27514         0
     27517         0     27520         0     27523         0     27526         0
     27529         0     27532         0     27535         0     27538         0
     27541         0     27544         0     27547         0     27550         0
     27553         0     27556         0     27559         0     27562         0
     27565         0     27568         0     27571         0     27574         0
     27577         0     27580         0     27583         0     27586         0
     27589         0     27592         0     27595         0     27598         0
     27601         0     27604         0     27607         0     27610         0
     27613         0     27616         0     27619         0     27622         0
     27625         0     27628         0     27631         0     27634         0
     27637         0     27640         0     27643         0     27646         0
     27649         0     27652         0     27655         0     27658         0
     27661         0     27664         0     27667         0     27670         0
     27673         0     27676         0     27679         0     27682         0
     27685         0     27688         0     27691         0     27694         0
     27697         0     27700         0     27703         0     27706         0
     27709         0     27712         0     27715         0     27718         0
     27721         0     27724         0     27727         0     27730         0
     27733         0     27736         0     27739         0     27742         0
     27745         0     27748         0     27751         0     27754         0
     27757         0     27760         0     27763         0     27766         0
     27769         0     27772         0     27775         0     27778         0
     27781         0     27784         0     27787         0     27790         0
     27793         0     27796         0     27799         0     27802         0
     27805         0     27808         0     27811         0     27814         0
     27817         0     27820         0     27823         0     27826         0
     27829         0     27832         0     27835         0     27838         0
     27841         0     27844         0     27847         0     27850         0
     27853         0     27856         0     27859         0     27862         0
     27865         0     27868         0     27871         0     27874         0
     27877         0     27880         0     27883         0     27886         0
     27889         0     27892         0     27895         0     27898         0
     27901         0     27904         0     27907         0     27910         0
     27913         0     27916         0     27919         0     27922         0
     27925         0     27928         0     27931         0     27934         0
     27937         0     27940         0     27943         0     27946         0
     27949         0     27952         0     27955         0     27958         0
     27961         0     27964         0     27967         0     27970         0
     27973         0     27976         0     27979         0     27982         0
     27985         0     27988         0     27991         0     27994         0
     27997         0     28000         0     28003         0     28006         0
     28009         0     28012         0     28015         0     28018         0
     28021         0     28024         0     28027         0     28030         0
     28033         0     28036         0     28039         0     28042         0
     28045         0     28048         0     28051         0     28054         0
     28057         0     28060         0     28063         0     28066         0
     28069         0     28072         0     28075         0     28078         0
     28081         0     28084         0     28087         0     28090         0
     28093         0     28096         0     28099         0     28102         0
     28105         0     28108         0     28111         0     28114         0
     28117         0     28120         0     28123         0     28126         0
     28129         0     28132         0     28135         0     28138         0
     28141         0     28144         0     28147         0     28150         0
     28153         0     28156         0     28159         0     28162         0
     28165         0     28168         0     28171         0     28174         0
     28177         0     28180         0     28183         0     28186         0
     28189         0     28192         0     28195         0     28198         0
     28201         0     28204         0     28207         0     28210         0
     28213         0     28216         0     28219         0     28222         0
     28225         0     28228         0     28231         0     28234         0
     28237         0     28240         0     28243         0     28246         0
     28249         0     28252         0     28255         0     28258         0
     28261         0     28264         0     28267         0     28270         0
     28273         0     28276         0     28279         0     28282         0
     28285         0     28288         0     28291         0     28294         0
     28297         0     28300         0     28303         0     28306         0
     28309         0     28312         0     28315         0     28318         0
     28321         0     28324         0     28327         0     28330         0
     28333         0     28336         0     28339         0     28342         0
     28345         0     28348         0     28351         0     28354         0
     28357         0     28360         0     28363         0     28366         0
     28369         0     28372         0     28375         0     28378         0
     28381         0     28384         0     28387         0     28390         0
     28393         0     28396         0     28399         0     28402         0
     28405         0     28408         0     28411         0     28414         0
     28417         0     28420         0     28423         0     28426         0
     28429         0     28432         0     28435         0     28438         0
     28441         0     28444         0     28447         0     28450         0
     28453         0     28456         0     28459         0     28462         0
     28465         0     28468         0     28471         0     28474         0
     28477         0     28480         0     28483         0     28486         0
     28489         0     28492         0     28495         0     28498         0
     28501         0     28504         0     28507         0     28510         0
     28513         0     28516         0     28519         0     28522         0
     28525         0     28528         0     28531         0     28534         0
     28537         0     28540         0     28543         0     28546         0
     28549         0     28552         0     28555         0     28558         0
     28561         0     28564         0     28567         0     28570         0
     28573         0     28576         0     28579         0     28582         0
     28585         0     28588         0     28591         0     28594         0
     28597         0     28600         0     28603         0     28606         0
     28609         0     28612         0     28615         0     28618         0
     28621         0     28624         0     28627         0     28630         0
     28633         0     28636         0     28639         0     28642         0
     28645         0     28648         0     28651         0     28654         0
     28657         0     28660         0     28663         0     28666         0
     28669         0     28672         0     28675         0     28678         0
     28681         0     28684         0     28687         0     28690         0
     28693         0     28696         0     28699         0     28702         0
     28705         0     28708         0     28711         0     28714         0
     28717         0     28720         0     28723         0     28726         0
     28729         0     28732         0     28735         0     28738         0
     28741         0     28744         0     28747         0     28750         0
     28753         0     28756         0     28759         0     28762         0
     28765         0     28768         0     28771         0     28774         0
     28777         0     28780         0     28783         0     28786         0
     28789         0     28792         0     28795         0     28798         0
     28801         0     28804         0     28807         0     28810         0
     28813         0     28816         0     28819         0     28822         0
     28825         0     28828         0     28831         0     28834         0
     28837         0     28840         0     28843         0     28846         0
     28849         0     28852         0     28855         0     28858         0
     28861         0     28864         0     28867         0     28870         0
     28873         0     28876         0     28879         0     28882         0
     28885         0     28888         0     28891         0     28894         0
     28897         0     28900         0     28903         0     28906         0
     28909         0     28912         0     28915         0     28918         0
     28921         0     28924         0     28927         0     28930         0
     28933         0     28936         0     28939         0     28942         0
     28945         0     28948         0     28951         0     28954         0
     28957         0     28960         0     28963         0     28966         0
     28969         0     28972         0     28975         0     28978         0
     28981         0     28984         0     28987         0     28990         0
     28993         0     28996         0     28999         0     29002         0
     29005         0     29008         0     29011         0     29014         0
     29017         0     29020         0     29023         0     29026         0
     29029         0     29032         0     29035         0     29038         0
     29041         0     29044         0     29047         0     29050         0
     29053         0     29056         0     29059         0     29062         0
     29065         0     29068         0     29071         0     29074         0
     29077         0     29080         0     29083         0     29086         0
     29089         0     29092         0     29095         0     29098         0
     29101         0     29104         0     29107         0     29110         0
     29113         0     29116         0     29119         0     29122         0
     29125         0     29128         0     29131         0     29134         0
     29137         0     29140         0     29143         0     29146         0
     29149         0     29152         0     29155         0     29158         0
     29161         0     29164         0     29167         0     29170         0
     29173         0     29176         0     29179         0     29182         0
     29185         0     29188         0     29191         0     29194         0
     29197         0     29200         0     29203         0     29206         0
     29209         0     29212         0     29215         0     29218         0
     29221         0     29224         0     29227         0     29230         0
     29233         0     29236         0     29239         0     29242         0
     29245         0     29248         0     29251         0     29254         0
     29257         0     29260         0     29263         0     29266         0
     29269         0     29272         0     29275         0     29278         0
     29281         0     29284         0     29287         0     29290         0
     29293         0     29296         0     29299         0     29302         0
     29305         0     29308         0     29311         0     29314         0
     29317         0     29320         0     29323         0     29326         0
     29329         0     29332         0     29335         0     29338         0
     29341         0     29344         0     29347         0     29350         0
     29353         0     29356         0     29359         0     29362         0
     29365         0     29368         0     29371         0     29374         0
     29377         0     29380         0     29383         0     29386         0
     29389         0     29392         0     29395         0     29398         0
     29401         0     29404         0     29407         0     29410         0
     29413         0     29416         0     29419         0     29422         0
     29425         0     29428         0     29431         0     29434         0
     29437         0     29440         0     29443         0     29446         0
     29449         0     29452         0     29455         0     29458         0
     29461         0     29464         0     29467         0     29470         0
     29473         0     29476         0     29479         0     29482         0
     29485         0     29488         0     29491         0     29494         0
     29497         0     29500         0     29503         0     29506         0
     29509         0     29512         0     29515         0     29518         0
     29521         0     29524         0     29527         0     29530         0
     29533         0     29536         0     29539         0     29542         0
     29545         0     29548         0     29551         0     29554         0
     29557         0     29560         0     29563         0     29566         0
     29569         0     29572         0     29575         0     29578         0
     29581         0     29584         0     29587         0     29590         0
     29593         0     29596         0     29599         0     29602         0
     29605         0     29608         0     29611         0     29614         0
     29617         0     29620         0     29623         0     29626         0
     29629         0     29632         0     29635         0     29638         0
     29641         0     29644         0     29647         0     29650         0
     29653         0     29656         0     29659         0     29662         0
     29665         0     29668         0     29671         0     29674         0
     29677         0     29680         0     29683         0     29686         0
     29689         0     29692         0     29695         0     29698         0
     29701         0     29704         0     29707         0     29710         0
     29713         0     29716         0     29719         0     29722         0
     29725         0     29728         0     29731         0     29734         0
     29737         0     29740         0     29743         0     29746         0
     29749         0     29752         0     29755         0     29758         0
     29761         0     29764         0     29767         0     29770         0
     29773         0     29776         0     29779         0     29782         0
     29785         0     29788         0     29791         0     29794         0
     29797         0     29800         0     29803         0     29806         0
     29809         0     29812         0     29815         0     29818         0
     29821         0     29824         0     29827         0     29830         0
     29833         0     29836         0     29839         0     29842         0
     29845         0     29848         0     29851         0     29854         0
     29857         0     29860         0     29863         0     29866         0
     29869         0     29872         0     29875         0     29878         0
     29881         0     29884         0     29887         0     29890         0
     29893         0     29896         0     29899         0     29902         0
     29905         0     29908         0     29911         0     29914         0
     29917         0     29920         0     29923         0     29926         0
     29929         0     29932         0     29935         0     29938         0
     29941         0     29944         0     29947         0     29950         0
     29953         0     29956         0     29959         0     29962         0
     29965         0     29968         0     29971         0     29974         0
     29977         0     29980         0     29983         0     29986         0
     29989         0     29992         0     29995         0     29998         0
     30001         0     30004         0     30007         0     30010         0
     30013         0     30016         0     30019         0     30022         0
     30025         0     30028         0     30031         0     30034         0
     30037         0     30040         0     30043         0     30046         0
     30049         0     30052         0     30055         0     30058         0
     30061         0     30064         0     30067         0     30070         0
     30073         0     30076         0     30079         0     30082         0
     30085         0     30088         0     30091         0     30094         0
     30097         0     30100         0     30103         0     30106         0
     30109         0     30112         0     30115         0     30118         0
     30121         0     30124         0     30127         0     30130         0
     30133         0     30136         0     30139         0     30142         0
     30145         0     30148         0     30151         0     30154         0
     30157         0     30160         0     30163         0     30166         0
     30169         0     30172         0     30175         0     30178         0
     30181         0     30184         0     30187         0     30190         0
     30193         0     30196         0     30199         0     30202         0
     30205         0     30208         0     30211         0     30214         0
     30217         0     30220         0     30223         0     30226         0
     30229         0     30232         0     30235         0     30238         0
     30241         0     30244         0     30247         0     30250         0
     30253         0     30256         0     30259         0     30262         0
     30265         0     30268         0     30271         0     30274         0
     30277         0     30280         0     30283         0     30286         0
     30289         0     30292         0     30295         0     30298         0
     30301         0     30304         0     30307         0     30310         0
     30313         0     30316         0     30319         0     30322         0
     30325         0     30328         0     30331         0     30334         0
     30337         0     30340         0     30343         0     30346         0
     30349         0     30352         0     30355         0     30358         0
     30361         0     30364         0     30367         0     30370         0
     30373         0     30376         0     30379         0     30382         0
     30385         0     30388         0     30391         0     30394         0
     30397         0     30400         0     30403         0     30406         0
     30409         0     30412         0     30415         0     30418         0
     30421         0     30424         0     30427         0     30430         0
     30433         0     30436         0     30439         0     30442         0
     30445         0     30448         0     30451         0     30454         0
     30457         0     30460         0     30463         0     30466         0
     30469         0     30472         0     30475         0     30478         0
     30481         0     30484         0     30487         0     30490         0
     30493         0     30496         0     30499         0     30502         0
     30505         0     30508         0     30511         0     30514         0
     30517         0     30520         0     30523         0     30526         0
     30529         0     30532         0     30535         0     30538         0
     30541         0     30544         0     30547         0     30550         0
     30553         0     30556         0     30559         0     30562         0
     30565         0     30568         0     30571         0     30574         0
     30577         0     30580         0     30583         0     30586         0
     30589         0     30592         0     30595         0     30598         0
     30601         0     30604         0     30607         0     30610         0
     30613         0     30616         0     30619         0     30622         0
     30625         0     30628         0     30631         0     30634         0
     30637         0     30640         0     30643         0     30646         0
     30649         0     30652         0     30655         0     30658         0
     30661         0     30664         0     30667         0     30670         0
     30673         0     30676         0     30679         0     30682         0
     30685         0     30688         0     30691         0     30694         0
     30697         0     30700         0     30703         0     30706         0
     30709         0     30712         0     30715         0     30718         0
     30721         0     30724         0     30727         0     30730         0
     30733         0     30736         0     30739         0     30742         0
     30745         0     30748         0     30751         0     30754         0
     30757         0     30760         0     30763         0     30766         0
     30769         0     30772         0     30775         0     30778         0
     30781         0     30784         0     30787         0     30790         0
     30793         0     30796         0     30799         0     30802         0
     30805         0     30808         0     30811         0     30814         0
     30817         0     30820         0     30823         0     30826         0
     30829         0     30832         0     30835         0     30838         0
     30841         0     30844         0     30847         0     30850         0
     30853         0     30856         0     30859         0     30862         0
     30865         0     30868         0     30871         0     30874         0
     30877         0     30880         0     30883         0     30886         0
     30889         0     30892         0     30895         0     30898         0
     30901         0     30904         0     30907         0     30910         0
     30913         0     30916         0     30919         0     30922         0
     30925         0     30928         0     30931         0     30934         0
     30937         0     30940         0     30943         0     30946         0
     30949         0     30952         0     30955         0     30958         0
     30961         0     30964         0     30967         0     30970         0
     30973         0     30976         0     30979         0     30982         0
     30985         0     30988         0     30991         0     30994         0
     30997         0     31000         0     31003         0     31006         0
     31009         0     31012         0     31015         0     31018         0
     31021         0     31024         0     31027         0     31030         0
     31033         0     31036         0     31039         0     31042         0
     31045         0     31048         0     31051         0     31054         0
     31057         0     31060         0     31063         0     31066         0
     31069         0     31072         0     31075         0     31078         0
     31081         0     31084         0     31087         0     31090         0
     31093         0     31096         0     31099         0     31102         0
     31105         0     31108         0     31111         0     31114         0
     31117         0     31120         0     31123         0     31126         0
     31129         0     31132         0     31135         0     31138         0
     31141         0     31144         0     31147         0     31150         0
     31153         0     31156         0     31159         0     31162         0
     31165         0     31168         0     31171         0     31174         0
     31177         0     31180         0     31183         0     31186         0
     31189         0     31192         0     31195         0     31198         0
     31201         0     31204         0     31207         0     31210         0
     31213         0     31216         0     31219         0     31222         0
     31225         0     31228         0     31231         0     31234         0
     31237         0     31240         0     31243         0     31246         0
     31249         0     31252         0     31255         0     31258         0
     31261         0     31264         0     31267         0     31270         0
     31273         0     31276         0     31279         0     31282         0
     31285         0     31288         0     31291         0     31294         0
     31297         0     31300         0     31303         0     31306         0
     31309         0     31312         0     31315         0     31318         0
     31321         0     31324         0     31327         0     31330         0
     31333         0     31336         0     31339         0     31342         0
     31345         0     31348         0     31351         0     31354         0
     31357         0     31360         0     31363         0     31366         0
     31369         0     31372         0     31375         0     31378         0
     31381         0     31384         0     31387         0     31390         0
     31393         0     31396         0     31399         0     31402         0
     31405         0     31408         0     31411         0     31414         0
     31417         0     31420         0     31423         0     31426         0
     31429         0     31432         0     31435         0     31438         0
     31441         0     31444         0     31447         0     31450         0
     31453         0     31456         0     31459         0     31462         0
     31465         0     31468         0     31471         0     31474         0
     31477         0     31480         0     31483         0     31486         0
     31489         0     31492         0     31495         0     31498         0
     31501         0     31504         0     31507         0     31510         0
     31513         0     31516         0     31519         0     31522         0
     31525         0     31528         0     31531         0     31534         0
     31537         0     31540         0     31543         0     31546         0
     31549         0     31552         0     31555         0     31558         0
     31561         0     31564         0     31567         0     31570         0
     31573         0     31576         0     31579         0     31582         0
     31585         0     31588         0     31591         0     31594         0
     31597         0     31600         0     31603         0     31606         0
     31609         0     31612         0     31615         0     31618         0
     31621         0     31624         0     31627         0     31630         0
     31633         0     31636         0     31639         0     31642         0
     31645         0     31648         0     31651         0     31654         0
     31657         0     31660         0     31663         0     31666         0
     31669         0     31672         0     31675         0     31678         0
     31681         0     31684         0     31687         0     31690         0
     31693         0     31696         0     31699         0     31702         0
     31705         0     31708         0     31711         0     31714         0
     31717         0     31720         0     31723         0     31726         0
     31729         0     31732         0     31735         0     31738         0
     31741         0     31744         0     31747         0     31750         0
     31753         0     31756         0     31759         0     31762         0
     31765         0     31768         0     31771         0     31774         0
     31777         0     31780         0     31783         0     31786         0
     31789         0     31792         0     31795         0     31798         0
     31801         0     31804         0     31807         0     31810         0
     31813         0     31816         0     31819         0     31822         0
     31825         0     31828         0     31831         0     31834         0
     31837         0     31840         0     31843         0     31846         0
     31849         0     31852         0     31855         0     31858         0
     31861         0     31864         0     31867         0     31870         0
     31873         0     31876         0     31879         0     31882         0
     31885         0     31888         0     31891         0     31894         0
     31897         0     31900         0     31903         0     31906         0
     31909         0     31912         0     31915         0     31918         0
     31921         0     31924         0     31927         0     31930         0
     31933         0     31936         0     31939         0     31942         0
     31945         0     31948         0     31951         0     31954         0
     31957         0     31960         0     31963         0     31966         0
     31969         0     31972         0     31975         0     31978         0
     31981         0     31984         0     31987         0     31990         0
     31993         0     31996         0     31999         0     32002         0
     32005         0     32008         0     32011         0     32014         0
     32017         0     32020         0     32023         0     32026         0
     32029         0     32032         0     32035         0     32038         0
     32041         0     32044         0     32047         0     32050         0
     32053         0     32056         0     32059         0     32062         0
     32065         0     32068         0     32071         0     32074         0
     32077         0     32080         0     32083         0     32086         0
     32089         0     32092         0     32095         0     32098         0
     32101         0     32104         0     32107         0     32110         0
     32113         0     32116         0     32119         0     32122         0
     32125         0     32128         0     32131         0     32134         0
     32137         0     32140         0     32143         0     32146         0
     32149         0     32152         0     32155         0     32158         0
     32161         0     32164         0     32167         0     32170         0
     32173         0     32176         0     32179         0     32182         0
     32185         0     32188         0     32191         0     32194         0
     32197         0     32200         0     32203         0     32206         0
     32209         0     32212         0     32215         0     32218         0
     32221         0     32224         0     32227         0     32230         0
     32233         0     32236         0     32239         0     32242         0
     32245         0     32248         0     32251         0     32254         0
     32257         0     32260         0     32263         0     32266         0
     32269         0     32272         0     32275         0     32278         0
     32281         0     32284         0     32287         0     32290         0
     32293         0     32296         0     32299         0     32302         0
     32305         0     32308         0     32311         0     32314         0
     32317         0     32320         0     32323         0     32326         0
     32329         0     32332         0     32335         0     32338         0
     32341         0     32344         0     32347         0     32350         0
     32353         0     32356         0     32359         0     32362         0
     32365         0     32368         0     32371         0     32374         0
     32377         0     32380         0     32383         0     32386         0
     32389         0     32392         0     32395         0     32398         0
     32401         0     32404         0     32407         0     32410         0
     32413         0     32416         0     32419         0     32422         0
     32425         0     32428         0     32431         0     32434         0
     32437         0     32440         0     32443         0     32446         0
     32449         0     32452         0     32455         0     32458         0
     32461         0     32464         0     32467         0     32470         0
     32473         0     32476         0     32479         0     32482         0
     32485         0     32488         0     32491         0     32494         0
     32497         0     32500         0     32503         0     32506         0
     32509         0     32512         0     32515         0     32518         0
     32521         0     32524         0     32527         0     32530         0
     32533         0     32536         0     32539         0     32542         0
     32545         0     32548         0     32551         0     32554         0
     32557         0     32560         0     32563         0     32566         0
     32569         0     32572         0     32575         0     32578         0
     32581         0     32584         0     32587         0     32590         0
     32593         0     32596         0     32599         0     32602         0
     32605         0     32608         0     32611         0     32614         0
     32617         0     32620         0     32623         0     32626         0
     32629         0     32632         0     32635         0     32638         0
     32641         0     32644         0     32647         0     32650         0
     32653         0     32656         0     32659         0     32662         0
     32665         0     32668         0     32671         0     32674         0
     32677         0     32680         0     32683         0     32686         0
     32689         0     32692         0     32695         0     32698         0
     32701         0     32704         0     32707         0     32710         0
     32713         0     32716         0     32719         0     32722         0
     32725         0     32728         0     32731         0     32734         0
     32737         0     32740         0     32743         0     32746         0
     32749         0     32752         0     32755         0     32758         0
     32761         0     32764         0     32767         0     32770         0
     32773         0     32776         0     32779         0     32782         0
     32785         0     32788         0     32791         0     32794         0
     32797         0     32800         0     32803         0     32806         0
     32809         0     32812         0     32815         0     32818         0
     32821         0     32824         0     32827         0     32830         0
     32833         0     32836         0     32839         0     32842         0
     32845         0     32848         0     32851         0     32854         0
     32857         0     32860         0     32863         0     32866         0
     32869         0     32872         0     32875         0     32878         0
     32881         0     32884         0     32887         0     32890         0
     32893         0     32896         0     32899         0     32902         0
     32905         0     32908         0     32911         0     32914         0
     32917         0     32920         0     32923         0     32926         0
     32929         0     32932         0     32935         0     32938         0
     32941         0     32944         0     32947         0     32950         0
     32953         0     32956         0     32959         0     32962         0
     32965         0     32968         0     32971         0     32974         0
     32977         0     32980         0     32983         0     32986         0
     32989         0     32992         0     32995         0     32998         0
     33001         0     33004         0     33007         0     33010         0
     33013         0     33016         0     33019         0     33022         0
     33025         0     33028         0     33031         0     33034         0
     33037         0     33040         0     33043         0     33046         0
     33049         0     33052         0     33055         0     33058         0
     33061         0     33064         0     33067         0     33070         0
     33073         0     33076         0     33079         0     33082         0
     33085         0     33088         0     33091         0     33094         0
     33097         0     33100         0     33103         0     33106         0
     33109         0     33112         0     33115         0     33118         0
     33121         0     33124         0     33127         0     33130         0
     33133         0     33136         0     33139         0     33142         0
     33145         0     33148         0     33151         0     33154         0
     33157         0     33160         0     33163         0     33166         0
     33169         0     33172         0     33175         0     33178         0
     33181         0     33184         0     33187         0     33190         0
     33193         0     33196         0     33199         0     33202         0
     33205         0     33208         0     33211         0     33214         0
     33217         0     33220         0     33223         0     33226         0
     33229         0     33232         0     33235         0     33238         0
     33241         0     33244         0     33247         0     33250         0
     33253         0     33256         0     33259         0     33262         0
     33265         0     33268         0     33271         0     33274         0
     33277         0     33280         0     33283         0     33286         0
     33289         0     33292         0     33295         0     33298         0
     33301         0     33304         0     33307         0     33310         0
     33313         0     33316         0     33319         0     33322         0
     33325         0     33328         0     33331         0     33334         0
     33337         0     33340         0     33343         0     33346         0
     33349         0     33352         0     33355         0     33358         0
     33361         0     33364         0     33367         0     33370         0
     33373         0     33376         0     33379         0     33382         0
     33385         0     33388         0     33391         0     33394         0
     33397         0     33400         0     33403         0     33406         0
     33409         0     33412         0     33415         0     33418         0
     33421         0     33424         0     33427         0     33430         0
     33433         0     33436         0     33439         0     33442         0
     33445         0     33448         0     33451         0     33454         0
     33457         0     33460         0     33463         0     33466         0
     33469         0     33472         0     33475         0     33478         0
     33481         0     33484         0     33487         0     33490         0
     33493         0     33496         0     33499         0     33502         0
     33505         0     33508         0     33511         0     33514         0
     33517         0     33520         0     33523         0     33526         0
     33529         0     33532         0     33535         0     33538         0
     33541         0     33544         0     33547         0     33550         0
     33553         0     33556         0     33559         0     33562         0
     33565         0     33568         0     33571         0     33574         0
     33577         0     33580         0     33583         0     33586         0
     33589         0     33592         0     33595         0     33598         0
     33601         0     33604         0     33607         0     33610         0
     33613         0     33616         0     33619         0     33622         0
     33625         0     33628         0     33631         0     33634         0
     33637         0     33640         0     33643         0     33646         0
     33649         0     33652         0     33655         0     33658         0
     33661         0     33664         0     33667         0     33670         0
     33673         0     33676         0     33679         0     33682         0
     33685         0     33688         0     33691         0     33694         0
     33697         0     33700         0     33703         0     33706         0
     33709         0     33712         0     33715         0     33718         0
     33721         0     33724         0     33727         0     33730         0
     33733         0     33736         0     33739         0     33742         0
     33745         0     33748         0     33751         0     33754         0
     33757         0     33760         0     33763         0     33766         0
     33769         0     33772         0     33775         0     33778         0
     33781         0     33784         0     33787         0     33790         0
     33793         0     33796         0     33799         0     33802         0
     33805         0     33808         0     33811         0     33814         0
     33817         0     33820         0     33823         0     33826         0
     33829         0     33832         0     33835         0     33838         0
     33841         0     33844         0     33847         0     33850         0
     33853         0     33856         0     33859         0     33862         0
     33865         0     33868         0     33871         0     33874         0
     33877         0     33880         0     33883         0     33886         0
     33889         0     33892         0     33895         0     33898         0
     33901         0     33904         0     33907         0     33910         0
     33913         0     33916         0     33919         0     33922         0
     33925         0     33928         0     33931         0     33934         0
     33937         0     33940         0     33943         0     33946         0
     33949         0     33952         0     33955         0     33958         0
     33961         0     33964         0     33967         0     33970         0
     33973         0     33976         0     33979         0     33982         0
     33985         0     33988         0     33991         0     33994         0
     33997         0     34000         0     34003         0     34006         0
     34009         0     34012         0     34015         0     34018         0
     34021         0     34024         0     34027         0     34030         0
     34033         0     34036         0     34039         0     34042         0
     34045         0     34048         0     34051         0     34054         0
     34057         0     34060         0     34063         0     34066         0
     34069         0     34072         0     34075         0     34078         0
     34081         0     34084         0     34087         0     34090         0
     34093         0     34096         0     34099         0     34102         0
     34105         0     34108         0     34111         0     34114         0
     34117         0     34120         0     34123         0     34126         0
     34129         0     34132         0     34135         0     34138         0
     34141         0     34144         0     34147         0     34150         0
     34153         0     34156         0     34159         0     34162         0
     34165         0     34168         0     34171         0     34174         0
     34177         0     34180         0     34183         0     34186         0
     34189         0     34192         0     34195         0     34198         0
     34201         0     34204         0     34207         0     34210         0
     34213         0     34216         0     34219         0     34222         0
     34225         0     34228         0     34231         0     34234         0
     34237         0     34240         0     34243         0     34246         0
     34249         0     34252         0     34255         0     34258         0
     34261         0     34264         0     34267         0     34270         0
     34273         0     34276         0     34279         0     34282         0
     34285         0     34288         0     34291         0     34294         0
     34297         0     34300         0     34303         0     34306         0
     34309         0     34312         0     34315         0     34318         0
     34321         0     34324         0     34327         0     34330         0
     34333         0     34336         0     34339         0     34342         0
     34345         0     34348         0     34351         0     34354         0
     34357         0     34360         0     34363         0     34366         0
     34369         0     34372         0     34375         0     34378         0
     34381         0     34384         0     34387         0     34390         0
     34393         0     34396         0     34399         0     34402         0
     34405         0     34408         0     34411         0     34414         0
     34417         0     34420         0     34423         0     34426         0
     34429         0     34432         0     34435         0     34438         0
     34441         0     34444         0     34447         0     34450         0
     34453         0     34456         0     34459         0     34462         0
     34465         0     34468         0     34471         0     34474         0
     34477         0     34480         0     34483         0     34486         0
     34489         0     34492         0     34495         0     34498         0
     34501         0     34504         0     34507         0     34510         0
     34513         0     34516         0     34519         0     34522         0
     34525         0     34528         0     34531         0     34534         0
     34537         0     34540         0     34543         0     34546         0
     34549         0     34552         0     34555         0     34558         0
     34561         0     34564         0     34567         0     34570         0
     34573         0     34576         0     34579         0     34582         0
     34585         0     34588         0     34591         0     34594         0
     34597         0     34600         0     34603         0     34606         0
     34609         0     34612         0     34615         0     34618         0
     34621         0     34624         0     34627         0     34630         0
     34633         0     34636         0     34639         0     34642         0
     34645         0     34648         0     34651         0     34654         0
     34657         0     34660         0     34663         0     34666         0
     34669         0     34672         0     34675         0     34678         0
     34681         0     34684         0     34687         0     34690         0
     34693         0     34696         0     34699         0     34702         0
     34705         0     34708         0     34711         0     34714         0
     34717         0     34720         0     34723         0     34726         0
     34729         0     34732         0     34735         0     34738         0
     34741         0     34744         0     34747         0     34750         0
     34753         0     34756         0     34759         0     34762         0
     34765         0     34768         0     34771         0     34774         0
     34777         0     34780         0     34783         0     34786         0
     34789         0     34792         0     34795         0     34798         0
     34801         0     34804         0     34807         0     34810         0
     34813         0     34816         0     34819         0     34822         0
     34825         0     34828         0     34831         0     34834         0
     34837         0     34840         0     34843         0     34846         0
     34849         0     34852         0     34855         0     34858         0
     34861         0     34864         0     34867         0     34870         0
     34873         0     34876         0     34879         0     34882         0
     34885         0     34888         0     34891         0     34894         0
     34897         0     34900         0     34903         0     34906         0
     34909         0     34912         0     34915         0     34918         0
     34921         0     34924         0     34927         0     34930         0
     34933         0     34936         0     34939         0     34942         0
     34945         0     34948         0     34951         0     34954         0
     34957         0     34960         0     34963         0     34966         0
     34969         0     34972         0     34975         0     34978         0
     34981         0     34984         0     34987         0     34990         0
     34993         0     34996         0     34999         0     35002         0
     35005         0     35008         0     35011         0     35014         0
     35017         0     35020         0     35023         0     35026         0
     35029         0     35032         0     35035         0     35038         0
     35041         0     35044         0     35047         0     35050         0
     35053         0     35056         0     35059         0     35062         0
     35065         0     35068         0     35071         0     35074         0
     35077         0     35080         0     35083         0     35086         0
     35089         0     35092         0     35095         0     35098         0
     35101         0     35104         0     35107         0     35110         0
     35113         0     35116         0     35119         0     35122         0
     35125         0     35128         0     35131         0     35134         0
     35137         0     35140         0     35143         0     35146         0
     35149         0     35152         0     35155         0     35158         0
     35161         0     35164         0     35167         0     35170         0
     35173         0     35176         0     35179         0     35182         0
     35185         0     35188         0     35191         0     35194         0
     35197         0     35200         0     35203         0     35206         0
     35209         0     35212         0     35215         0     35218         0
     35221         0     35224         0     35227         0     35230         0
     35233         0     35236         0     35239         0     35242         0
     35245         0     35248         0     35251         0     35254         0
     35257         0     35260         0     35263         0     35266         0
     35269         0     35272         0     35275         0     35278         0
     35281         0     35284         0     35287         0     35290         0
     35293         0     35296         0     35299         0     35302         0
     35305         0     35308         0     35311         0     35314         0
     35317         0     35320         0     35323         0     35326         0
     35329         0     35332         0     35335         0     35338         0
     35341         0     35344         0     35347         0     35350         0
     35353         0     35356         0     35359         0     35362         0
     35365         0     35368         0     35371         0     35374         0
     35377         0     35380         0     35383         0     35386         0
     35389         0     35392         0     35395         0     35398         0
     35401         0     35404         0     35407         0     35410         0
     35413         0     35416         0     35419         0     35422         0
     35425         0     35428         0     35431         0     35434         0
     35437         0     35440         0     35443         0     35446         0
     35449         0     35452         0     35455         0     35458         0
     35461         0     35464         0     35467         0     35470         0
     35473         0     35476         0     35479         0     35482         0
     35485         0     35488         0     35491         0     35494         0
     35497         0     35500         0     35503         0     35506         0
     35509         0     35512         0     35515         0     35518         0
     35521         0     35524         0     35527         0     35530         0
     35533         0     35536         0     35539         0     35542         0
     35545         0     35548         0     35551         0     35554         0
     35557         0     35560         0     35563         0     35566         0
     35569         0     35572         0     35575         0     35578         0
     35581         0     35584         0     35587         0     35590         0
     35593         0     35596         0     35599         0     35602         0
     35605         0     35608         0     35611         0     35614         0
     35617         0     35620         0     35623         0     35626         0
     35629         0     35632         0     35635         0     35638         0
     35641         0     35644         0     35647         0     35650         0
     35653         0     35656         0     35659         0     35662         0
     35665         0     35668         0     35671         0     35674         0
     35677         0     35680         0     35683         0     35686         0
     35689         0     35692         0     35695         0     35698         0
     35701         0     35704         0     35707         0     35710         0
     35713         0     35716         0     35719         0     35722         0
     35725         0     35728         0     35731         0     35734         0
     35737         0     35740         0     35743         0     35746         0
     35749         0     35752         0     35755         0     35758         0
     35761         0     35764         0     35767         0     35770         0
     35773         0     35776         0     35779         0     35782         0
     35785         0     35788         0     35791         0     35794         0
     35797         0     35800         0     35803         0     35806         0
     35809         0     35812         0     35815         0     35818         0
     35821         0     35824         0     35827         0     35830         0
     35833         0     35836         0     35839         0     35842         0
     35845         0     35848         0     35851         0     35854         0
     35857         0     35860         0     35863         0     35866         0
     35869         0     35872         0     35875         0     35878         0
     35881         0     35884         0     35887         0     35890         0
     35893         0     35896         0     35899         0     35902         0
     35905         0     35908         0     35911         0     35914         0
     35917         0     35920         0     35923         0     35926         0
     35929         0     35932         0     35935         0     35938         0
     35941         0     35944         0     35947         0     35950         0
     35953         0     35956         0     35959         0     35962         0
     35965         0     35968         0     35971         0     35974         0
     35977         0     35980         0     35983         0     35986         0
     35989         0     35992         0     35995         0     35998         0
     36001         0     36004         0     36007         0     36010         0
     36013         0     36016         0     36019         0     36022         0
     36025         0     36028         0     36031         0     36034         0
     36037         0     36040         0     36043         0     36046         0
     36049         0     36052         0     36055         0     36058         0
     36061         0     36064         0     36067         0     36070         0
     36073         0     36076         0     36079         0     36082         0
     36085         0     36088         0     36091         0     36094         0
     36097         0     36100         0     36103         0     36106         0
     36109         0     36112         0     36115         0     36118         0
     36121         0     36124         0     36127         0     36130         0
     36133         0     36136         0     36139         0     36142         0
     36145         0     36148         0     36151         0     36154         0
     36157         0     36160         0     36163         0     36166         0
     36169         0     36172         0     36175         0     36178         0
     36181         0     36184         0     36187         0     36190         0
     36193         0     36196         0     36199         0     36202         0
     36205         0     36208         0     36211         0     36214         0
     36217         0     36220         0     36223         0     36226         0
     36229         0     36232         0     36235         0     36238         0
     36241         0     36244         0     36247         0     36250         0
     36253         0     36256         0     36259         0     36262         0
     36265         0     36268         0     36271         0     36274         0
     36277         0     36280         0     36283         0     36286         0
     36289         0     36292         0     36295         0     36298         0
     36301         0     36304         0     36307         0     36310         0
     36313         0     36316         0     36319         0     36322         0
     36325         0     36328         0     36331         0     36334         0
     36337         0     36340         0     36343         0     36346         0
     36349         0     36352         0     36355         0     36358         0
     36361         0     36364         0     36367         0     36370         0
     36373         0     36376         0     36379         0     36382         0
     36385         0     36388         0     36391         0     36394         0
     36397         0     36400         0     36403         0     36406         0
     36409         0     36412         0     36415         0     36418         0
     36421         0     36424         0     36427         0     36430         0
     36433         0     36436         0     36439         0     36442         0
     36445         0     36448         0     36451         0     36454         0
     36457         0     36460         0     36463         0     36466         0
     36469         0     36472         0     36475         0     36478         0
     36481         0     36484         0     36487         0     36490         0
     36493         0     36496         0     36499         0     36502         0
     36505         0     36508         0     36511         0     36514         0
     36517         0     36520         0     36523         0     36526         0
     36529         0     36532         0     36535         0     36538         0
     36541         0     36544         0     36547         0     36550         0
     36553         0     36556         0     36559         0     36562         0
     36565         0     36568         0     36571         0     36574         0
     36577         0     36580         0     36583         0     36586         0
     36589         0     36592         0     36595         0     36598         0
     36601         0     36604         0     36607         0     36610         0
     36613         0     36616         0     36619         0     36622         0
     36625         0     36628         0     36631         0     36634         0
     36637         0     36640         0     36643         0     36646         0
     36649         0     36652         0     36655         0     36658         0
     36661         0     36664         0     36667         0     36670         0
     36673         0     36676         0     36679         0     36682         0
     36685         0     36688         0     36691         0     36694         0
     36697         0     36700         0     36703         0     36706         0
     36709         0     36712         0     36715         0     36718         0
     36721         0     36724         0     36727         0     36730         0
     36733         0     36736         0     36739         0     36742         0
     36745         0     36748         0     36751         0     36754         0
     36757         0     36760         0     36763         0     36766         0
     36769         0     36772         0     36775         0     36778         0
     36781         0     36784         0     36787         0     36790         0
     36793         0     36796         0     36799         0     36802         0
     36805         0     36808         0     36811         0     36814         0
     36817         0     36820         0     36823         0     36826         0
     36829         0     36832         0     36835         0     36838         0
     36841         0     36844         0     36847         0     36850         0
     36853         0     36856         0     36859         0     36862         0
     36865         0     36868         0     36871         0     36874         0
     36877         0     36880         0     36883         0     36886         0
     36889         0     36892         0     36895         0     36898         0
     36901         0     36904         0     36907         0     36910         0
     36913         0     36916         0     36919         0     36922         0
     36925         0     36928         0     36931         0     36934         0
     36937         0     36940         0     36943         0     36946         0
     36949         0     36952         0     36955         0     36958         0
     36961         0     36964         0     36967         0     36970         0
     36973         0     36976         0     36979         0     36982         0
     36985         0     36988         0     36991         0     36994         0
     36997         0     37000         0     37003         0     37006         0
     37009         0     37012         0     37015         0     37018         0
     37021         0     37024         0     37027         0     37030         0
     37033         0     37036         0     37039         0     37042         0
     37045         0     37048         0     37051         0     37054         0
     37057         0     37060         0     37063         0     37066         0
     37069         0     37072         0     37075         0     37078         0
     37081         0     37084         0     37087         0     37090         0
     37093         0     37096         0     37099         0     37102         0
     37105         0     37108         0     37111         0     37114         0
     37117         0     37120         0     37123         0     37126         0
     37129         0     37132         0     37135         0     37138         0
     37141         0     37144         0     37147         0     37150         0
     37153         0     37156         0     37159         0     37162         0
     37165         0     37168         0     37171         0     37174         0
     37177         0     37180         0     37183         0     37186         0
     37189         0     37192         0     37195         0     37198         0
     37201         0     37204         0     37207         0     37210         0
     37213         0     37216         0     37219         0     37222         0
     37225         0     37228         0     37231         0     37234         0
     37237         0     37240         0     37243         0     37246         0
     37249         0     37252         0     37255         0     37258         0
     37261         0     37264         0     37267         0     37270         0
     37273         0     37276         0     37279         0     37282         0
     37285         0     37288         0     37291         0     37294         0
     37297         0     37300         0     37303         0     37306         0
     37309         0     37312         0     37315         0     37318         0
     37321         0     37324         0     37327         0     37330         0
     37333         0     37336         0     37339         0     37342         0
     37345         0     37348         0     37351         0     37354         0
     37357         0     37360         0     37363         0     37366         0
     37369         0     37372         0     37375         0     37378         0
     37381         0     37384         0     37387         0     37390         0
     37393         0     37396         0     37399         0     37402         0
     37405         0     37408         0     37411         0     37414         0
     37417         0     37420         0     37423         0     37426         0
     37429         0     37432         0     37435         0     37438         0
     37441         0     37444         0     37447         0     37450         0
     37453         0     37456         0     37459         0     37462         0
     37465         0     37468         0     37471         0     37474         0
     37477         0     37480         0     37483         0     37486         0
     37489         0     37492         0     37495         0     37498         0
     37501         0     37504         0     37507         0     37510         0
     37513         0     37516         0     37519         0     37522         0
     37525         0     37528         0     37531         0     37534         0
     37537         0     37540         0     37543         0     37546         0
     37549         0     37552         0     37555         0     37558         0
     37561         0     37564         0     37567         0     37570         0
     37573         0     37576         0     37579         0     37582         0
     37585         0     37588         0     37591         0     37594         0
     37597         0     37600         0     37603         0     37606         0
     37609         0     37612         0     37615         0     37618         0
     37621         0     37624         0     37627         0     37630         0
     37633         0     37636         0     37639         0     37642         0
     37645         0     37648         0     37651         0     37654         0
     37657         0     37660         0     37663         0     37666         0
     37669         0     37672         0     37675         0     37678         0
     37681         0     37684         0     37687         0     37690         0
     37693         0     37696         0     37699         0     37702         0
     37705         0     37708         0     37711         0     37714         0
     37717         0     37720         0     37723         0     37726         0
     37729         0     37732         0     37735         0     37738         0
     37741         0     37744         0     37747         0     37750         0
     37753         0     37756         0     37759         0     37762         0
     37765         0     37768         0     37771         0     37774         0
     37777         0     37780         0     37783         0     37786         0
     37789         0     37792         0     37795         0     37798         0
     37801         0     37804         0     37807         0     37810         0
     37813         0     37816         0     37819         0     37822         0
     37825         0     37828         0     37831         0     37834         0
     37837         0     37840         0     37843         0     37846         0
     37849         0     37852         0     37855         0     37858         0
     37861         0     37864         0     37867         0     37870         0
     37873         0     37876         0     37879         0     37882         0
     37885         0     37888         0     37891         0     37894         0
     37897         0     37900         0     37903         0     37906         0
     37909         0     37912         0     37915         0     37918         0
     37921         0     37924         0     37927         0     37930         0
     37933         0     37936         0     37939         0     37942         0
     37945         0     37948         0     37951         0     37954         0
     37957         0     37960         0     37963         0     37966         0
     37969         0     37972         0     37975         0     37978         0
     37981         0     37984         0     37987         0     37990         0
     37993         0     37996         0     37999         0     38002         0
     38005         0     38008         0     38011         0     38014         0
     38017         0     38020         0     38023         0     38026         0
     38029         0     38032         0     38035         0     38038         0
     38041         0     38044         0     38047         0     38050         0
     38053         0     38056         0     38059         0     38062         0
     38065         0     38068         0     38071         0     38074         0
     38077         0     38080         0     38083         0     38086         0
     38089         0     38092         0     38095         0     38098         0
     38101         0     38104         0     38107         0     38110         0
     38113         0     38116         0     38119         0     38122         0
     38125         0     38128         0     38131         0     38134         0
     38137         0     38140         0     38143         0     38146         0
     38149         0     38152         0     38155         0     38158         0
     38161         0     38164         0     38167         0     38170         0
     38173         0     38176         0     38179         0     38182         0
     38185         0     38188         0     38191         0     38194         0
     38197         0     38200         0     38203         0     38206         0
     38209         0     38212         0     38215         0     38218         0
     38221         0     38224         0     38227         0     38230         0
     38233         0     38236         0     38239         0     38242         0
     38245         0     38248         0     38251         0     38254         0
     38257         0     38260         0     38263         0     38266         0
     38269         0     38272         0     38275         0     38278         0
     38281         0     38284         0     38287         0     38290         0
     38293         0     38296         0     38299         0     38302         0
     38305         0     38308         0     38311         0     38314         0
     38317         0     38320         0     38323         0     38326         0
     38329         0     38332         0     38335         0     38338         0
     38341         0     38344         0     38347         0     38350         0
     38353         0     38356         0     38359         0     38362         0
     38365         0     38368         0     38371         0     38374         0
     38377         0     38380         0     38383         0     38386         0
     38389         0     38392         0     38395         0     38398         0
     38401         0     38404         0     38407         0     38410         0
     38413         0     38416         0     38419         0     38422         0
     38425         0     38428         0     38431         0     38434         0
     38437         0     38440         0     38443         0     38446         0
     38449         0     38452         0     38455         0     38458         0
     38461         0     38464         0     38467         0     38470         0
     38473         0     38476         0     38479         0     38482         0
     38485         0     38488         0     38491         0     38494         0
     38497         0     38500         0     38503         0     38506         0
     38509         0     38512         0     38515         0     38518         0
     38521         0     38524         0     38527         0     38530         0
     38533         0     38536         0     38539         0     38542         0
     38545         0     38548         0     38551         0     38554         0
     38557         0     38560         0     38563         0     38566         0
     38569         0     38572         0     38575         0     38578         0
     38581         0     38584         0     38587         0     38590         0
     38593         0     38596         0     38599         0     38602         0
     38605         0     38608         0     38611         0     38614         0
     38617         0     38620         0     38623         0     38626         0
     38629         0     38632         0     38635         0     38638         0
     38641         0     38644         0     38647         0     38650         0
     38653         0     38656         0     38659         0     38662         0
     38665         0     38668         0     38671         0     38674         0
     38677         0     38680         0     38683         0     38686         0
     38689         0     38692         0     38695         0     38698         0
     38701         0     38704         0     38707         0     38710         0
     38713         0     38716         0     38719         0     38722         0
     38725         0     38728         0     38731         0     38734         0
     38737         0     38740         0     38743         0     38746         0
     38749         0     38752         0     38755         0     38758         0
     38761         0     38764         0     38767         0     38770         0
     38773         0     38776         0     38779         0     38782         0
     38785         0     38788         0     38791         0     38794         0
     38797         0     38800         0     38803         0     38806         0
     38809         0     38812         0     38815         0     38818         0
     38821         0     38824         0     38827         0     38830         0
     38833         0     38836         0     38839         0     38842         0
     38845         0     38848         0     38851         0     38854         0
     38857         0     38860         0     38863         0     38866         0
     38869         0     38872         0     38875         0     38878         0
     38881         0     38884         0     38887         0     38890         0
     38893         0     38896         0     38899         0     38902         0
     38905         0     38908         0     38911         0     38914         0
     38917         0     38920         0     38923         0     38926         0
     38929         0     38932         0     38935         0     38938         0
     38941         0     38944         0     38947         0     38950         0
     38953         0     38956         0     38959         0     38962         0
     38965         0     38968         0     38971         0     38974         0
     38977         0     38980         0     38983         0     38986         0
     38989         0     38992         0     38995         0     38998         0
     39001         0     39004         0     39007         0     39010         0
     39013         0     39016         0     39019         0     39022         0
     39025         0     39028         0     39031         0     39034         0
     39037         0     39040         0     39043         0     39046         0
     39049         0     39052         0     39055         0     39058         0
     39061         0     39064         0     39067         0     39070         0
     39073         0     39076         0     39079         0     39082         0
     39085         0     39088         0     39091         0     39094         0
     39097         0     39100         0     39103         0     39106         0
     39109         0     39112         0     39115         0     39118         0
     39121         0     39124         0     39127         0     39130         0
     39133         0     39136         0     39139         0     39142         0
     39145         0     39148         0     39151         0     39154         0
     39157         0     39160         0     39163         0     39166         0
     39169         0     39172         0     39175         0     39178         0
     39181         0     39184         0     39187         0     39190         0
     39193         0     39196         0     39199         0     39202         0
     39205         0     39208         0     39211         0     39214         0
     39217         0     39220         0     39223         0     39226         0
     39229         0     39232         0     39235         0     39238         0
     39241         0     39244         0     39247         0     39250         0
     39253         0     39256         0     39259         0     39262         0
     39265         0     39268         0     39271         0     39274         0
     39277         0     39280         0     39283         0     39286         0
     39289         0     39292         0     39295         0     39298         0
     39301         0     39304         0     39307         0     39310         0
     39313         0     39316         0     39319         0     39322         0
     39325         0     39328         0     39331         0     39334         0
     39337         0     39340         0     39343         0     39346         0
     39349         0     39352         0     39355         0     39358         0
     39361         0     39364         0     39367         0     39370         0
     39373         0     39376         0     39379         0     39382         0
     39385         0     39388         0     39391         0     39394         0
     39397         0     39400         0     39403         0     39406         0
     39409         0     39412         0     39415         0     39418         0
     39421         0     39424         0     39427         0     39430         0
     39433         0     39436         0     39439         0     39442         0
     39445         0     39448         0     39451         0     39454         0
     39457         0     39460         0     39463         0     39466         0
     39469         0     39472         0     39475         0     39478         0
     39481         0     39484         0     39487         0     39490         0
     39493         0     39496         0     39499         0     39502         0
     39505         0     39508         0     39511         0     39514         0
     39517         0     39520         0     39523         0     39526         0
     39529         0     39532         0     39535         0     39538         0
     39541         0     39544         0     39547         0     39550         0
     39553         0     39556         0     39559         0     39562         0
     39565         0     39568         0     39571         0     39574         0
     39577         0     39580         0     39583         0     39586         0
     39589         0     39592         0     39595         0     39598         0
     39601         0     39604         0     39607         0     39610         0
     39613         0     39616         0     39619         0     39622         0
     39625         0     39628         0     39631         0     39634         0
     39637         0     39640         0     39643         0     39646         0
     39649         0     39652         0     39655         0     39658         0
     39661         0     39664         0     39667         0     39670         0
     39673         0     39676         0     39679         0     39682         0
     39685         0     39688         0     39691         0     39694         0
     39697         0     39700         0     39703         0     39706         0
     39709         0     39712         0     39715         0     39718         0
     39721         0     39724         0     39727         0     39730         0
     39733         0     39736         0     39739         0     39742         0
     39745         0     39748         0     39751         0     39754         0
     39757         0     39760         0     39763         0     39766         0
     39769         0     39772         0     39775         0     39778         0
     39781         0     39784         0     39787         0     39790         0
     39793         0     39796         0     39799         0     39802         0
     39805         0     39808         0     39811         0     39814         0
     39817         0     39820         0     39823         0     39826         0
     39829         0     39832         0     39835         0     39838         0
     39841         0     39844         0     39847         0     39850         0
     39853         0     39856         0     39859         0     39862         0
     39865         0     39868         0     39871         0     39874         0
     39877         0     39880         0     39883         0     39886         0
     39889         0     39892         0     39895         0     39898         0
     39901         0     39904         0     39907         0     39910         0
     39913         0     39916         0     39919         0     39922         0
     39925         0     39928         0     39931         0     39934         0
     39937         0     39940         0     39943         0     39946         0
     39949         0     39952         0     39955         0     39958         0
     39961         0     39964         0     39967         0     39970         0
     39973         0     39976         0     39979         0     39982         0
     39985         0     39988         0     39991         0     39994         0
     39997         0     40000         0     40003         0     40006         0
     40009         0     40012         0     40015         0     40018         0
     40021         0     40024         0     40027         0     40030         0
     40033         0     40036         0     40039         0     40042         0
     40045         0     40048         0     40051         0     40054         0
     40057         0     40060         0     40063         0     40066         0
     40069         0     40072         0     40075         0     40078         0
     40081         0     40084         0     40087         0     40090         0
     40093         0     40096         0     40099         0     40102         0
     40105         0     40108         0     40111         0     40114         0
     40117         0     40120         0     40123         0     40126         0
     40129         0     40132         0     40135         0     40138         0
     40141         0     40144         0     40147         0     40150         0
     40153         0     40156         0     40159         0     40162         0
     40165         0     40168         0     40171         0     40174         0
     40177         0     40180         0     40183         0     40186         0
     40189         0     40192         0     40195         0     40198         0
     40201         0     40204         0     40207         0     40210         0
     40213         0     40216         0     40219         0     40222         0
     40225         0     40228         0     40231         0     40234         0
     40237         0     40240         0     40243         0     40246         0
     40249         0     40252         0     40255         0     40258         0
     40261         0     40264         0     40267         0     40270         0
     40273         0     40276         0     40279         0     40282         0
     40285         0     40288         0     40291         0     40294         0
     40297         0     40300         0     40303         0     40306         0
     40309         0     40312         0     40315         0     40318         0
     40321         0     40324         0     40327         0     40330         0
     40333         0     40336         0     40339         0     40342         0
     40345         0     40348         0     40351         0     40354         0
     40357         0     40360         0     40363         0     40366         0
     40369         0     40372         0     40375         0     40378         0
     40381         0     40384         0     40387         0     40390         0
     40393         0     40396         0     40399         0     40402         0
     40405         0     40408         0     40411         0     40414         0
     40417         0     40420         0     40423         0     40426         0
     40429         0     40432         0     40435         0     40438         0
     40441         0     40444         0     40447         0     40450         0
     40453         0     40456         0     40459         0     40462         0
     40465         0     40468         0     40471         0     40474         0
     40477         0     40480         0     40483         0     40486         0
     40489         0     40492         0     40495         0     40498         0
     40501         0     40504         0     40507         0     40510         0
     40513         0     40516         0     40519         0     40522         0
     40525         0     40528         0     40531         0     40534         0
     40537         0     40540         0     40543         0     40546         0
     40549         0     40552         0     40555         0     40558         0
     40561         0     40564         0     40567         0     40570         0
     40573         0     40576         0     40579         0     40582         0
     40585         0     40588         0     40591         0     40594         0
     40597         0     40600         0     40603         0     40606         0
     40609         0     40612         0     40615         0     40618         0
     40621         0     40624         0     40627         0     40630         0
     40633         0     40636         0     40639         0     40642         0
     40645         0     40648         0     40651         0     40654         0
     40657         0     40660         0     40663         0     40666         0
     40669         0     40672         0     40675         0     40678         0
     40681         0     40684         0     40687         0     40690         0
     40693         0     40696         0     40699         0     40702         0
     40705         0     40708         0     40711         0     40714         0
     40717         0     40720         0     40723         0     40726         0
     40729         0     40732         0     40735         0     40738         0
     40741         0     40744         0     40747         0     40750         0
     40753         0     40756         0     40759         0     40762         0
     40765         0     40768         0     40771         0     40774         0
     40777         0     40780         0     40783         0     40786         0
     40789         0     40792         0     40795         0     40798         0
     40801         0     40804         0     40807         0     40810         0
     40813         0     40816         0     40819         0     40822         0
     40825         0     40828         0     40831         0     40834         0
     40837         0     40840         0     40843         0     40846         0
     40849         0     40852         0     40855         0     40858         0
     40861         0     40864         0     40867         0     40870         0
     40873         0     40876         0     40879         0     40882         0
     40885         0     40888         0     40891         0     40894         0
     40897         0     40900         0     40903         0     40906         0
     40909         0     40912         0     40915         0     40918         0
     40921         0     40924         0     40927         0     40930         0
     40933         0     40936         0     40939         0     40942         0
     40945         0     40948         0     40951         0     40954         0
     40957         0     40960         0     40963         0     40966         0
     40969         0     40972         0     40975         0     40978         0
     40981         0     40984         0     40987         0     40990         0
     40993         0     40996         0     40999         0     41002         0
     41005         0     41008         0     41011         0     41014         0
     41017         0     41020         0     41023         0     41026         0
     41029         0     41032         0     41035         0     41038         0
     41041         0     41044         0     41047         0     41050         0
     41053         0     41056         0     41059         0     41062         0
     41065         0     41068         0     41071         0     41074         0
     41077         0     41080         0     41083         0     41086         0
     41089         0     41092         0     41095         0     41098         0
     41101         0     41104         0     41107         0     41110         0
     41113         0     41116         0     41119         0     41122         0
     41125         0     41128         0     41131         0     41134         0
     41137         0     41140         0     41143         0     41146         0
     41149         0     41152         0     41155         0     41158         0
     41161         0     41164         0     41167         0     41170         0
     41173         0     41176         0     41179         0     41182         0
     41185         0     41188         0     41191         0     41194         0
     41197         0     41200         0     41203         0     41206         0
     41209         0     41212         0     41215         0     41218         0
     41221         0     41224         0     41227         0     41230         0
     41233         0     41236         0     41239         0     41242         0
     41245         0     41248         0     41251         0     41254         0
     41257         0     41260         0     41263         0     41266         0
     41269         0     41272         0     41275         0     41278         0
     41281         0     41284         0     41287         0     41290         0
     41293         0     41296         0     41299         0     41302         0
     41305         0     41308         0     41311         0     41314         0
     41317         0     41320         0     41323         0     41326         0
     41329         0     41332         0     41335         0     41338         0
     41341         0     41344         0     41347         0     41350         0
     41353         0     41356         0     41359         0     41362         0
     41365         0     41368         0     41371         0     41374         0
     41377         0     41380         0     41383         0     41386         0
     41389         0     41392         0     41395         0     41398         0
     41401         0     41404         0     41407         0     41410         0
     41413         0     41416         0     41419         0     41422         0
     41425         0     41428         0     41431         0     41434         0
     41437         0     41440         0     41443         0     41446         0
     41449         0     41452         0     41455         0     41458         0
     41461         0     41464         0     41467         0     41470         0
     41473         0     41476         0     41479         0     41482         0
     41485         0     41488         0     41491         0     41494         0
     41497         0     41500         0     41503         0     41506         0
     41509         0     41512         0     41515         0     41518         0
     41521         0     41524         0     41527         0     41530         0
     41533         0     41536         0     41539         0     41542         0
     41545         0     41548         0     41551         0     41554         0
     41557         0     41560         0     41563         0     41566         0
     41569         0     41572         0     41575         0     41578         0
     41581         0     41584         0     41587         0     41590         0
     41593         0     41596         0     41599         0     41602         0
     41605         0     41608         0     41611         0     41614         0
     41617         0     41620         0     41623         0     41626         0
     41629         0     41632         0     41635         0     41638         0
     41641         0     41644         0     41647         0     41650         0
     41653         0     41656         0     41659         0     41662         0
     41665         0     41668         0     41671         0     41674         0
     41677         0     41680         0     41683         0     41686         0
     41689         0     41692         0     41695         0     41698         0
     41701         0     41704         0     41707         0     41710         0
     41713         0     41716         0     41719         0     41722         0
     41725         0     41728         0     41731         0     41734         0
     41737         0     41740         0     41743         0     41746         0
     41749         0     41752         0     41755         0     41758         0
     41761         0     41764         0     41767         0     41770         0
     41773         0     41776         0     41779         0     41782         0
     41785         0     41788         0     41791         0     41794         0
     41797         0     41800         0     41803         0     41806         0
     41809         0     41812         0     41815         0     41818         0
     41821         0     41824         0     41827         0     41830         0
     41833         0     41836         0     41839         0     41842         0
     41845         0     41848         0     41851         0     41854         0
     41857         0     41860         0     41863         0     41866         0
     41869         0     41872         0     41875         0     41878         0
     41881         0     41884         0     41887         0     41890         0
     41893         0     41896         0     41899         0     41902         0
     41905         0     41908         0     41911         0     41914         0
     41917         0     41920         0     41923         0     41926         0
     41929         0     41932         0     41935         0     41938         0
     41941         0     41944         0     41947         0     41950         0
     41953         0     41956         0     41959         0     41962         0
     41965         0     41968         0     41971         0     41974         0
     41977         0     41980         0     41983         0     41986         0
     41989         0     41992         0     41995         0     41998         0
     42001         0     42004         0     42007         0     42010         0
     42013         0     42016         0     42019         0     42022         0
     42025         0     42028         0     42031         0     42034         0
     42037         0     42040         0     42043         0     42046         0
     42049         0     42052         0     42055         0     42058         0
     42061         0     42064         0     42067         0     42070         0
     42073         0     42076         0     42079         0     42082         0
     42085         0     42088         0     42091         0     42094         0
     42097         0     42100         0     42103         0     42106         0
     42109         0     42112         0     42115         0     42118         0
     42121         0     42124         0     42127         0     42130         0
     42133         0     42136         0     42139         0     42142         0
     42145         0     42148         0     42151         0     42154         0
     42157         0     42160         0     42163         0     42166         0
     42169         0     42172         0     42175         0     42178         0
     42181         0     42184         0     42187         0     42190         0
     42193         0     42196         0     42199         0     42202         0
     42205         0     42208         0     42211         0     42214         0
     42217         0     42220         0     42223         0     42226         0
     42229         0     42232         0     42235         0     42238         0
     42241         0     42244         0     42247         0     42250         0
     42253         0     42256         0     42259         0     42262         0
     42265         0     42268         0     42271         0     42274         0
     42277         0     42280         0     42283         0     42286         0
     42289         0     42292         0     42295         0     42298         0
     42301         0     42304         0     42307         0     42310         0
     42313         0     42316         0     42319         0     42322         0
     42325         0     42328         0     42331         0     42334         0
     42337         0     42340         0     42343         0     42346         0
     42349         0     42352         0     42355         0     42358         0
     42361         0     42364         0     42367         0     42370         0
     42373         0     42376         0     42379         0     42382         0
     42385         0     42388         0     42391         0     42394         0
     42397         0     42400         0     42403         0     42406         0
     42409         0     42412         0     42415         0     42418         0
     42421         0     42424         0     42427         0     42430         0
     42433         0     42436         0     42439         0     42442         0
     42445         0     42448         0     42451         0     42454         0
     42457         0     42460         0     42463         0     42466         0
     42469         0     42472         0     42475         0     42478         0
     42481         0     42484         0     42487         0     42490         0
     42493         0     42496         0     42499         0     42502         0
     42505         0     42508         0     42511         0     42514         0
     42517         0     42520         0     42523         0     42526         0
     42529         0     42532         0     42535         0     42538         0
     42541         0     42544         0     42547         0     42550         0
     42553         0     42556         0     42559         0     42562         0
     42565         0     42568         0     42571         0     42574         0
     42577         0     42580         0     42583         0     42586         0
     42589         0     42592         0     42595         0     42598         0
     42601         0     42604         0     42607         0     42610         0
     42613         0     42616         0     42619         0     42622         0
     42625         0     42628         0     42631         0     42634         0
     42637         0     42640         0     42643         0     42646         0
     42649         0     42652         0     42655         0     42658         0
     42661         0     42664         0     42667         0     42670         0
     42673         0     42676         0     42679         0     42682         0
     42685         0     42688         0     42691         0     42694         0
     42697         0     42700         0     42703         0     42706         0
     42709         0     42712         0     42715         0     42718         0
     42721         0     42724         0     42727         0     42730         0
     42733         0     42736         0     42739         0     42742         0
     42745         0     42748         0     42751         0     42754         0
     42757         0     42760         0     42763         0     42766         0
     42769         0     42772         0     42775         0     42778         0
     42781         0     42784         0     42787         0     42790         0
     42793         0     42796         0     42799         0     42802         0
     42805         0     42808         0     42811         0     42814         0
     42817         0     42820         0     42823         0     42826         0
     42829         0     42832         0     42835         0     42838         0
     42841         0     42844         0     42847         0     42850         0
     42853         0     42856         0     42859         0     42862         0
     42865         0     42868         0     42871         0     42874         0
     42877         0     42880         0     42883         0     42886         0
     42889         0     42892         0     42895         0     42898         0
     42901         0     42904         0     42907         0     42910         0
     42913         0     42916         0     42919         0     42922         0
     42925         0     42928         0     42931         0     42934         0
     42937         0     42940         0     42943         0     42946         0
     42949         0     42952         0     42955         0     42958         0
     42961         0     42964         0     42967         0     42970         0
     42973         0     42976         0     42979         0     42982         0
     42985         0     42988         0     42991         0     42994         0
     42997         0     43000         0     43003         0     43006         0
     43009         0     43012         0     43015         0     43018         0
     43021         0     43024         0     43027         0     43030         0
     43033         0     43036         0     43039         0     43042         0
     43045         0     43048         0     43051         0     43054         0
     43057         0     43060         0     43063         0     43066         0
     43069         0     43072         0     43075         0     43078         0
     43081         0     43084         0     43087         0     43090         0
     43093         0     43096         0     43099         0     43102         0
     43105         0     43108         0     43111         0     43114         0
     43117         0     43120         0     43123         0     43126         0
     43129         0     43132         0     43135         0     43138         0
     43141         0     43144         0     43147         0     43150         0
     43153         0     43156         0     43159         0     43162         0
     43165         0     43168         0     43171         0     43174         0
     43177         0     43180         0     43183         0     43186         0
     43189         0     43192         0     43195         0     43198         0
     43201         0     43204         0     43207         0     43210         0
     43213         0     43216         0     43219         0     43222         0
     43225         0     43228         0     43231         0     43234         0
     43237         0     43240         0     43243         0     43246         0
     43249         0     43252         0     43255         0     43258         0
     43261         0     43264         0     43267         0     43270         0
     43273         0     43276         0     43279         0     43282         0
     43285         0     43288         0     43291         0     43294         0
     43297         0     43300         0     43303         0     43306         0
     43309         0     43312         0     43315         0     43318         0
     43321         0     43324         0     43327         0     43330         0
     43333         0     43336         0     43339         0     43342         0
     43345         0     43348         0     43351         0     43354         0
     43357         0     43360         0     43363         0     43366         0
     43369         0     43372         0     43375         0     43378         0
     43381         0     43384         0     43387         0     43390         0
     43393         0     43396         0     43399         0     43402         0
     43405         0     43408         0     43411         0     43414         0
     43417         0     43420         0     43423         0     43426         0
     43429         0     43432         0     43435         0     43438         0
     43441         0     43444         0     43447         0     43450         0
     43453         0     43456         0     43459         0     43462         0
     43465         0     43468         0     43471         0     43474         0
     43477         0     43480         0     43483         0     43486         0
     43489         0     43492         0     43495         0     43498         0
     43501         0     43504         0     43507         0     43510         0
     43513         0     43516         0     43519         0     43522         0
     43525         0     43528         0     43531         0     43534         0
     43537         0     43540         0     43543         0     43546         0
     43549         0     43552         0     43555         0     43558         0
     43561         0     43564         0     43567         0     43570         0
     43573         0     43576         0     43579         0     43582         0
     43585         0     43588         0     43591         0     43594         0
     43597         0     43600         0     43603         0     43606         0
     43609         0     43612         0     43615         0     43618         0
     43621         0     43624         0     43627         0     43630         0
     43633         0     43636         0     43639         0     43642         0
     43645         0     43648         0     43651         0     43654         0
     43657         0     43660         0     43663         0     43666         0
     43669         0     43672         0     43675         0     43678         0
     43681         0     43684         0     43687         0     43690         0
     43693         0     43696         0     43699         0     43702         0
     43705         0     43708         0     43711         0     43714         0
     43717         0     43720         0     43723         0     43726         0
     43729         0     43732         0     43735         0     43738         0
     43741         0     43744         0     43747         0     43750         0
     43753         0     43756         0     43759         0     43762         0
     43765         0     43768         0     43771         0     43774         0
     43777         0     43780         0     43783         0     43786         0
     43789         0     43792         0     43795         0     43798         0
     43801         0     43804         0     43807         0     43810         0
     43813         0     43816         0     43819         0     43822         0
     43825         0     43828         0     43831         0     43834         0
     43837         0     43840         0     43843         0     43846         0
     43849         0     43852         0     43855         0     43858         0
     43861         0     43864         0     43867         0     43870         0
     43873         0     43876         0     43879         0     43882         0
     43885         0     43888         0     43891         0     43894         0
     43897         0     43900         0     43903         0     43906         0
     43909         0     43912         0     43915         0     43918         0
     43921         0     43924         0     43927         0     43930         0
     43933         0     43936         0     43939         0     43942         0
     43945         0     43948         0     43951         0     43954         0
     43957         0     43960         0     43963         0     43966         0
     43969         0     43972         0     43975         0     43978         0
     43981         0     43984         0     43987         0     43990         0
     43993         0     43996         0     43999         0     44002         0
     44005         0     44008         0     44011         0     44014         0
     44017         0     44020         0     44023         0     44026         0
     44029         0     44032         0     44035         0     44038         0
     44041         0     44044         0     44047         0     44050         0
     44053         0     44056         0     44059         0     44062         0
     44065         0     44068         0     44071         0     44074         0
     44077         0     44080         0     44083         0     44086         0
     44089         0     44092         0     44095         0     44098         0
     44101         0     44104         0     44107         0     44110         0
     44113         0     44116         0     44119         0     44122         0
     44125         0     44128         0     44131         0     44134         0
     44137         0     44140         0     44143         0     44146         0
     44149         0     44152         0     44155         0     44158         0
     44161         0     44164         0     44167         0     44170         0
     44173         0     44176         0     44179         0     44182         0
     44185         0     44188         0     44191         0     44194         0
     44197         0     44200         0     44203         0     44206         0
     44209         0     44212         0     44215         0     44218         0
     44221         0     44224         0     44227         0     44230         0
     44233         0     44236         0     44239         0     44242         0
     44245         0     44248         0     44251         0     44254         0
     44257         0     44260         0     44263         0     44266         0
     44269         0     44272         0     44275         0     44278         0
     44281         0     44284         0     44287         0     44290         0
     44293         0     44296         0     44299         0     44302         0
     44305         0     44308         0     44311         0     44314         0
     44317         0     44320         0     44323         0     44326         0
     44329         0     44332         0     44335         0     44338         0
     44341         0     44344         0     44347         0     44350         0
     44353         0     44356         0     44359         0     44362         0
     44365         0     44368         0     44371         0     44374         0
     44377         0     44380         0     44383         0     44386         0
     44389         0     44392         0     44395         0     44398         0
     44401         0     44404         0     44407         0     44410         0
     44413         0     44416         0     44419         0     44422         0
     44425         0     44428         0     44431         0     44434         0
     44437         0     44440         0     44443         0     44446         0
     44449         0     44452         0     44455         0     44458         0
     44461         0     44464         0     44467         0     44470         0
     44473         0     44476         0     44479         0     44482         0
     44485         0     44488         0     44491         0     44494         0
     44497         0     44500         0     44503         0     44506         0
     44509         0     44512         0     44515         0     44518         0
     44521         0     44524         0     44527         0     44530         0
     44533         0     44536         0     44539         0     44542         0
     44545         0     44548         0     44551         0     44554         0
     44557         0     44560         0     44563         0     44566         0
     44569         0     44572         0     44575         0     44578         0
     44581         0     44584         0     44587         0     44590         0
     44593         0     44596         0     44599         0     44602         0
     44605         0     44608         0     44611         0     44614         0
     44617         0     44620         0     44623         0     44626         0
     44629         0     44632         0     44635         0     44638         0
     44641         0     44644         0     44647         0     44650         0
     44653         0     44656         0     44659         0     44662         0
     44665         0     44668         0     44671         0     44674         0
     44677         0     44680         0     44683         0     44686         0
     44689         0     44692         0     44695         0     44698         0
     44701         0     44704         0     44707         0     44710         0
     44713         0     44716         0     44719         0     44722         0
     44725         0     44728         0     44731         0     44734         0
     44737         0     44740         0     44743         0     44746         0
     44749         0     44752         0     44755         0     44758         0
     44761         0     44764         0     44767         0     44770         0
     44773         0     44776         0     44779         0     44782         0
     44785         0     44788         0     44791         0     44794         0
     44797         0     44800         0     44803         0     44806         0
     44809         0     44812         0     44815         0     44818         0
     44821         0     44824         0     44827         0     44830         0
     44833         0     44836         0     44839         0     44842         0
     44845         0     44848         0     44851         0     44854         0
     44857         0     44860         0     44863         0     44866         0
     44869         0     44872         0     44875         0     44878         0
     44881         0     44884         0     44887         0     44890         0
     44893         0     44896         0     44899         0     44902         0
     44905         0     44908         0     44911         0     44914         0
     44917         0     44920         0     44923         0     44926         0
     44929         0     44932         0     44935         0     44938         0
     44941         0     44944         0     44947         0     44950         0
     44953         0     44956         0     44959         0     44962         0
     44965         0     44968         0     44971         0     44974         0
     44977         0     44980         0     44983         0     44986         0
     44989         0     44992         0     44995         0     44998         0
     45001         0     45004         0     45007         0     45010         0
     45013         0     45016         0     45019         0     45022         0
     45025         0     45028         0     45031         0     45034         0
     45037         0     45040         0     45043         0     45046         0
     45049         0     45052         0     45055         0     45058         0
     45061         0     45064         0     45067         0     45070         0
     45073         0     45076         0     45079         0     45082         0
     45085         0     45088         0     45091         0     45094         0
     45097         0     45100         0     45103         0     45106         0
     45109         0     45112         0     45115         0     45118         0
     45121         0     45124         0     45127         0     45130         0
     45133         0     45136         0     45139         0     45142         0
     45145         0     45148         0     45151         0     45154         0
     45157         0     45160         0     45163         0     45166         0
     45169         0     45172         0     45175         0     45178         0
     45181         0     45184         0     45187         0     45190         0
     45193         0     45196         0     45199         0     45202         0
     45205         0     45208         0     45211         0     45214         0
     45217         0     45220         0     45223         0     45226         0
     45229         0     45232         0     45235         0     45238         0
     45241         0     45244         0     45247         0     45250         0
     45253         0     45256         0     45259         0     45262         0
     45265         0     45268         0     45271         0     45274         0
     45277         0     45280         0     45283         0     45286         0
     45289         0     45292         0     45295         0     45298         0
     45301         0     45304         0     45307         0     45310         0
     45313         0     45316         0     45319         0     45322         0
     45325         0     45328         0     45331         0     45334         0
     45337         0     45340         0     45343         0     45346         0
     45349         0     45352         0     45355         0     45358         0
     45361         0     45364         0     45367         0     45370         0
     45373         0     45376         0     45379         0     45382         0
     45385         0     45388         0     45391         0     45394         0
     45397         0     45400         0     45403         0     45406         0
     45409         0     45412         0     45415         0     45418         0
     45421         0     45424         0     45427         0     45430         0
     45433         0     45436         0     45439         0     45442         0
     45445         0     45448         0     45451         0     45454         0
     45457         0     45460         0     45463         0     45466         0
     45469         0     45472         0     45475         0     45478         0
     45481         0     45484         0     45487         0     45490         0
     45493         0     45496         0     45499         0     45502         0
     45505         0     45508         0     45511         0     45514         0
     45517         0     45520         0     45523         0     45526         0
     45529         0     45532         0     45535         0     45538         0
     45541         0     45544         0     45547         0     45550         0
     45553         0     45556         0     45559         0     45562         0
     45565         0     45568         0     45571         0     45574         0
     45577         0     45580         0     45583         0     45586         0
     45589         0     45592         0     45595         0     45598         0
     45601         0     45604         0     45607         0     45610         0
     45613         0     45616         0     45619         0     45622         0
     45625         0     45628         0     45631         0     45634         0
     45637         0     45640         0     45643         0     45646         0
     45649         0     45652         0     45655         0     45658         0
     45661         0     45664         0     45667         0     45670         0
     45673         0     45676         0     45679         0     45682         0
     45685         0     45688         0     45691         0     45694         0
     45697         0     45700         0     45703         0     45706         0
     45709         0     45712         0     45715         0     45718         0
     45721         0     45724         0     45727         0     45730         0
     45733         0     45736         0     45739         0     45742         0
     45745         0     45748         0     45751         0     45754         0
     45757         0     45760         0     45763         0     45766         0
     45769         0     45772         0     45775         0     45778         0
     45781         0     45784         0     45787         0     45790         0
     45793         0     45796         0     45799         0     45802         0
     45805         0     45808         0     45811         0     45814         0
     45817         0     45820         0     45823         0     45826         0
     45829         0     45832         0     45835         0     45838         0
     45841         0     45844         0     45847         0     45850         0
     45853         0     45856         0     45859         0     45862         0
     45865         0     45868         0     45871         0     45874         0
     45877         0     45880         0     45883         0     45886         0
     45889         0     45892         0     45895         0     45898         0
     45901         0     45904         0     45907         0     45910         0
     45913         0     45916         0     45919         0     45922         0
     45925         0     45928         0     45931         0     45934         0
     45937         0     45940         0     45943         0     45946         0
     45949         0     45952         0     45955         0     45958         0
     45961         0     45964         0     45967         0     45970         0
     45973         0     45976         0     45979         0     45982         0
     45985         0     45988         0     45991         0     45994         0
     45997         0     46000         0     46003         0     46006         0
     46009         0     46012         0     46015         0     46018         0
     46021         0     46024         0     46027         0     46030         0
     46033         0     46036         0     46039         0     46042         0
     46045         0     46048         0     46051         0     46054         0
     46057         0     46060         0     46063         0     46066         0
     46069         0     46072         0     46075         0     46078         0
     46081         0     46084         0     46087         0     46090         0
     46093         0     46096         0     46099         0     46102         0
     46105         0     46108         0     46111         0     46114         0
     46117         0     46120         0     46123         0     46126         0
     46129         0     46132         0     46135         0     46138         0
     46141         0     46144         0     46147         0     46150         0
     46153         0     46156         0     46159         0     46162         0
     46165         0     46168         0     46171         0     46174         0
     46177         0     46180         0     46183         0     46186         0
     46189         0     46192         0     46195         0     46198         0
     46201         0     46204         0     46207         0     46210         0
     46213         0     46216         0     46219         0     46222         0
     46225         0     46228         0     46231         0     46234         0
     46237         0     46240         0     46243         0     46246         0
     46249         0     46252         0     46255         0     46258         0
     46261         0     46264         0     46267         0     46270         0
     46273         0     46276         0     46279         0     46282         0
     46285         0     46288         0     46291         0     46294         0
     46297         0     46300         0     46303         0     46306         0
     46309         0     46312         0     46315         0     46318         0
     46321         0     46324         0     46327         0     46330         0
     46333         0     46336         0     46339         0     46342         0
     46345         0     46348         0     46351         0     46354         0
     46357         0     46360         0     46363         0     46366         0
     46369         0     46372         0     46375         0     46378         0
     46381         0     46384         0     46387         0     46390         0
     46393         0     46396         0     46399         0     46402         0
     46405         0     46408         0     46411         0     46414         0
     46417         0     46420         0     46423         0     46426         0
     46429         0     46432         0     46435         0     46438         0
     46441         0     46444         0     46447         0     46450         0
     46453         0     46456         0     46459         0     46462         0
     46465         0     46468         0     46471         0     46474         0
     46477         0     46480         0     46483         0     46486         0
     46489         0     46492         0     46495         0     46498         0
     46501         0     46504         0     46507         0     46510         0
     46513         0     46516         0     46519         0     46522         0
     46525         0     46528         0     46531         0     46534         0
     46537         0     46540         0     46543         0     46546         0
     46549         0     46552         0     46555         0     46558         0
     46561         0     46564         0     46567         0     46570         0
     46573         0     46576         0     46579         0     46582         0
     46585         0     46588         0     46591         0     46594         0
     46597         0     46600         0     46603         0     46606         0
     46609         0     46612         0     46615         0     46618         0
     46621         0     46624         0     46627         0     46630         0
     46633         0     46636         0     46639         0     46642         0
     46645         0     46648         0     46651         0     46654         0
     46657         0     46660         0     46663         0     46666         0
     46669         0     46672         0     46675         0     46678         0
     46681         0     46684         0     46687         0     46690         0
     46693         0     46696         0     46699         0     46702         0
     46705         0     46708         0     46711         0     46714         0
     46717         0     46720         0     46723         0     46726         0
     46729         0     46732         0     46735         0     46738         0
     46741         0     46744         0     46747         0     46750         0
     46753         0     46756         0     46759         0     46762         0
     46765         0     46768         0     46771         0     46774         0
     46777         0     46780         0     46783         0     46786         0
     46789         0     46792         0     46795         0     46798         0
     46801         0     46804         0     46807         0     46810         0
     46813         0     46816         0     46819         0     46822         0
     46825         0     46828         0     46831         0     46834         0
     46837         0     46840         0     46843         0     46846         0
     46849         0     46852         0     46855         0     46858         0
     46861         0     46864         0     46867         0     46870         0
     46873         0     46876         0     46879         0     46882         0
     46885         0     46888         0     46891         0     46894         0
     46897         0     46900         0     46903         0     46906         0
     46909         0     46912         0     46915         0     46918         0
     46921         0     46924         0     46927         0     46930         0
     46933         0     46936         0     46939         0     46942         0
     46945         0     46948         0     46951         0     46954         0
     46957         0     46960         0     46963         0     46966         0
     46969         0     46972         0     46975         0     46978         0
     46981         0     46984         0     46987         0     46990         0
     46993         0     46996         0     46999         0     47002         0
     47005         0     47008         0     47011         0     47014         0
     47017         0     47020         0     47023         0     47026         0
     47029         0     47032         0     47035         0     47038         0
     47041         0     47044         0     47047         0     47050         0
     47053         0     47056         0     47059         0     47062         0
     47065         0     47068         0     47071         0     47074         0
     47077         0     47080         0     47083         0     47086         0
     47089         0     47092         0     47095         0     47098         0
     47101         0     47104         0     47107         0     47110         0
     47113         0     47116         0     47119         0     47122         0
     47125         0     47128         0     47131         0     47134         0
     47137         0     47140         0     47143         0     47146         0
     47149         0     47152         0     47155         0     47158         0
     47161         0     47164         0     47167         0     47170         0
     47173         0     47176         0     47179         0     47182         0
     47185         0     47188         0     47191         0     47194         0
     47197         0     47200         0     47203         0     47206         0
     47209         0     47212         0     47215         0     47218         0
     47221         0     47224         0     47227         0     47230         0
     47233         0     47236         0     47239         0     47242         0
     47245         0     47248         0     47251         0     47254         0
     47257         0     47260         0     47263         0     47266         0
     47269         0     47272         0     47275         0     47278         0
     47281         0     47284         0     47287         0     47290         0
     47293         0     47296         0     47299         0     47302         0
     47305         0     47308         0     47311         0     47314         0
     47317         0     47320         0     47323         0     47326         0
     47329         0     47332         0     47335         0     47338         0
     47341         0     47344         0     47347         0     47350         0
     47353         0     47356         0     47359         0     47362         0
     47365         0     47368         0     47371         0     47374         0
     47377         0     47380         0     47383         0     47386         0
     47389         0     47392         0     47395         0     47398         0
     47401         0     47404         0     47407         0     47410         0
     47413         0     47416         0     47419         0     47422         0
     47425         0     47428         0     47431         0     47434         0
     47437         0     47440         0     47443         0     47446         0
     47449         0     47452         0     47455         0     47458         0
     47461         0     47464         0     47467         0     47470         0
     47473         0     47476         0     47479         0     47482         0
     47485         0     47488         0     47491         0     47494         0
     47497         0     47500         0     47503         0     47506         0
     47509         0     47512         0     47515         0     47518         0
     47521         0     47524         0     47527         0     47530         0
     47533         0     47536         0     47539         0     47542         0
     47545         0     47548         0     47551         0     47554         0
     47557         0     47560         0     47563         0     47566         0
     47569         0     47572         0     47575         0     47578         0
     47581         0     47584         0     47587         0     47590         0
     47593         0     47596         0     47599         0     47602         0
     47605         0     47608         0     47611         0     47614         0
     47617         0     47620         0     47623         0     47626         0
     47629         0     47632         0     47635         0     47638         0
     47641         0     47644         0     47647         0     47650         0
     47653         0     47656         0     47659         0     47662         0
     47665         0     47668         0     47671         0     47674         0
     47677         0     47680         0     47683         0     47686         0
     47689         0     47692         0     47695         0     47698         0
     47701         0     47704         0     47707         0     47710         0
     47713         0     47716         0     47719         0     47722         0
     47725         0     47728         0     47731         0     47734         0
     47737         0     47740         0     47743         0     47746         0
     47749         0     47752         0     47755         0     47758         0
     47761         0     47764         0     47767         0     47770         0
     47773         0     47776         0     47779         0     47782         0
     47785         0     47788         0     47791         0     47794         0
     47797         0     47800         0     47803         0     47806         0
     47809         0     47812         0     47815         0     47818         0
     47821         0     47824         0     47827         0     47830         0
     47833         0     47836         0     47839         0     47842         0
     47845         0     47848         0     47851         0     47854         0
     47857         0     47860         0     47863         0     47866         0
     47869         0     47872         0     47875         0     47878         0
     47881         0     47884         0     47887         0     47890         0
     47893         0     47896         0     47899         0     47902         0
     47905         0     47908         0     47911         0     47914         0
     47917         0     47920         0     47923         0     47926         0
     47929         0     47932         0     47935         0     47938         0
     47941         0     47944         0     47947         0     47950         0
     47953         0     47956         0     47959         0     47962         0
     47965         0     47968         0     47971         0     47974         0
     47977         0     47980         0     47983         0     47986         0
     47989         0     47992         0     47995         0     47998         0
     48001         0     48004         0     48007         0     48010         0
     48013         0     48016         0     48019         0     48022         0
     48025         0     48028         0     48031         0     48034         0
     48037         0     48040         0     48043         0     48046         0
     48049         0     48052         0     48055         0     48058         0
     48061         0     48064         0     48067         0     48070         0
     48073         0     48076         0     48079         0     48082         0
     48085         0     48088         0     48091         0     48094         0
     48097         0     48100         0     48103         0     48106         0
     48109         0     48112         0     48115         0     48118         0
     48121         0     48124         0     48127         0     48130         0
     48133         0     48136         0     48139         0     48142         0
     48145         0     48148         0     48151         0     48154         0
     48157         0     48160         0     48163         0     48166         0
     48169         0     48172         0     48175         0     48178         0
     48181         0     48184         0     48187         0     48190         0
     48193         0     48196         0     48199         0     48202         0
     48205         0     48208         0     48211         0     48214         0
     48217         0     48220         0     48223         0     48226         0
     48229         0     48232         0     48235         0     48238         0
     48241         0     48244         0     48247         0     48250         0
     48253         0     48256         0     48259         0     48262         0
     48265         0     48268         0     48271         0     48274         0
     48277         0     48280         0     48283         0     48286         0
     48289         0     48292         0     48295         0     48298         0
     48301         0     48304         0     48307         0     48310         0
     48313         0     48316         0     48319         0     48322         0
     48325         0     48328         0     48331         0     48334         0
     48337         0     48340         0     48343         0     48346         0
     48349         0     48352         0     48355         0     48358         0
     48361         0     48364         0     48367         0     48370         0
     48373         0     48376         0     48379         0     48382         0
     48385         0     48388         0     48391         0     48394         0
     48397         0     48400         0     48403         0     48406         0
     48409         0     48412         0     48415         0     48418         0
     48421         0     48424         0     48427         0     48430         0
     48433         0     48436         0     48439         0     48442         0
     48445         0     48448         0     48451         0     48454         0
     48457         0     48460         0     48463         0     48466         0
     48469         0     48472         0     48475         0     48478         0
     48481         0     48484         0     48487         0     48490         0
     48493         0     48496         0     48499         0     48502         0
     48505         0     48508         0     48511         0     48514         0
     48517         0     48520         0     48523         0     48526         0
     48529         0     48532         0     48535         0     48538         0
     48541         0     48544         0     48547         0     48550         0
     48553         0     48556         0     48559         0     48562         0
     48565         0     48568         0     48571         0     48574         0
     48577         0     48580         0     48583         0     48586         0
     48589         0     48592         0     48595         0     48598         0
     48601         0     48604         0     48607         0     48610         0
     48613         0     48616         0     48619         0     48622         0
     48625         0     48628         0     48631         0     48634         0
     48637         0     48640         0     48643         0     48646         0
     48649         0     48652         0     48655         0     48658         0
     48661         0     48664         0     48667         0     48670         0
     48673         0     48676         0     48679         0     48682         0
     48685         0     48688         0     48691         0     48694         0
     48697         0     48700         0     48703         0     48706         0
     48709         0     48712         0     48715         0     48718         0
     48721         0     48724         0     48727         0     48730         0
     48733         0     48736         0     48739         0     48742         0
     48745         0     48748         0     48751         0     48754         0
     48757         0     48760         0     48763         0     48766         0
     48769         0     48772         0     48775         0     48778         0
     48781         0     48784         0     48787         0     48790         0
     48793         0     48796         0     48799         0     48802         0
     48805         0     48808         0     48811         0     48814         0
     48817         0     48820         0     48823         0     48826         0
     48829         0     48832         0     48835         0     48838         0
     48841         0     48844         0     48847         0     48850         0
     48853         0     48856         0     48859         0     48862         0
     48865         0     48868         0     48871         0     48874         0
     48877         0     48880         0     48883         0     48886         0
     48889         0     48892         0     48895         0     48898         0
     48901         0     48904         0     48907         0     48910         0
     48913         0     48916         0     48919         0     48922         0
     48925         0     48928         0     48931         0     48934         0
     48937         0     48940         0     48943         0     48946         0
     48949         0     48952         0     48955         0     48958         0
     48961         0     48964         0     48967         0     48970         0
     48973         0     48976         0     48979         0     48982         0
     48985         0     48988         0     48991         0     48994         0
     48997         0     49000         0     49003         0     49006         0
     49009         0     49012         0     49015         0     49018         0
     49021         0     49024         0     49027         0     49030         0
     49033         0     49036         0     49039         0     49042         0
     49045         0     49048         0     49051         0     49054         0
     49057         0     49060         0     49063         0     49066         0
     49069         0     49072         0     49075         0     49078         0
     49081         0     49084         0     49087         0     49090         0
     49093         0     49096         0     49099         0     49102         0
     49105         0     49108         0     49111         0     49114         0
     49117         0     49120         0     49123         0     49126         0
     49129         0     49132         0     49135         0     49138         0
     49141         0     49144         0     49147         0     49150         0
     49153         0     49156         0     49159         0     49162         0
     49165         0     49168         0     49171         0     49174         0
     49177         0     49180         0     49183         0     49186         0
     49189         0     49192         0     49195         0     49198         0
     49201         0     49204         0     49207         0     49210         0
     49213         0     49216         0     49219         0     49222         0
     49225         0     49228         0     49231         0     49234         0
     49237         0     49240         0     49243         0     49246         0
     49249         0     49252         0     49255         0     49258         0
     49261         0     49264         0     49267         0     49270         0
     49273         0     49276         0     49279         0     49282         0
     49285         0     49288         0     49291         0     49294         0
     49297         0     49300         0     49303         0     49306         0
     49309         0     49312         0     49315         0     49318         0
     49321         0     49324         0     49327         0     49330         0
     49333         0     49336         0     49339         0     49342         0
     49345         0     49348         0     49351         0     49354         0
     49357         0     49360         0     49363         0     49366         0
     49369         0     49372         0     49375         0     49378         0
     49381         0     49384         0     49387         0     49390         0
     49393         0     49396         0     49399         0     49402         0
     49405         0     49408         0     49411         0     49414         0
     49417         0     49420         0     49423         0     49426         0
     49429         0     49432         0     49435         0     49438         0
     49441         0     49444         0     49447         0     49450         0
     49453         0     49456         0     49459         0     49462         0
     49465         0     49468         0     49471         0     49474         0
     49477         0     49480         0     49483         0     49486         0
     49489         0     49492         0     49495         0     49498         0
     49501         0     49504         0     49507         0     49510         0
     49513         0     49516         0     49519         0     49522         0
     49525         0     49528         0     49531         0     49534         0
     49537         0     49540         0     49543         0     49546         0
     49549         0     49552         0     49555         0     49558         0
     49561         0     49564         0     49567         0     49570         0
     49573         0     49576         0     49579         0     49582         0
     49585         0     49588         0     49591         0     49594         0
     49597         0     49600         0     49603         0     49606         0
     49609         0     49612         0     49615         0     49618         0
     49621         0     49624         0     49627         0     49630         0
     49633         0     49636         0     49639         0     49642         0
     49645         0     49648         0     49651         0     49654         0
     49657         0     49660         0     49663         0     49666         0
     49669         0     49672         0     49675         0     49678         0
     49681         0     49684         0     49687         0     49690         0
     49693         0     49696         0     49699         0     49702         0
     49705         0     49708         0     49711         0     49714         0
     49717         0     49720         0     49723         0     49726         0
     49729         0     49732         0     49735         0     49738         0
     49741         0     49744         0     49747         0     49750         0
     49753         0     49756         0     49759         0     49762         0
     49765         0     49768         0     49771         0     49774         0
     49777         0     49780         0     49783         0     49786         0
     49789         0     49792         0     49795         0     49798         0
     49801         0     49804         0     49807         0     49810         0
     49813         0     49816         0     49819         0     49822         0
     49825         0     49828         0     49831         0     49834         0
     49837         0     49840         0     49843         0     49846         0
     49849         0     49852         0     49855         0     49858         0
     49861         0     49864         0     49867         0     49870         0
     49873         0     49876         0     49879         0     49882         0
     49885         0     49888         0     49891         0     49894         0
     49897         0     49900         0     49903         0     49906         0
     49909         0     49912         0     49915         0     49918         0
     49921         0     49924         0     49927         0     49930         0
     49933         0     49936         0     49939         0     49942         0
     49945         0     49948         0     49951         0     49954         0
     49957         0     49960         0     49963         0     49966         0
     49969         0     49972         0     49975         0     49978         0
     49981         0     49984         0     49987         0     49990         0
     49993         0     49996         0     49999         0     50002         0
     50005         0     50008         0     50011         0     50014         0
     50017         0     50020         0     50023         0     50026         0
     50029         0     50032         0     50035         0     50038         0
     50041         0     50044         0     50047         0     50050         0
     50053         0     50056         0     50059         0     50062         0
     50065         0     50068         0     50071         0     50074         0
     50077         0     50080         0     50083         0     50086         0
     50089         0     50092         0     50095         0     50098         0
     50101         0     50104         0     50107         0     50110         0
     50113         0     50116         0     50119         0     50122         0
     50125         0     50128         0     50131         0     50134         0
     50137         0     50140         0     50143         0     50146         0
     50149         0     50152         0     50155         0     50158         0
     50161         0     50164         0     50167         0     50170         0
     50173         0     50176         0     50179         0     50182         0
     50185         0     50188         0     50191         0     50194         0
     50197         0     50200         0     50203         0     50206         0
     50209         0     50212         0     50215         0     50218         0
     50221         0     50224         0     50227         0     50230         0
     50233         0     50236         0     50239         0     50242         0
     50245         0     50248         0     50251         0     50254         0
     50257         0     50260         0     50263         0     50266         0
     50269         0     50272         0     50275         0     50278         0
     50281         0     50284         0     50287         0     50290         0
     50293         0     50296         0     50299         0     50302         0
     50305         0     50308         0     50311         0     50314         0
     50317         0     50320         0     50323         0     50326         0
     50329         0     50332         0     50335         0     50338         0
     50341         0     50344         0     50347         0     50350         0
     50353         0     50356         0     50359         0     50362         0
     50365         0     50368         0     50371         0     50374         0
     50377         0     50380         0     50383         0     50386         0
     50389         0     50392         0     50395         0     50398         0
     50401         0     50404         0     50407         0     50410         0
     50413         0     50416         0     50419         0     50422         0
     50425         0     50428         0     50431         0     50434         0
     50437         0     50440         0     50443         0     50446         0
     50449         0     50452         0     50455         0     50458         0
     50461         0     50464         0     50467         0     50470         0
     50473         0     50476         0     50479         0     50482         0
     50485         0     50488         0     50491         0     50494         0
     50497         0     50500         0     50503         0     50506         0
     50509         0     50512         0     50515         0     50518         0
     50521         0     50524         0     50527         0     50530         0
     50533         0     50536         0     50539         0     50542         0
     50545         0     50548         0     50551         0     50554         0
     50557         0     50560         0     50563         0     50566         0
     50569         0     50572         0     50575         0     50578         0
     50581         0     50584         0     50587         0     50590         0
     50593         0     50596         0     50599         0     50602         0
     50605         0     50608         0     50611         0     50614         0
     50617         0     50620         0     50623         0     50626         0
     50629         0     50632         0     50635         0     50638         0
     50641         0     50644         0     50647         0     50650         0
     50653         0     50656         0     50659         0     50662         0
     50665         0     50668         0     50671         0     50674         0
     50677         0     50680         0     50683         0     50686         0
     50689         0     50692         0     50695         0     50698         0
     50701         0     50704         0     50707         0     50710         0
     50713         0     50716         0     50719         0     50722         0
     50725         0     50728         0     50731         0     50734         0
     50737         0     50740         0     50743         0     50746         0
     50749         0     50752         0     50755         0     50758         0
     50761         0     50764         0     50767         0     50770         0
     50773         0     50776         0     50779         0     50782         0
     50785         0     50788         0     50791         0     50794         0
     50797         0     50800         0     50803         0     50806         0
     50809         0     50812         0     50815         0     50818         0
     50821         0     50824         0     50827         0     50830         0
     50833         0     50836         0     50839         0     50842         0
     50845         0     50848         0     50851         0     50854         0
     50857         0     50860         0     50863         0     50866         0
     50869         0     50872         0     50875         0     50878         0
     50881         0     50884         0     50887         0     50890         0
     50893         0     50896         0     50899         0     50902         0
     50905         0     50908         0     50911         0     50914         0
     50917         0     50920         0     50923         0     50926         0
     50929         0     50932         0     50935         0     50938         0
     50941         0     50944         0     50947         0     50950         0
     50953         0     50956         0     50959         0     50962         0
     50965         0     50968         0     50971         0     50974         0
     50977         0     50980         0     50983         0     50986         0
     50989         0     50992         0     50995         0     50998         0
     51001         0     51004         0     51007         0     51010         0
     51013         0     51016         0     51019         0     51022         0
     51025         0     51028         0     51031         0     51034         0
     51037         0     51040         0     51043         0     51046         0
     51049         0     51052         0     51055         0     51058         0
     51061         0     51064         0     51067         0     51070         0
     51073         0     51076         0     51079         0     51082         0
     51085         0     51088         0     51091         0     51094         0
     51097         0     51100         0     51103         0     51106         0
     51109         0     51112         0     51115         0     51118         0
     51121         0     51124         0     51127         0     51130         0
     51133         0     51136         0     51139         0     51142         0
     51145         0     51148         0     51151         0     51154         0
     51157         0     51160         0     51163         0     51166         0
     51169         0     51172         0     51175         0     51178         0
     51181         0     51184         0     51187         0     51190         0
     51193         0     51196         0     51199         0     51202         0
     51205         0     51208         0     51211         0     51214         0
     51217         0     51220         0     51223         0     51226         0
     51229         0     51232         0     51235         0     51238         0
     51241         0     51244         0     51247         0     51250         0
     51253         0     51256         0     51259         0     51262         0
     51265         0     51268         0     51271         0     51274         0
     51277         0     51280         0     51283         0     51286         0
     51289         0     51292         0     51295         0     51298         0
     51301         0     51304         0     51307         0     51310         0
     51313         0     51316         0     51319         0     51322         0
     51325         0     51328         0     51331         0     51334         0
     51337         0     51340         0     51343         0     51346         0
     51349         0     51352         0     51355         0     51358         0
     51361         0     51364         0     51367         0     51370         0
     51373         0     51376         0     51379         0     51382         0
     51385         0     51388         0     51391         0     51394         0
     51397         0     51400         0     51403         0     51406         0
     51409         0     51412         0     51415         0     51418         0
     51421         0     51424         0     51427         0     51430         0
     51433         0     51436         0     51439         0     51442         0
     51445         0     51448         0     51451         0     51454         0
     51457         0     51460         0     51463         0     51466         0
     51469         0     51472         0     51475         0     51478         0
     51481         0     51484         0     51487         0     51490         0
     51493         0     51496         0     51499         0     51502         0
     51505         0     51508         0     51511         0     51514         0
     51517         0     51520         0     51523         0     51526         0
     51529         0     51532         0     51535         0     51538         0
     51541         0     51544         0     51547         0     51550         0
     51553         0     51556         0     51559         0     51562         0
     51565         0     51568         0     51571         0     51574         0
     51577         0     51580         0     51583         0     51586         0
     51589         0     51592         0     51595         0     51598         0
     51601         0     51604         0     51607         0     51610         0
     51613         0     51616         0     51619         0     51622         0
     51625         0     51628         0     51631         0     51634         0
     51637         0     51640         0     51643         0     51646         0
     51649         0     51652         0     51655         0     51658         0
     51661         0     51664         0     51667         0     51670         0
     51673         0     51676         0     51679         0     51682         0
     51685         0     51688         0     51691         0     51694         0
     51697         0     51700         0     51703         0     51706         0
     51709         0     51712         0     51715         0     51718         0
     51721         0     51724         0     51727         0     51730         0
     51733         0     51736         0     51739         0     51742         0
     51745         0     51748         0     51751         0     51754         0
     51757         0     51760         0     51763         0     51766         0
     51769         0     51772         0     51775         0     51778         0
     51781         0     51784         0     51787         0     51790         0
     51793         0     51796         0     51799         0     51802         0
     51805         0     51808         0     51811         0     51814         0
     51817         0     51820         0     51823         0     51826         0
     51829         0     51832         0     51835         0     51838         0
     51841         0     51844         0     51847         0     51850         0
     51853         0     51856         0     51859         0     51862         0
     51865         0     51868         0     51871         0     51874         0
     51877         0     51880         0     51883         0     51886         0
     51889         0     51892         0     51895         0     51898         0
     51901         0     51904         0     51907         0     51910         0
     51913         0     51916         0     51919         0     51922         0
     51925         0     51928         0     51931         0     51934         0
     51937         0     51940         0     51943         0     51946         0
     51949         0     51952         0     51955         0     51958         0
     51961         0     51964         0     51967         0     51970         0
     51973         0     51976         0     51979         0     51982         0
     51985         0     51988         0     51991         0     51994         0
     51997         0     52000         0     52003         0     52006         0
     52009         0     52012         0     52015         0     52018         0
     52021         0     52024         0     52027         0     52030         0
     52033         0     52036         0     52039         0     52042         0
     52045         0     52048         0     52051         0     52054         0
     52057         0     52060         0     52063         0     52066         0
     52069         0     52072         0     52075         0     52078         0
     52081         0     52084         0     52087         0     52090         0
     52093         0     52096         0     52099         0     52102         0
     52105         0     52108         0     52111         0     52114         0
     52117         0     52120         0     52123         0     52126         0
     52129         0     52132         0     52135         0     52138         0
     52141         0     52144         0     52147         0     52150         0
     52153         0     52156         0     52159         0     52162         0
     52165         0     52168         0     52171         0     52174         0
     52177         0     52180         0     52183         0     52186         0
     52189         0     52192         0     52195         0     52198         0
     52201         0     52204         0     52207         0     52210         0
     52213         0     52216         0     52219         0     52222         0
     52225         0     52228         0     52231         0     52234         0
     52237         0     52240         0     52243         0     52246         0
     52249         0     52252         0     52255         0     52258         0
     52261         0     52264         0     52267         0     52270         0
     52273         0     52276         0     52279         0     52282         0
     52285         0     52288         0     52291         0     52294         0
     52297         0     52300         0     52303         0     52306         0
     52309         0     52312         0     52315         0     52318         0
     52321         0     52324         0     52327         0     52330         0
     52333         0     52336         0     52339         0     52342         0
     52345         0     52348         0     52351         0     52354         0
     52357         0     52360         0     52363         0     52366         0
     52369         0     52372         0     52375         0     52378         0
     52381         0     52384         0     52387         0     52390         0
     52393         0     52396         0     52399         0     52402         0
     52405         0     52408         0     52411         0     52414         0
     52417         0     52420         0     52423         0     52426         0
     52429         0     52432         0     52435         0     52438         0
     52441         0     52444         0     52447         0     52450         0
     52453         0     52456         0     52459         0     52462         0
     52465         0     52468         0     52471         0     52474         0
     52477         0     52480         0     52483         0     52486         0
     52489         0     52492         0     52495         0     52498         0
     52501         0     52504         0     52507         0     52510         0
     52513         0     52516         0     52519         0     52522         0
     52525         0     52528         0     52531         0     52534         0
     52537         0     52540         0     52543         0     52546         0
     52549         0     52552         0     52555         0     52558         0
     52561         0     52564         0     52567         0     52570         0
     52573         0     52576         0     52579         0     52582         0
     52585         0     52588         0     52591         0     52594         0
     52597         0     52600         0     52603         0     52606         0
     52609         0     52612         0     52615         0     52618         0
     52621         0     52624         0     52627         0     52630         0
     52633         0     52636         0     52639         0     52642         0
     52645         0     52648         0     52651         0     52654         0
     52657         0     52660         0     52663         0     52666         0
     52669         0     52672         0     52675         0     52678         0
     52681         0     52684         0     52687         0     52690         0
     52693         0     52696         0     52699         0     52702         0
     52705         0     52708         0     52711         0     52714         0
     52717         0     52720         0     52723         0     52726         0
     52729         0     52732         0     52735         0     52738         0
     52741         0     52744         0     52747         0     52750         0
     52753         0     52756         0     52759         0     52762         0
     52765         0     52768         0     52771         0     52774         0
     52777         0     52780         0     52783         0     52786         0
     52789         0     52792         0     52795         0     52798         0
     52801         0     52804         0     52807         0     52810         0
     52813         0     52816         0     52819         0     52822         0
     52825         0     52828         0     52831         0     52834         0
     52837         0     52840         0     52843         0     52846         0
     52849         0     52852         0     52855         0     52858         0
     52861         0     52864         0     52867         0     52870         0
     52873         0     52876         0     52879         0     52882         0
     52885         0     52888         0     52891         0     52894         0
     52897         0     52900         0     52903         0     52906         0
     52909         0     52912         0     52915         0     52918         0
     52921         0     52924         0     52927         0     52930         0
     52933         0     52936         0     52939         0     52942         0
     52945         0     52948         0     52951         0     52954         0
     52957         0     52960         0     52963         0     52966         0
     52969         0     52972         0     52975         0     52978         0
     52981         0     52984         0     52987         0     52990         0
     52993         0     52996         0     52999         0     53002         0
     53005         0     53008         0     53011         0     53014         0
     53017         0     53020         0     53023         0     53026         0
     53029         0     53032         0     53035         0     53038         0
     53041         0     53044         0     53047         0     53050         0
     53053         0     53056         0     53059         0     53062         0
     53065         0     53068         0     53071         0     53074         0
     53077         0     53080         0     53083         0     53086         0
     53089         0     53092         0     53095         0     53098         0
     53101         0     53104         0     53107         0     53110         0
     53113         0     53116         0     53119         0     53122         0
     53125         0     53128         0     53131         0     53134         0
     53137         0     53140         0     53143         0     53146         0
     53149         0     53152         0     53155         0     53158         0
     53161         0     53164         0     53167         0     53170         0
     53173         0     53176         0     53179         0     53182         0
     53185         0     53188         0     53191         0     53194         0
     53197         0     53200         0     53203         0     53206         0
     53209         0     53212         0     53215         0     53218         0
     53221         0     53224         0     53227         0     53230         0
     53233         0     53236         0     53239         0     53242         0
     53245         0     53248         0     53251         0     53254         0
     53257         0     53260         0     53263         0     53266         0
     53269         0     53272         0     53275         0     53278         0
     53281         0     53284         0     53287         0     53290         0
     53293         0     53296         0     53299         0     53302         0
     53305         0     53308         0     53311         0     53314         0
     53317         0     53320         0     53323         0     53326         0
     53329         0     53332         0     53335         0     53338         0
     53341         0     53344         0     53347         0     53350         0
     53353         0     53356         0     53359         0     53362         0
     53365         0     53368         0     53371         0     53374         0
     53377         0     53380         0     53383         0     53386         0
     53389         0     53392         0     53395         0     53398         0
     53401         0     53404         0     53407         0     53410         0
     53413         0     53416         0     53419         0     53422         0
     53425         0     53428         0     53431         0     53434         0
     53437         0     53440         0     53443         0     53446         0
     53449         0     53452         0     53455         0     53458         0
     53461         0     53464         0     53467         0     53470         0
     53473         0     53476         0     53479         0     53482         0
     53485         0     53488         0     53491         0     53494         0
     53497         0     53500         0     53503         0     53506         0
     53509         0     53512         0     53515         0     53518         0
     53521         0     53524         0     53527         0     53530         0
     53533         0     53536         0     53539         0     53542         0
     53545         0     53548         0     53551         0     53554         0
     53557         0     53560         0     53563         0     53566         0
     53569         0     53572         0     53575         0     53578         0
     53581         0     53584         0     53587         0     53590         0
     53593         0     53596         0     53599         0     53602         0
     53605         0     53608         0     53611         0     53614         0
     53617         0     53620         0     53623         0     53626         0
     53629         0     53632         0     53635         0     53638         0
     53641         0     53644         0     53647         0     53650         0
     53653         0     53656         0     53659         0     53662         0
     53665         0     53668         0     53671         0     53674         0
     53677         0     53680         0     53683         0     53686         0
     53689         0     53692         0     53695         0     53698         0
     53701         0     53704         0     53707         0     53710         0
     53713         0     53716         0     53719         0     53722         0
     53725         0     53728         0     53731         0     53734         0
     53737         0     53740         0     53743         0     53746         0
     53749         0     53752         0     53755         0     53758         0
     53761         0     53764         0     53767         0     53770         0
     53773         0     53776         0     53779         0     53782         0
     53785         0     53788         0     53791         0     53794         0
     53797         0     53800         0     53803         0     53806         0
     53809         0     53812         0     53815         0     53818         0
     53821         0     53824         0     53827         0     53830         0
     53833         0     53836         0     53839         0     53842         0
     53845         0     53848         0     53851         0     53854         0
     53857         0     53860         0     53863         0     53866         0
     53869         0     53872         0     53875         0     53878         0
     53881         0     53884         0     53887         0     53890         0
     53893         0     53896         0     53899         0     53902         0
     53905         0     53908         0     53911         0     53914         0
     53917         0     53920         0     53923         0     53926         0
     53929         0     53932         0     53935         0     53938         0
     53941         0     53944         0     53947         0     53950         0
     53953         0     53956         0     53959         0     53962         0
     53965         0     53968         0     53971         0     53974         0
     53977         0     53980         0     53983         0     53986         0
     53989         0     53992         0     53995         0     53998         0
     54001         0     54004         0     54007         0     54010         0
     54013         0     54016         0     54019         0     54022         0
     54025         0     54028         0     54031         0     54034         0
     54037         0     54040         0     54043         0     54046         0
     54049         0     54052         0     54055         0     54058         0
     54061         0     54064         0     54067         0     54070         0
     54073         0     54076         0     54079         0     54082         0
     54085         0     54088         0     54091         0     54094         0
     54097         0     54100         0     54103         0     54106         0
     54109         0     54112         0     54115         0     54118         0
     54121         0     54124         0     54127         0     54130         0
     54133         0     54136         0     54139         0     54142         0
     54145         0     54148         0     54151         0     54154         0
     54157         0     54160         0     54163         0     54166         0
     54169         0     54172         0     54175         0     54178         0
     54181         0     54184         0     54187         0     54190         0
     54193         0     54196         0     54199         0     54202         0
     54205         0     54208         0     54211         0     54214         0
     54217         0     54220         0     54223         0     54226         0
     54229         0     54232         0     54235         0     54238         0
     54241         0     54244         0     54247         0     54250         0
     54253         0     54256         0     54259         0     54262         0
     54265         0     54268         0     54271         0     54274         0
     54277         0     54280         0     54283         0     54286         0
     54289         0     54292         0     54295         0     54298         0
     54301         0     54304         0     54307         0     54310         0
     54313         0     54316         0     54319         0     54322         0
     54325         0     54328         0     54331         0     54334         0
     54337         0     54340         0     54343         0     54346         0
     54349         0     54352         0     54355         0     54358         0
     54361         0     54364         0     54367         0     54370         0
     54373         0     54376         0     54379         0     54382         0
     54385         0     54388         0     54391         0     54394         0
     54397         0     54400         0     54403         0     54406         0
     54409         0     54412         0     54415         0     54418         0
     54421         0     54424         0     54427         0     54430         0
     54433         0     54436         0     54439         0     54442         0
     54445         0     54448         0     54451         0     54454         0
     54457         0     54460         0     54463         0     54466         0
     54469         0     54472         0     54475         0     54478         0
     54481         0     54484         0     54487         0     54490         0
     54493         0     54496         0     54499         0     54502         0
     54505         0     54508         0     54511         0     54514         0
     54517         0     54520         0     54523         0     54526         0
     54529         0     54532         0     54535         0     54538         0
     54541         0     54544         0     54547         0     54550         0
     54553         0     54556         0     54559         0     54562         0
     54565         0     54568         0     54571         0     54574         0
     54577         0     54580         0     54583         0     54586         0
     54589         0     54592         0     54595         0     54598         0
     54601         0     54604         0     54607         0     54610         0
     54613         0     54616         0     54619         0     54622         0
     54625         0     54628         0     54631         0     54634         0
     54637         0     54640         0     54643         0     54646         0
     54649         0     54652         0     54655         0     54658         0
     54661         0     54664         0     54667         0     54670         0
     54673         0     54676         0     54679         0     54682         0
     54685         0     54688         0     54691         0     54694         0
     54697         0     54700         0     54703         0     54706         0
     54709         0     54712         0     54715         0     54718         0
     54721         0     54724         0     54727         0     54730         0
     54733         0     54736         0     54739         0     54742         0
     54745         0     54748         0     54751         0     54754         0
     54757         0     54760         0     54763         0     54766         0
     54769         0     54772         0     54775         0     54778         0
     54781         0     54784         0     54787         0     54790         0
     54793         0     54796         0     54799         0     54802         0
     54805         0     54808         0     54811         0     54814         0
     54817         0     54820         0     54823         0     54826         0
     54829         0     54832         0     54835         0     54838         0
     54841         0     54844         0     54847         0     54850         0
     54853         0     54856         0     54859         0     54862         0
     54865         0     54868         0     54871         0     54874         0
     54877         0     54880         0     54883         0     54886         0
     54889         0     54892         0     54895         0     54898         0
     54901         0     54904         0     54907         0     54910         0
     54913         0     54916         0     54919         0     54922         0
     54925         0     54928         0     54931         0     54934         0
     54937         0     54940         0     54943         0     54946         0
     54949         0     54952         0     54955         0     54958         0
     54961         0     54964         0     54967         0     54970         0
     54973         0     54976         0     54979         0     54982         0
     54985         0     54988         0     54991         0     54994         0
     54997         0     55000         0     55003         0     55006         0
     55009         0     55012         0     55015         0     55018         0
     55021         0     55024         0     55027         0     55030         0
     55033         0     55036         0     55039         0     55042         0
     55045         0     55048         0     55051         0     55054         0
     55057         0     55060         0     55063         0     55066         0
     55069         0     55072         0     55075         0     55078         0
     55081         0     55084         0     55087         0     55090         0
     55093         0     55096         0     55099         0     55102         0
     55105         0     55108         0     55111         0     55114         0
     55117         0     55120         0     55123         0     55126         0
     55129         0     55132         0     55135         0     55138         0
     55141         0     55144         0     55147         0     55150         0
     55153         0     55156         0     55159         0     55162         0
     55165         0     55168         0     55171         0     55174         0
     55177         0     55180         0     55183         0     55186         0
     55189         0     55192         0     55195         0     55198         0
     55201         0     55204         0     55207         0     55210         0
     55213         0     55216         0     55219         0     55222         0
     55225         0     55228         0     55231         0     55234         0
     55237         0     55240         0     55243         0     55246         0
     55249         0     55252         0     55255         0     55258         0
     55261         0     55264         0     55267         0     55270         0
     55273         0     55276         0     55279         0     55282         0
     55285         0     55288         0     55291         0     55294         0
     55297         0     55300         0     55303         0     55306         0
     55309         0     55312         0     55315         0     55318         0
     55321         0     55324         0     55327         0     55330         0
     55333         0     55336         0     55339         0     55342         0
     55345         0     55348         0     55351         0     55354         0
     55357         0     55360         0     55363         0     55366         0
     55369         0     55372         0     55375         0     55378         0
     55381         0     55384         0     55387         0     55390         0
     55393         0     55396         0     55399         0     55402         0
     55405         0     55408         0     55411         0     55414         0
     55417         0     55420         0     55423         0     55426         0
     55429         0     55432         0     55435         0     55438         0
     55441         0     55444         0     55447         0     55450         0
     55453         0     55456         0     55459         0     55462         0
     55465         0     55468         0     55471         0     55474         0
     55477         0     55480         0     55483         0     55486         0
     55489         0     55492         0     55495         0     55498         0
     55501         0     55504         0     55507         0     55510         0
     55513         0     55516         0     55519         0     55522         0
     55525         0     55528         0     55531         0     55534         0
     55537         0     55540         0     55543         0     55546         0
     55549         0     55552         0     55555         0     55558         0
     55561         0     55564         0     55567         0     55570         0
     55573         0     55576         0     55579         0     55582         0
     55585         0     55588         0     55591         0     55594         0
     55597         0     55600         0     55603         0     55606         0
     55609         0     55612         0     55615         0     55618         0
     55621         0     55624         0     55627         0     55630         0
     55633         0     55636         0     55639         0     55642         0
     55645         0     55648         0     55651         0     55654         0
     55657         0     55660         0     55663         0     55666         0
     55669         0     55672         0     55675         0     55678         0
     55681         0     55684         0     55687         0     55690         0
     55693         0     55696         0     55699         0     55702         0
     55705         0     55708         0     55711         0     55714         0
     55717         0     55720         0     55723         0     55726         0
     55729         0     55732         0     55735         0     55738         0
     55741         0     55744         0     55747         0     55750         0
     55753         0     55756         0     55759         0     55762         0
     55765         0     55768         0     55771         0     55774         0
     55777         0     55780         0     55783         0     55786         0
     55789         0     55792         0     55795         0     55798         0
     55801         0     55804         0     55807         0     55810         0
     55813         0     55816         0     55819         0     55822         0
     55825         0     55828         0     55831         0     55834         0
     55837         0     55840         0     55843         0     55846         0
     55849         0     55852         0     55855         0     55858         0
     55861         0     55864         0     55867         0     55870         0
     55873         0     55876         0     55879         0     55882         0
     55885         0     55888         0     55891         0     55894         0
     55897         0     55900         0     55903         0     55906         0
     55909         0     55912         0     55915         0     55918         0
     55921         0     55924         0     55927         0     55930         0
     55933         0     55936         0     55939         0     55942         0
     55945         0     55948         0     55951         0     55954         0
     55957         0     55960         0     55963         0     55966         0
     55969         0     55972         0     55975         0     55978         0
     55981         0     55984         0     55987         0     55990         0
     55993         0     55996         0     55999         0     56002         0
     56005         0     56008         0     56011         0     56014         0
     56017         0     56020         0     56023         0     56026         0
     56029         0     56032         0     56035         0     56038         0
     56041         0     56044         0     56047         0     56050         0
     56053         0     56056         0     56059         0     56062         0
     56065         0     56068         0     56071         0     56074         0
     56077         0     56080         0     56083         0     56086         0
     56089         0     56092         0     56095         0     56098         0
     56101         0     56104         0     56107         0     56110         0
     56113         0     56116         0     56119         0     56122         0
     56125         0     56128         0     56131         0     56134         0
     56137         0     56140         0     56143         0     56146         0
     56149         0     56152         0     56155         0     56158         0
     56161         0     56164         0     56167         0     56170         0
     56173         0     56176         0     56179         0     56182         0
     56185         0     56188         0     56191         0     56194         0
     56197         0     56200         0     56203         0     56206         0
     56209         0     56212         0     56215         0     56218         0
     56221         0     56224         0     56227         0     56230         0
     56233         0     56236         0     56239         0     56242         0
     56245         0     56248         0     56251         0     56254         0
     56257         0     56260         0     56263         0     56266         0
     56269         0     56272         0     56275         0     56278         0
     56281         0     56284         0     56287         0     56290         0
     56293         0     56296         0     56299         0     56302         0
     56305         0     56308         0     56311         0     56314         0
     56317         0     56320         0     56323         0     56326         0
     56329         0     56332         0     56335         0     56338         0
     56341         0     56344         0     56347         0     56350         0
     56353         0     56356         0     56359         0     56362         0
     56365         0     56368         0     56371         0     56374         0
     56377         0     56380         0     56383         0     56386         0
     56389         0     56392         0     56395         0     56398         0
     56401         0     56404         0     56407         0     56410         0
     56413         0     56416         0     56419         0     56422         0
     56425         0     56428         0     56431         0     56434         0
     56437         0     56440         0     56443         0     56446         0
     56449         0     56452         0     56455         0     56458         0
     56461         0     56464         0     56467         0     56470         0
     56473         0     56476         0     56479         0     56482         0
     56485         0     56488         0     56491         0     56494         0
     56497         0     56500         0     56503         0     56506         0
     56509         0     56512         0     56515         0     56518         0
     56521         0     56524         0     56527         0     56530         0
     56533         0     56536         0     56539         0     56542         0
     56545         0     56548         0     56551         0     56554         0
     56557         0     56560         0     56563         0     56566         0
     56569         0     56572         0     56575         0     56578         0
     56581         0     56584         0     56587         0     56590         0
     56593         0     56596         0     56599         0     56602         0
     56605         0     56608         0     56611         0     56614         0
     56617         0     56620         0     56623         0     56626         0
     56629         0     56632         0     56635         0     56638         0
     56641         0     56644         0     56647         0     56650         0
     56653         0     56656         0     56659         0     56662         0
     56665         0     56668         0     56671         0     56674         0
     56677         0     56680         0     56683         0     56686         0
     56689         0     56692         0     56695         0     56698         0
     56701         0     56704         0     56707         0     56710         0
     56713         0     56716         0     56719         0     56722         0
     56725         0     56728         0     56731         0     56734         0
     56737         0     56740         0     56743         0     56746         0
     56749         0     56752         0     56755         0     56758         0
     56761         0     56764         0     56767         0     56770         0
     56773         0     56776         0     56779         0     56782         0
     56785         0     56788         0     56791         0     56794         0
     56797         0     56800         0     56803         0     56806         0
     56809         0     56812         0     56815         0     56818         0
     56821         0     56824         0     56827         0     56830         0
     56833         0     56836         0     56839         0     56842         0
     56845         0     56848         0     56851         0     56854         0
     56857         0     56860         0     56863         0     56866         0
     56869         0     56872         0     56875         0     56878         0
     56881         0     56884         0     56887         0     56890         0
     56893         0     56896         0     56899         0     56902         0
     56905         0     56908         0     56911         0     56914         0
     56917         0     56920         0     56923         0     56926         0
     56929         0     56932         0     56935         0     56938         0
     56941         0     56944         0     56947         0     56950         0
     56953         0     56956         0     56959         0     56962         0
     56965         0     56968         0     56971         0     56974         0
     56977         0     56980         0     56983         0     56986         0
     56989         0     56992         0     56995         0     56998         0
     57001         0     57004         0     57007         0     57010         0
     57013         0     57016         0     57019         0     57022         0
     57025         0     57028         0     57031         0     57034         0
     57037         0     57040         0     57043         0     57046         0
     57049         0     57052         0     57055         0     57058         0
     57061         0     57064         0     57067         0     57070         0
     57073         0     57076         0     57079         0     57082         0
     57085         0     57088         0     57091         0     57094         0
     57097         0     57100         0     57103         0     57106         0
     57109         0     57112         0     57115         0     57118         0
     57121         0     57124         0     57127         0     57130         0
     57133         0     57136         0     57139         0     57142         0
     57145         0     57148         0     57151         0     57154         0
     57157         0     57160         0     57163         0     57166         0
     57169         0     57172         0     57175         0     57178         0
     57181         0     57184         0     57187         0     57190         0
     57193         0     57196         0     57199         0     57202         0
     57205         0     57208         0     57211         0     57214         0
     57217         0     57220         0     57223         0     57226         0
     57229         0     57232         0     57235         0     57238         0
     57241         0     57244         0     57247         0     57250         0
     57253         0     57256         0     57259         0     57262         0
     57265         0     57268         0     57271         0     57274         0
     57277         0     57280         0     57283         0     57286         0
     57289         0     57292         0     57295         0     57298         0
     57301         0     57304         0     57307         0     57310         0
     57313         0     57316         0     57319         0     57322         0
     57325         0     57328         0     57331         0     57334         0
     57337         0     57340         0     57343         0     57346         0
     57349         0     57352         0     57355         0     57358         0
     57361         0     57364         0     57367         0     57370         0
     57373         0     57376         0     57379         0     57382         0
     57385         0     57388         0     57391         0     57394         0
     57397         0     57400         0     57403         0     57406         0
     57409         0     57412         0     57415         0     57418         0
     57421         0     57424         0     57427         0     57430         0
     57433         0     57436         0     57439         0     57442         0
     57445         0     57448         0     57451         0     57454         0
     57457         0     57460         0     57463         0     57466         0
     57469         0     57472         0     57475         0     57478         0
     57481         0     57484         0     57487         0     57490         0
     57493         0     57496         0     57499         0     57502         0
     57505         0     57508         0     57511         0     57514         0
     57517         0     57520         0     57523         0     57526         0
     57529         0     57532         0     57535         0     57538         0
     57541         0     57544         0     57547         0     57550         0
     57553         0     57556         0     57559         0     57562         0
     57565         0     57568         0     57571         0     57574         0
     57577         0     57580         0     57583         0     57586         0
     57589         0     57592         0     57595         0     57598         0
     57601         0     57604         0     57607         0     57610         0
     57613         0     57616         0     57619         0     57622         0
     57625         0     57628         0     57631         0     57634         0
     57637         0     57640         0     57643         0     57646         0
     57649         0     57652         0     57655         0     57658         0
     57661         0     57664         0     57667         0     57670         0
     57673         0     57676         0     57679         0     57682         0
     57685         0     57688         0     57691         0     57694         0
     57697         0     57700         0     57703         0     57706         0
     57709         0     57712         0     57715         0     57718         0
     57721         0     57724         0     57727         0     57730         0
     57733         0     57736         0     57739         0     57742         0
     57745         0     57748         0     57751         0     57754         0
     57757         0     57760         0     57763         0     57766         0
     57769         0     57772         0     57775         0     57778         0
     57781         0     57784         0     57787         0     57790         0
     57793         0     57796         0     57799         0     57802         0
     57805         0     57808         0     57811         0     57814         0
     57817         0     57820         0     57823         0     57826         0
     57829         0     57832         0     57835         0     57838         0
     57841         0     57844         0     57847         0     57850         0
     57853         0     57856         0     57859         0     57862         0
     57865         0     57868         0     57871         0     57874         0
     57877         0     57880         0     57883         0     57886         0
     57889         0     57892         0     57895         0     57898         0
     57901         0     57904         0     57907         0     57910         0
     57913         0     57916         0     57919         0     57922         0
     57925         0     57928         0     57931         0     57934         0
     57937         0     57940         0     57943         0     57946         0
     57949         0     57952         0     57955         0     57958         0
     57961         0     57964         0     57967         0     57970         0
     57973         0     57976         0     57979         0     57982         0
     57985         0     57988         0     57991         0     57994         0
     57997         0     58000         0     58003         0     58006         0
     58009         0     58012         0     58015         0     58018         0
     58021         0     58024         0     58027         0     58030         0
     58033         0     58036         0     58039         0     58042         0
     58045         0     58048         0     58051         0     58054         0
     58057         0     58060         0     58063         0     58066         0
     58069         0     58072         0     58075         0     58078         0
     58081         0     58084         0     58087         0     58090         0
     58093         0     58096         0     58099         0     58102         0
     58105         0     58108         0     58111         0     58114         0
     58117         0     58120         0     58123         0     58126         0
     58129         0     58132         0     58135         0     58138         0
     58141         0     58144         0     58147         0     58150         0
     58153         0     58156         0     58159         0     58162         0
     58165         0     58168         0     58171         0     58174         0
     58177         0     58180         0     58183         0     58186         0
     58189         0     58192         0     58195         0     58198         0
     58201         0     58204         0     58207         0     58210         0
     58213         0     58216         0     58219         0     58222         0
     58225         0     58228         0     58231         0     58234         0
     58237         0     58240         0     58243         0     58246         0
     58249         0     58252         0     58255         0     58258         0
     58261         0     58264         0     58267         0     58270         0
     58273         0     58276         0     58279         0     58282         0
     58285         0     58288         0     58291         0     58294         0
     58297         0     58300         0     58303         0     58306         0
     58309         0     58312         0     58315         0     58318         0
     58321         0     58324         0     58327         0     58330         0
     58333         0     58336         0     58339         0     58342         0
     58345         0     58348         0     58351         0     58354         0
     58357         0     58360         0     58363         0     58366         0
     58369         0     58372         0     58375         0     58378         0
     58381         0     58384         0     58387         0     58390         0
     58393         0     58396         0     58399         0     58402         0
     58405         0     58408         0     58411         0     58414         0
     58417         0     58420         0     58423         0     58426         0
     58429         0     58432         0     58435         0     58438         0
     58441         0     58444         0     58447         0     58450         0
     58453         0     58456         0     58459         0     58462         0
     58465         0     58468         0     58471         0     58474         0
     58477         0     58480         0     58483         0     58486         0
     58489         0     58492         0     58495         0     58498         0
     58501         0     58504         0     58507         0     58510         0
     58513         0     58516         0     58519         0     58522         0
     58525         0     58528         0     58531         0     58534         0
     58537         0     58540         0     58543         0     58546         0
     58549         0     58552         0     58555         0     58558         0
     58561         0     58564         0     58567         0     58570         0
     58573         0     58576         0     58579         0     58582         0
     58585         0     58588         0     58591         0     58594         0
     58597         0     58600         0     58603         0     58606         0
     58609         0     58612         0     58615         0     58618         0
     58621         0     58624         0     58627         0     58630         0
     58633         0     58636         0     58639         0     58642         0
     58645         0     58648         0     58651         0     58654         0
     58657         0     58660         0     58663         0     58666         0
     58669         0     58672         0     58675         0     58678         0
     58681         0     58684         0     58687         0     58690         0
     58693         0     58696         0     58699         0     58702         0
     58705         0     58708         0     58711         0     58714         0
     58717         0     58720         0     58723         0     58726         0
     58729         0     58732         0     58735         0     58738         0
     58741         0     58744         0     58747         0     58750         0
     58753         0     58756         0     58759         0     58762         0
     58765         0     58768         0     58771         0     58774         0
     58777         0     58780         0     58783         0     58786         0
     58789         0     58792         0     58795         0     58798         0
     58801         0     58804         0     58807         0     58810         0
     58813         0     58816         0     58819         0     58822         0
     58825         0     58828         0     58831         0     58834         0
     58837         0     58840         0     58843         0     58846         0
     58849         0     58852         0     58855         0     58858         0
     58861         0     58864         0     58867         0     58870         0
     58873         0     58876         0     58879         0     58882         0
     58885         0     58888         0     58891         0     58894         0
     58897         0     58900         0     58903         0     58906         0
     58909         0     58912         0     58915         0     58918         0
     58921         0     58924         0     58927         0     58930         0
     58933         0     58936         0     58939         0     58942         0
     58945         0     58948         0     58951         0     58954         0
     58957         0     58960         0     58963         0     58966         0
     58969         0     58972         0     58975         0     58978         0
     58981         0     58984         0     58987         0     58990         0
     58993         0     58996         0     58999         0     59002         0
     59005         0     59008         0     59011         0     59014         0
     59017         0     59020         0     59023         0     59026         0
     59029         0     59032         0     59035         0     59038         0
     59041         0     59044         0     59047         0     59050         0
     59053         0     59056         0     59059         0     59062         0
     59065         0     59068         0     59071         0     59074         0
     59077         0     59080         0     59083         0     59086         0
     59089         0     59092         0     59095         0     59098         0
     59101         0     59104         0     59107         0     59110         0
     59113         0     59116         0     59119         0     59122         0
     59125         0     59128         0     59131         0     59134         0
     59137         0     59140         0     59143         0     59146         0
     59149         0     59152         0     59155         0     59158         0
     59161         0     59164         0     59167         0     59170         0
     59173         0     59176         0     59179         0     59182         0
     59185         0     59188         0     59191         0     59194         0
     59197         0     59200         0     59203         0     59206         0
     59209         0     59212         0     59215         0     59218         0
     59221         0     59224         0     59227         0     59230         0
     59233         0     59236         0     59239         0     59242         0
     59245         0     59248         0     59251         0     59254         0
     59257         0     59260         0     59263         0     59266         0
     59269         0     59272         0     59275         0     59278         0
     59281         0     59284         0     59287         0     59290         0
     59293         0     59296         0     59299         0     59302         0
     59305         0     59308         0     59311         0     59314         0
     59317         0     59320         0     59323         0     59326         0
     59329         0     59332         0     59335         0     59338         0
     59341         0     59344         0     59347         0     59350         0
     59353         0     59356         0     59359         0     59362         0
     59365         0     59368         0     59371         0     59374         0
     59377         0     59380         0     59383         0     59386         0
     59389         0     59392         0     59395         0     59398         0
     59401         0     59404         0     59407         0     59410         0
     59413         0     59416         0     59419         0     59422         0
     59425         0     59428         0     59431         0     59434         0
     59437         0     59440         0     59443         0     59446         0
     59449         0     59452         0     59455         0     59458         0
     59461         0     59464         0     59467         0     59470         0
     59473         0     59476         0     59479         0     59482         0
     59485         0     59488         0     59491         0     59494         0
     59497         0     59500         0     59503         0     59506         0
     59509         0     59512         0     59515         0     59518         0
     59521         0     59524         0     59527         0     59530         0
     59533         0     59536         0     59539         0     59542         0
     59545         0     59548         0     59551         0     59554         0
     59557         0     59560         0     59563         0     59566         0
     59569         0     59572         0     59575         0     59578         0
     59581         0     59584         0     59587         0     59590         0
     59593         0     59596         0     59599         0     59602         0
     59605         0     59608         0     59611         0     59614         0
     59617         0     59620         0     59623         0     59626         0
     59629         0     59632         0     59635         0     59638         0
     59641         0     59644         0     59647         0     59650         0
     59653         0     59656         0     59659         0     59662         0
     59665         0     59668         0     59671         0     59674         0
     59677         0     59680         0     59683         0     59686         0
     59689         0     59692         0     59695         0     59698         0
     59701         0     59704         0     59707         0     59710         0
     59713         0     59716         0     59719         0     59722         0
     59725         0     59728         0     59731         0     59734         0
     59737         0     59740         0     59743         0     59746         0
     59749         0     59752         0     59755         0     59758         0
     59761         0     59764         0     59767         0     59770         0
     59773         0     59776         0     59779         0     59782         0
     59785         0     59788         0     59791         0     59794         0
     59797         0     59800         0     59803         0     59806         0
     59809         0     59812         0     59815         0     59818         0
     59821         0     59824         0     59827         0     59830         0
     59833         0     59836         0     59839         0     59842         0
     59845         0     59848         0     59851         0     59854         0
     59857         0     59860         0     59863         0     59866         0
     59869         0     59872         0     59875         0     59878         0
     59881         0     59884         0     59887         0     59890         0
     59893         0     59896         0     59899         0     59902         0
     59905         0     59908         0     59911         0     59914         0
     59917         0     59920         0     59923         0     59926         0
     59929         0     59932         0     59935         0     59938         0
     59941         0     59944         0     59947         0     59950         0
     59953         0     59956         0     59959         0     59962         0
     59965         0     59968         0     59971         0     59974         0
     59977         0     59980         0     59983         0     59986         0
     59989         0     59992         0     59995         0     59998         0
     60001         0     60004         0     60007         0     60010         0
     60013         0     60016         0     60019         0     60022         0
     60025         0     60028         0     60031         0     60034         0
     60037         0     60040         0     60043         0     60046         0
     60049         0     60052         0     60055         0     60058         0
     60061         0     60064         0     60067         0     60070         0
     60073         0     60076         0     60079         0     60082         0
     60085         0     60088         0     60091         0     60094         0
     60097         0     60100         0     60103         0     60106         0
     60109         0     60112         0     60115         0     60118         0
     60121         0     60124         0     60127         0     60130         0
     60133         0     60136         0     60139         0     60142         0
     60145         0     60148         0     60151         0     60154         0
     60157         0     60160         0     60163         0     60166         0
     60169         0     60172         0     60175         0     60178         0
     60181         0     60184         0     60187         0     60190         0
     60193         0     60196         0     60199         0     60202         0
     60205         0     60208         0     60211         0     60214         0
     60217         0     60220         0     60223         0     60226         0
     60229         0     60232         0     60235         0     60238         0
     60241         0     60244         0     60247         0     60250         0
     60253         0     60256         0     60259         0     60262         0
     60265         0     60268         0     60271         0     60274         0
     60277         0     60280         0     60283         0     60286         0
     60289         0     60292         0     60295         0     60298         0
     60301         0     60304         0     60307         0     60310         0
     60313         0     60316         0     60319         0     60322         0
     60325         0     60328         0     60331         0     60334         0
     60337         0     60340         0     60343         0     60346         0
     60349         0     60352         0     60355         0     60358         0
     60361         0     60364         0     60367         0     60370         0
     60373         0     60376         0     60379         0     60382         0
     60385         0     60388         0     60391         0     60394         0
     60397         0     60400         0     60403         0     60406         0
     60409         0     60412         0     60415         0     60418         0
     60421         0     60424         0     60427         0     60430         0
     60433         0     60436         0     60439         0     60442         0
     60445         0     60448         0     60451         0     60454         0
     60457         0     60460         0     60463         0     60466         0
     60469         0     60472         0     60475         0     60478         0
     60481         0     60484         0     60487         0     60490         0
     60493         0     60496         0     60499         0     60502         0
     60505         0     60508         0     60511         0     60514         0
     60517         0     60520         0     60523         0     60526         0
     60529         0     60532         0     60535         0     60538         0
     60541         0     60544         0     60547         0     60550         0
     60553         0     60556         0     60559         0     60562         0
     60565         0     60568         0     60571         0     60574         0
     60577         0     60580         0     60583         0     60586         0
     60589         0     60592         0     60595         0     60598         0
     60601         0     60604         0     60607         0     60610         0
     60613         0     60616         0     60619         0     60622         0
     60625         0     60628         0     60631         0     60634         0
     60637         0     60640         0     60643         0     60646         0
     60649         0     60652         0     60655         0     60658         0
     60661         0     60664         0     60667         0     60670         0
     60673         0     60676         0     60679         0     60682         0
     60685         0     60688         0     60691         0     60694         0
     60697         0     60700         0     60703         0     60706         0
     60709         0     60712         0     60715         0     60718         0
     60721         0     60724         0     60727         0     60730         0
     60733         0     60736         0     60739         0     60742         0
     60745         0     60748         0     60751         0     60754         0
     60757         0     60760         0     60763         0     60766         0
     60769         0     60772         0     60775         0     60778         0
     60781         0     60784         0     60787         0     60790         0
     60793         0     60796         0     60799         0     60802         0
     60805         0     60808         0     60811         0     60814         0
     60817         0     60820         0     60823         0     60826         0
     60829         0     60832         0     60835         0     60838         0
     60841         0     60844         0     60847         0     60850         0
     60853         0     60856         0     60859         0     60862         0
     60865         0     60868         0     60871         0     60874         0
     60877         0     60880         0     60883         0     60886         0
     60889         0     60892         0     60895         0     60898         0
     60901         0     60904         0     60907         0     60910         0
     60913         0     60916         0     60919         0     60922         0
     60925         0     60928         0     60931         0     60934         0
     60937         0     60940         0     60943         0     60946         0
     60949         0     60952         0     60955         0     60958         0
     60961         0     60964         0     60967         0     60970         0
     60973         0     60976         0     60979         0     60982         0
     60985         0     60988         0     60991         0     60994         0
     60997         0     61000         0     61003         0     61006         0
     61009         0     61012         0     61015         0     61018         0
     61021         0     61024         0     61027         0     61030         0
     61033         0     61036         0     61039         0     61042         0
     61045         0     61048         0     61051         0     61054         0
     61057         0     61060         0     61063         0     61066         0
     61069         0     61072         0     61075         0     61078         0
     61081         0     61084         0     61087         0     61090         0
     61093         0     61096         0     61099         0     61102         0
     61105         0     61108         0     61111         0     61114         0
     61117         0     61120         0     61123         0     61126         0
     61129         0     61132         0     61135         0     61138         0
     61141         0     61144         0     61147         0     61150         0
     61153         0     61156         0     61159         0     61162         0
     61165         0     61168         0     61171         0     61174         0
     61177         0     61180         0     61183         0     61186         0
     61189         0     61192         0     61195         0     61198         0
     61201         0     61204         0     61207         0     61210         0
     61213         0     61216         0     61219         0     61222         0
     61225         0     61228         0     61231         0     61234         0
     61237         0     61240         0     61243         0     61246         0
     61249         0     61252         0     61255         0     61258         0
     61261         0     61264         0     61267         0     61270         0
     61273         0     61276         0     61279         0     61282         0
     61285         0     61288         0     61291         0     61294         0
     61297         0     61300         0     61303         0     61306         0
     61309         0     61312         0     61315         0     61318         0
     61321         0     61324         0     61327         0     61330         0
     61333         0     61336         0     61339         0     61342         0
     61345         0     61348         0     61351         0     61354         0
     61357         0     61360         0     61363         0     61366         0
     61369         0     61372         0     61375         0     61378         0
     61381         0     61384         0     61387         0     61390         0
     61393         0     61396         0     61399         0     61402         0
     61405         0     61408         0     61411         0     61414         0
     61417         0     61420         0     61423         0     61426         0
     61429         0     61432         0     61435         0     61438         0
     61441         0     61444         0     61447         0     61450         0
     61453         0     61456         0     61459         0     61462         0
     61465         0     61468         0     61471         0     61474         0
     61477         0     61480         0     61483         0     61486         0
     61489         0     61492         0     61495         0     61498         0
     61501         0     61504         0     61507         0     61510         0
     61513         0     61516         0     61519         0     61522         0
     61525         0     61528         0     61531         0     61534         0
     61537         0     61540         0     61543         0     61546         0
     61549         0     61552         0     61555         0     61558         0
     61561         0     61564         0     61567         0     61570         0
     61573         0     61576         0     61579         0     61582         0
     61585         0     61588         0     61591         0     61594         0
     61597         0     61600         0     61603         0     61606         0
     61609         0     61612         0     61615         0     61618         0
     61621         0     61624         0     61627         0     61630         0
     61633         0     61636         0     61639         0     61642         0
     61645         0     61648         0     61651         0     61654         0
     61657         0     61660         0     61663         0     61666         0
     61669         0     61672         0     61675         0     61678         0
     61681         0     61684         0     61687         0     61690         0
     61693         0     61696         0     61699         0     61702         0
     61705         0     61708         0     61711         0     61714         0
     61717         0     61720         0     61723         0     61726         0
     61729         0     61732         0     61735         0     61738         0
     61741         0     61744         0     61747         0     61750         0
     61753         0     61756         0     61759         0     61762         0
     61765         0     61768         0     61771         0     61774         0
     61777         0     61780         0     61783         0     61786         0
     61789         0     61792         0     61795         0     61798         0
     61801         0     61804         0     61807         0     61810         0
     61813         0     61816         0     61819         0     61822         0
     61825         0     61828         0     61831         0     61834         0
     61837         0     61840         0     61843         0     61846         0
     61849         0     61852         0     61855         0     61858         0
     61861         0     61864         0     61867         0     61870         0
     61873         0     61876         0     61879         0     61882         0
     61885         0     61888         0     61891         0     61894         0
     61897         0     61900         0     61903         0     61906         0
     61909         0     61912         0     61915         0     61918         0
     61921         0     61924         0     61927         0     61930         0
     61933         0     61936         0     61939         0     61942         0
     61945         0     61948         0     61951         0     61954         0
     61957         0     61960         0     61963         0     61966         0
     61969         0     61972         0     61975         0     61978         0
     61981         0     61984         0     61987         0     61990         0
     61993         0     61996         0     61999         0     62002         0
     62005         0     62008         0     62011         0     62014         0
     62017         0     62020         0     62023         0     62026         0
     62029         0     62032         0     62035         0     62038         0
     62041         0     62044         0     62047         0     62050         0
     62053         0     62056         0     62059         0     62062         0
     62065         0     62068         0     62071         0     62074         0
     62077         0     62080         0     62083         0     62086         0
     62089         0     62092         0     62095         0     62098         0
     62101         0     62104         0     62107         0     62110         0
     62113         0     62116         0     62119         0     62122         0
     62125         0     62128         0     62131         0     62134         0
     62137         0     62140         0     62143         0     62146         0
     62149         0     62152         0     62155         0     62158         0
     62161         0     62164         0     62167         0     62170         0
     62173         0     62176         0     62179         0     62182         0
     62185         0     62188         0     62191         0     62194         0
     62197         0     62200         0     62203         0     62206         0
     62209         0     62212         0     62215         0     62218         0
     62221         0     62224         0     62227         0     62230         0
     62233         0     62236         0     62239         0     62242         0
     62245         0     62248         0     62251         0     62254         0
     62257         0     62260         0     62263         0     62266         0
     62269         0     62272         0     62275         0     62278         0
     62281         0     62284         0     62287         0     62290         0
     62293         0     62296         0     62299         0     62302         0
     62305         0     62308         0     62311         0     62314         0
     62317         0     62320         0     62323         0     62326         0
     62329         0     62332         0     62335         0     62338         0
     62341         0     62344         0     62347         0     62350         0
     62353         0     62356         0     62359         0     62362         0
     62365         0     62368         0     62371         0     62374         0
     62377         0     62380         0     62383         0     62386         0
     62389         0     62392         0     62395         0     62398         0
     62401         0     62404         0     62407         0     62410         0
     62413         0     62416         0     62419         0     62422         0
     62425         0     62428         0     62431         0     62434         0
     62437         0     62440         0     62443         0     62446         0
     62449         0     62452         0     62455         0     62458         0
     62461         0     62464         0     62467         0     62470         0
     62473         0     62476         0     62479         0     62482         0
     62485         0     62488         0     62491         0     62494         0
     62497         0     62500         0     62503         0     62506         0
     62509         0     62512         0     62515         0     62518         0
     62521         0     62524         0     62527         0     62530         0
     62533         0     62536         0     62539         0     62542         0
     62545         0     62548         0     62551         0     62554         0
     62557         0     62560         0     62563         0     62566         0
     62569         0     62572         0     62575         0     62578         0
     62581         0     62584         0     62587         0     62590         0
     62593         0     62596         0     62599         0     62602         0
     62605         0     62608         0     62611         0     62614         0
     62617         0     62620         0     62623         0     62626         0
     62629         0     62632         0     62635         0     62638         0
     62641         0     62644         0     62647         0     62650         0
     62653         0     62656         0     62659         0     62662         0
     62665         0     62668         0     62671         0     62674         0
     62677         0     62680         0     62683         0     62686         0
     62689         0     62692         0     62695         0     62698         0
     62701         0     62704         0     62707         0     62710         0
     62713         0     62716         0     62719         0     62722         0
     62725         0     62728         0     62731         0     62734         0
     62737         0     62740         0     62743         0     62746         0
     62749         0     62752         0     62755         0     62758         0
     62761         0     62764         0     62767         0     62770         0
     62773         0     62776         0     62779         0     62782         0
     62785         0     62788         0     62791         0     62794         0
     62797         0     62800         0     62803         0     62806         0
     62809         0     62812         0     62815         0     62818         0
     62821         0     62824         0     62827         0     62830         0
     62833         0     62836         0     62839         0     62842         0
     62845         0     62848         0     62851         0     62854         0
     62857         0     62860         0     62863         0     62866         0
     62869         0     62872         0     62875         0     62878         0
     62881         0     62884         0     62887         0     62890         0
     62893         0     62896         0     62899         0     62902         0
     62905         0     62908         0     62911         0     62914         0
     62917         0     62920         0     62923         0     62926         0
     62929         0     62932         0     62935         0     62938         0
     62941         0     62944         0     62947         0     62950         0
     62953         0     62956         0     62959         0     62962         0
     62965         0     62968         0     62971         0     62974         0
     62977         0     62980         0     62983         0     62986         0
     62989         0     62992         0     62995         0     62998         0
     63001         0     63004         0     63007         0     63010         0
     63013         0     63016         0     63019         0     63022         0
     63025         0     63028         0     63031         0     63034         0
     63037         0     63040         0     63043         0     63046         0
     63049         0     63052         0     63055         0     63058         0
     63061         0     63064         0     63067         0     63070         0
     63073         0     63076         0     63079         0     63082         0
     63085         0     63088         0     63091         0     63094         0
     63097         0     63100         0     63103         0     63106         0
     63109         0     63112         0     63115         0     63118         0
     63121         0     63124         0     63127         0     63130         0
     63133         0     63136         0     63139         0     63142         0
     63145         0     63148         0     63151         0     63154         0
     63157         0     63160         0     63163         0     63166         0
     63169         0     63172         0     63175         0     63178         0
     63181         0     63184         0     63187         0     63190         0
     63193         0     63196         0     63199         0     63202         0
     63205         0     63208         0     63211         0     63214         0
     63217         0     63220         0     63223         0     63226         0
     63229         0     63232         0     63235         0     63238         0
     63241         0     63244         0     63247         0     63250         0
     63253         0     63256         0     63259         0     63262         0
     63265         0     63268         0     63271         0     63274         0
     63277         0     63280         0     63283         0     63286         0
     63289         0     63292         0     63295         0     63298         0
     63301         0     63304         0     63307         0     63310         0
     63313         0     63316         0     63319         0     63322         0
     63325         0     63328         0     63331         0     63334         0
     63337         0     63340         0     63343         0     63346         0
     63349         0     63352         0     63355         0     63358         0
     63361         0     63364         0     63367         0     63370         0
     63373         0     63376         0     63379         0     63382         0
     63385         0     63388         0     63391         0     63394         0
     63397         0     63400         0     63403         0     63406         0
     63409         0     63412         0     63415         0     63418         0
     63421         0     63424         0     63427         0     63430         0
     63433         0     63436         0     63439         0     63442         0
     63445         0     63448         0     63451         0     63454         0
     63457         0     63460         0     63463         0     63466         0
     63469         0     63472         0     63475         0     63478         0
     63481         0     63484         0     63487         0     63490         0
     63493         0     63496         0     63499         0     63502         0
     63505         0     63508         0     63511         0     63514         0
     63517         0     63520         0     63523         0     63526         0
     63529         0     63532         0     63535         0     63538         0
     63541         0     63544         0     63547         0     63550         0
     63553         0     63556         0     63559         0     63562         0
     63565         0     63568         0     63571         0     63574         0
     63577         0     63580         0     63583         0     63586         0
     63589         0     63592         0     63595         0     63598         0
     63601         0     63604         0     63607         0     63610         0
     63613         0     63616         0     63619         0     63622         0
     63625         0     63628         0     63631         0     63634         0
     63637         0     63640         0     63643         0     63646         0
     63649         0     63652         0     63655         0     63658         0
     63661         0     63664         0     63667         0     63670         0
     63673         0     63676         0     63679         0     63682         0
     63685         0     63688         0     63691         0     63694         0
     63697         0     63700         0     63703         0     63706         0
     63709         0     63712         0     63715         0     63718         0
     63721         0     63724         0     63727         0     63730         0
     63733         0     63736         0     63739         0     63742         0
     63745         0     63748         0     63751         0     63754         0
     63757         0     63760         0     63763         0     63766         0
     63769         0     63772         0     63775         0     63778         0
     63781         0     63784         0     63787         0     63790         0
     63793         0     63796         0     63799         0     63802         0
     63805         0     63808         0     63811         0     63814         0
     63817         0     63820         0     63823         0     63826         0
     63829         0     63832         0     63835         0     63838         0
     63841         0     63844         0     63847         0     63850         0
     63853         0     63856         0     63859         0     63862         0
     63865         0     63868         0     63871         0     63874         0
     63877         0     63880         0     63883         0     63886         0
     63889         0     63892         0     63895         0     63898         0
     63901         0     63904         0     63907         0     63910         0
     63913         0     63916         0     63919         0     63922         0
     63925         0     63928         0     63931         0     63934         0
     63937         0     63940         0     63943         0     63946         0
     63949         0     63952         0     63955         0     63958         0
     63961         0     63964         0     63967         0     63970         0
     63973         0     63976         0     63979         0     63982         0
     63985         0     63988         0     63991         0     63994         0
     63997         0     64000         0     64003         0     64006         0
     64009         0     64012         0     64015         0     64018         0
     64021         0     64024         0     64027         0     64030         0
     64033         0     64036         0     64039         0     64042         0
     64045         0     64048         0     64051         0     64054         0
     64057         0     64060         0     64063         0     64066         0
     64069         0     64072         0     64075         0     64078         0
     64081         0     64084         0     64087         0     64090         0
     64093         0     64096         0     64099         0     64102         0
     64105         0     64108         0     64111         0     64114         0
     64117         0     64120         0     64123         0     64126         0
     64129         0     64132         0     64135         0     64138         0
     64141         0     64144         0     64147         0     64150         0
     64153         0     64156         0     64159         0     64162         0
     64165         0     64168         0     64171         0     64174         0
     64177         0     64180         0     64183         0     64186         0
     64189         0     64192         0     64195         0     64198         0
     64201         0     64204         0     64207         0     64210         0
     64213         0     64216         0     64219         0     64222         0
     64225         0     64228         0     64231         0     64234         0
     64237         0     64240         0     64243         0     64246         0
     64249         0     64252         0     64255         0     64258         0
     64261         0     64264         0     64267         0     64270         0
     64273         0     64276         0     64279         0     64282         0
     64285         0     64288         0     64291         0     64294         0
     64297         0     64300         0     64303         0     64306         0
     64309         0     64312         0     64315         0     64318         0
     64321         0     64324         0     64327         0     64330         0
     64333         0     64336         0     64339         0     64342         0
     64345         0     64348         0     64351         0     64354         0
     64357         0     64360         0     64363         0     64366         0
     64369         0     64372         0     64375         0     64378         0
     64381         0     64384         0     64387         0     64390         0
     64393         0     64396         0     64399         0     64402         0
     64405         0     64408         0     64411         0     64414         0
     64417         0     64420         0     64423         0     64426         0
     64429         0     64432         0     64435         0     64438         0
     64441         0     64444         0     64447         0     64450         0
     64453         0     64456         0     64459         0     64462         0
     64465         0     64468         0     64471         0     64474         0
     64477         0     64480         0     64483         0     64486         0
     64489         0     64492         0     64495         0     64498         0
     64501         0     64504         0     64507         0     64510         0
     64513         0     64516         0     64519         0     64522         0
     64525         0     64528         0     64531         0     64534         0
     64537         0     64540         0     64543         0     64546         0
     64549         0     64552         0     64555         0     64558         0
     64561         0     64564         0     64567         0     64570         0
     64573         0     64576         0     64579         0     64582         0
     64585         0     64588         0     64591         0     64594         0
     64597         0     64600         0     64603         0     64606         0
     64609         0     64612         0     64615         0     64618         0
     64621         0     64624         0     64627         0     64630         0
     64633         0     64636         0     64639         0     64642         0
     64645         0     64648         0     64651         0     64654         0
     64657         0     64660         0     64663         0     64666         0
     64669         0     64672         0     64675         0     64678         0
     64681         0     64684         0     64687         0     64690         0
     64693         0     64696         0     64699         0     64702         0
     64705         0     64708         0     64711         0     64714         0
     64717         0     64720         0     64723         0     64726         0
     64729         0     64732         0     64735         0     64738         0
     64741         0     64744         0     64747         0     64750         0
     64753         0     64756         0     64759         0     64762         0
     64765         0     64768         0     64771         0     64774         0
     64777         0     64780         0     64783         0     64786         0
     64789         0     64792         0     64795         0     64798         0
     64801         0     64804         0     64807         0     64810         0
     64813         0     64816         0     64819         0     64822         0
     64825         0     64828         0     64831         0     64834         0
     64837         0     64840         0     64843         0     64846         0
     64849         0     64852         0     64855         0     64858         0
     64861         0     64864         0     64867         0     64870         0
     64873         0     64876         0     64879         0     64882         0
     64885         0     64888         0     64891         0     64894         0
     64897         0     64900         0     64903         0     64906         0
     64909         0     64912         0     64915         0     64918         0
     64921         0     64924         0     64927         0     64930         0
     64933         0     64936         0     64939         0     64942         0
     64945         0     64948         0     64951         0     64954         0
     64957         0     64960         0     64963         0     64966         0
     64969         0     64972         0     64975         0     64978         0
     64981         0     64984         0     64987         0     64990         0
     64993         0     64996         0     64999         0     65002         0
     65005         0     65008         0     65011         0     65014         0
     65017         0     65020         0     65023         0     65026         0
     65029         0     65032         0     65035         0     65038         0
     65041         0     65044         0     65047         0     65050         0
     65053         0     65056         0     65059         0     65062         0
     65065         0     65068         0     65071         0     65074         0
     65077         0     65080         0     65083         0     65086         0
     65089         0     65092         0     65095         0     65098         0
     65101         0     65104         0     65107         0     65110         0
     65113         0     65116         0     65119         0     65122         0
     65125         0     65128         0     65131         0     65134         0
     65137         0     65140         0     65143         0     65146         0
     65149         0     65152         0     65155         0     65158         0
     65161         0     65164         0     65167         0     65170         0
     65173         0     65176         0     65179         0     65182         0
     65185         0     65188         0     65191         0     65194         0
     65197         0     65200         0     65203         0     65206         0
     65209         0     65212         0     65215         0     65218         0
     65221         0     65224         0     65227         0     65230         0
     65233         0     65236         0     65239         0     65242         0
     65245         0     65248         0     65251         0     65254         0
     65257         0     65260         0     65263         0     65266         0
     65269         0     65272         0     65275         0     65278         0
     65281         0     65284         0     65287         0     65290         0
     65293         0     65296         0     65299         0     65302         0
     65305         0     65308         0     65311         0     65314         0
     65317         0     65320         0     65323         0     65326         0
     65329         0     65332         0     65335         0     65338         0
     65341         0     65344         0     65347         0     65350         0
     65353         0     65356         0     65359         0     65362         0
     65365         0     65368         0     65371         0     65374         0
     65377         0     65380         0     65383         0     65386         0
     65389         0     65392         0     65395         0     65398         0
     65401         0     65404         0     65407         0     65410         0
     65413         0     65416         0     65419         0     65422         0
     65425         0     65428         0     65431         0     65434         0
     65437         0     65440         0     65443         0     65446         0
     65449         0     65452         0     65455         0     65458         0
     65461         0     65464         0     65467         0     65470         0
     65473         0     65476         0     65479         0     65482         0
     65485         0     65488         0     65491         0     65494         0
     65497         0     65500         0     65503         0     65506         0
     65509         0     65512         0     65515         0     65518         0
     65521         0     65524         0     65527         0     65530         0
     65533         0     65536         0     65539         0     65542         0
     65545         0     65548         0     65551         0     65554         0
     65557         0     65560         0     65563         0     65566         0
     65569         0     65572         0     65575         0     65578         0
     65581         0     65584         0     65587         0     65590         0
     65593         0     65596         0     65599         0     65602         0
     65605         0     65608         0     65611         0     65614         0
     65617         0     65620         0     65623         0     65626         0
     65629         0     65632         0     65635         0     65638         0
     65641         0     65644         0     65647         0     65650         0
     65653         0     65656         0     65659         0     65662         0
     65665         0     65668         0     65671         0     65674         0
     65677         0     65680         0     65683         0     65686         0
     65689         0     65692         0     65695         0     65698         0
     65701         0     65704         0     65707         0     65710         0
     65713         0     65716         0     65719         0     65722         0
     65725         0     65728         0     65731         0     65734         0
     65737         0     65740         0     65743         0     65746         0
     65749         0     65752         0     65755         0     65758         0
     65761         0     65764         0     65767         0     65770         0
     65773         0     65776         0     65779         0     65782         0
     65785         0     65788         0     65791         0     65794         0
     65797         0     65800         0     65803         0     65806         0
     65809         0     65812         0     65815         0     65818         0
     65821         0     65824         0     65827         0     65830         0
     65833         0     65836         0     65839         0     65842         0
     65845         0     65848         0     65851         0     65854         0
     65857         0     65860         0     65863         0     65866         0
     65869         0     65872         0     65875         0     65878         0
     65881         0     65884         0     65887         0     65890         0
     65893         0     65896         0     65899         0     65902         0
     65905         0     65908         0     65911         0     65914         0
     65917         0     65920         0     65923         0     65926         0
     65929         0     65932         0     65935         0     65938         0
     65941         0     65944         0     65947         0     65950         0
     65953         0     65956         0     65959         0     65962         0
     65965         0     65968         0     65971         0     65974         0
     65977         0     65980         0     65983         0     65986         0
     65989         0     65992         0     65995         0     65998         0
     66001         0     66004         0     66007         0     66010         0
     66013         0     66016         0     66019         0     66022         0
     66025         0     66028         0     66031         0     66034         0
     66037         0     66040         0     66043         0     66046         0
     66049         0     66052         0     66055         0     66058         0
     66061         0     66064         0     66067         0     66070         0
     66073         0     66076         0     66079         0     66082         0
     66085         0     66088         0     66091         0     66094         0
     66097         0     66100         0     66103         0     66106         0
     66109         0     66112         0     66115         0     66118         0
     66121         0     66124         0     66127         0     66130         0
     66133         0     66136         0     66139         0     66142         0
     66145         0     66148         0     66151         0     66154         0
     66157         0     66160         0     66163         0     66166         0
     66169         0     66172         0     66175         0     66178         0
     66181         0     66184         0     66187         0     66190         0
     66193         0     66196         0     66199         0     66202         0
     66205         0     66208         0     66211         0     66214         0
     66217         0     66220         0     66223         0     66226         0
     66229         0     66232         0     66235         0     66238         0
     66241         0     66244         0     66247         0     66250         0
     66253         0     66256         0     66259         0     66262         0
     66265         0     66268         0     66271         0     66274         0
     66277         0     66280         0     66283         0     66286         0
     66289         0     66292         0     66295         0     66298         0
     66301         0     66304         0     66307         0     66310         0
     66313         0     66316         0     66319         0     66322         0
     66325         0     66328         0     66331         0     66334         0
     66337         0     66340         0     66343         0     66346         0
     66349         0     66352         0     66355         0     66358         0
     66361         0     66364         0     66367         0     66370         0
     66373         0     66376         0     66379         0     66382         0
     66385         0     66388         0     66391         0     66394         0
     66397         0     66400         0     66403         0     66406         0
     66409         0     66412         0     66415         0     66418         0
     66421         0     66424         0     66427         0     66430         0
     66433         0     66436         0     66439         0     66442         0
     66445         0     66448         0     66451         0     66454         0
     66457         0     66460         0     66463         0     66466         0
     66469         0     66472         0     66475         0     66478         0
     66481         0     66484         0     66487         0     66490         0
     66493         0     66496         0     66499         0     66502         0
     66505         0     66508         0     66511         0     66514         0
     66517         0     66520         0     66523         0     66526         0
     66529         0     66532         0     66535         0     66538         0
     66541         0     66544         0     66547         0     66550         0
     66553         0     66556         0     66559         0     66562         0
     66565         0     66568         0     66571         0     66574         0
     66577         0     66580         0     66583         0     66586         0
     66589         0     66592         0     66595         0     66598         0
     66601         0     66604         0     66607         0     66610         0
     66613         0     66616         0     66619         0     66622         0
     66625         0     66628         0     66631         0     66634         0
     66637         0     66640         0     66643         0     66646         0
     66649         0     66652         0     66655         0     66658         0
     66661         0     66664         0     66667         0     66670         0
     66673         0     66676         0     66679         0     66682         0
     66685         0     66688         0     66691         0     66694         0
     66697         0     66700         0     66703         0     66706         0
     66709         0     66712         0     66715         0     66718         0
     66721         0     66724         0     66727         0     66730         0
     66733         0     66736         0     66739         0     66742         0
     66745         0     66748         0     66751         0     66754         0
     66757         0     66760         0     66763         0     66766         0
     66769         0     66772         0     66775         0     66778         0
     66781         0     66784         0     66787         0     66790         0
     66793         0     66796         0     66799         0     66802         0
     66805         0     66808         0     66811         0     66814         0
     66817         0     66820         0     66823         0     66826         0
     66829         0     66832         0     66835         0     66838         0
     66841         0     66844         0     66847         0     66850         0
     66853         0     66856         0     66859         0     66862         0
     66865         0     66868         0     66871         0     66874         0
     66877         0     66880         0     66883         0     66886         0
     66889         0     66892         0     66895         0     66898         0
     66901         0     66904         0     66907         0     66910         0
     66913         0     66916         0     66919         0     66922         0
     66925         0     66928         0     66931         0     66934         0
     66937         0     66940         0     66943         0     66946         0
     66949         0     66952         0     66955         0     66958         0
     66961         0     66964         0     66967         0     66970         0
     66973         0     66976         0     66979         0     66982         0
     66985         0     66988         0     66991         0     66994         0
     66997         0     67000         0     67003         0     67006         0
     67009         0     67012         0     67015         0     67018         0
     67021         0     67024         0     67027         0     67030         0
     67033         0     67036         0     67039         0     67042         0
     67045         0     67048         0     67051         0     67054         0
     67057         0     67060         0     67063         0     67066         0
     67069         0     67072         0     67075         0     67078         0
     67081         0     67084         0     67087         0     67090         0
     67093         0     67096         0     67099         0     67102         0
     67105         0     67108         0     67111         0     67114         0
     67117         0     67120         0     67123         0     67126         0
     67129         0     67132         0     67135         0     67138         0
     67141         0     67144         0     67147         0     67150         0
     67153         0     67156         0     67159         0     67162         0
     67165         0     67168         0     67171         0     67174         0
     67177         0     67180         0     67183         0     67186         0
     67189         0     67192         0     67195         0     67198         0
     67201         0     67204         0     67207         0     67210         0
     67213         0     67216         0     67219         0     67222         0
     67225         0     67228         0     67231         0     67234         0
     67237         0     67240         0     67243         0     67246         0
     67249         0     67252         0     67255         0     67258         0
     67261         0     67264         0     67267         0     67270         0
     67273         0     67276         0     67279         0     67282         0
     67285         0     67288         0     67291         0     67294         0
     67297         0     67300         0     67303         0     67306         0
     67309         0     67312         0     67315         0     67318         0
     67321         0     67324         0     67327         0     67330         0
     67333         0     67336         0     67339         0     67342         0
     67345         0     67348         0     67351         0     67354         0
     67357         0     67360         0     67363         0     67366         0
     67369         0     67372         0     67375         0     67378         0
     67381         0     67384         0     67387         0     67390         0
     67393         0     67396         0     67399         0     67402         0
     67405         0     67408         0     67411         0     67414         0
     67417         0     67420         0     67423         0     67426         0
     67429         0     67432         0     67435         0     67438         0
     67441         0     67444         0     67447         0     67450         0
     67453         0     67456         0     67459         0     67462         0
     67465         0     67468         0     67471         0     67474         0
     67477         0     67480         0     67483         0     67486         0
     67489         0     67492         0     67495         0     67498         0
     67501         0     67504         0     67507         0     67510         0
     67513         0     67516         0     67519         0     67522         0
     67525         0     67528         0     67531         0     67534         0
     67537         0     67540         0     67543         0     67546         0
     67549         0     67552         0     67555         0     67558         0
     67561         0     67564         0     67567         0     67570         0
     67573         0     67576         0     67579         0     67582         0
     67585         0     67588         0     67591         0     67594         0
     67597         0     67600         0     67603         0     67606         0
     67609         0     67612         0     67615         0     67618         0
     67621         0     67624         0     67627         0     67630         0
     67633         0     67636         0     67639         0     67642         0
     67645         0     67648         0     67651         0     67654         0
     67657         0     67660         0     67663         0     67666         0
     67669         0     67672         0     67675         0     67678         0
     67681         0     67684         0     67687         0     67690         0
     67693         0     67696         0     67699         0     67702         0
     67705         0     67708         0     67711         0     67714         0
     67717         0     67720         0     67723         0     67726         0
     67729         0     67732         0     67735         0     67738         0
     67741         0     67744         0     67747         0     67750         0
     67753         0     67756         0     67759         0     67762         0
     67765         0     67768         0     67771         0     67774         0
     67777         0     67780         0     67783         0     67786         0
     67789         0     67792         0     67795         0     67798         0
     67801         0     67804         0     67807         0     67810         0
     67813         0     67816         0     67819         0     67822         0
     67825         0     67828         0     67831         0     67834         0
     67837         0     67840         0     67843         0     67846         0
     67849         0     67852         0     67855         0     67858         0
     67861         0     67864         0     67867         0     67870         0
     67873         0     67876         0     67879         0     67882         0
     67885         0     67888         0     67891         0     67894         0
     67897         0     67900         0     67903         0     67906         0
     67909         0     67912         0     67915         0     67918         0
     67921         0     67924         0     67927         0     67930         0
     67933         0     67936         0     67939         0     67942         0
     67945         0     67948         0     67951         0     67954         0
     67957         0     67960         0     67963         0     67966         0
     67969         0     67972         0     67975         0     67978         0
     67981         0     67984         0     67987         0     67990         0
     67993         0     67996         0     67999         0     68002         0
     68005         0     68008         0     68011         0     68014         0
     68017         0     68020         0     68023         0     68026         0
     68029         0     68032         0     68035         0     68038         0
     68041         0     68044         0     68047         0     68050         0
     68053         0     68056         0     68059         0     68062         0
     68065         0     68068         0     68071         0     68074         0
     68077         0     68080         0     68083         0     68086         0
     68089         0     68092         0     68095         0     68098         0
     68101         0     68104         0     68107         0     68110         0
     68113         0     68116         0     68119         0     68122         0
     68125         0     68128         0     68131         0     68134         0
     68137         0     68140         0     68143         0     68146         0
     68149         0     68152         0     68155         0     68158         0
     68161         0     68164         0     68167         0     68170         0
     68173         0     68176         0     68179         0     68182         0
     68185         0     68188         0     68191         0     68194         0
     68197         0     68200         0     68203         0     68206         0
     68209         0     68212         0     68215         0     68218         0
     68221         0     68224         0     68227         0     68230         0
     68233         0     68236         0     68239         0     68242         0
     68245         0     68248         0     68251         0     68254         0
     68257         0     68260         0     68263         0     68266         0
     68269         0     68272         0     68275         0     68278         0
     68281         0     68284         0     68287         0     68290         0
     68293         0     68296         0     68299         0     68302         0
     68305         0     68308         0     68311         0     68314         0
     68317         0     68320         0     68323         0     68326         0
     68329         0     68332         0     68335         0     68338         0
     68341         0     68344         0     68347         0     68350         0
     68353         0     68356         0     68359         0     68362         0
     68365         0     68368         0     68371         0     68374         0
     68377         0     68380         0     68383         0     68386         0
     68389         0     68392         0     68395         0     68398         0
     68401         0     68404         0     68407         0     68410         0
     68413         0     68416         0     68419         0     68422         0
     68425         0     68428         0     68431         0     68434         0
     68437         0     68440         0     68443         0     68446         0
     68449         0     68452         0     68455         0     68458         0
     68461         0     68464         0     68467         0     68470         0
     68473         0     68476         0     68479         0     68482         0
     68485         0     68488         0     68491         0     68494         0
     68497         0     68500         0     68503         0     68506         0
     68509         0     68512         0     68515         0     68518         0
     68521         0     68524         0     68527         0     68530         0
     68533         0     68536         0     68539         0     68542         0
     68545         0     68548         0     68551         0     68554         0
     68557         0     68560         0     68563         0     68566         0
     68569         0     68572         0     68575         0     68578         0
     68581         0     68584         0     68587         0     68590         0
     68593         0     68596         0     68599         0     68602         0
     68605         0     68608         0     68611         0     68614         0
     68617         0     68620         0     68623         0     68626         0
     68629         0     68632         0     68635         0     68638         0
     68641         0     68644         0     68647         0     68650         0
     68653         0     68656         0     68659         0     68662         0
     68665         0     68668         0     68671         0     68674         0
     68677         0     68680         0     68683         0     68686         0
     68689         0     68692         0     68695         0     68698         0
     68701         0     68704         0     68707         0     68710         0
     68713         0     68716         0     68719         0     68722         0
     68725         0     68728         0     68731         0     68734         0
     68737         0     68740         0     68743         0     68746         0
     68749         0     68752         0     68755         0     68758         0
     68761         0     68764         0     68767         0     68770         0
     68773         0     68776         0     68779         0     68782         0
     68785         0     68788         0     68791         0     68794         0
     68797         0     68800         0     68803         0     68806         0
     68809         0     68812         0     68815         0     68818         0
     68821         0     68824         0     68827         0     68830         0
     68833         0     68836         0     68839         0     68842         0
     68845         0     68848         0     68851         0     68854         0
     68857         0     68860         0     68863         0     68866         0
     68869         0     68872         0     68875         0     68878         0
     68881         0     68884         0     68887         0     68890         0
     68893         0     68896         0     68899         0     68902         0
     68905         0     68908         0     68911         0     68914         0
     68917         0     68920         0     68923         0     68926         0
     68929         0     68932         0     68935         0     68938         0
     68941         0     68944         0     68947         0     68950         0
     68953         0     68956         0     68959         0     68962         0
     68965         0     68968         0     68971         0     68974         0
     68977         0     68980         0     68983         0     68986         0
     68989         0     68992         0     68995         0     68998         0
     69001         0     69004         0     69007         0     69010         0
     69013         0     69016         0     69019         0     69022         0
     69025         0     69028         0     69031         0     69034         0
     69037         0     69040         0     69043         0     69046         0
     69049         0     69052         0     69055         0     69058         0
     69061         0     69064         0     69067         0     69070         0
     69073         0     69076         0     69079         0     69082         0
     69085         0     69088         0     69091         0     69094         0
     69097         0     69100         0     69103         0     69106         0
     69109         0     69112         0     69115         0     69118         0
     69121         0     69124         0     69127         0     69130         0
     69133         0     69136         0     69139         0     69142         0
     69145         0     69148         0     69151         0     69154         0
     69157         0     69160         0     69163         0     69166         0
     69169         0     69172         0     69175         0     69178         0
     69181         0     69184         0     69187         0     69190         0
     69193         0     69196         0     69199         0     69202         0
     69205         0     69208         0     69211         0     69214         0
     69217         0     69220         0     69223         0     69226         0
     69229         0     69232         0     69235         0     69238         0
     69241         0     69244         0     69247         0     69250         0
     69253         0     69256         0     69259         0     69262         0
     69265         0     69268         0     69271         0     69274         0
     69277         0     69280         0     69283         0     69286         0
     69289         0     69292         0     69295         0     69298         0
     69301         0     69304         0     69307         0     69310         0
     69313         0     69316         0     69319         0     69322         0
     69325         0     69328         0     69331         0     69334         0
     69337         0     69340         0     69343         0     69346         0
     69349         0     69352         0     69355         0     69358         0
     69361         0     69364         0     69367         0     69370         0
     69373         0     69376         0     69379         0     69382         0
     69385         0     69388         0     69391         0     69394         0
     69397         0     69400         0     69403         0     69406         0
     69409         0     69412         0     69415         0     69418         0
     69421         0     69424         0     69427         0     69430         0
     69433         0     69436         0     69439         0     69442         0
     69445         0     69448         0     69451         0     69454         0
     69457         0     69460         0     69463         0     69466         0
     69469         0     69472         0     69475         0     69478         0
     69481         0     69484         0     69487         0     69490         0
     69493         0     69496         0     69499         0     69502         0
     69505         0     69508         0     69511         0     69514         0
     69517         0     69520         0     69523         0     69526         0
     69529         0     69532         0     69535         0     69538         0
     69541         0     69544         0     69547         0     69550         0
     69553         0     69556         0     69559         0     69562         0
     69565         0     69568         0     69571         0     69574         0
     69577         0     69580         0     69583         0     69586         0
     69589         0     69592         0     69595         0     69598         0
     69601         0     69604         0     69607         0     69610         0
     69613         0     69616         0     69619         0     69622         0
     69625         0     69628         0     69631         0     69634         0
     69637         0     69640         0     69643         0     69646         0
     69649         0     69652         0     69655         0     69658         0
     69661         0     69664         0     69667         0     69670         0
     69673         0     69676         0     69679         0     69682         0
     69685         0     69688         0     69691         0     69694         0
     69697         0     69700         0     69703         0     69706         0
     69709         0     69712         0     69715         0     69718         0
     69721         0     69724         0     69727         0     69730         0
     69733         0     69736         0     69739         0     69742         0
     69745         0     69748         0     69751         0     69754         0
     69757         0     69760         0     69763         0     69766         0
     69769         0     69772         0     69775         0     69778         0
     69781         0     69784         0     69787         0     69790         0
     69793         0     69796         0     69799         0     69802         0
     69805         0     69808         0     69811         0     69814         0
     69817         0     69820         0     69823         0     69826         0
     69829         0     69832         0     69835         0     69838         0
     69841         0     69844         0     69847         0     69850         0
     69853         0     69856         0     69859         0     69862         0
     69865         0     69868         0     69871         0     69874         0
     69877         0     69880         0     69883         0     69886         0
     69889         0     69892         0     69895         0     69898         0
     69901         0     69904         0     69907         0     69910         0
     69913         0     69916         0     69919         0     69922         0
     69925         0     69928         0     69931         0     69934         0
     69937         0     69940         0     69943         0     69946         0
     69949         0     69952         0     69955         0     69958         0
     69961         0     69964         0     69967         0     69970         0
     69973         0     69976         0     69979         0     69982         0
     69985         0     69988         0     69991         0     69994         0
     69997         0     70000         0     70003         0     70006         0
     70009         0     70012         0     70015         0     70018         0
     70021         0     70024         0     70027         0     70030         0
     70033         0     70036         0     70039         0     70042         0
     70045         0     70048         0     70051         0     70054         0
     70057         0     70060         0     70063         0     70066         0
     70069         0     70072         0     70075         0     70078         0
     70081         0     70084         0     70087         0     70090         0
     70093         0     70096         0     70099         0     70102         0
     70105         0     70108         0     70111         0     70114         0
     70117         0     70120         0     70123         0     70126         0
     70129         0     70132         0     70135         0     70138         0
     70141         0     70144         0     70147         0     70150         0
     70153         0     70156         0     70159         0     70162         0
     70165         0     70168         0     70171         0     70174         0
     70177         0     70180         0     70183         0     70186         0
     70189         0     70192         0     70195         0     70198         0
     70201         0     70204         0     70207         0     70210         0
     70213         0     70216         0     70219         0     70222         0
     70225         0     70228         0     70231         0     70234         0
     70237         0     70240         0     70243         0     70246         0
     70249         0     70252         0     70255         0     70258         0
     70261         0     70264         0     70267         0     70270         0
     70273         0     70276         0     70279         0     70282         0
     70285         0     70288         0     70291         0     70294         0
     70297         0     70300         0     70303         0     70306         0
     70309         0     70312         0     70315         0     70318         0
     70321         0     70324         0     70327         0     70330         0
     70333         0     70336         0     70339         0     70342         0
     70345         0     70348         0     70351         0     70354         0
     70357         0     70360         0     70363         0     70366         0
     70369         0     70372         0     70375         0     70378         0
     70381         0     70384         0     70387         0     70390         0
     70393         0     70396         0     70399         0     70402         0
     70405         0     70408         0     70411         0     70414         0
     70417         0     70420         0     70423         0     70426         0
     70429         0     70432         0     70435         0     70438         0
     70441         0     70444         0     70447         0     70450         0
     70453         0     70456         0     70459         0     70462         0
     70465         0     70468         0     70471         0     70474         0
     70477         0     70480         0     70483         0     70486         0
     70489         0     70492         0     70495         0     70498         0
     70501         0     70504         0     70507         0     70510         0
     70513         0     70516         0     70519         0     70522         0
     70525         0     70528         0     70531         0     70534         0
     70537         0     70540         0     70543         0     70546         0
     70549         0     70552         0     70555         0     70558         0
     70561         0     70564         0     70567         0     70570         0
     70573         0     70576         0     70579         0     70582         0
     70585         0     70588         0     70591         0     70594         0
     70597         0     70600         0     70603         0     70606         0
     70609         0     70612         0     70615         0     70618         0
     70621         0     70624         0     70627         0     70630         0
     70633         0     70636         0     70639         0     70642         0
     70645         0     70648         0     70651         0     70654         0
     70657         0     70660         0     70663         0     70666         0
     70669         0     70672         0     70675         0     70678         0
     70681         0     70684         0     70687         0     70690         0
     70693         0     70696         0     70699         0     70702         0
     70705         0     70708         0     70711         0     70714         0
     70717         0     70720         0     70723         0     70726         0
     70729         0     70732         0     70735         0     70738         0
     70741         0     70744         0     70747         0     70750         0
     70753         0     70756         0     70759         0     70762         0
     70765         0     70768         0     70771         0     70774         0
     70777         0     70780         0     70783         0     70786         0
     70789         0     70792         0     70795         0     70798         0
     70801         0     70804         0     70807         0     70810         0
     70813         0     70816         0     70819         0     70822         0
     70825         0     70828         0     70831         0     70834         0
     70837         0     70840         0     70843         0     70846         0
     70849         0     70852         0     70855         0     70858         0
     70861         0     70864         0     70867         0     70870         0
     70873         0     70876         0     70879         0     70882         0
     70885         0     70888         0     70891         0     70894         0
     70897         0     70900         0     70903         0     70906         0
     70909         0     70912         0     70915         0     70918         0
     70921         0     70924         0     70927         0     70930         0
     70933         0     70936         0     70939         0     70942         0
     70945         0     70948         0     70951         0     70954         0
     70957         0     70960         0     70963         0     70966         0
     70969         0     70972         0     70975         0     70978         0
     70981         0     70984         0     70987         0     70990         0
     70993         0     70996         0     70999         0     71002         0
     71005         0     71008         0     71011         0     71014         0
     71017         0     71020         0     71023         0     71026         0
     71029         0     71032         0     71035         0     71038         0
     71041         0     71044         0     71047         0     71050         0
     71053         0     71056         0     71059         0     71062         0
     71065         0     71068         0     71071         0     71074         0
     71077         0     71080         0     71083         0     71086         0
     71089         0     71092         0     71095         0     71098         0
     71101         0     71104         0     71107         0     71110         0
     71113         0     71116         0     71119         0     71122         0
     71125         0     71128         0     71131         0     71134         0
     71137         0     71140         0     71143         0     71146         0
     71149         0     71152         0     71155         0     71158         0
     71161         0     71164         0     71167         0     71170         0
     71173         0     71176         0     71179         0     71182         0
     71185         0     71188         0     71191         0     71194         0
     71197         0     71200         0     71203         0     71206         0
     71209         0     71212         0     71215         0     71218         0
     71221         0     71224         0     71227         0     71230         0
     71233         0     71236         0     71239         0     71242         0
     71245         0     71248         0     71251         0     71254         0
     71257         0     71260         0     71263         0     71266         0
     71269         0     71272         0     71275         0     71278         0
     71281         0     71284         0     71287         0     71290         0
     71293         0     71296         0     71299         0     71302         0
     71305         0     71308         0     71311         0     71314         0
     71317         0     71320         0     71323         0     71326         0
     71329         0     71332         0     71335         0     71338         0
     71341         0     71344         0     71347         0     71350         0
     71353         0     71356         0     71359         0     71362         0
     71365         0     71368         0     71371         0     71374         0
     71377         0     71380         0     71383         0     71386         0
     71389         0     71392         0     71395         0     71398         0
     71401         0     71404         0     71407         0     71410         0
     71413         0     71416         0     71419         0     71422         0
     71425         0     71428         0     71431         0     71434         0
     71437         0     71440         0     71443         0     71446         0
     71449         0     71452         0     71455         0     71458         0
     71461         0     71464         0     71467         0     71470         0
     71473         0     71476         0     71479         0     71482         0
     71485         0     71488         0     71491         0     71494         0
     71497         0     71500         0     71503         0     71506         0
     71509         0     71512         0     71515         0     71518         0
     71521         0     71524         0     71527         0     71530         0
     71533         0     71536         0     71539         0     71542         0
     71545         0     71548         0     71551         0     71554         0
     71557         0     71560         0     71563         0     71566         0
     71569         0     71572         0     71575         0     71578         0
     71581         0     71584         0     71587         0     71590         0
     71593         0     71596         0     71599         0     71602         0
     71605         0     71608         0     71611         0     71614         0
     71617         0     71620         0     71623         0     71626         0
     71629         0     71632         0     71635         0     71638         0
     71641         0     71644         0     71647         0     71650         0
     71653         0     71656         0     71659         0     71662         0
     71665         0     71668         0     71671         0     71674         0
     71677         0     71680         0     71683         0     71686         0
     71689         0     71692         0     71695         0     71698         0
     71701         0     71704         0     71707         0     71710         0
     71713         0     71716         0     71719         0     71722         0
     71725         0     71728         0     71731         0     71734         0
     71737         0     71740         0     71743         0     71746         0
     71749         0     71752         0     71755         0     71758         0
     71761         0     71764         0     71767         0     71770         0
     71773         0     71776         0     71779         0     71782         0
     71785         0     71788         0     71791         0     71794         0
     71797         0     71800         0     71803         0     71806         0
     71809         0     71812         0     71815         0     71818         0
     71821         0     71824         0     71827         0     71830         0
     71833         0     71836         0     71839         0     71842         0
     71845         0     71848         0     71851         0     71854         0
     71857         0     71860         0     71863         0     71866         0
     71869         0     71872         0     71875         0     71878         0
     71881         0     71884         0     71887         0     71890         0
     71893         0     71896         0     71899         0     71902         0
     71905         0     71908         0     71911         0     71914         0
     71917         0     71920         0     71923         0     71926         0
     71929         0     71932         0     71935         0     71938         0
     71941         0     71944         0     71947         0     71950         0
     71953         0     71956         0     71959         0     71962         0
     71965         0     71968         0     71971         0     71974         0
     71977         0     71980         0     71983         0     71986         0
     71989         0     71992         0     71995         0     71998         0
     72001         0     72004         0     72007         0     72010         0
     72013         0     72016         0     72019         0     72022         0
     72025         0     72028         0     72031         0     72034         0
     72037         0     72040         0     72043         0     72046         0
     72049         0     72052         0     72055         0     72058         0
     72061         0     72064         0     72067         0     72070         0
     72073         0     72076         0     72079         0     72082         0
     72085         0     72088         0     72091         0     72094         0
     72097         0     72100         0     72103         0     72106         0
     72109         0     72112         0     72115         0     72118         0
     72121         0     72124         0     72127         0     72130         0
     72133         0     72136         0     72139         0     72142         0
     72145         0     72148         0     72151         0     72154         0
     72157         0     72160         0     72163         0     72166         0
     72169         0     72172         0     72175         0     72178         0
     72181         0     72184         0     72187         0     72190         0
     72193         0     72196         0     72199         0     72202         0
     72205         0     72208         0     72211         0     72214         0
     72217         0     72220         0     72223         0     72226         0
     72229         0     72232         0     72235         0     72238         0
     72241         0     72244         0     72247         0     72250         0
     72253         0     72256         0     72259         0     72262         0
     72265         0     72268         0     72271         0     72274         0
     72277         0     72280         0     72283         0     72286         0
     72289         0     72292         0     72295         0     72298         0
     72301         0     72304         0     72307         0     72310         0
     72313         0     72316         0     72319         0     72322         0
     72325         0     72328         0     72331         0     72334         0
     72337         0     72340         0     72343         0     72346         0
     72349         0     72352         0     72355         0     72358         0
     72361         0     72364         0     72367         0     72370         0
     72373         0     72376         0     72379         0     72382         0
     72385         0     72388         0     72391         0     72394         0
     72397         0     72400         0     72403         0     72406         0
     72409         0     72412         0     72415         0     72418         0
     72421         0     72424         0     72427         0     72430         0
     72433         0     72436         0     72439         0     72442         0
     72445         0     72448         0     72451         0     72454         0
     72457         0     72460         0     72463         0     72466         0
     72469         0     72472         0     72475         0     72478         0
     72481         0     72484         0     72487         0     72490         0
     72493         0     72496         0     72499         0     72502         0
     72505         0     72508         0     72511         0     72514         0
     72517         0     72520         0     72523         0     72526         0
     72529         0     72532         0     72535         0     72538         0
     72541         0     72544         0     72547         0     72550         0
     72553         0     72556         0     72559         0     72562         0
     72565         0     72568         0     72571         0     72574         0
     72577         0     72580         0     72583         0     72586         0
     72589         0     72592         0     72595         0     72598         0
     72601         0     72604         0     72607         0     72610         0
     72613         0     72616         0     72619         0     72622         0
     72625         0     72628         0     72631         0     72634         0
     72637         0     72640         0     72643         0     72646         0
     72649         0     72652         0     72655         0     72658         0
     72661         0     72664         0     72667         0     72670         0
     72673         0     72676         0     72679         0     72682         0
     72685         0     72688         0     72691         0     72694         0
     72697         0     72700         0     72703         0     72706         0
     72709         0     72712         0     72715         0     72718         0
     72721         0     72724         0     72727         0     72730         0
     72733         0     72736         0     72739         0     72742         0
     72745         0     72748         0     72751         0     72754         0
     72757         0     72760         0     72763         0     72766         0
     72769         0     72772         0     72775         0     72778         0
     72781         0     72784         0     72787         0     72790         0
     72793         0     72796         0     72799         0     72802         0
     72805         0     72808         0     72811         0     72814         0
     72817         0     72820         0     72823         0     72826         0
     72829         0     72832         0     72835         0     72838         0
     72841         0     72844         0     72847         0     72850         0
     72853         0     72856         0     72859         0     72862         0
     72865         0     72868         0     72871         0     72874         0
     72877         0     72880         0     72883         0     72886         0
     72889         0     72892         0     72895         0     72898         0
     72901         0     72904         0     72907         0     72910         0
     72913         0     72916         0     72919         0     72922         0
     72925         0     72928         0     72931         0     72934         0
     72937         0     72940         0     72943         0     72946         0
     72949         0     72952         0     72955         0     72958         0
     72961         0     72964         0     72967         0     72970         0
     72973         0     72976         0     72979         0     72982         0
     72985         0     72988         0     72991         0     72994         0
     72997         0     73000         0     73003         0     73006         0
     73009         0     73012         0     73015         0     73018         0
     73021         0     73024         0     73027         0     73030         0
     73033         0     73036         0     73039         0     73042         0
     73045         0     73048         0     73051         0     73054         0
     73057         0     73060         0     73063         0     73066         0
     73069         0     73072         0     73075         0     73078         0
     73081         0     73084         0     73087         0     73090         0
     73093         0     73096         0     73099         0     73102         0
     73105         0     73108         0     73111         0     73114         0
     73117         0     73120         0     73123         0     73126         0
     73129         0     73132         0     73135         0     73138         0
     73141         0     73144         0     73147         0     73150         0
     73153         0     73156         0     73159         0     73162         0
     73165         0     73168         0     73171         0     73174         0
     73177         0     73180         0     73183         0     73186         0
     73189         0     73192         0     73195         0     73198         0
     73201         0     73204         0     73207         0     73210         0
     73213         0     73216         0     73219         0     73222         0
     73225         0     73228         0     73231         0     73234         0
     73237         0     73240         0     73243         0     73246         0
     73249         0     73252         0     73255         0     73258         0
     73261         0     73264         0     73267         0     73270         0
     73273         0     73276         0     73279         0     73282         0
     73285         0     73288         0     73291         0     73294         0
     73297         0     73300         0     73303         0     73306         0
     73309         0     73312         0     73315         0     73318         0
     73321         0     73324         0     73327         0     73330         0
     73333         0     73336         0     73339         0     73342         0
     73345         0     73348         0     73351         0     73354         0
     73357         0     73360         0     73363         0     73366         0
     73369         0     73372         0     73375         0     73378         0
     73381         0     73384         0     73387         0     73390         0
     73393         0     73396         0     73399         0     73402         0
     73405         0     73408         0     73411         0     73414         0
     73417         0     73420         0     73423         0     73426         0
     73429         0     73432         0     73435         0     73438         0
     73441         0     73444         0     73447         0     73450         0
     73453         0     73456         0     73459         0     73462         0
     73465         0     73468         0     73471         0     73474         0
     73477         0     73480         0     73483         0     73486         0
     73489         0     73492         0     73495         0     73498         0
     73501         0     73504         0     73507         0     73510         0
     73513         0     73516         0     73519         0     73522         0
     73525         0     73528         0     73531         0     73534         0
     73537         0     73540         0     73543         0     73546         0
     73549         0     73552         0     73555         0     73558         0
     73561         0     73564         0     73567         0     73570         0
     73573         0     73576         0     73579         0     73582         0
     73585         0     73588         0     73591         0     73594         0
     73597         0     73600         0     73603         0     73606         0
     73609         0     73612         0     73615         0     73618         0
     73621         0     73624         0     73627         0     73630         0
     73633         0     73636         0     73639         0     73642         0
     73645         0     73648         0     73651         0     73654         0
     73657         0     73660         0     73663         0     73666         0
     73669         0     73672         0     73675         0     73678         0
     73681         0     73684         0     73687         0     73690         0
     73693         0     73696         0     73699         0     73702         0
     73705         0     73708         0     73711         0     73714         0
     73717         0     73720         0     73723         0     73726         0
     73729         0     73732         0     73735         0     73738         0
     73741         0     73744         0     73747         0     73750         0
     73753         0     73756         0     73759         0     73762         0
     73765         0     73768         0     73771         0     73774         0
     73777         0     73780         0     73783         0     73786         0
     73789         0     73792         0     73795         0     73798         0
     73801         0     73804         0     73807         0     73810         0
     73813         0     73816         0     73819         0     73822         0
     73825         0     73828         0     73831         0     73834         0
     73837         0     73840         0     73843         0     73846         0
     73849         0     73852         0     73855         0     73858         0
     73861         0     73864         0     73867         0     73870         0
     73873         0     73876         0     73879         0     73882         0
     73885         0     73888         0     73891         0     73894         0
     73897         0     73900         0     73903         0     73906         0
     73909         0     73912         0     73915         0     73918         0
     73921         0     73924         0     73927         0     73930         0
     73933         0     73936         0     73939         0     73942         0
     73945         0     73948         0     73951         0     73954         0
     73957         0     73960         0     73963         0     73966         0
     73969         0     73972         0     73975         0     73978         0
     73981         0     73984         0     73987         0     73990         0
     73993         0     73996         0     73999         0     74002         0
     74005         0     74008         0     74011         0     74014         0
     74017         0     74020         0     74023         0     74026         0
     74029         0     74032         0     74035         0     74038         0
     74041         0     74044         0     74047         0     74050         0
     74053         0     74056         0     74059         0     74062         0
     74065         0     74068         0     74071         0     74074         0
     74077         0     74080         0     74083         0     74086         0
     74089         0     74092         0     74095         0     74098         0
     74101         0     74104         0     74107         0     74110         0
     74113         0     74116         0     74119         0     74122         0
     74125         0     74128         0     74131         0     74134         0
     74137         0     74140         0     74143         0     74146         0
     74149         0     74152         0     74155         0     74158         0
     74161         0     74164         0     74167         0     74170         0
     74173         0     74176         0     74179         0     74182         0
     74185         0     74188         0     74191         0     74194         0
     74197         0     74200         0     74203         0     74206         0
     74209         0     74212         0     74215         0     74218         0
     74221         0     74224         0     74227         0     74230         0
     74233         0     74236         0     74239         0     74242         0
     74245         0     74248         0     74251         0     74254         0
     74257         0     74260         0     74263         0     74266         0
     74269         0     74272         0     74275         0     74278         0
     74281         0     74284         0     74287         0     74290         0
     74293         0     74296         0     74299         0     74302         0
     74305         0     74308         0     74311         0     74314         0
     74317         0     74320         0     74323         0     74326         0
     74329         0     74332         0     74335         0     74338         0
     74341         0     74344         0     74347         0     74350         0
     74353         0     74356         0     74359         0     74362         0
     74365         0     74368         0     74371         0     74374         0
     74377         0     74380         0     74383         0     74386         0
     74389         0     74392         0     74395         0     74398         0
     74401         0     74404         0     74407         0     74410         0
     74413         0     74416         0     74419         0     74422         0
     74425         0     74428         0     74431         0     74434         0
     74437         0     74440         0     74443         0     74446         0
     74449         0     74452         0     74455         0     74458         0
     74461         0     74464         0     74467         0     74470         0
     74473         0     74476         0     74479         0     74482         0
     74485         0     74488         0     74491         0     74494         0
     74497         0     74500         0     74503         0     74506         0
     74509         0     74512         0     74515         0     74518         0
     74521         0     74524         0     74527         0     74530         0
     74533         0     74536         0     74539         0     74542         0
     74545         0     74548         0     74551         0     74554         0
     74557         0     74560         0     74563         0     74566         0
     74569         0     74572         0     74575         0     74578         0
     74581         0     74584         0     74587         0     74590         0
     74593         0     74596         0     74599         0     74602         0
     74605         0     74608         0     74611         0     74614         0
     74617         0     74620         0     74623         0     74626         0
     74629         0     74632         0     74635         0     74638         0
     74641         0     74644         0     74647         0     74650         0
     74653         0     74656         0     74659         0     74662         0
     74665         0     74668         0     74671         0     74674         0
     74677         0     74680         0     74683         0     74686         0
     74689         0     74692         0     74695         0     74698         0
     74701         0     74704         0     74707         0     74710         0
     74713         0     74716         0     74719         0     74722         0
     74725         0     74728         0     74731         0     74734         0
     74737         0     74740         0     74743         0     74746         0
     74749         0     74752         0     74755         0     74758         0
     74761         0     74764         0     74767         0     74770         0
     74773         0     74776         0     74779         0     74782         0
     74785         0     74788         0     74791         0     74794         0
     74797         0     74800         0     74803         0     74806         0
     74809         0     74812         0     74815         0     74818         0
     74821         0     74824         0     74827         0     74830         0
     74833         0     74836         0     74839         0     74842         0
     74845         0     74848         0     74851         0     74854         0
     74857         0     74860         0     74863         0     74866         0
     74869         0     74872         0     74875         0     74878         0
     74881         0     74884         0     74887         0     74890         0
     74893         0     74896         0     74899         0     74902         0
     74905         0     74908         0     74911         0     74914         0
     74917         0     74920         0     74923         0     74926         0
     74929         0     74932         0     74935         0     74938         0
     74941         0     74944         0     74947         0     74950         0
     74953         0     74956         0     74959         0     74962         0
     74965         0     74968         0     74971         0     74974         0
     74977         0     74980         0     74983         0     74986         0
     74989         0     74992         0     74995         0     74998         0
     75001         0     75004         0     75007         0     75010         0
     75013         0     75016         0     75019         0     75022         0
     75025         0     75028         0     75031         0     75034         0
     75037         0     75040         0     75043         0     75046         0
     75049         0     75052         0     75055         0     75058         0
     75061         0     75064         0     75067         0     75070         0
     75073         0     75076         0     75079         0     75082         0
     75085         0     75088         0     75091         0     75094         0
     75097         0     75100         0     75103         0     75106         0
     75109         0     75112         0     75115         0     75118         0
     75121         0     75124         0     75127         0     75130         0
     75133         0     75136         0     75139         0     75142         0
     75145         0     75148         0     75151         0     75154         0
     75157         0     75160         0     75163         0     75166         0
     75169         0     75172         0     75175         0     75178         0
     75181         0     75184         0     75187         0     75190         0
     75193         0     75196         0     75199         0     75202         0
     75205         0     75208         0     75211         0     75214         0
     75217         0     75220         0     75223         0     75226         0
     75229         0     75232         0     75235         0     75238         0
     75241         0     75244         0     75247         0     75250         0
     75253         0     75256         0     75259         0     75262         0
     75265         0     75268         0     75271         0     75274         0
     75277         0     75280         0     75283         0     75286         0
     75289         0     75292         0     75295         0     75298         0
     75301         0     75304         0     75307         0     75310         0
     75313         0     75316         0     75319         0     75322         0
     75325         0     75328         0     75331         0     75334         0
     75337         0     75340         0     75343         0     75346         0
     75349         0     75352         0     75355         0     75358         0
     75361         0     75364         0     75367         0     75370         0
     75373         0     75376         0     75379         0     75382         0
     75385         0     75388         0     75391         0     75394         0
     75397         0     75400         0     75403         0     75406         0
     75409         0     75412         0     75415         0     75418         0
     75421         0     75424         0     75427         0     75430         0
     75433         0     75436         0     75439         0     75442         0
     75445         0     75448         0     75451         0     75454         0
     75457         0     75460         0     75463         0     75466         0
     75469         0     75472         0     75475         0     75478         0
     75481         0     75484         0     75487         0     75490         0
     75493         0     75496         0     75499         0     75502         0
     75505         0     75508         0     75511         0     75514         0
     75517         0     75520         0     75523         0     75526         0
     75529         0     75532         0     75535         0     75538         0
     75541         0     75544         0     75547         0     75550         0
     75553         0     75556         0     75559         0     75562         0
     75565         0     75568         0     75571         0     75574         0
     75577         0     75580         0     75583         0     75586         0
     75589         0     75592         0     75595         0     75598         0
     75601         0     75604         0     75607         0     75610         0
     75613         0     75616         0     75619         0     75622         0
     75625         0     75628         0     75631         0     75634         0
     75637         0     75640         0     75643         0     75646         0
     75649         0     75652         0     75655         0     75658         0
     75661         0     75664         0     75667         0     75670         0
     75673         0     75676         0     75679         0     75682         0
     75685         0     75688         0     75691         0     75694         0
     75697         0     75700         0     75703         0     75706         0
     75709         0     75712         0     75715         0     75718         0
     75721         0     75724         0     75727         0     75730         0
     75733         0     75736         0     75739         0     75742         0
     75745         0     75748         0     75751         0     75754         0
     75757         0     75760         0     75763         0     75766         0
     75769         0     75772         0     75775         0     75778         0
     75781         0     75784         0     75787         0     75790         0
     75793         0     75796         0     75799         0     75802         0
     75805         0     75808         0     75811         0     75814         0
     75817         0     75820         0     75823         0     75826         0
     75829         0     75832         0     75835         0     75838         0
     75841         0     75844         0     75847         0     75850         0
     75853         0     75856         0     75859         0     75862         0
     75865         0     75868         0     75871         0     75874         0
     75877         0     75880         0     75883         0     75886         0
     75889         0     75892         0     75895         0     75898         0
     75901         0     75904         0     75907         0     75910         0
     75913         0     75916         0     75919         0     75922         0
     75925         0     75928         0     75931         0     75934         0
     75937         0     75940         0     75943         0     75946         0
     75949         0     75952         0     75955         0     75958         0
     75961         0     75964         0     75967         0     75970         0
     75973         0     75976         0     75979         0     75982         0
     75985         0     75988         0     75991         0     75994         0
     75997         0     76000         0     76003         0     76006         0
     76009         0     76012         0     76015         0     76018         0
     76021         0     76024         0     76027         0     76030         0
     76033         0     76036         0     76039         0     76042         0
     76045         0     76048         0     76051         0     76054         0
     76057         0     76060         0     76063         0     76066         0
     76069         0     76072         0     76075         0     76078         0
     76081         0     76084         0     76087         0     76090         0
     76093         0     76096         0     76099         0     76102         0
     76105         0     76108         0     76111         0     76114         0
     76117         0     76120         0     76123         0     76126         0
     76129         0     76132         0     76135         0     76138         0
     76141         0     76144         0     76147         0     76150         0
     76153         0     76156         0     76159         0     76162         0
     76165         0     76168         0     76171         0     76174         0
     76177         0     76180         0     76183         0     76186         0
     76189         0     76192         0     76195         0     76198         0
     76201         0     76204         0     76207         0     76210         0
     76213         0     76216         0     76219         0     76222         0
     76225         0     76228         0     76231         0     76234         0
     76237         0     76240         0     76243         0     76246         0
     76249         0     76252         0     76255         0     76258         0
     76261         0     76264         0     76267         0     76270         0
     76273         0     76276         0     76279         0     76282         0
     76285         0     76288         0     76291         0     76294         0
     76297         0     76300         0     76303         0     76306         0
     76309         0     76312         0     76315         0     76318         0
     76321         0     76324         0     76327         0     76330         0
     76333         0     76336         0     76339         0     76342         0
     76345         0     76348         0     76351         0     76354         0
     76357         0     76360         0     76363         0     76366         0
     76369         0     76372         0     76375         0     76378         0
     76381         0     76384         0     76387         0     76390         0
     76393         0     76396         0     76399         0     76402         0
     76405         0     76408         0     76411         0     76414         0
     76417         0     76420         0     76423         0     76426         0
     76429         0     76432         0     76435         0     76438         0
     76441         0     76444         0     76447         0     76450         0
     76453         0     76456         0     76459         0     76462         0
     76465         0     76468         0     76471         0     76474         0
     76477         0     76480         0     76483         0     76486         0
     76489         0     76492         0     76495         0     76498         0
     76501         0     76504         0     76507         0     76510         0
     76513         0     76516         0     76519         0     76522         0
     76525         0     76528         0     76531         0     76534         0
     76537         0     76540         0     76543         0     76546         0
     76549         0     76552         0     76555         0     76558         0
     76561         0     76564         0     76567         0     76570         0
     76573         0     76576         0     76579         0     76582         0
     76585         0     76588         0     76591         0     76594         0
     76597         0     76600         0     76603         0     76606         0
     76609         0     76612         0     76615         0     76618         0
     76621         0     76624         0     76627         0     76630         0
     76633         0     76636         0     76639         0     76642         0
     76645         0     76648         0     76651         0     76654         0
     76657         0     76660         0     76663         0     76666         0
     76669         0     76672         0     76675         0     76678         0
     76681         0     76684         0     76687         0     76690         0
     76693         0     76696         0     76699         0     76702         0
     76705         0     76708         0     76711         0     76714         0
     76717         0     76720         0     76723         0     76726         0
     76729         0     76732         0     76735         0     76738         0
     76741         0     76744         0     76747         0     76750         0
     76753         0     76756         0     76759         0     76762         0
     76765         0     76768         0     76771         0     76774         0
     76777         0     76780         0     76783         0     76786         0
     76789         0     76792         0     76795         0     76798         0
     76801         0     76804         0     76807         0     76810         0
     76813         0     76816         0     76819         0     76822         0
     76825         0     76828         0     76831         0     76834         0
     76837         0     76840         0     76843         0     76846         0
     76849         0     76852         0     76855         0     76858         0
     76861         0     76864         0     76867         0     76870         0
     76873         0     76876         0     76879         0     76882         0
     76885         0     76888         0     76891         0     76894         0
     76897         0     76900         0     76903         0     76906         0
     76909         0     76912         0     76915         0     76918         0
     76921         0     76924         0     76927         0     76930         0
     76933         0     76936         0     76939         0     76942         0
     76945         0     76948         0     76951         0     76954         0
     76957         0     76960         0     76963         0     76966         0
     76969         0     76972         0     76975         0     76978         0
     76981         0     76984         0     76987         0     76990         0
     76993         0     76996         0     76999         0     77002         0
     77005         0     77008         0     77011         0     77014         0
     77017         0     77020         0     77023         0     77026         0
     77029         0     77032         0     77035         0     77038         0
     77041         0     77044         0     77047         0     77050         0
     77053         0     77056         0     77059         0     77062         0
     77065         0     77068         0     77071         0     77074         0
     77077         0     77080         0     77083         0     77086         0
     77089         0     77092         0     77095         0     77098         0
     77101         0     77104         0     77107         0     77110         0
     77113         0     77116         0     77119         0     77122         0
     77125         0     77128         0     77131         0     77134         0
     77137         0     77140         0     77143         0     77146         0
     77149         0     77152         0     77155         0     77158         0
     77161         0     77164         0     77167         0     77170         0
     77173         0     77176         0     77179         0     77182         0
     77185         0     77188         0     77191         0     77194         0
     77197         0     77200         0     77203         0     77206         0
     77209         0     77212         0     77215         0     77218         0
     77221         0     77224         0     77227         0     77230         0
     77233         0     77236         0     77239         0     77242         0
     77245         0     77248         0     77251         0     77254         0
     77257         0     77260         0     77263         0     77266         0
     77269         0     77272         0     77275         0     77278         0
     77281         0     77284         0     77287         0     77290         0
     77293         0     77296         0     77299         0     77302         0
     77305         0     77308         0     77311         0     77314         0
     77317         0     77320         0     77323         0     77326         0
     77329         0     77332         0     77335         0     77338         0
     77341         0     77344         0     77347         0     77350         0
     77353         0     77356         0     77359         0     77362         0
     77365         0     77368         0     77371         0     77374         0
     77377         0     77380         0     77383         0     77386         0
     77389         0     77392         0     77395         0     77398         0
     77401         0     77404         0     77407         0     77410         0
     77413         0     77416         0     77419         0     77422         0
     77425         0     77428         0     77431         0     77434         0
     77437         0     77440         0     77443         0     77446         0
     77449         0     77452         0     77455         0     77458         0
     77461         0     77464         0     77467         0     77470         0
     77473         0     77476         0     77479         0     77482         0
     77485         0     77488         0     77491         0     77494         0
     77497         0     77500         0     77503         0     77506         0
     77509         0     77512         0     77515         0     77518         0
     77521         0     77524         0     77527         0     77530         0
     77533         0     77536         0     77539         0     77542         0
     77545         0     77548         0     77551         0     77554         0
     77557         0     77560         0     77563         0     77566         0
     77569         0     77572         0     77575         0     77578         0
     77581         0     77584         0     77587         0     77590         0
     77593         0     77596         0     77599         0     77602         0
     77605         0     77608         0     77611         0     77614         0
     77617         0     77620         0     77623         0     77626         0
     77629         0     77632         0     77635         0     77638         0
     77641         0     77644         0     77647         0     77650         0
     77653         0     77656         0     77659         0     77662         0
     77665         0     77668         0     77671         0     77674         0
     77677         0     77680         0     77683         0     77686         0
     77689         0     77692         0     77695         0     77698         0
     77701         0     77704         0     77707         0     77710         0
     77713         0     77716         0     77719         0     77722         0
     77725         0     77728         0     77731         0     77734         0
     77737         0     77740         0     77743         0     77746         0
     77749         0     77752         0     77755         0     77758         0
     77761         0     77764         0     77767         0     77770         0
     77773         0     77776         0     77779         0     77782         0
     77785         0     77788         0     77791         0     77794         0
     77797         0     77800         0     77803         0     77806         0
     77809         0     77812         0     77815         0     77818         0
     77821         0     77824         0     77827         0     77830         0
     77833         0     77836         0     77839         0     77842         0
     77845         0     77848         0     77851         0     77854         0
     77857         0     77860         0     77863         0     77866         0
     77869         0     77872         0     77875         0     77878         0
     77881         0     77884         0     77887         0     77890         0
     77893         0     77896         0     77899         0     77902         0
     77905         0     77908         0     77911         0     77914         0
     77917         0     77920         0     77923         0     77926         0
     77929         0     77932         0     77935         0     77938         0
     77941         0     77944         0     77947         0     77950         0
     77953         0     77956         0     77959         0     77962         0
     77965         0     77968         0     77971         0     77974         0
     77977         0     77980         0     77983         0     77986         0
     77989         0     77992         0     77995         0     77998         0
     78001         0     78004         0     78007         0     78010         0
     78013         0     78016         0     78019         0     78022         0
     78025         0     78028         0     78031         0     78034         0
     78037         0     78040         0     78043         0     78046         0
     78049         0     78052         0     78055         0     78058         0
     78061         0     78064         0     78067         0     78070         0
     78073         0     78076         0     78079         0     78082         0
     78085         0     78088         0     78091         0     78094         0
     78097         0     78100         0     78103         0     78106         0
     78109         0     78112         0     78115         0     78118         0
     78121         0     78124         0     78127         0     78130         0
     78133         0     78136         0     78139         0     78142         0
     78145         0     78148         0     78151         0     78154         0
     78157         0     78160         0     78163         0     78166         0
     78169         0     78172         0     78175         0     78178         0
     78181         0     78184         0     78187         0     78190         0
     78193         0     78196         0     78199         0     78202         0
     78205         0     78208         0     78211         0     78214         0
     78217         0     78220         0     78223         0     78226         0
     78229         0     78232         0     78235         0     78238         0
     78241         0     78244         0     78247         0     78250         0
     78253         0     78256         0     78259         0     78262         0
     78265         0     78268         0     78271         0     78274         0
     78277         0     78280         0     78283         0     78286         0
     78289         0     78292         0     78295         0     78298         0
     78301         0     78304         0     78307         0     78310         0
     78313         0     78316         0     78319         0     78322         0
     78325         0     78328         0     78331         0     78334         0
     78337         0     78340         0     78343         0     78346         0
     78349         0     78352         0     78355         0     78358         0
     78361         0     78364         0     78367         0     78370         0
     78373         0     78376         0     78379         0     78382         0
     78385         0     78388         0     78391         0     78394         0
     78397         0     78400         0     78403         0     78406         0
     78409         0     78412         0     78415         0     78418         0
     78421         0     78424         0     78427         0     78430         0
     78433         0     78436         0     78439         0     78442         0
     78445         0     78448         0     78451         0     78454         0
     78457         0     78460         0     78463         0     78466         0
     78469         0     78472         0     78475         0     78478         0
     78481         0     78484         0     78487         0     78490         0
     78493         0     78496         0     78499         0     78502         0
     78505         0     78508         0     78511         0     78514         0
     78517         0     78520         0     78523         0     78526         0
     78529         0     78532         0     78535         0     78538         0
     78541         0     78544         0     78547         0     78550         0
     78553         0     78556         0     78559         0     78562         0
     78565         0     78568         0     78571         0     78574         0
     78577         0     78580         0     78583         0     78586         0
     78589         0     78592         0     78595         0     78598         0
     78601         0     78604         0     78607         0     78610         0
     78613         0     78616         0     78619         0     78622         0
     78625         0     78628         0     78631         0     78634         0
     78637         0     78640         0     78643         0     78646         0
     78649         0     78652         0     78655         0     78658         0
     78661         0     78664         0     78667         0     78670         0
     78673         0     78676         0     78679         0     78682         0
     78685         0     78688         0     78691         0     78694         0
     78697         0     78700         0     78703         0     78706         0
     78709         0     78712         0     78715         0     78718         0
     78721         0     78724         0     78727         0     78730         0
     78733         0     78736         0     78739         0     78742         0
     78745         0     78748         0     78751         0     78754         0
     78757         0     78760         0     78763         0     78766         0
     78769         0     78772         0     78775         0     78778         0
     78781         0     78784         0     78787         0     78790         0
     78793         0     78796         0     78799         0     78802         0
     78805         0     78808         0     78811         0     78814         0
     78817         0     78820         0     78823         0     78826         0
     78829         0     78832         0     78835         0     78838         0
     78841         0     78844         0     78847         0     78850         0
     78853         0     78856         0     78859         0     78862         0
     78865         0     78868         0     78871         0     78874         0
     78877         0     78880         0     78883         0     78886         0
     78889         0     78892         0     78895         0     78898         0
     78901         0     78904         0     78907         0     78910         0
     78913         0     78916         0     78919         0     78922         0
     78925         0     78928         0     78931         0     78934         0
     78937         0     78940         0     78943         0     78946         0
     78949         0     78952         0     78955         0     78958         0
     78961         0     78964         0     78967         0     78970         0
     78973         0     78976         0     78979         0     78982         0
     78985         0     78988         0     78991         0     78994         0
     78997         0     79000         0     79003         0     79006         0
     79009         0     79012         0     79015         0     79018         0
     79021         0     79024         0     79027         0     79030         0
     79033         0     79036         0     79039         0     79042         0
     79045         0     79048         0     79051         0     79054         0
     79057         0     79060         0     79063         0     79066         0
     79069         0     79072         0     79075         0     79078         0
     79081         0     79084         0     79087         0     79090         0
     79093         0     79096         0     79099         0     79102         0
     79105         0     79108         0     79111         0     79114         0
     79117         0     79120         0     79123         0     79126         0
     79129         0     79132         0     79135         0     79138         0
     79141         0     79144         0     79147         0     79150         0
     79153         0     79156         0     79159         0     79162         0
     79165         0     79168         0     79171         0     79174         0
     79177         0     79180         0     79183         0     79186         0
     79189         0     79192         0     79195         0     79198         0
     79201         0     79204         0     79207         0     79210         0
     79213         0     79216         0     79219         0     79222         0
     79225         0     79228         0     79231         0     79234         0
     79237         0     79240         0     79243         0     79246         0
     79249         0     79252         0     79255         0     79258         0
     79261         0     79264         0     79267         0     79270         0
     79273         0     79276         0     79279         0     79282         0
     79285         0     79288         0     79291         0     79294         0
     79297         0     79300         0     79303         0     79306         0
     79309         0     79312         0     79315         0     79318         0
     79321         0     79324         0     79327         0     79330         0
     79333         0     79336         0     79339         0     79342         0
     79345         0     79348         0     79351         0     79354         0
     79357         0     79360         0     79363         0     79366         0
     79369         0     79372         0     79375         0     79378         0
     79381         0     79384         0     79387         0     79390         0
     79393         0     79396         0     79399         0     79402         0
     79405         0     79408         0     79411         0     79414         0
     79417         0     79420         0     79423         0     79426         0
     79429         0     79432         0     79435         0     79438         0
     79441         0     79444         0     79447         0     79450         0
     79453         0     79456         0     79459         0     79462         0
     79465         0     79468         0     79471         0     79474         0
     79477         0     79480         0     79483         0     79486         0
     79489         0     79492         0     79495         0     79498         0
     79501         0     79504         0     79507         0     79510         0
     79513         0     79516         0     79519         0     79522         0
     79525         0     79528         0     79531         0     79534         0
     79537         0     79540         0     79543         0     79546         0
     79549         0     79552         0     79555         0     79558         0
     79561         0     79564         0     79567         0     79570         0
     79573         0     79576         0     79579         0     79582         0
     79585         0     79588         0     79591         0     79594         0
     79597         0     79600         0     79603         0     79606         0
     79609         0     79612         0     79615         0     79618         0
     79621         0     79624         0     79627         0     79630         0
     79633         0     79636         0     79639         0     79642         0
     79645         0     79648         0     79651         0     79654         0
     79657         0     79660         0     79663         0     79666         0
     79669         0     79672         0     79675         0     79678         0
     79681         0     79684         0     79687         0     79690         0
     79693         0     79696         0     79699         0     79702         0
     79705         0     79708         0     79711         0     79714         0
     79717         0     79720         0     79723         0     79726         0
     79729         0     79732         0     79735         0     79738         0
     79741         0     79744         0     79747         0     79750         0
     79753         0     79756         0     79759         0     79762         0
     79765         0     79768         0     79771         0     79774         0
     79777         0     79780         0     79783         0     79786         0
     79789         0     79792         0     79795         0     79798         0
     79801         0     79804         0     79807         0     79810         0
     79813         0     79816         0     79819         0     79822         0
     79825         0     79828         0     79831         0     79834         0
     79837         0     79840         0     79843         0     79846         0
     79849         0     79852         0     79855         0     79858         0
     79861         0     79864         0     79867         0     79870         0
     79873         0     79876         0     79879         0     79882         0
     79885         0     79888         0     79891         0     79894         0
     79897         0     79900         0     79903         0     79906         0
     79909         0     79912         0     79915         0     79918         0
     79921         0     79924         0     79927         0     79930         0
     79933         0     79936         0     79939         0     79942         0
     79945         0     79948         0     79951         0     79954         0
     79957         0     79960         0     79963         0     79966         0
     79969         0     79972         0     79975         0     79978         0
     79981         0     79984         0     79987         0     79990         0
     79993         0     79996         0     79999         0     80002         0
     80005         0     80008         0     80011         0     80014         0
     80017         0     80020         0     80023         0     80026         0
     80029         0     80032         0     80035         0     80038         0
     80041         0     80044         0     80047         0     80050         0
     80053         0     80056         0     80059         0     80062         0
     80065         0     80068         0     80071         0     80074         0
     80077         0     80080         0     80083         0     80086         0
     80089         0     80092         0     80095         0     80098         0
     80101         0     80104         0     80107         0     80110         0
     80113         0     80116         0     80119         0     80122         0
     80125         0     80128         0     80131         0     80134         0
     80137         0     80140         0     80143         0     80146         0
     80149         0     80152         0     80155         0     80158         0
     80161         0     80164         0     80167         0     80170         0
     80173         0     80176         0     80179         0     80182         0
     80185         0     80188         0     80191         0     80194         0
     80197         0     80200         0     80203         0     80206         0
     80209         0     80212         0     80215         0     80218         0
     80221         0     80224         0     80227         0     80230         0
     80233         0     80236         0     80239         0     80242         0
     80245         0     80248         0     80251         0     80254         0
     80257         0     80260         0     80263         0     80266         0
     80269         0     80272         0     80275         0     80278         0
     80281         0     80284         0     80287         0     80290         0
     80293         0     80296         0     80299         0     80302         0
     80305         0     80308         0     80311         0     80314         0
     80317         0     80320         0     80323         0     80326         0
     80329         0     80332         0     80335         0     80338         0
     80341         0     80344         0     80347         0     80350         0
     80353         0     80356         0     80359         0     80362         0
     80365         0     80368         0     80371         0     80374         0
     80377         0     80380         0     80383         0     80386         0
     80389         0     80392         0     80395         0     80398         0
     80401         0     80404         0     80407         0     80410         0
     80413         0     80416         0     80419         0     80422         0
     80425         0     80428         0     80431         0     80434         0
     80437         0     80440         0     80443         0     80446         0
     80449         0     80452         0     80455         0     80458         0
     80461         0     80464         0     80467         0     80470         0
     80473         0     80476         0     80479         0     80482         0
     80485         0     80488         0     80491         0     80494         0
     80497         0     80500         0     80503         0     80506         0
     80509         0     80512         0     80515         0     80518         0
     80521         0     80524         0     80527         0     80530         0
     80533         0     80536         0     80539         0     80542         0
     80545         0     80548         0     80551         0     80554         0
     80557         0     80560         0     80563         0     80566         0
     80569         0     80572         0     80575         0     80578         0
     80581         0     80584         0     80587         0     80590         0
     80593         0     80596         0     80599         0     80602         0
     80605         0     80608         0     80611         0     80614         0
     80617         0     80620         0     80623         0     80626         0
     80629         0     80632         0     80635         0     80638         0
     80641         0     80644         0     80647         0     80650         0
     80653         0     80656         0     80659         0     80662         0
     80665         0     80668         0     80671         0     80674         0
     80677         0     80680         0     80683         0     80686         0
     80689         0     80692         0     80695         0     80698         0
     80701         0     80704         0     80707         0     80710         0
     80713         0     80716         0     80719         0     80722         0
     80725         0     80728         0     80731         0     80734         0
     80737         0     80740         0     80743         0     80746         0
     80749         0     80752         0     80755         0     80758         0
     80761         0     80764         0     80767         0     80770         0
     80773         0     80776         0     80779         0     80782         0
     80785         0     80788         0     80791         0     80794         0
     80797         0     80800         0     80803         0     80806         0
     80809         0     80812         0     80815         0     80818         0
     80821         0     80824         0     80827         0     80830         0
     80833         0     80836         0     80839         0     80842         0
     80845         0     80848         0     80851         0     80854         0
     80857         0     80860         0     80863         0     80866         0
     80869         0     80872         0     80875         0     80878         0
     80881         0

         0 !NNB

         0         0         0         0         0         0         0         0
         0         0         0         0         0         0         0         0
         0         0         0         0         0         0         0         0
         0         0         0         0         0         0         0         0
         0         0         0         0         0         0         0         0
         0         0         0         0         0         0         0         0
         0         0         0         0         0         0         0         0
         0         0         0         0         0         0         0         0
         0         0         0         0         0         0         0         0
         0         0         0         0         0         0         0         0
         0         0         0         0         0         0         0         0
         0         0         0         0         0         0         0         0
         0         0         0         0         0         0         0         0
         0         0         0         0         0         0         0         0
         0         0         0         0         0         0         0         0
         0         0         0         0         0         0         0         0
         0         0         0         0         0         0         0         0
         0         0         0         0         0         0         0         0
         0         0         0         0         0         0         0         0
         0         0         0         0         0         0         0         0
         0         0         0         0         0         0         0         0
         0         0         0         0         0         0         0         0
         0         0         0         0         0         0         0         0
         0         0         0         0         0         0         0         0
         0         0         0         0         0         0         0         0
         0         0         0         0         0         0         0         0
         0         0         0         0         0         0         0         0
         0         0         0         0         0         0         0         0
         0         0         0         0         0         0         0         0
         0         0         0         0         0         0         0         0
         0         0         0         0         0         0         0         0
         0         0         0         0         0         0         0         0
         0         0         0         0         0         0         0         0
         0         0         0         0         0         0         0         0
         0         0         0         0         0         0         0         0
         0         0         0         0         0         0         0         0
         0         0         0         0         0         0         0         0
         0         0         0         0         0         0         0         0
         0         0         0         0         0         0         0         0
         0         0         0         0         0         0         0         0
         0         0         0         0         0         0         0         0
         0         0         0         0         0         0         0         0
         0         0         0         0         0         0         0         0
         0         0         0         0         0         0         0         0
         0         0         0         0         0         0         0         0
         0         0         0         0         0         0         0         0
         0         0         0         0         0         0         0         0
         0         0         0         0         0         0         0         0
         0         0         0         0         0         0         0         0
         0         0         0         0         0         0         0         0
         0         0         0         0         0         0         0         0
         0         0         0         0         0         0         0         0
         0         0         0         0         0         0         0         0
         0         0         0         0         0         0         0         0
         0         0         0         0         0         0         0         0
         0         0         0         0         0         0         0         0
         0         0         0         0         0         0         0         0
         0         0         0         0         0         0         0         0
         0         0         0         0         0         0         0         0
         0         0         0         0         0         0         0         0
         0         0         0         0         0         0         0         0
         0         0         0         0         0         0         0         0
         0         0         0         0         0         0         0         0
         0         0         0         0         0         0         0         0
         0         0         0         0         0         0         0         0
         0         0         0         0         0         0         0         0
         0         0         0         0         0         0         0         0
         0         0         0         0         0         0         0         0
         0         0         0         0         0         0         0         0
         0         0         0         0         0         0         0         0
         0         0         0         0         0         0         0         0
         0         0         0         0         0         0         0         0
         0         0         0         0         0         0         0         0
         0         0         0         0         0         0         0         0
         0         0         0         0         0         0         0         0
         0         0         0         0         0         0         0         0
         0         0         0         0         0         0         0         0
         0         0         0         0         0         0         0         0
         0         0         0         0         0         0         0         0
         0         0         0         0         0         0         0         0
         0         0         0         0         0         0         0         0
         0         0         0         0         0         0         0         0
         0         0         0         0         0         0         0         0
         0         0         0         0         0         0         0         0
         0         0         0         0         0         0         0         0
         0         0         0         0         0         0         0         0
         0         0         0         0         0         0         0         0
         0         0         0         0         0         0         0         0
         0         0         0         0         0         0         0         0
         0         0         0         0         0         0         0         0
         0         0         0         0         0         0         0         0
         0         0         0         0         0         0         0         0
         0         0         0         0         0         0         0         0
         0         0         0         0         0         0         0         0
         0         0         0         0         0         0         0         0
         0         0         0         0         0         0         0         0
         0         0         0         0         0         0         0         0
         0         0         0         0         0         0         0         0
         0         0         0         0         0         0         0         0
         0         0         0         0         0         0         0         0
         0         0         0         0         0         0         0         0
         0         0         0         0         0         0         0         0
         0         0         0         0         0         0         0         0
         0         0         0         0         0         0         0         0
         0         0         0         0         0         0         0         0
         0         0         0         0         0         0         0         0
         0         0         0         0         0         0         0         0
         0         0         0         0         0         0         0         0
         0         0         0         0         0         0         0         0
         0         0         0         0         0         0         0         0
         0         0         0         0         0         0         0         0
         0         0         0         0         0         0         0         0
         0         0         0         0         0         0         0         0
         0         0         0         0         0         0         0         0
         0         0         0         0         0         0         0         0
         0         0         0         0         0         0         0         0
         0         0         0         0         0         0         0         0
         0         0         0         0         0         0         0         0
         0         0         0         0         0         0         0         0
         0         0         0         0         0         0         0         0
         0         0         0         0         0         0         0         0
         0         0         0         0         0         0         0         0
         0         0         0         0         0         0         0         0
         0         0         0         0         0         0         0         0
         0         0         0         0         0         0         0         0
         0         0         0         0         0         0         0         0
         0         0         0         0         0         0         0         0
         0         0         0         0         0         0         0         0
         0         0         0         0         0         0         0         0
         0         0         0         0         0         0         0         0
         0         0         0         0         0         0         0         0
         0         0         0         0         0         0         0         0
         0         0         0         0         0         0         0         0
         0         0         0         0         0         0         0         0
         0         0         0         0         0         0         0         0
         0         0         0         0         0         0         0         0
         0         0         0         0         0         0         0         0
         0         0         0         0         0         0         0         0
         0         0         0         0         0         0         0         0
         0         0         0         0         0         0         0         0
         0         0         0         0         0         0         0         0
         0         0         0         0         0         0         0         0
         0         0         0         0         0         0         0         0
         0         0         0         0         0         0         0         0
         0         0         0         0         0         0         0         0
         0         0         0         0         0         0         0         0
         0         0         0         0         0         0         0         0
         0         0         0         0         0         0         0         0
         0         0         0         0         0         0         0         0
         0         0         0         0         0         0         0         0
         0         0         0         0         0         0         0         0
         0         0         0         0         0         0         0         0
         0         0         0         0         0         0         0         0
         0         0         0         0         0         0         0         0
         0         0         0         0         0         0         0         0
         0         0         0         0         0         0         0         0
         0         0         0         0         0         0         0         0
         0         0         0         0         0         0         0         0
         0         0         0         0         0         0         0         0
         0         0         0         0         0         0         0         0
         0         0         0         0         0         0         0         0
         0         0         0         0         0         0         0         0
         0         0         0         0         0         0         0         0
         0         0         0         0         0         0         0         0
         0         0         0         0         0         0         0         0
         0         0         0         0         0         0         0         0
         0         0         0         0         0         0         0         0
         0         0         0         0         0         0         0         0
         0         0         0         0         0         0         0         0
         0         0         0         0         0         0         0         0
         0         0         0         0         0         0         0         0
         0         0         0         0         0         0         0         0
         0         0         0         0         0         0         0         0
         0         0         0         0         0         0         0         0
         0         0         0         0         0         0         0         0
         0         0         0         0         0         0         0         0
         0         0         0         0         0         0         0         0
         0         0         0         0         0         0         0         0
         0         0         0         0         0         0         0         0
         0         0         0         0         0         0         0         0
         0         0         0         0         0         0         0         0
         0         0         0         0         0         0         0         0
         0         0         0         0         0         0         0         0
         0         0         0         0         0         0         0         0
         0         0         0         0         0         0         0         0
         0         0         0         0         0         0         0         0
         0         0         0         0         0         0         0         0
         0         0         0         0         0         0         0         0
         0         0         0         0         0         0         0         0
         0         0         0         0         0         0         0         0
         0         0         0         0         0         0         0         0
         0         0         0         0         0         0         0         0
         0         0         0         0         0         0         0         0
         0         0         0         0         0         0         0         0
         0         0         0         0         0         0         0         0
         0         0         0         0         0         0         0         0
         0         0         0         0         0         0         0         0
         0         0         0         0         0         0         0         0
         0         0         0         0         0         0         0         0
         0         0         0         0         0         0         0         0
         0         0         0         0         0         0         0         0
         0         0         0         0         0         0         0         0
         0         0         0         0         0         0         0         0
         0         0         0         0         0         0         0         0
         0         0         0         0         0         0         0         0
         0         0         0         0         0         0         0         0
         0         0         0         0         0         0         0         0
         0         0         0         0         0         0         0         0
         0         0         0         0         0         0         0         0
         0         0         0         0         0         0         0         0
         0         0         0         0         0         0         0         0
         0         0         0         0         0         0         0         0
         0         0         0         0         0         0         0         0
         0         0         0         0         0         0         0         0
         0         0         0         0         0         0         0         0
         0         0         0         0         0         0         0         0
         0         0         0         0         0         0         0         0
         0         0         0         0         0         0         0         0
         0         0         0         0         0         0         0         0
         0         0         0         0         0         0         0         0
         0         0         0         0         0         0         0         0
         0         0         0         0         0         0         0         0
         0         0         0         0         0         0         0         0
         0         0         0         0         0         0         0         0
         0         0         0         0         0         0         0         0
         0         0         0         0         0         0         0         0
         0         0         0         0         0         0         0         0
         0         0         0         0         0         0         0         0
         0         0         0         0         0         0         0         0
         0         0         0         0         0         0         0         0
         0         0         0         0         0         0         0         0
         0         0         0         0         0         0         0         0
         0         0         0         0         0         0         0         0
         0         0         0         0         0         0         0         0
         0         0         0         0         0         0         0         0
         0         0         0         0         0         0         0         0
         0         0         0         0         0         0         0         0
         0         0         0         0         0         0         0         0
         0         0         0         0         0         0         0         0
         0         0         0         0         0         0         0         0
         0         0         0         0         0         0         0         0
         0         0         0         0         0         0         0         0
         0         0         0         0         0         0         0         0
         0         0         0         0         0         0         0         0
         0         0         0         0         0         0         0         0
         0         0         0         0         0         0         0         0
         0         0         0         0         0         0         0         0
         0         0         0         0         0         0         0         0
         0         0         0         0         0         0         0         0
         0         0         0         0         0         0         0         0
         0         0         0         0         0         0         0         0
         0         0         0         0         0         0         0         0
         0         0         0         0         0         0         0         0
         0         0         0         0         0         0         0         0
         0         0         0         0         0         0         0         0
         0         0         0         0         0         0         0         0
         0         0         0         0         0         0         0         0
         0         0         0         0         0         0         0         0
         0         0         0         0         0         0         0         0
         0         0         0         0         0         0         0         0
         0         0         0         0         0         0         0         0
         0         0         0         0         0         0         0         0
         0         0         0         0         0         0         0         0
         0         0         0         0         0         0         0         0
         0         0         0         0         0         0         0         0
         0         0         0         0         0         0         0         0
         0         0         0         0         0         0         0         0
         0         0         0         0         0         0         0         0
         0         0         0         0         0         0         0         0
         0         0         0         0         0         0         0         0
         0         0         0         0         0         0         0         0
         0         0         0         0         0         0         0         0
         0         0         0         0         0         0         0         0
         0         0         0         0         0         0         0         0
         0         0         0         0         0         0         0         0
         0         0         0         0         0         0         0         0
         0         0         0         0         0         0         0         0
         0         0         0         0         0         0         0         0
         0         0         0         0         0         0         0         0
         0         0         0         0         0         0         0         0
         0         0         0         0         0         0         0         0
         0         0         0         0         0         0         0         0
         0         0         0         0         0         0         0         0
         0         0         0         0         0         0         0         0
         0         0         0         0         0         0         0         0
         0         0         0         0         0         0         0         0
         0         0         0         0         0         0         0         0
         0         0         0         0         0         0         0         0
         0         0         0         0         0         0         0         0
         0         0         0         0         0         0         0         0
         0         0         0         0         0         0         0         0
         0         0         0         0         0         0         0         0
         0         0         0         0         0         0         0         0
         0         0         0         0         0         0         0         0
         0         0         0         0         0         0         0         0
         0         0         0         0         0         0         0         0
         0         0         0         0         0         0         0         0
         0         0         0         0         0         0         0         0
         0         0         0         0         0         0         0         0
         0         0         0         0         0         0         0         0
         0         0         0         0         0         0         0         0
         0         0         0         0         0         0         0         0
         0         0         0         0         0         0         0         0
         0         0         0         0         0         0         0         0
         0         0         0         0         0         0         0         0
         0         0         0         0         0         0         0         0
         0         0         0         0         0         0         0         0
         0         0         0         0         0         0         0         0
         0         0         0         0         0         0         0         0
         0         0         0         0         0         0         0         0
         0         0         0         0         0         0         0         0
         0         0         0         0         0         0         0         0
         0         0         0         0         0         0         0         0
         0         0         0         0         0         0         0         0
         0         0         0         0         0         0         0         0
         0         0         0         0         0         0         0         0
         0         0         0         0         0         0         0         0
         0         0         0         0         0         0         0         0
         0         0         0         0         0         0         0         0
         0         0         0         0         0         0         0         0
         0         0         0         0         0         0         0         0
         0         0         0         0         0         0         0         0
         0         0         0         0         0         0         0         0
         0         0         0         0         0         0         0         0
         0         0         0         0         0         0         0         0
         0         0         0         0         0         0         0         0
         0         0         0         0         0         0         0         0
         0         0         0         0         0         0         0         0
         0         0         0         0         0         0         0         0
         0         0         0         0         0         0         0         0
         0         0         0         0         0         0         0         0
         0         0         0         0         0         0         0         0
         0         0         0         0         0         0         0         0
         0         0         0         0         0         0         0         0
         0         0         0         0         0         0         0         0
         0         0         0         0         0         0         0         0
         0         0         0         0         0         0         0         0
         0         0         0         0         0         0         0         0
         0         0         0         0         0         0         0         0
         0         0         0         0         0         0         0         0
         0         0         0         0         0         0         0         0
         0         0         0         0         0         0         0         0
         0         0         0         0         0         0         0         0
         0         0         0         0         0         0         0         0
         0         0         0         0         0         0         0         0
         0         0         0         0         0         0         0         0
         0         0         0         0         0         0         0         0
         0         0         0         0         0         0         0         0
         0         0         0         0         0         0         0         0
         0         0         0         0         0         0         0         0
         0         0         0         0         0         0         0         0
         0         0         0         0         0         0         0         0
         0         0         0         0         0         0         0         0
         0         0         0         0         0         0         0         0
         0         0         0         0         0         0         0         0
         0         0         0         0         0         0         0         0
         0         0         0         0         0         0         0         0
         0         0         0         0         0         0         0         0
         0         0         0         0         0         0         0         0
         0         0         0         0         0         0         0         0
         0         0         0         0         0         0         0         0
         0         0         0         0         0         0         0         0
         0         0         0         0         0         0         0         0
         0         0         0         0         0         0         0         0
         0         0         0         0         0         0         0         0
         0         0         0         0         0         0         0         0
         0         0         0         0         0         0         0         0
         0         0         0         0         0         0         0         0
         0         0         0         0         0         0         0         0
         0         0         0         0         0         0         0         0
         0         0         0         0         0         0         0         0
         0         0         0         0         0         0         0         0
         0         0         0         0         0         0         0         0
         0         0         0         0         0         0         0         0
         0         0         0         0         0         0         0         0
         0         0         0         0         0         0         0         0
         0         0         0         0         0         0         0         0
         0         0         0         0         0         0         0         0
         0         0         0         0         0         0         0         0
         0         0         0         0         0         0         0         0
         0         0         0         0         0         0         0         0
         0         0         0         0         0         0         0         0
         0         0         0         0         0         0         0         0
         0         0         0         0         0         0         0         0
         0         0         0         0         0         0         0         0
         0         0         0         0         0         0         0         0
         0         0         0         0         0         0         0         0
         0         0         0         0         0         0         0         0
         0         0         0         0         0         0         0         0
         0         0         0         0         0         0         0         0
         0         0         0         0         0         0         0         0
         0         0         0         0         0         0         0         0
         0         0         0         0         0         0         0         0
         0         0         0         0         0         0         0         0
         0         0         0         0         0         0         0         0
         0         0         0         0         0         0         0         0
         0         0         0         0         0         0         0         0
         0         0         0         0         0         0         0         0
         0         0         0         0         0         0         0         0
         0         0         0         0         0         0         0         0
         0         0         0         0         0         0         0         0
         0         0         0         0         0         0         0         0
         0         0         0         0         0         0         0         0
         0         0         0         0         0         0         0         0
         0         0         0         0         0         0         0         0
         0         0         0         0         0         0         0         0
         0         0         0         0         0         0         0         0
         0         0         0         0         0         0         0         0
         0         0         0         0         0         0         0         0
         0         0         0         0         0         0         0         0
         0         0         0         0         0         0         0         0
         0         0         0         0         0         0         0         0
         0         0         0         0         0         0         0         0
         0         0         0         0         0         0         0         0
         0         0         0         0         0         0         0         0
         0         0         0         0         0         0         0         0
         0         0         0         0         0         0         0         0
         0         0         0         0         0         0         0         0
         0         0         0         0         0         0         0         0
         0         0         0         0         0         0         0         0
         0         0         0         0         0         0         0         0
         0         0         0         0         0         0         0         0
         0         0         0         0         0         0         0         0
         0         0         0         0         0         0         0         0
         0         0         0         0         0         0         0         0
         0         0         0         0         0         0         0         0
         0         0         0         0         0         0         0         0
         0         0         0         0         0         0         0         0
         0         0         0         0         0         0         0         0
         0         0         0         0         0         0         0         0
         0         0         0         0         0         0         0         0
         0         0         0         0         0         0         0         0
         0         0         0         0         0         0         0         0
         0         0         0         0         0         0         0         0
         0         0         0         0         0         0         0         0
         0         0         0         0         0         0         0         0
         0         0         0         0         0         0         0         0
         0         0         0         0         0         0         0         0
         0         0         0         0         0         0         0         0
         0         0         0         0         0         0         0         0
         0         0         0         0         0         0         0         0
         0         0         0         0         0         0         0         0
         0         0         0         0         0         0         0         0
         0         0         0         0         0         0         0         0
         0         0         0         0         0         0         0         0
         0         0         0         0         0         0         0         0
         0         0         0         0         0         0         0         0
         0         0         0         0         0         0         0         0
         0         0         0         0         0         0         0         0
         0         0         0         0         0         0         0         0
         0         0         0         0         0         0         0         0
         0         0         0         0         0         0         0         0
         0         0         0         0         0         0         0         0
         0         0         0         0         0         0         0         0
         0         0         0         0         0         0         0         0
         0         0         0         0         0         0         0         0
         0         0         0         0         0         0         0         0
         0         0         0         0         0         0         0         0
         0         0         0         0         0         0         0         0
         0         0         0         0         0         0         0         0
         0         0         0         0         0         0         0         0
         0         0         0         0         0         0         0         0
         0         0         0         0         0         0         0         0
         0         0         0         0         0         0         0         0
         0         0         0         0         0         0         0         0
         0         0         0         0         0         0         0         0
         0         0         0         0         0         0         0         0
         0         0         0         0         0         0         0         0
         0         0         0         0         0         0         0         0
         0         0         0         0         0         0         0         0
         0         0         0         0         0         0         0         0
         0         0         0         0         0         0         0         0
         0         0         0         0         0         0         0         0
         0         0         0         0         0         0         0         0
         0         0         0         0         0         0         0         0
         0         0         0         0         0         0         0         0
         0         0         0         0         0         0         0         0
         0         0         0         0         0         0         0         0
         0         0         0         0         0         0         0         0
         0         0         0         0         0         0         0         0
         0         0         0         0         0         0         0         0
         0         0         0         0         0         0         0         0
         0         0         0         0         0         0         0         0
         0         0         0         0         0         0         0         0
         0         0         0         0         0         0         0         0
         0         0         0         0         0         0         0         0
         0         0         0         0         0         0         0         0
         0         0         0         0         0         0         0         0
         0         0         0         0         0         0         0         0
         0         0         0         0         0         0         0         0
         0         0         0         0         0         0         0         0
         0         0         0         0         0         0         0         0
         0         0         0         0         0         0         0         0
         0         0         0         0         0         0         0         0
         0         0         0         0         0         0         0         0
         0         0         0         0         0         0         0         0
         0         0         0         0         0         0         0         0
         0         0         0         0         0         0         0         0
         0         0         0         0         0         0         0         0
         0         0         0         0         0         0         0         0
         0         0         0         0         0         0         0         0
         0         0         0         0         0         0         0         0
         0         0         0         0         0         0         0         0
         0         0         0         0         0         0         0         0
         0         0         0         0         0         0         0         0
         0         0         0         0         0         0         0         0
         0         0         0         0         0         0         0         0
         0         0         0         0         0         0         0         0
         0         0         0         0         0         0         0         0
         0         0         0         0         0         0         0         0
         0         0         0         0         0         0         0         0
         0         0         0         0         0         0         0         0
         0         0         0         0         0         0         0         0
         0         0         0         0         0         0         0         0
         0         0         0         0         0         0         0         0
         0         0         0         0         0         0         0         0
         0         0         0         0         0         0         0         0
         0         0         0         0         0         0         0         0
         0         0         0         0         0         0         0         0
         0         0         0         0         0         0         0         0
         0         0         0         0         0         0         0         0
         0         0         0         0         0         0         0         0
         0         0         0         0         0         0         0         0
         0         0         0         0         0         0         0         0
         0         0         0         0         0         0         0         0
         0         0         0         0         0         0         0         0
         0         0         0         0         0         0         0         0
         0         0         0         0         0         0         0         0
         0         0         0         0         0         0         0         0
         0         0         0         0         0         0         0         0
         0         0         0         0         0         0         0         0
         0         0         0         0         0         0         0         0
         0         0         0         0         0         0         0         0
         0         0         0         0         0         0         0         0
         0         0         0         0         0         0         0         0
         0         0         0         0         0         0         0         0
         0         0         0         0         0         0         0         0
         0         0         0         0         0         0         0         0
         0         0         0         0         0         0         0         0
         0         0         0         0         0         0         0         0
         0         0         0         0         0         0         0         0
         0         0         0         0         0         0         0         0
         0         0         0         0         0         0         0         0
         0         0         0         0         0         0         0         0
         0         0         0         0         0         0         0         0
         0         0         0         0         0         0         0         0
         0         0         0         0         0         0         0         0
         0         0         0         0         0         0         0         0
         0         0         0         0         0         0         0         0
         0         0         0         0         0         0         0         0
         0         0         0         0         0         0         0         0
         0         0         0         0         0         0         0         0
         0         0         0         0         0         0         0         0
         0         0         0         0         0         0         0         0
         0         0         0         0         0         0         0         0
         0         0         0         0         0         0         0         0
         0         0         0         0         0         0         0         0
         0         0         0         0         0         0         0         0
         0         0         0         0         0         0         0         0
         0         0         0         0         0         0         0         0
         0         0         0         0         0         0         0         0
         0         0         0         0         0         0         0         0
         0         0         0         0         0         0         0         0
         0         0         0         0         0         0         0         0
         0         0         0         0         0         0         0         0
         0         0         0         0         0         0         0         0
         0         0         0         0         0         0         0         0
         0         0         0         0         0         0         0         0
         0         0         0         0         0         0         0         0
         0         0         0         0         0         0         0         0
         0         0         0         0         0         0         0         0
         0         0         0         0         0         0         0         0
         0         0         0         0         0         0         0         0
         0         0         0         0         0         0         0         0
         0         0         0         0         0         0         0         0
         0         0         0         0         0         0         0         0
         0         0         0         0         0         0         0         0
         0         0         0         0         0         0         0         0
         0         0         0         0         0         0         0         0
         0         0         0         0         0         0         0         0
         0         0         0         0         0         0         0         0
         0         0         0         0         0         0         0         0
         0         0         0         0         0         0         0         0
         0         0         0         0         0         0         0         0
         0         0         0         0         0         0         0         0
         0         0         0         0         0         0         0         0
         0         0         0         0         0         0         0         0
         0         0         0         0         0         0         0         0
         0         0         0         0         0         0         0         0
         0         0         0         0         0         0         0         0
         0         0         0         0         0         0         0         0
         0         0         0         0         0         0         0         0
         0         0         0         0         0         0         0         0
         0         0         0         0         0         0         0         0
         0         0         0         0         0         0         0         0
         0         0         0         0         0         0         0         0
         0         0         0         0         0         0         0         0
         0         0         0         0         0         0         0         0
         0         0         0         0         0         0         0         0
         0         0         0         0         0         0         0         0
         0         0         0         0         0         0         0         0
         0         0         0         0         0         0         0         0
         0         0         0         0         0         0         0         0
         0         0         0         0         0         0         0         0
         0         0         0         0         0         0         0         0
         0         0         0         0         0         0         0         0
         0         0         0         0         0         0         0         0
         0         0         0         0         0         0         0         0
         0         0         0         0         0         0         0         0
         0         0         0         0         0         0         0         0
         0         0         0         0         0         0         0         0
         0         0         0         0         0         0         0         0
         0         0         0         0         0         0         0         0
         0         0         0         0         0         0         0         0
         0         0         0         0         0         0         0         0
         0         0         0         0         0         0         0         0
         0         0         0         0         0         0         0         0
         0         0         0         0         0         0         0         0
         0         0         0         0         0         0         0         0
         0         0         0         0         0         0         0         0
         0         0         0         0         0         0         0         0
         0         0         0         0         0         0         0         0
         0         0         0         0         0         0         0         0
         0         0         0         0         0         0         0         0
         0         0         0         0         0         0         0         0
         0         0         0         0         0         0         0         0
         0         0         0         0         0         0         0         0
         0         0         0         0         0         0         0         0
         0         0         0         0         0         0         0         0
         0         0         0         0         0         0         0         0
         0         0         0         0         0         0         0         0
         0         0         0         0         0         0         0         0
         0         0         0         0         0         0         0         0
         0         0         0         0         0         0         0         0
         0         0         0         0         0         0         0         0
         0         0         0         0         0         0         0         0
         0         0         0         0         0         0         0         0
         0         0         0         0         0         0         0         0
         0         0         0         0         0         0         0         0
         0         0         0         0         0         0         0         0
         0         0         0         0         0         0         0         0
         0         0         0         0         0         0         0         0
         0         0         0         0         0         0         0         0
         0         0         0         0         0         0         0         0
         0         0         0         0         0         0         0         0
         0         0         0         0         0         0         0         0
         0         0         0         0         0         0         0         0
         0         0         0         0         0         0         0         0
         0         0         0         0         0         0         0         0
         0         0         0         0         0         0         0         0
         0         0         0         0         0         0         0         0
         0         0         0         0         0         0         0         0
         0         0         0         0         0         0         0         0
         0         0         0         0         0         0         0         0
         0         0         0         0         0         0         0         0
         0         0         0         0         0         0         0         0
         0         0         0         0         0         0         0         0
         0         0         0         0         0         0         0         0
         0         0         0         0         0         0         0         0
         0         0         0         0         0         0         0         0
         0         0         0         0         0         0         0         0
         0         0         0         0         0         0         0         0
         0         0         0         0         0         0         0         0
         0         0         0         0         0         0         0         0
         0         0         0         0         0         0         0         0
         0         0         0         0         0         0         0         0
         0         0         0         0         0         0         0         0
         0         0         0         0         0         0         0         0
         0         0         0         0         0         0         0         0
         0         0         0         0         0         0         0         0
         0         0         0         0         0         0         0         0
         0         0         0         0         0         0         0         0
         0         0         0         0         0         0         0         0
         0         0         0         0         0         0         0         0
         0         0         0         0         0         0         0         0
         0         0         0         0         0         0         0         0
         0         0         0         0         0         0         0         0
         0         0         0         0         0         0         0         0
         0         0         0         0         0         0         0         0
         0         0         0         0         0         0         0         0
         0         0         0         0         0         0         0         0
         0         0         0         0         0         0         0         0
         0         0         0         0         0         0         0         0
         0         0         0         0         0         0         0         0
         0         0         0         0         0         0         0         0
         0         0         0         0         0         0         0         0
         0         0         0         0         0         0         0         0
         0         0         0         0         0         0         0         0
         0         0         0         0         0         0         0         0
         0         0         0         0         0         0         0         0
         0         0         0         0         0         0         0         0
         0         0         0         0         0         0         0         0
         0         0         0         0         0         0         0         0
         0         0         0         0         0         0         0         0
         0         0         0         0         0         0         0         0
         0         0         0         0         0         0         0         0
         0         0         0         0         0         0         0         0
         0         0         0         0         0         0         0         0
         0         0         0         0         0         0         0         0
         0         0         0         0         0         0         0         0
         0         0         0         0         0         0         0         0
         0         0         0         0         0         0         0         0
         0         0         0         0         0         0         0         0
         0         0         0         0         0         0         0         0
         0         0         0         0         0         0         0         0
         0         0         0         0         0         0         0         0
         0         0         0         0         0         0         0         0
         0         0         0         0         0         0         0         0
         0         0         0         0         0         0         0         0
         0         0         0         0         0         0         0         0
         0         0         0         0         0         0         0         0
         0         0         0         0         0         0         0         0
         0         0         0         0         0         0         0         0
         0         0         0         0         0         0         0         0
         0         0         0         0         0         0         0         0
         0         0         0         0         0         0         0         0
         0         0         0         0         0         0         0         0
         0         0         0         0         0         0         0         0
         0         0         0         0         0         0         0         0
         0         0         0         0         0         0         0         0
         0         0         0         0         0         0         0         0
         0         0         0         0         0         0         0         0
         0         0         0         0         0         0         0         0
         0         0         0         0         0         0         0         0
         0         0         0         0         0         0         0         0
         0         0         0         0         0         0         0         0
         0         0         0         0         0         0         0         0
         0         0         0         0         0         0         0         0
         0         0         0         0         0         0         0         0
         0         0         0         0         0         0         0         0
         0         0         0         0         0         0         0         0
         0         0         0         0         0         0         0         0
         0         0         0         0         0         0         0         0
         0         0         0         0         0         0         0         0
         0         0         0         0         0         0         0         0
         0         0         0         0         0         0         0         0
         0         0         0         0         0         0         0         0
         0         0         0         0         0         0         0         0
         0         0         0         0         0         0         0         0
         0         0         0         0         0         0         0         0
         0         0         0         0         0         0         0         0
         0         0         0         0         0         0         0         0
         0         0         0         0         0         0         0         0
         0         0         0         0         0         0         0         0
         0         0         0         0         0         0         0         0
         0         0         0         0         0         0         0         0
         0         0         0         0         0         0         0         0
         0         0         0         0         0         0         0         0
         0         0         0         0         0         0         0         0
         0         0         0         0         0         0         0         0
         0         0         0         0         0         0         0         0
         0         0         0         0         0         0         0         0
         0         0         0         0         0         0         0         0
         0         0         0         0         0         0         0         0
         0         0         0         0         0         0         0         0
         0         0         0         0         0         0         0         0
         0         0         0         0         0         0         0         0
         0         0         0         0         0         0         0         0
         0         0         0         0         0         0         0         0
         0         0         0         0         0         0         0         0
         0         0         0         0         0         0         0         0
         0         0         0         0         0         0         0         0
         0         0         0         0         0         0         0         0
         0         0         0         0         0         0         0         0
         0         0         0         0         0         0         0         0
         0         0         0         0         0         0         0         0
         0         0         0         0         0         0         0         0
         0         0         0         0         0         0         0         0
         0         0         0         0         0         0         0         0
         0         0         0         0         0         0         0         0
         0         0         0         0         0         0         0         0
         0         0         0         0         0         0         0         0
         0         0         0         0         0         0         0         0
         0         0         0         0         0         0         0         0
         0         0         0         0         0         0         0         0
         0         0         0         0         0         0         0         0
         0         0         0         0         0         0         0         0
         0         0         0         0         0         0         0         0
         0         0         0         0         0         0         0         0
         0         0         0         0         0         0         0         0
         0         0         0         0         0         0         0         0
         0         0         0         0         0         0         0         0
         0         0         0         0         0         0         0         0
         0         0         0         0         0         0         0         0
         0         0         0         0         0         0         0         0
         0         0         0         0         0         0         0         0
         0         0         0         0         0         0         0         0
         0         0         0         0         0         0         0         0
         0         0         0         0         0         0         0         0
         0         0         0         0         0         0         0         0
         0         0         0         0         0         0         0         0
         0         0         0         0         0         0         0         0
         0         0         0         0         0         0         0         0
         0         0         0         0         0         0         0         0
         0         0         0         0         0         0         0         0
         0         0         0         0         0         0         0         0
         0         0         0         0         0         0         0         0
         0         0         0         0         0         0         0         0
         0         0         0         0         0         0         0         0
         0         0         0         0         0         0         0         0
         0         0         0         0         0         0         0         0
         0         0         0         0         0         0         0         0
         0         0         0         0         0         0         0         0
         0         0         0         0         0         0         0         0
         0         0         0         0         0         0         0         0
         0         0         0         0         0         0         0         0
         0         0         0         0         0         0         0         0
         0         0         0         0         0         0         0         0
         0         0         0         0         0         0         0         0
         0         0         0         0         0         0         0         0
         0         0         0         0         0         0         0         0
         0         0         0         0         0         0         0         0
         0         0         0         0         0         0         0         0
         0         0         0         0         0         0         0         0
         0         0         0         0         0         0         0         0
         0         0         0         0         0         0         0         0
         0         0         0         0         0         0         0         0
         0         0         0         0         0         0         0         0
         0         0         0         0         0         0         0         0
         0         0         0         0         0         0         0         0
         0         0         0         0         0         0         0         0
         0         0         0         0         0         0         0         0
         0         0         0         0         0         0         0         0
         0         0         0         0         0         0         0         0
         0         0         0         0         0         0         0         0
         0         0         0         0         0         0         0         0
         0         0         0         0         0         0         0         0
         0         0         0         0         0         0         0         0
         0         0         0         0         0         0         0         0
         0         0         0         0         0         0         0         0
         0         0         0         0         0         0         0         0
         0         0         0         0         0         0         0         0
         0         0         0         0         0         0         0         0
         0         0         0         0         0         0         0         0
         0         0         0         0         0         0         0         0
         0         0         0         0         0         0         0         0
         0         0         0         0         0         0         0         0
         0         0         0         0         0         0         0         0
         0         0         0         0         0         0         0         0
         0         0         0         0         0         0         0         0
         0         0         0         0         0         0         0         0
         0         0         0         0         0         0         0         0
         0         0         0         0         0         0         0         0
         0         0         0         0         0         0         0         0
         0         0         0         0         0         0         0         0
         0         0         0         0         0         0         0         0
         0         0         0         0         0         0         0         0
         0         0         0         0         0         0         0         0
         0         0         0         0         0         0         0         0
         0         0         0         0         0         0         0         0
         0         0         0         0         0         0         0         0
         0         0         0         0         0         0         0         0
         0         0         0         0         0         0         0         0
         0         0         0         0         0         0         0         0
         0         0         0         0         0         0         0         0
         0         0         0         0         0         0         0         0
         0         0         0         0         0         0         0         0
         0         0         0         0         0         0         0         0
         0         0         0         0         0         0         0         0
         0         0         0         0         0         0         0         0
         0         0         0         0         0         0         0         0
         0         0         0         0         0         0         0         0
         0         0         0         0         0         0         0         0
         0         0         0         0         0         0         0         0
         0         0         0         0         0         0         0         0
         0         0         0         0         0         0         0         0
         0         0         0         0         0         0         0         0
         0         0         0         0         0         0         0         0
         0         0         0         0         0         0         0         0
         0         0         0         0         0         0         0         0
         0         0         0         0         0         0         0         0
         0         0         0         0         0         0         0         0
         0         0         0         0         0         0         0         0
         0         0         0         0         0         0         0         0
         0         0         0         0         0         0         0         0
         0         0         0         0         0         0         0         0
         0         0         0         0         0         0         0         0
         0         0         0         0         0         0         0         0
         0         0         0         0         0         0         0         0
         0         0         0         0         0         0         0         0
         0         0         0         0         0         0         0         0
         0         0         0         0         0         0         0         0
         0         0         0         0         0         0         0         0
         0         0         0         0         0         0         0         0
         0         0         0         0         0         0         0         0
         0         0         0         0         0         0         0         0
         0         0         0         0         0         0         0         0
         0         0         0         0         0         0         0         0
         0         0         0         0         0         0         0         0
         0         0         0         0         0         0         0         0
         0         0         0         0         0         0         0         0
         0         0         0         0         0         0         0         0
         0         0         0         0         0         0         0         0
         0         0         0         0         0         0         0         0
         0         0         0         0         0         0         0         0
         0         0         0         0         0         0         0         0
         0         0         0         0         0         0         0         0
         0         0         0         0         0         0         0         0
         0         0         0         0         0         0         0         0
         0         0         0         0         0         0         0         0
         0         0         0         0         0         0         0         0
         0         0         0         0         0         0         0         0
         0         0         0         0         0         0         0         0
         0         0         0         0         0         0         0         0
         0         0         0         0         0         0         0         0
         0         0         0         0         0         0         0         0
         0         0         0         0         0         0         0         0
         0         0         0         0         0         0         0         0
         0         0         0         0         0         0         0         0
         0         0         0         0         0         0         0         0
         0         0         0         0         0         0         0         0
         0         0         0         0         0         0         0         0
         0         0         0         0         0         0         0         0
         0         0         0         0         0         0         0         0
         0         0         0         0         0         0         0         0
         0         0         0         0         0         0         0         0
         0         0         0         0         0         0         0         0
         0         0         0         0         0         0         0         0
         0         0         0         0         0         0         0         0
         0         0         0         0         0         0         0         0
         0         0         0         0         0         0         0         0
         0         0         0         0         0         0         0         0
         0         0         0         0         0         0         0         0
         0         0         0         0         0         0         0         0
         0         0         0         0         0         0         0         0
         0         0         0         0         0         0         0         0
         0         0         0         0         0         0         0         0
         0         0         0         0         0         0         0         0
         0         0         0         0         0         0         0         0
         0         0         0         0         0         0         0         0
         0         0         0         0         0         0         0         0
         0         0         0         0         0         0         0         0
         0         0         0         0         0         0         0         0
         0         0         0         0         0         0         0         0
         0         0         0         0         0         0         0         0
         0         0         0         0         0         0         0         0
         0         0         0         0         0         0         0         0
         0         0         0         0         0         0         0         0
         0         0         0         0         0         0         0         0
         0         0         0         0         0         0         0         0
         0         0         0         0         0         0         0         0
         0         0         0         0         0         0         0         0
         0         0         0         0         0         0         0         0
         0         0         0         0         0         0         0         0
         0         0         0         0         0         0         0         0
         0         0         0         0         0         0         0         0
         0         0         0         0         0         0         0         0
         0         0         0         0         0         0         0         0
         0         0         0         0         0         0         0         0
         0         0         0         0         0         0         0         0
         0         0         0         0         0         0         0         0
         0         0         0         0         0         0         0         0
         0         0         0         0         0         0         0         0
         0         0         0         0         0         0         0         0
         0         0         0         0         0         0         0         0
         0         0         0         0         0         0         0         0
         0         0         0         0         0         0         0         0
         0         0         0         0         0         0         0         0
         0         0         0         0         0         0         0         0
         0         0         0         0         0         0         0         0
         0         0         0         0         0         0         0         0
         0         0         0         0         0         0         0         0
         0         0         0         0         0         0         0         0
         0         0         0         0         0         0         0         0
         0         0         0         0         0         0         0         0
         0         0         0         0         0         0         0         0
         0         0         0         0         0         0         0         0
         0         0         0         0         0         0         0         0
         0         0         0         0         0         0         0         0
         0         0         0         0         0         0         0         0
         0         0         0         0         0         0         0         0
         0         0         0         0         0         0         0         0
         0         0         0         0         0         0         0         0
         0         0         0         0         0         0         0         0
         0         0         0         0         0         0         0         0
         0         0         0         0         0         0         0         0
         0         0         0         0         0         0         0         0
         0         0         0         0         0         0         0         0
         0         0         0         0         0         0         0         0
         0         0         0         0         0         0         0         0
         0         0         0         0         0         0         0         0
         0         0         0         0         0         0         0         0
         0         0         0         0         0         0         0         0
         0         0         0         0         0         0         0         0
         0         0         0         0         0         0         0         0
         0         0         0         0         0         0         0         0
         0         0         0         0         0         0         0         0
         0         0         0         0         0         0         0         0
         0         0         0         0         0         0         0         0
         0         0         0         0         0         0         0         0
         0         0         0         0         0         0         0         0
         0         0         0         0         0         0         0         0
         0         0         0         0         0         0         0         0
         0         0         0         0         0         0         0         0
         0         0         0         0         0         0         0         0
         0         0         0         0         0         0         0         0
         0         0         0         0         0         0         0         0
         0         0         0         0         0         0         0         0
         0         0         0         0         0         0         0         0
         0         0         0         0         0         0         0         0
         0         0         0         0         0         0         0         0
         0         0         0         0         0         0         0         0
         0         0         0         0         0         0         0         0
         0         0         0         0         0         0         0         0
         0         0         0         0         0         0         0         0
         0         0         0         0         0         0         0         0
         0         0         0         0         0         0         0         0
         0         0         0         0         0         0         0         0
         0         0         0         0         0         0         0         0
         0         0         0         0         0         0         0         0
         0         0         0         0         0         0         0         0
         0         0         0         0         0         0         0         0
         0         0         0         0         0         0         0         0
         0         0         0         0         0         0         0         0
         0         0         0         0         0         0         0         0
         0         0         0         0         0         0         0         0
         0         0         0         0         0         0         0         0
         0         0         0         0         0         0         0         0
         0         0         0         0         0         0         0         0
         0         0         0         0         0         0         0         0
         0         0         0         0         0         0         0         0
         0         0         0         0         0         0         0         0
         0         0         0         0         0         0         0         0
         0         0         0         0         0         0         0         0
         0         0         0         0         0         0         0         0
         0         0         0         0         0         0         0         0
         0         0         0         0         0         0         0         0
         0         0         0         0         0         0         0         0
         0         0         0         0         0         0         0         0
         0         0         0         0         0         0         0         0
         0         0         0         0         0         0         0         0
         0         0         0         0         0         0         0         0
         0         0         0         0         0         0         0         0
         0         0         0         0         0         0         0         0
         0         0         0         0         0         0         0         0
         0         0         0         0         0         0         0         0
         0         0         0         0         0         0         0         0
         0         0         0         0         0         0         0         0
         0         0         0         0         0         0         0         0
         0         0         0         0         0         0         0         0
         0         0         0         0         0         0         0         0
         0         0         0         0         0         0         0         0
         0         0         0         0         0         0         0         0
         0         0         0         0         0         0         0         0
         0         0         0         0         0         0         0         0
         0         0         0         0         0         0         0         0
         0         0         0         0         0         0         0         0
         0         0         0         0         0         0         0         0
         0         0         0         0         0         0         0         0
         0         0         0         0         0         0         0         0
         0         0         0         0         0         0         0         0
         0         0         0         0         0         0         0         0
         0         0         0         0         0         0         0         0
         0         0         0         0         0         0         0         0
         0         0         0         0         0         0         0         0
         0         0         0         0         0         0         0         0
         0         0         0         0         0         0         0         0
         0         0         0         0         0         0         0         0
         0         0         0         0         0         0         0         0
         0         0         0         0         0         0         0         0
         0         0         0         0         0         0         0         0
         0         0         0         0         0         0         0         0
         0         0         0         0         0         0         0         0
         0         0         0         0         0         0         0         0
         0         0         0         0         0         0         0         0
         0         0         0         0         0         0         0         0
         0         0         0         0         0         0         0         0
         0         0         0         0         0         0         0         0
         0         0         0         0         0         0         0         0
         0         0         0         0         0         0         0         0
         0         0         0         0         0         0         0         0
         0         0         0         0         0         0         0         0
         0         0         0         0         0         0         0         0
         0         0         0         0         0         0         0         0
         0         0         0         0         0         0         0         0
         0         0         0         0         0         0         0         0
         0         0         0         0         0         0         0         0
         0         0         0         0         0         0         0         0
         0         0         0         0         0         0         0         0
         0         0         0         0         0         0         0         0
         0         0         0         0         0         0         0         0
         0         0         0         0         0         0         0         0
         0         0         0         0         0         0         0         0
         0         0         0         0         0         0         0         0
         0         0         0         0         0         0         0         0
         0         0         0         0         0         0         0         0
         0         0         0         0         0         0         0         0
         0         0         0         0         0         0         0         0
         0         0         0         0         0         0         0         0
         0         0         0         0         0         0         0         0
         0         0         0         0         0         0         0         0
         0         0         0         0         0         0         0         0
         0         0         0         0         0         0         0         0
         0         0         0         0         0         0         0         0
         0         0         0         0         0         0         0         0
         0         0         0         0         0         0         0         0
         0         0         0         0         0         0         0         0
         0         0         0         0         0         0         0         0
         0         0         0         0         0         0         0         0
         0         0         0         0         0         0         0         0
         0         0         0         0         0         0         0         0
         0         0         0         0         0         0         0         0
         0         0         0         0         0         0         0         0
         0         0         0         0         0         0         0         0
         0         0         0         0         0         0         0         0
         0         0         0         0         0         0         0         0
         0         0         0         0         0         0         0         0
         0         0         0         0         0         0         0         0
         0         0         0         0         0         0         0         0
         0         0         0         0         0         0         0         0
         0         0         0         0         0         0         0         0
         0         0         0         0         0         0         0         0
         0         0         0         0         0         0         0         0
         0         0         0         0         0         0         0         0
         0         0         0         0         0         0         0         0
         0         0         0         0         0         0         0         0
         0         0         0         0         0         0         0         0
         0         0         0         0         0         0         0         0
         0         0         0         0         0         0         0         0
         0         0         0         0         0         0         0         0
         0         0         0         0         0         0         0         0
         0         0         0         0         0         0         0         0
         0         0         0         0         0         0         0         0
         0         0         0         0         0         0         0         0
         0         0         0         0         0         0         0         0
         0         0         0         0         0         0         0         0
         0         0         0         0         0         0         0         0
         0         0         0         0         0         0         0         0
         0         0         0         0         0         0         0         0
         0         0         0         0         0         0         0         0
         0         0         0         0         0         0         0         0
         0         0         0         0         0         0         0         0
         0         0         0         0         0         0         0         0
         0         0         0         0         0         0         0         0
         0         0         0         0         0         0         0         0
         0         0         0         0         0         0         0         0
         0         0         0         0         0         0         0         0
         0         0         0         0         0         0         0         0
         0         0         0         0         0         0         0         0
         0         0         0         0         0         0         0         0
         0         0         0         0         0         0         0         0
         0         0         0         0         0         0         0         0
         0         0         0         0         0         0         0         0
         0         0         0         0         0         0         0         0
         0         0         0         0         0         0         0         0
         0         0         0         0         0         0         0         0
         0         0         0         0         0         0         0         0
         0         0         0         0         0         0         0         0
         0         0         0         0         0         0         0         0
         0         0         0         0         0         0         0         0
         0         0         0         0         0         0         0         0
         0         0         0         0         0         0         0         0
         0         0         0         0         0         0         0         0
         0         0         0         0         0         0         0         0
         0         0         0         0         0         0         0         0
         0         0         0         0         0         0         0         0
         0         0         0         0         0         0         0         0
         0         0         0         0         0         0         0         0
         0         0         0         0         0         0         0         0
         0         0         0         0         0         0         0         0
         0         0         0         0         0         0         0         0
         0         0         0         0         0         0         0         0
         0         0         0         0         0         0         0         0
         0         0         0         0         0         0         0         0
         0         0         0         0         0         0         0         0
         0         0         0         0         0         0         0         0
         0         0         0         0         0         0         0         0
         0         0         0         0         0         0         0         0
         0         0         0         0         0         0         0         0
         0         0         0         0         0         0         0         0
         0         0         0         0         0         0         0         0
         0         0         0         0         0         0         0         0
         0         0         0         0         0         0         0         0
         0         0         0         0         0         0         0         0
         0         0         0         0         0         0         0         0
         0         0         0         0         0         0         0         0
         0         0         0         0         0         0         0         0
         0         0         0         0         0         0         0         0
         0         0         0         0         0         0         0         0
         0         0         0         0         0         0         0         0
         0         0         0         0         0         0         0         0
         0         0         0         0         0         0         0         0
         0         0         0         0         0         0         0         0
         0         0         0         0         0         0         0         0
         0         0         0         0         0         0         0         0
         0         0         0         0         0         0         0         0
         0         0         0         0         0         0         0         0
         0         0         0         0         0         0         0         0
         0         0         0         0         0         0         0         0
         0         0         0         0         0         0         0         0
         0         0         0         0         0         0         0         0
         0         0         0         0         0         0         0         0
         0         0         0         0         0         0         0         0
         0         0         0         0         0         0         0         0
         0         0         0         0         0         0         0         0
         0         0         0         0         0         0         0         0
         0         0         0         0         0         0         0         0
         0         0         0         0         0         0         0         0
         0         0         0         0         0         0         0         0
         0         0         0         0         0         0         0         0
         0         0         0         0         0         0         0         0
         0         0         0         0         0         0         0         0
         0         0         0         0         0         0         0         0
         0         0         0         0         0         0         0         0
         0         0         0         0         0         0         0         0
         0         0         0         0         0         0         0         0
         0         0         0         0         0         0         0         0
         0         0         0         0         0         0         0         0
         0         0         0         0         0         0         0         0
         0         0         0         0         0         0         0         0
         0         0         0         0         0         0         0         0
         0         0         0         0         0         0         0         0
         0         0         0         0         0         0         0         0
         0         0         0         0         0         0         0         0
         0         0         0         0         0         0         0         0
         0         0         0         0         0         0         0         0
         0         0         0         0         0         0         0         0
         0         0         0         0         0         0         0         0
         0         0         0         0         0         0         0         0
         0         0         0         0         0         0         0         0
         0         0         0         0         0         0         0         0
         0         0         0         0         0         0         0         0
         0         0         0         0         0         0         0         0
         0         0         0         0         0         0         0         0
         0         0         0         0         0         0         0         0
         0         0         0         0         0         0         0         0
         0         0         0         0         0         0         0         0
         0         0         0         0         0         0         0         0
         0         0         0         0         0         0         0         0
         0         0         0         0         0         0         0         0
         0         0         0         0         0         0         0         0
         0         0         0         0         0         0         0         0
         0         0         0         0         0         0         0         0
         0         0         0         0         0         0         0         0
         0         0         0         0         0         0         0         0
         0         0         0         0         0         0         0         0
         0         0         0         0         0         0         0         0
         0         0         0         0         0         0         0         0
         0         0         0         0         0         0         0         0
         0         0         0         0         0         0         0         0
         0         0         0         0         0         0         0         0
         0         0         0         0         0         0         0         0
         0         0         0         0         0         0         0         0
         0         0         0         0         0         0         0         0
         0         0         0         0         0         0         0         0
         0         0         0         0         0         0         0         0
         0         0         0         0         0         0         0         0
         0         0         0         0         0         0         0         0
         0         0         0         0         0         0         0         0
         0         0         0         0         0         0         0         0
         0         0         0         0         0         0         0         0
         0         0         0         0         0         0         0         0
         0         0         0         0         0         0         0         0
         0         0         0         0         0         0         0         0
         0         0         0         0         0         0         0         0
         0         0         0         0         0         0         0         0
         0         0         0         0         0         0         0         0
         0         0         0         0         0         0         0         0
         0         0         0         0         0         0         0         0
         0         0         0         0         0         0         0         0
         0         0         0         0         0         0         0         0
         0         0         0         0         0         0         0         0
         0         0         0         0         0         0         0         0
         0         0         0         0         0         0         0         0
         0         0         0         0         0         0         0         0
         0         0         0         0         0         0         0         0
         0         0         0         0         0         0         0         0
         0         0         0         0         0         0         0         0
         0         0         0         0         0         0         0         0
         0         0         0         0         0         0         0         0
         0         0         0         0         0         0         0         0
         0         0         0         0         0         0         0         0
         0         0         0         0         0         0         0         0
         0         0         0         0         0         0         0         0
         0         0         0         0         0         0         0         0
         0         0         0         0         0         0         0         0
         0         0         0         0         0         0         0         0
         0         0         0         0         0         0         0         0
         0         0         0         0         0         0         0         0
         0         0         0         0         0         0         0         0
         0         0         0         0         0         0         0         0
         0         0         0         0         0         0         0         0
         0         0         0         0         0         0         0         0
         0         0         0         0         0         0         0         0
         0         0         0         0         0         0         0         0
         0         0         0         0         0         0         0         0
         0         0         0         0         0         0         0         0
         0         0         0         0         0         0         0         0
         0         0         0         0         0         0         0         0
         0         0         0         0         0         0         0         0
         0         0         0         0         0         0         0         0
         0         0         0         0         0         0         0         0
         0         0         0         0         0         0         0         0
         0         0         0         0         0         0         0         0
         0         0         0         0         0         0         0         0
         0         0         0         0         0         0         0         0
         0         0         0         0         0         0         0         0
         0         0         0         0         0         0         0         0
         0         0         0         0         0         0         0         0
         0         0         0         0         0         0         0         0
         0         0         0         0         0         0         0         0
         0         0         0         0         0         0         0         0
         0         0         0         0         0         0         0         0
         0         0         0         0         0         0         0         0
         0         0         0         0         0         0         0         0
         0         0         0         0         0         0         0         0
         0         0         0         0         0         0         0         0
         0         0         0         0         0         0         0         0
         0         0         0         0         0         0         0         0
         0         0         0         0         0         0         0         0
         0         0         0         0         0         0         0         0
         0         0         0         0         0         0         0         0
         0         0         0         0         0         0         0         0
         0         0         0         0         0         0         0         0
         0         0         0         0         0         0         0         0
         0         0         0         0         0         0         0         0
         0         0         0         0         0         0         0         0
         0         0         0         0         0         0         0         0
         0         0         0         0         0         0         0         0
         0         0         0         0         0         0         0         0
         0         0         0         0         0         0         0         0
         0         0         0         0         0         0         0         0
         0         0         0         0         0         0         0         0
         0         0         0         0         0         0         0         0
         0         0         0         0         0         0         0         0
         0         0         0         0         0         0         0         0
         0         0         0         0         0         0         0         0
         0         0         0         0         0         0         0         0
         0         0         0         0         0         0         0         0
         0         0         0         0         0         0         0         0
         0         0         0         0         0         0         0         0
         0         0         0         0         0         0         0         0
         0         0         0         0         0         0         0         0
         0         0         0         0         0         0         0         0
         0         0         0         0         0         0         0         0
         0         0         0         0         0         0         0         0
         0         0         0         0         0         0         0         0
         0         0         0         0         0         0         0         0
         0         0         0         0         0         0         0         0
         0         0         0         0         0         0         0         0
         0         0         0         0         0         0         0         0
         0         0         0         0         0         0         0         0
         0         0         0         0         0         0         0         0
         0         0         0         0         0         0         0         0
         0         0         0         0         0         0         0         0
         0         0         0         0         0         0         0         0
         0         0         0         0         0         0         0         0
         0         0         0         0         0         0         0         0
         0         0         0         0         0         0         0         0
         0         0         0         0         0         0         0         0
         0         0         0         0         0         0         0         0
         0         0         0         0         0         0         0         0
         0         0         0         0         0         0         0         0
         0         0         0         0         0         0         0         0
         0         0         0         0         0         0         0         0
         0         0         0         0         0         0         0         0
         0         0         0         0         0         0         0         0
         0         0         0         0         0         0         0         0
         0         0         0         0         0         0         0         0
         0         0         0         0         0         0         0         0
         0         0         0         0         0         0         0         0
         0         0         0         0         0         0         0         0
         0         0         0         0         0         0         0         0
         0         0         0         0         0         0         0         0
         0         0         0         0         0         0         0         0
         0         0         0         0         0         0         0         0
         0         0         0         0         0         0         0         0
         0         0         0         0         0         0         0         0
         0         0         0         0         0         0         0         0
         0         0         0         0         0         0         0         0
         0         0         0         0         0         0         0         0
         0         0         0         0         0         0         0         0
         0         0         0         0         0         0         0         0
         0         0         0         0         0         0         0         0
         0         0         0         0         0         0         0         0
         0         0         0         0         0         0         0         0
         0         0         0         0         0         0         0         0
         0         0         0         0         0         0         0         0
         0         0         0         0         0         0         0         0
         0         0         0         0         0         0         0         0
         0         0         0         0         0         0         0         0
         0         0         0         0         0         0         0         0
         0         0         0         0         0         0         0         0
         0         0         0         0         0         0         0         0
         0         0         0         0         0         0         0         0
         0         0         0         0         0         0         0         0
         0         0         0         0         0         0         0         0
         0         0         0         0         0         0         0         0
         0         0         0         0         0         0         0         0
         0         0         0         0         0         0         0         0
         0         0         0         0         0         0         0         0
         0         0         0         0         0         0         0         0
         0         0         0         0         0         0         0         0
         0         0         0         0         0         0         0         0
         0         0         0         0         0         0         0         0
         0         0         0         0         0         0         0         0
         0         0         0         0         0         0         0         0
         0         0         0         0         0         0         0         0
         0         0         0         0         0         0         0         0
         0         0         0         0         0         0         0         0
         0         0         0         0         0         0         0         0
         0         0         0         0         0         0         0         0
         0         0         0         0         0         0         0         0
         0         0         0         0         0         0         0         0
         0         0         0         0         0         0         0         0
         0         0         0         0         0         0         0         0
         0         0         0         0         0         0         0         0
         0         0         0         0         0         0         0         0
         0         0         0         0         0         0         0         0
         0         0         0         0         0         0         0         0
         0         0         0         0         0         0         0         0
         0         0         0         0         0         0         0         0
         0         0         0         0         0         0         0         0
         0         0         0         0         0         0         0         0
         0         0         0         0         0         0         0         0
         0         0         0         0         0         0         0         0
         0         0         0         0         0         0         0         0
         0         0         0         0         0         0         0         0
         0         0         0         0         0         0         0         0
         0         0         0         0         0         0         0         0
         0         0         0         0         0         0         0         0
         0         0         0         0         0         0         0         0
         0         0         0         0         0         0         0         0
         0         0         0         0         0         0         0         0
         0         0         0         0         0         0         0         0
         0         0         0         0         0         0         0         0
         0         0         0         0         0         0         0         0
         0         0         0         0         0         0         0         0
         0         0         0         0         0         0         0         0
         0         0         0         0         0         0         0         0
         0         0         0         0         0         0         0         0
         0         0         0         0         0         0         0         0
         0         0         0         0         0         0         0         0
         0         0         0         0         0         0         0         0
         0         0         0         0         0         0         0         0
         0         0         0         0         0         0         0         0
         0         0         0         0         0         0         0         0
         0         0         0         0         0         0         0         0
         0         0         0         0         0         0         0         0
         0         0         0         0         0         0         0         0
         0         0         0         0         0         0         0         0
         0         0         0         0         0         0         0         0
         0         0         0         0         0         0         0         0
         0         0         0         0         0         0         0         0
         0         0         0         0         0         0         0         0
         0         0         0         0         0         0         0         0
         0         0         0         0         0         0         0         0
         0         0         0         0         0         0         0         0
         0         0         0         0         0         0         0         0
         0         0         0         0         0         0         0         0
         0         0         0         0         0         0         0         0
         0         0         0         0         0         0         0         0
         0         0         0         0         0         0         0         0
         0         0         0         0         0         0         0         0
         0         0         0         0         0         0         0         0
         0         0         0         0         0         0         0         0
         0         0         0         0         0         0         0         0
         0         0         0         0         0         0         0         0
         0         0         0         0         0         0         0         0
         0         0         0         0         0         0         0         0
         0         0         0         0         0         0         0         0
         0         0         0         0         0         0         0         0
         0         0         0         0         0         0         0         0
         0         0         0         0         0         0         0         0
         0         0         0         0         0         0         0         0
         0         0         0         0         0         0         0         0
         0         0         0         0         0         0         0         0
         0         0         0         0         0         0         0         0
         0         0         0         0         0         0         0         0
         0         0         0         0         0         0         0         0
         0         0         0         0         0         0         0         0
         0         0         0         0         0         0         0         0
         0         0         0         0         0         0         0         0
         0         0         0         0         0         0         0         0
         0         0         0         0         0         0         0         0
         0         0         0         0         0         0         0         0
         0         0         0         0         0         0         0         0
         0         0         0         0         0         0         0         0
         0         0         0         0         0         0         0         0
         0         0         0         0         0         0         0         0
         0         0         0         0         0         0         0         0
         0         0         0         0         0         0         0         0
         0         0         0         0         0         0         0         0
         0         0         0         0         0         0         0         0
         0         0         0         0         0         0         0         0
         0         0         0         0         0         0         0         0
         0         0         0         0         0         0         0         0
         0         0         0         0         0         0         0         0
         0         0         0         0         0         0         0         0
         0         0         0         0         0         0         0         0
         0         0         0         0         0         0         0         0
         0         0         0         0         0         0         0         0
         0         0         0         0         0         0         0         0
         0         0         0         0         0         0         0         0
         0         0         0         0         0         0         0         0
         0         0         0         0         0         0         0         0
         0         0         0         0         0         0         0         0
         0         0         0         0         0         0         0         0
         0         0         0         0         0         0         0         0
         0         0         0         0         0         0         0         0
         0         0         0         0         0         0         0         0
         0         0         0         0         0         0         0         0
         0         0         0         0         0         0         0         0
         0         0         0         0         0         0         0         0
         0         0         0         0         0         0         0         0
         0         0         0         0         0         0         0         0
         0         0         0         0         0         0         0         0
         0         0         0         0         0         0         0         0
         0         0         0         0         0         0         0         0
         0         0         0         0         0         0         0         0
         0         0         0         0         0         0         0         0
         0         0         0         0         0         0         0         0
         0         0         0         0         0         0         0         0
         0         0         0         0         0         0         0         0
         0         0         0         0         0         0         0         0
         0         0         0         0         0         0         0         0
         0         0         0         0         0         0         0         0
         0         0         0         0         0         0         0         0
         0         0         0         0         0         0         0         0
         0         0         0         0         0         0         0         0
         0         0         0         0         0         0         0         0
         0         0         0         0         0         0         0         0
         0         0         0         0         0         0         0         0
         0         0         0         0         0         0         0         0
         0         0         0         0         0         0         0         0
         0         0         0         0         0         0         0         0
         0         0         0         0         0         0         0         0
         0         0         0         0         0         0         0         0
         0         0         0         0         0         0         0         0
         0         0         0         0         0         0         0         0
         0         0         0         0         0         0         0         0
         0         0         0         0         0         0         0         0
         0         0         0         0         0         0         0         0
         0         0         0         0         0         0         0         0
         0         0         0         0         0         0         0         0
         0         0         0         0         0         0         0         0
         0         0         0         0         0         0         0         0
         0         0         0         0         0         0         0         0
         0         0         0         0         0         0         0         0
         0         0         0         0         0         0         0         0
         0         0         0         0         0         0         0         0
         0         0         0         0         0         0         0         0
         0         0         0         0         0         0         0         0
         0         0         0         0         0         0         0         0
         0         0         0         0         0         0         0         0
         0         0         0         0         0         0         0         0
         0         0         0         0         0         0         0         0
         0         0         0         0         0         0         0         0
         0         0         0         0         0         0         0         0
         0         0         0         0         0         0         0         0
         0         0         0         0         0         0         0         0
         0         0         0         0         0         0         0         0
         0         0         0         0         0         0         0         0
         0         0         0         0         0         0         0         0
         0         0         0         0         0         0         0         0
         0         0         0         0         0         0         0         0
         0         0         0         0         0         0         0         0
         0         0         0         0         0         0         0         0
         0         0         0         0         0         0         0         0
         0         0         0         0         0         0         0         0
         0         0         0         0         0         0         0         0
         0         0         0         0         0         0         0         0
         0         0         0         0         0         0         0         0
         0         0         0         0         0         0         0         0
         0         0         0         0         0         0         0         0
         0         0         0         0         0         0         0         0
         0         0         0         0         0         0         0         0
         0         0         0         0         0         0         0         0
         0         0         0         0         0         0         0         0
         0         0         0         0         0         0         0         0
         0         0         0         0         0         0         0         0
         0         0         0         0         0         0         0         0
         0         0         0         0         0         0         0         0
         0         0         0         0         0         0         0         0
         0         0         0         0         0         0         0         0
         0         0         0         0         0         0         0         0
         0         0         0         0         0         0         0         0
         0         0         0         0         0         0         0         0
         0         0         0         0         0         0         0         0
         0         0         0         0         0         0         0         0
         0         0         0         0         0         0         0         0
         0         0         0         0         0         0         0         0
         0         0         0         0         0         0         0         0
         0         0         0         0         0         0         0         0
         0         0         0         0         0         0         0         0
         0         0         0         0         0         0         0         0
         0         0         0         0         0         0         0         0
         0         0         0         0         0         0         0         0
         0         0         0         0         0         0         0         0
         0         0         0         0         0         0         0         0
         0         0         0         0         0         0         0         0
         0         0         0         0         0         0         0         0
         0         0         0         0         0         0         0         0
         0         0         0         0         0         0         0         0
         0         0         0         0         0         0         0         0
         0         0         0         0         0         0         0         0
         0         0         0         0         0         0         0         0
         0         0         0         0         0         0         0         0
         0         0         0         0         0         0         0         0
         0         0         0         0         0         0         0         0
         0         0         0         0         0         0         0         0
         0         0         0         0         0         0         0         0
         0         0         0         0         0         0         0         0
         0         0         0         0         0         0         0         0
         0         0         0         0         0         0         0         0
         0         0         0         0         0         0         0         0
         0         0         0         0         0         0         0         0
         0         0         0         0         0         0         0         0
         0         0         0         0         0         0         0         0
         0         0         0         0         0         0         0         0
         0         0         0         0         0         0         0         0
         0         0         0         0         0         0         0         0
         0         0         0         0         0         0         0         0
         0         0         0         0         0         0         0         0
         0         0         0         0         0         0         0         0
         0         0         0         0         0         0         0         0
         0         0         0         0         0         0         0         0
         0         0         0         0         0         0         0         0
         0         0         0         0         0         0         0         0
         0         0         0         0         0         0         0         0
         0         0         0         0         0         0         0         0
         0         0         0         0         0         0         0         0
         0         0         0         0         0         0         0         0
         0         0         0         0         0         0         0         0
         0         0         0         0         0         0         0         0
         0         0         0         0         0         0         0         0
         0         0         0         0         0         0         0         0
         0         0         0         0         0         0         0         0
         0         0         0         0         0         0         0         0
         0         0         0         0         0         0         0         0
         0         0         0         0         0         0         0         0
         0         0         0         0         0         0         0         0
         0         0         0         0         0         0         0         0
         0         0         0         0         0         0         0         0
         0         0         0         0         0         0         0         0
         0         0         0         0         0         0         0         0
         0         0         0         0         0         0         0         0
         0         0         0         0         0         0         0         0
         0         0         0         0         0         0         0         0
         0         0         0         0         0         0         0         0
         0         0         0         0         0         0         0         0
         0         0         0         0         0         0         0         0
         0         0         0         0         0         0         0         0
         0         0         0         0         0         0         0         0
         0         0         0         0         0         0         0         0
         0         0         0         0         0         0         0         0
         0         0         0         0         0         0         0         0
         0         0         0         0         0         0         0         0
         0         0         0         0         0         0         0         0
         0         0         0         0         0         0         0         0
         0         0         0         0         0         0         0         0
         0         0         0         0         0         0         0         0
         0         0         0         0         0         0         0         0
         0         0         0         0         0         0         0         0
         0         0         0         0         0         0         0         0
         0         0         0         0         0         0         0         0
         0         0         0         0         0         0         0         0
         0         0         0         0         0         0         0         0
         0         0         0         0         0         0         0         0
         0         0         0         0         0         0         0         0
         0         0         0         0         0         0         0         0
         0         0         0         0         0         0         0         0
         0         0         0         0         0         0         0         0
         0         0         0         0         0         0         0         0
         0         0         0         0         0         0         0         0
         0         0         0         0         0         0         0         0
         0         0         0         0         0         0         0         0
         0         0         0         0         0         0         0         0
         0         0         0         0         0         0         0         0
         0         0         0         0         0         0         0         0
         0         0         0         0         0         0         0         0
         0         0         0         0         0         0         0         0
         0         0         0         0         0         0         0         0
         0         0         0         0         0         0         0         0
         0         0         0         0         0         0         0         0
         0         0         0         0         0         0         0         0
         0         0         0         0         0         0         0         0
         0         0         0         0         0         0         0         0
         0         0         0         0         0         0         0         0
         0         0         0         0         0         0         0         0
         0         0         0         0         0         0         0         0
         0         0         0         0         0         0         0         0
         0         0         0         0         0         0         0         0
         0         0         0         0         0         0         0         0
         0         0         0         0         0         0         0         0
         0         0         0         0         0         0         0         0
         0         0         0         0         0         0         0         0
         0         0         0         0         0         0         0         0
         0         0         0         0         0         0         0         0
         0         0         0         0         0         0         0         0
         0         0         0         0         0         0         0         0
         0         0         0         0         0         0         0         0
         0         0         0         0         0         0         0         0
         0         0         0         0         0         0         0         0
         0         0         0         0         0         0         0         0
         0         0         0         0         0         0         0         0
         0         0         0         0         0         0         0         0
         0         0         0         0         0         0         0         0
         0         0         0         0         0         0         0         0
         0         0         0         0         0         0         0         0
         0         0         0         0         0         0         0         0
         0         0         0         0         0         0         0         0
         0         0         0         0         0         0         0         0
         0         0         0         0         0         0         0         0
         0         0         0         0         0         0         0         0
         0         0         0         0         0         0         0         0
         0         0         0         0         0         0         0         0
         0         0         0         0         0         0         0         0
         0         0         0         0         0         0         0         0
         0         0         0         0         0         0         0         0
         0         0         0         0         0         0         0         0
         0         0         0         0         0         0         0         0
         0         0         0         0         0         0         0         0
         0         0         0         0         0         0         0         0
         0         0         0         0         0         0         0         0
         0         0         0         0         0         0         0         0
         0         0         0         0         0         0         0         0
         0         0         0         0         0         0         0         0
         0         0         0         0         0         0         0         0
         0         0         0         0         0         0         0         0
         0         0         0         0         0         0         0         0
         0         0         0         0         0         0         0         0
         0         0         0         0         0         0         0         0
         0         0         0         0         0         0         0         0
         0         0         0         0         0         0         0         0
         0         0         0         0         0         0         0         0
         0         0         0         0         0         0         0         0
         0         0         0         0         0         0         0         0
         0         0         0         0         0         0         0         0
         0         0         0         0         0         0         0         0
         0         0         0         0         0         0         0         0
         0         0         0         0         0         0         0         0
         0         0         0         0         0         0         0         0
         0         0         0         0         0         0         0         0
         0         0         0         0         0         0         0         0
         0         0         0         0         0         0         0         0
         0         0         0         0         0         0         0         0
         0         0         0         0         0         0         0         0
         0         0         0         0         0         0         0         0
         0         0         0         0         0         0         0         0
         0         0         0         0         0         0         0         0
         0         0         0         0         0         0         0         0
         0         0         0         0         0         0         0         0
         0         0         0         0         0         0         0         0
         0         0         0         0         0         0         0         0
         0         0         0         0         0         0         0         0
         0         0         0         0         0         0         0         0
         0         0         0         0         0         0         0         0
         0         0         0         0         0         0         0         0
         0         0         0         0         0         0         0         0
         0         0         0         0         0         0         0         0
         0         0         0         0         0         0         0         0
         0         0         0         0         0         0         0         0
         0         0         0         0         0         0         0         0
         0         0         0         0         0         0         0         0
         0         0         0         0         0         0         0         0
         0         0         0         0         0         0         0         0
         0         0         0         0         0         0         0         0
         0         0         0         0         0         0         0         0
         0         0         0         0         0         0         0         0
         0         0         0         0         0         0         0         0
         0         0         0         0         0         0         0         0
         0         0         0         0         0         0         0         0
         0         0         0         0         0         0         0         0
         0         0         0         0         0         0         0         0
         0         0         0         0         0         0         0         0
         0         0         0         0         0         0         0         0
         0         0         0         0         0         0         0         0
         0         0         0         0         0         0         0         0
         0         0         0         0         0         0         0         0
         0         0         0         0         0         0         0         0
         0         0         0         0         0         0         0         0
         0         0         0         0         0         0         0         0
         0         0         0         0         0         0         0         0
         0         0         0         0         0         0         0         0
         0         0         0         0         0         0         0         0
         0         0         0         0         0         0         0         0
         0         0         0         0         0         0         0         0
         0         0         0         0         0         0         0         0
         0         0         0         0         0         0         0         0
         0         0         0         0         0         0         0         0
         0         0         0         0         0         0         0         0
         0         0         0         0         0         0         0         0
         0         0         0         0         0         0         0         0
         0         0         0         0         0         0         0         0
         0         0         0         0         0         0         0         0
         0         0         0         0         0         0         0         0
         0         0         0         0         0         0         0         0
         0         0         0         0         0         0         0         0
         0         0         0         0         0         0         0         0
         0         0         0         0         0         0         0         0
         0         0         0         0         0         0         0         0
         0         0         0         0         0         0         0         0
         0         0         0         0         0         0         0         0
         0         0         0         0         0         0         0         0
         0         0         0         0         0         0         0         0
         0         0         0         0         0         0         0         0
         0         0         0         0         0         0         0         0
         0         0         0         0         0         0         0         0
         0         0         0         0         0         0         0         0
         0         0         0         0         0         0         0         0
         0         0         0         0         0         0         0         0
         0         0         0         0         0         0         0         0
         0         0         0         0         0         0         0         0
         0         0         0         0         0         0         0         0
         0         0         0         0         0         0         0         0
         0         0         0         0         0         0         0         0
         0         0         0         0         0         0         0         0
         0         0         0         0         0         0         0         0
         0         0         0         0         0         0         0         0
         0         0         0         0         0         0         0         0
         0         0         0         0         0         0         0         0
         0         0         0         0         0         0         0         0
         0         0         0         0         0         0         0         0
         0         0         0         0         0         0         0         0
         0         0         0         0         0         0         0         0
         0         0         0         0         0         0         0         0
         0         0         0         0         0         0         0         0
         0         0         0         0         0         0         0         0
         0         0         0         0         0         0         0         0
         0         0         0         0         0         0         0         0
         0         0         0         0         0         0         0         0
         0         0         0         0         0         0         0         0
         0         0         0         0         0         0         0         0
         0         0         0         0         0         0         0         0
         0         0         0         0         0         0         0         0
         0         0         0         0         0         0         0         0
         0         0         0         0         0         0         0         0
         0         0         0         0         0         0         0         0
         0         0         0         0         0         0         0         0
         0         0         0         0         0         0         0         0
         0         0         0         0         0         0         0         0
         0         0         0         0         0         0         0         0
         0         0         0         0         0         0         0         0
         0         0         0         0         0         0         0         0
         0         0         0         0         0         0         0         0
         0         0         0         0         0         0         0         0
         0         0         0         0         0         0         0         0
         0         0         0         0         0         0         0         0
         0         0         0         0         0         0         0         0
         0         0         0         0         0         0         0         0
         0         0         0         0         0         0         0         0
         0         0         0         0         0         0         0         0
         0         0         0         0         0         0         0         0
         0         0         0         0         0         0         0         0
         0         0         0         0         0         0         0         0
         0         0         0         0         0         0         0         0
         0         0         0         0         0         0         0         0
         0         0         0         0         0         0         0         0
         0         0         0         0         0         0         0         0
         0         0         0         0         0         0         0         0
         0         0         0         0         0         0         0         0
         0         0         0         0         0         0         0         0
         0         0         0         0         0         0         0         0
         0         0         0         0         0         0         0         0
         0         0         0         0         0         0         0         0
         0         0         0         0         0         0         0         0
         0         0         0         0         0         0         0         0
         0         0         0         0         0         0         0         0
         0         0         0         0         0         0         0         0
         0         0         0         0         0         0         0         0
         0         0         0         0         0         0         0         0
         0         0         0         0         0         0         0         0
         0         0         0         0         0         0         0         0
         0         0         0         0         0         0         0         0
         0         0         0         0         0         0         0         0
         0         0         0         0         0         0         0         0
         0         0         0         0         0         0         0         0
         0         0         0         0         0         0         0         0
         0         0         0         0         0         0         0         0
         0         0         0         0         0         0         0         0
         0         0         0         0         0         0         0         0
         0         0         0         0         0         0         0         0
         0         0         0         0         0         0         0         0
         0         0         0         0         0         0         0         0
         0         0         0         0         0         0         0         0
         0         0         0         0         0         0         0         0
         0         0         0         0         0         0         0         0
         0         0         0         0         0         0         0         0
         0         0         0         0         0         0         0         0
         0         0         0         0         0         0         0         0
         0         0         0         0         0         0         0         0
         0         0         0         0         0         0         0         0
         0         0         0         0         0         0         0         0
         0         0         0         0         0         0         0         0
         0         0         0         0         0         0         0         0
         0         0         0         0         0         0         0         0
         0         0         0         0         0         0         0         0
         0         0         0         0         0         0         0         0
         0         0         0         0         0         0         0         0
         0         0         0         0         0         0         0         0
         0         0         0         0         0         0         0         0
         0         0         0         0         0         0         0         0
         0         0         0         0         0         0         0         0
         0         0         0         0         0         0         0         0
         0         0         0         0         0         0         0         0
         0         0         0         0         0         0         0         0
         0         0         0         0         0         0         0         0
         0         0         0         0         0         0         0         0
         0         0         0         0         0         0         0         0
         0         0         0         0         0         0         0         0
         0         0         0         0         0         0         0         0
         0         0         0         0         0         0         0         0
         0         0         0         0         0         0         0         0
         0         0         0         0         0         0         0         0
         0         0         0         0         0         0         0         0
         0         0         0         0         0         0         0         0
         0         0         0         0         0         0         0         0
         0         0         0         0         0         0         0         0
         0         0         0         0         0         0         0         0
         0         0         0         0         0         0         0         0
         0         0         0         0         0         0         0         0
         0         0         0         0         0         0         0         0
         0         0         0         0         0         0         0         0
         0         0         0         0         0         0         0         0
         0         0         0         0         0         0         0         0
         0         0         0         0         0         0         0         0
         0         0         0         0         0         0         0         0
         0         0         0         0         0         0         0         0
         0         0         0         0         0         0         0         0
         0         0         0         0         0         0         0         0
         0         0         0         0         0         0         0         0
         0         0         0         0         0         0         0         0
         0         0         0         0         0         0         0         0
         0         0         0         0         0         0         0         0
         0         0         0         0         0         0         0         0
         0         0         0         0         0         0         0         0
         0         0         0         0         0         0         0         0
         0         0         0         0         0         0         0         0
         0         0         0         0         0         0         0         0
         0         0         0         0         0         0         0         0
         0         0         0         0         0         0         0         0
         0         0         0         0         0         0         0         0
         0         0         0         0         0         0         0         0
         0         0         0         0         0         0         0         0
         0         0         0         0         0         0         0         0
         0         0         0         0         0         0         0         0
         0         0         0         0         0         0         0         0
         0         0         0         0         0         0         0         0
         0         0         0         0         0         0         0         0
         0         0         0         0         0         0         0         0
         0         0         0         0         0         0         0         0
         0         0         0         0         0         0         0         0
         0         0         0         0         0         0         0         0
         0         0         0         0         0         0         0         0
         0         0         0         0         0         0         0         0
         0         0         0         0         0         0         0         0
         0         0         0         0         0         0         0         0
         0         0         0         0         0         0         0         0
         0         0         0         0         0         0         0         0
         0         0         0         0         0         0         0         0
         0         0         0         0         0         0         0         0
         0         0         0         0         0         0         0         0
         0         0         0         0         0         0         0         0
         0         0         0         0         0         0         0         0
         0         0         0         0         0         0         0         0
         0         0         0         0         0         0         0         0
         0         0         0         0         0         0         0         0
         0         0         0         0         0         0         0         0
         0         0         0         0         0         0         0         0
         0         0         0         0         0         0         0         0
         0         0         0         0         0         0         0         0
         0         0         0         0         0         0         0         0
         0         0         0         0         0         0         0         0
         0         0         0         0         0         0         0         0
         0         0         0         0         0         0         0         0
         0         0         0         0         0         0         0         0
         0         0         0         0         0         0         0         0
         0         0         0         0         0         0         0         0
         0         0         0         0         0         0         0         0
         0         0         0         0         0         0         0         0
         0         0         0         0         0         0         0         0
         0         0         0         0         0         0         0         0
         0         0         0         0         0         0         0         0
         0         0         0         0         0         0         0         0
         0         0         0         0         0         0         0         0
         0         0         0         0         0         0         0         0
         0         0         0         0         0         0         0         0
         0         0         0         0         0         0         0         0
         0         0         0         0         0         0         0         0
         0         0         0         0         0         0         0         0
         0         0         0         0         0         0         0         0
         0         0         0         0         0         0         0         0
         0         0         0         0         0         0         0         0
         0         0         0         0         0         0         0         0
         0         0         0         0         0         0         0         0
         0         0         0         0         0         0         0         0
         0         0         0         0         0         0         0         0
         0         0         0         0         0         0         0         0
         0         0         0         0         0         0         0         0
         0         0         0         0         0         0         0         0
         0         0         0         0         0         0         0         0
         0         0         0         0         0         0         0         0
         0         0         0         0         0         0         0         0
         0         0         0         0         0         0         0         0
         0         0         0         0         0         0         0         0
         0         0         0         0         0         0         0         0
         0         0         0         0         0         0         0         0
         0         0         0         0         0         0         0         0
         0         0         0         0         0         0         0         0
         0         0         0         0         0         0         0         0
         0         0         0         0         0         0         0         0
         0         0         0         0         0         0         0         0
         0         0         0         0         0         0         0         0
         0         0         0         0         0         0         0         0
         0         0         0         0         0         0         0         0
         0         0         0         0         0         0         0         0
         0         0         0         0         0         0         0         0
         0         0         0         0         0         0         0         0
         0         0         0         0         0         0         0         0
         0         0         0         0         0         0         0         0
         0         0         0         0         0         0         0         0
         0         0         0         0         0         0         0         0
         0         0         0         0         0         0         0         0
         0         0         0         0         0         0         0         0
         0         0         0         0         0         0         0         0
         0         0         0         0         0         0         0         0
         0         0         0         0         0         0         0         0
         0         0         0         0         0         0         0         0
         0         0         0         0         0         0         0         0
         0         0         0         0         0         0         0         0
         0         0         0         0         0         0         0         0
         0         0         0         0         0         0         0         0
         0         0         0         0         0         0         0         0
         0         0         0         0         0         0         0         0
         0         0         0         0         0         0         0         0
         0         0         0         0         0         0         0         0
         0         0         0         0         0         0         0         0
         0         0         0         0         0         0         0         0
         0         0         0         0         0         0         0         0
         0         0         0         0         0         0         0         0
         0         0         0         0         0         0         0         0
         0         0         0         0         0         0         0         0
         0         0         0         0         0         0         0         0
         0         0         0         0         0         0         0         0
         0         0         0         0         0         0         0         0
         0         0         0         0         0         0         0         0
         0         0         0         0         0         0         0         0
         0         0         0         0         0         0         0         0
         0         0         0         0         0         0         0         0
         0         0         0         0         0         0         0         0
         0         0         0         0         0         0         0         0
         0         0         0         0         0         0         0         0
         0         0         0         0         0         0         0         0
         0         0         0         0         0         0         0         0
         0         0         0         0         0         0         0         0
         0         0         0         0         0         0         0         0
         0         0         0         0         0         0         0         0
         0         0         0         0         0         0         0         0
         0         0         0         0         0         0         0         0
         0         0         0         0         0         0         0         0
         0         0         0         0         0         0         0         0
         0         0         0         0         0         0         0         0
         0         0         0         0         0         0         0         0
         0         0         0         0         0         0         0         0
         0         0         0         0         0         0         0         0
         0         0         0         0         0         0         0         0
         0         0         0         0         0         0         0         0
         0         0         0         0         0         0         0         0
         0         0         0         0         0         0         0         0
         0         0         0         0         0         0         0         0
         0         0         0         0         0         0         0         0
         0         0         0         0         0         0         0         0
         0         0         0         0         0         0         0         0
         0         0         0         0         0         0         0         0
         0         0         0         0         0         0         0         0
         0         0         0         0         0         0         0         0
         0         0         0         0         0         0         0         0
         0         0         0         0         0         0         0         0
         0         0         0         0         0         0         0         0
         0         0         0         0         0         0         0         0
         0         0         0         0         0         0         0         0
         0         0         0         0         0         0         0         0
         0         0         0         0         0         0         0         0
         0         0         0         0         0         0         0         0
         0         0         0         0         0         0         0         0
         0         0         0         0         0         0         0         0
         0         0         0         0         0         0         0         0
         0         0         0         0         0         0         0         0
         0         0         0         0         0         0         0         0
         0         0         0         0         0         0         0         0
         0         0         0         0         0         0         0         0
         0         0         0         0         0         0         0         0
         0         0         0         0         0         0         0         0
         0         0         0         0         0         0         0         0
         0         0         0         0         0         0         0         0
         0         0         0         0         0         0         0         0
         0         0         0         0         0         0         0         0
         0         0         0         0         0         0         0         0
         0         0         0         0         0         0         0         0
         0         0         0         0         0         0         0         0
         0         0         0         0         0         0         0         0
         0         0         0         0         0         0         0         0
         0         0         0         0         0         0         0         0
         0         0         0         0         0         0         0         0
         0         0         0         0         0         0         0         0
         0         0         0         0         0         0         0         0
         0         0         0         0         0         0         0         0
         0         0         0         0         0         0         0         0
         0         0         0         0         0         0         0         0
         0         0         0         0         0         0         0         0
         0         0         0         0         0         0         0         0
         0         0         0         0         0         0         0         0
         0         0         0         0         0         0         0         0
         0         0         0         0         0         0         0         0
         0         0         0         0         0         0         0         0
         0         0         0         0         0         0         0         0
         0         0         0         0         0         0         0         0
         0         0         0         0         0         0         0         0
         0         0         0         0         0         0         0         0
         0         0         0         0         0         0         0         0
         0         0         0         0         0         0         0         0
         0         0         0         0         0         0         0         0
         0         0         0         0         0         0         0         0
         0         0         0         0         0         0         0         0
         0         0         0         0         0         0         0         0
         0         0         0         0         0         0         0         0
         0         0         0         0         0         0         0         0
         0         0         0         0         0         0         0         0
         0         0         0         0         0         0         0         0
         0         0         0         0         0         0         0         0
         0         0         0         0         0         0         0         0
         0         0         0         0         0         0         0         0
         0         0         0         0         0         0         0         0
         0         0         0         0         0         0         0         0
         0         0         0         0         0         0         0         0
         0         0         0         0         0         0         0         0
         0         0         0         0         0         0         0         0
         0         0         0         0         0         0         0         0
         0         0         0         0         0         0         0         0
         0         0         0         0         0         0         0         0
         0         0         0         0         0         0         0         0
         0         0         0         0         0         0         0         0
         0         0         0         0         0         0         0         0
         0         0         0         0         0         0         0         0
         0         0         0         0         0         0         0         0
         0         0         0         0         0         0         0         0
         0         0         0         0         0         0         0         0
         0         0         0         0         0         0         0         0
         0         0         0         0         0         0         0         0
         0         0         0         0         0         0         0         0
         0         0         0         0         0         0         0         0
         0         0         0         0         0         0         0         0
         0         0         0         0         0         0         0         0
         0         0         0         0         0         0         0         0
         0         0         0         0         0         0         0         0
         0         0         0         0         0         0         0         0
         0         0         0         0         0         0         0         0
         0         0         0         0         0         0         0         0
         0         0         0         0         0         0         0         0
         0         0         0         0         0         0         0         0
         0         0         0         0         0         0         0         0
         0         0         0         0         0         0         0         0
         0         0         0         0         0         0         0         0
         0         0         0         0         0         0         0         0
         0         0         0         0         0         0         0         0
         0         0         0         0         0         0         0         0
         0         0         0         0         0         0         0         0
         0         0         0         0         0         0         0         0
         0         0         0         0         0         0         0         0
         0         0         0         0         0         0         0         0
         0         0         0         0         0         0         0         0
         0         0         0         0         0         0         0         0
         0         0         0         0         0         0         0         0
         0         0         0         0         0         0         0         0
         0         0         0         0         0         0         0         0
         0         0         0         0         0         0         0         0
         0         0         0         0         0         0         0         0
         0         0         0         0         0         0         0         0
         0         0         0         0         0         0         0         0
         0         0         0         0         0         0         0         0
         0         0         0         0         0         0         0         0
         0         0         0         0         0         0         0         0
         0         0         0         0         0         0         0         0
         0         0         0         0         0         0         0         0
         0         0         0         0         0         0         0         0
         0         0         0         0         0         0         0         0
         0         0         0         0         0         0         0         0
         0         0         0         0         0         0         0         0
         0         0         0         0         0         0         0         0
         0         0         0         0         0         0         0         0
         0         0         0         0         0         0         0         0
         0         0         0         0         0         0         0         0
         0         0         0         0         0         0         0         0
         0         0         0         0         0         0         0         0
         0         0         0         0         0         0         0         0
         0         0         0         0         0         0         0         0
         0         0         0         0         0         0         0         0
         0         0         0         0         0         0         0         0
         0         0         0         0         0         0         0         0
         0         0         0         0         0         0         0         0
         0         0         0         0         0         0         0         0
         0         0         0         0         0         0         0         0
         0         0         0         0         0         0         0         0
         0         0         0         0         0         0         0         0
         0         0         0         0         0         0         0         0
         0         0         0         0         0         0         0         0
         0         0         0         0         0         0         0         0
         0         0         0         0         0         0         0         0
         0         0         0         0         0         0         0         0
         0         0         0         0         0         0         0         0
         0         0         0         0         0         0         0         0
         0         0         0         0         0         0         0         0
         0         0         0         0         0         0         0         0
         0         0         0         0         0         0         0         0
         0         0         0         0         0         0         0         0
         0         0         0         0         0         0         0         0
         0         0         0         0         0         0         0         0
         0         0         0         0         0         0         0         0
         0         0         0         0         0         0         0         0
         0         0         0         0         0         0         0         0
         0         0         0         0         0         0         0         0
         0         0         0         0         0         0         0         0
         0         0         0         0         0         0         0         0
         0         0         0         0         0         0         0         0
         0         0         0         0         0         0         0         0
         0         0         0         0         0         0         0         0
         0         0         0         0         0         0         0         0
         0         0         0         0         0         0         0         0
         0         0         0         0         0         0         0         0
         0         0         0         0         0         0         0         0
         0         0         0         0         0         0         0         0
         0         0         0         0         0         0         0         0
         0         0         0         0         0         0         0         0
         0         0         0         0         0         0         0         0
         0         0         0         0         0         0         0         0
         0         0         0         0         0         0         0         0
         0         0         0         0         0         0         0         0
         0         0         0         0         0         0         0         0
         0         0         0         0         0         0         0         0
         0         0         0         0         0         0         0         0
         0         0         0         0         0         0         0         0
         0         0         0         0         0         0         0         0
         0         0         0         0         0         0         0         0
         0         0         0         0         0         0         0         0
         0         0         0         0         0         0         0         0
         0         0         0         0         0         0         0         0
         0         0         0         0         0         0         0         0
         0         0         0         0         0         0         0         0
         0         0         0         0         0         0         0         0
         0         0         0         0         0         0         0         0
         0         0         0         0         0         0         0         0
         0         0         0         0         0         0         0         0
         0         0         0         0         0         0         0         0
         0         0         0         0         0         0         0         0
         0         0         0         0         0         0         0         0
         0         0         0         0         0         0         0         0
         0         0         0         0         0         0         0         0
         0         0         0         0         0         0         0         0
         0         0         0         0         0         0         0         0
         0         0         0         0         0         0         0         0
         0         0         0         0         0         0         0         0
         0         0         0         0         0         0         0         0
         0         0         0         0         0         0         0         0
         0         0         0         0         0         0         0         0
         0         0         0         0         0         0         0         0
         0         0         0         0         0         0         0         0
         0         0         0         0         0         0         0         0
         0         0         0         0         0         0         0         0
         0         0         0         0         0         0         0         0
         0         0         0         0         0         0         0         0
         0         0         0         0         0         0         0         0
         0         0         0         0         0         0         0         0
         0         0         0         0         0         0         0         0
         0         0         0         0         0         0         0         0
         0         0         0         0         0         0         0         0
         0         0         0         0         0         0         0         0
         0         0         0         0         0         0         0         0
         0         0         0         0         0         0         0         0
         0         0         0         0         0         0         0         0
         0         0         0         0         0         0         0         0
         0         0         0         0         0         0         0         0
         0         0         0         0         0         0         0         0
         0         0         0         0         0         0         0         0
         0         0         0         0         0         0         0         0
         0         0         0         0         0         0         0         0
         0         0         0         0         0         0         0         0
         0         0         0         0         0         0         0         0
         0         0         0         0         0         0         0         0
         0         0         0         0         0         0         0         0
         0         0         0         0         0         0         0         0
         0         0         0         0         0         0         0         0
         0         0         0         0         0         0         0         0
         0         0         0         0         0         0         0         0
         0         0         0         0         0         0         0         0
         0         0         0         0         0         0         0         0
         0         0         0         0         0         0         0         0
         0         0         0         0         0         0         0         0
         0         0         0         0         0         0         0         0
         0         0         0         0         0         0         0         0
         0         0         0         0         0         0         0         0
         0         0         0         0         0         0         0         0
         0         0         0         0         0         0         0         0
         0         0         0         0         0         0         0         0
         0         0         0         0         0         0         0         0
         0         0         0         0         0         0         0         0
         0         0         0         0         0         0         0         0
         0         0         0         0         0         0         0         0
         0         0         0         0         0         0         0         0
         0         0         0         0         0         0         0         0
         0         0         0         0         0         0         0         0
         0         0         0         0         0         0         0         0
         0         0         0         0         0         0         0         0
         0         0         0         0         0         0         0         0
         0         0         0         0         0         0         0         0
         0         0         0         0         0         0         0         0
         0         0         0         0         0         0         0         0
         0         0         0         0         0         0         0         0
         0         0         0         0         0         0         0         0
         0         0         0         0         0         0         0         0
         0         0         0         0         0         0         0         0
         0         0         0         0         0         0         0         0
         0         0         0         0         0         0         0         0
         0         0         0         0         0         0         0         0
         0         0         0         0         0         0         0         0
         0         0         0         0         0         0         0         0
         0         0         0         0         0         0         0         0
         0         0         0         0         0         0         0         0
         0         0         0         0         0         0         0         0
         0         0         0         0         0         0         0         0
         0         0         0         0         0         0         0         0
         0         0         0         0         0         0         0         0
         0         0         0         0         0         0         0         0
         0         0         0         0         0         0         0         0
         0         0         0         0         0         0         0         0
         0         0         0         0         0         0         0         0
         0         0         0         0         0         0         0         0
         0         0         0         0         0         0         0         0
         0         0         0         0         0         0         0         0
         0         0         0         0         0         0         0         0
         0         0         0         0         0         0         0         0
         0         0         0         0         0         0         0         0
         0         0         0         0         0         0         0         0
         0         0         0         0         0         0         0         0
         0         0         0         0         0         0         0         0
         0         0         0         0         0         0         0         0
         0         0         0         0         0         0         0         0
         0         0         0         0         0         0         0         0
         0         0         0         0         0         0         0         0
         0         0         0         0         0         0         0         0
         0         0         0         0         0         0         0         0
         0         0         0         0         0         0         0         0
         0         0         0         0         0         0         0         0
         0         0         0         0         0         0         0         0
         0         0         0         0         0         0         0         0
         0         0         0         0         0         0         0         0
         0         0         0         0         0         0         0         0
         0         0         0         0         0         0         0         0
         0         0         0         0         0         0         0         0
         0         0         0         0         0         0         0         0
         0         0         0         0         0         0         0         0
         0         0         0         0         0         0         0         0
         0         0         0         0         0         0         0         0
         0         0         0         0         0         0         0         0
         0         0         0         0         0         0         0         0
         0         0         0         0         0         0         0         0
         0         0         0         0         0         0         0         0
         0         0         0         0         0         0         0         0
         0         0         0         0         0         0         0         0
         0         0         0         0         0         0         0         0
         0         0         0         0         0         0         0         0
         0         0         0         0         0         0         0         0
         0         0         0         0         0         0         0         0
         0         0         0         0         0         0         0         0
         0         0         0         0         0         0         0         0
         0         0         0         0         0         0         0         0
         0         0         0         0         0         0         0         0
         0         0         0         0         0         0         0         0
         0         0         0         0         0         0         0         0
         0         0         0         0         0         0         0         0
         0         0         0         0         0         0         0         0
         0         0         0         0         0         0         0         0
         0         0         0         0         0         0         0         0
         0         0         0         0         0         0         0         0
         0         0         0         0         0         0         0         0
         0         0         0         0         0         0         0         0
         0         0         0         0         0         0         0         0
         0         0         0         0         0         0         0         0
         0         0         0         0         0         0         0         0
         0         0         0         0         0         0         0         0
         0         0         0         0         0         0         0         0
         0         0         0         0         0         0         0         0
         0         0         0         0         0         0         0         0
         0         0         0         0         0         0         0         0
         0         0         0         0         0         0         0         0
         0         0         0         0         0         0         0         0
         0         0         0         0         0         0         0         0
         0         0         0         0         0         0         0         0
         0         0         0         0         0         0         0         0
         0         0         0         0         0         0         0         0
         0         0         0         0         0         0         0         0
         0         0         0         0         0         0         0         0
         0         0         0         0         0         0         0         0
         0         0         0         0         0         0         0         0
         0         0         0         0         0         0         0         0
         0         0         0         0         0         0         0         0
         0         0         0         0         0         0         0         0
         0         0         0         0         0         0         0         0
         0         0         0         0         0         0         0         0
         0         0         0         0         0         0         0         0
         0         0         0         0         0         0         0         0
         0         0         0         0         0         0         0         0
         0         0         0         0         0         0         0         0
         0         0         0         0         0         0         0         0
         0         0         0         0         0         0         0         0
         0         0         0         0         0         0         0         0
         0         0         0         0         0         0         0         0
         0         0         0         0         0         0         0         0
         0         0         0         0         0         0         0         0
         0         0         0         0         0         0         0         0
         0         0         0         0         0         0         0         0
         0         0         0         0         0         0         0         0
         0         0         0         0         0         0         0         0
         0         0         0         0         0         0         0         0
         0         0         0         0         0         0         0         0
         0         0         0         0         0         0         0         0
         0         0         0         0         0         0         0         0
         0         0         0         0         0         0         0         0
         0         0         0         0         0         0         0         0
         0         0         0         0         0         0         0         0
         0         0         0         0         0         0         0         0
         0         0         0         0         0         0         0         0
         0         0         0         0         0         0         0         0
         0         0         0         0         0         0         0         0
         0         0         0         0         0         0         0         0
         0         0         0         0         0         0         0         0
         0         0         0         0         0         0         0         0
         0         0         0         0         0         0         0         0
         0         0         0         0         0         0         0         0
         0         0         0         0         0         0         0         0
         0         0         0         0         0         0         0         0
         0         0         0         0         0         0         0         0
         0         0         0         0         0         0         0         0
         0         0         0         0         0         0         0         0
         0         0         0         0         0         0         0         0
         0         0         0         0         0         0         0         0
         0         0         0         0         0         0         0         0
         0         0         0         0         0         0         0         0
         0         0         0         0         0         0         0         0
         0         0         0         0         0         0         0         0
         0         0         0         0         0         0         0         0
         0         0         0         0         0         0         0         0
         0         0         0         0         0         0         0         0
         0         0         0         0         0         0         0         0
         0         0         0         0         0         0         0         0
         0         0         0         0         0         0         0         0
         0         0         0         0         0         0         0         0
         0         0         0         0         0         0         0         0
         0         0         0         0         0         0         0         0
         0         0         0         0         0         0         0         0
         0         0         0         0         0         0         0         0
         0         0         0         0         0         0         0         0
         0         0         0         0         0         0         0         0
         0         0         0         0         0         0         0         0
         0         0         0         0         0         0         0         0
         0         0         0         0         0         0         0         0
         0         0         0         0         0         0         0         0
         0         0         0         0         0         0         0         0
         0         0         0         0         0         0         0         0
         0         0         0         0         0         0         0         0
         0         0         0         0         0         0         0         0
         0         0         0         0         0         0         0         0
         0         0         0         0         0         0         0         0
         0         0         0         0         0         0         0         0
         0         0         0         0         0         0         0         0
         0         0         0         0         0         0         0         0
         0         0         0         0         0         0         0         0
         0         0         0         0         0         0         0         0
         0         0         0         0         0         0         0         0
         0         0         0         0         0         0         0         0
         0         0         0         0         0         0         0         0
         0         0         0         0         0         0         0         0
         0         0         0         0         0         0         0         0
         0         0         0         0         0         0         0         0
         0         0         0         0         0         0         0         0
         0         0         0         0         0         0         0         0
         0         0         0         0         0         0         0         0
         0         0         0         0         0         0         0         0
         0         0         0         0         0         0         0         0
         0         0         0         0         0         0         0         0
         0         0         0         0         0         0         0         0
         0         0         0         0         0         0         0         0
         0         0         0         0         0         0         0         0
         0         0         0         0         0         0         0         0
         0         0         0         0         0         0         0         0
         0         0         0         0         0         0         0         0
         0         0         0         0         0         0         0         0
         0         0         0         0         0         0         0         0
         0         0         0         0         0         0         0         0
         0         0         0         0         0         0         0         0
         0         0         0         0         0         0         0         0
         0         0         0         0         0         0         0         0
         0         0         0         0         0         0         0         0
         0         0         0         0         0         0         0         0
         0         0         0         0         0         0         0         0
         0         0         0         0         0         0         0         0
         0         0         0         0         0         0         0         0
         0         0         0         0         0         0         0         0
         0         0         0         0         0         0         0         0
         0         0         0         0         0         0         0         0
         0         0         0         0         0         0         0         0
         0         0         0         0         0         0         0         0
         0         0         0         0         0         0         0         0
         0         0         0         0         0         0         0         0
         0         0         0         0         0         0         0         0
         0         0         0         0         0         0         0         0
         0         0         0         0         0         0         0         0
         0         0         0         0         0         0         0         0
         0         0         0         0         0         0         0         0
         0         0         0         0         0         0         0         0
         0         0         0         0         0         0         0         0
         0         0         0         0         0         0         0         0
         0         0         0         0         0         0         0         0
         0         0         0         0         0         0         0         0
         0         0         0         0         0         0         0         0
         0         0         0         0         0         0         0         0
         0         0         0         0         0         0         0         0
         0         0         0         0         0         0         0         0
         0         0         0         0         0         0         0         0
         0         0         0         0         0         0         0         0
         0         0         0         0         0         0         0         0
         0         0         0         0         0         0         0         0
         0         0         0         0         0         0         0         0
         0         0         0         0         0         0         0         0
         0         0         0         0         0         0         0         0
         0         0         0         0         0         0         0         0
         0         0         0         0         0         0         0         0
         0         0         0         0         0         0         0         0
         0         0         0         0         0         0         0         0
         0         0         0         0         0         0         0         0
         0         0         0         0         0         0         0         0
         0         0         0         0         0         0         0         0
         0         0         0         0         0         0         0         0
         0         0         0         0         0         0         0         0
         0         0         0         0         0         0         0         0
         0         0         0         0         0         0         0         0
         0         0         0         0         0         0         0         0
         0         0         0         0         0         0         0         0
         0         0         0         0         0         0         0         0
         0         0         0         0         0         0         0         0
         0         0         0         0         0         0         0         0
         0         0         0         0         0         0         0         0
         0         0         0         0         0         0         0         0
         0         0         0         0         0         0         0         0
         0         0         0         0         0         0         0         0
         0         0         0         0         0         0         0         0
         0         0         0         0         0         0         0         0
         0         0         0         0         0         0         0         0
         0         0         0         0         0         0         0         0
         0         0         0         0         0         0         0         0
         0         0         0         0         0         0         0         0
         0         0         0         0         0         0         0         0
         0         0         0         0         0         0         0         0
         0         0         0         0         0         0         0         0
         0         0         0         0         0         0         0         0
         0         0         0         0         0         0         0         0
         0         0         0         0         0         0         0         0
         0         0         0         0         0         0         0         0
         0         0         0         0         0         0         0         0
         0         0         0         0         0         0         0         0
         0         0         0         0         0         0         0         0
         0         0         0         0         0         0         0         0
         0         0         0         0         0         0         0         0
         0         0         0         0         0         0         0         0
         0         0         0         0         0         0         0         0
         0         0         0         0         0         0         0         0
         0         0         0         0         0         0         0         0
         0         0         0         0         0         0         0         0
         0         0         0         0         0         0         0         0
         0         0         0         0         0         0         0         0
         0         0         0         0         0         0         0         0
         0         0         0         0         0         0         0         0
         0         0         0         0         0         0         0         0
         0         0         0         0         0         0         0         0
         0         0         0         0         0         0         0         0
         0         0         0         0         0         0         0         0
         0         0         0         0         0         0         0         0
         0         0         0         0         0         0         0         0
         0         0         0         0         0         0         0         0
         0         0         0         0         0         0         0         0
         0         0         0         0         0         0         0         0
         0         0         0         0         0         0         0         0
         0         0         0         0         0         0         0         0
         0         0         0         0         0         0         0         0
         0         0         0         0         0         0         0         0
         0         0         0         0         0         0         0         0
         0         0         0         0         0         0         0         0
         0         0         0         0         0         0         0         0
         0         0         0         0         0         0         0         0
         0         0         0         0         0         0         0         0
         0         0         0         0         0         0         0         0
         0         0         0         0         0         0         0         0
         0         0         0         0         0         0         0         0
         0         0         0         0         0         0         0         0
         0         0         0         0         0         0         0         0
         0         0         0         0         0         0         0         0
         0         0         0         0         0         0         0         0
         0         0         0         0         0         0         0         0
         0         0         0         0         0         0         0         0
         0         0         0         0         0         0         0         0
         0         0         0         0         0         0         0         0
         0         0         0         0         0         0         0         0
         0         0         0         0         0         0         0         0
         0         0         0         0         0         0         0         0
         0         0         0         0         0         0         0         0
         0         0         0         0         0         0         0         0
         0         0         0         0         0         0         0         0
         0         0         0         0         0         0         0         0
         0         0         0         0         0         0         0         0
         0         0         0         0         0         0         0         0
         0         0         0         0         0         0         0         0
         0         0         0         0         0         0         0         0
         0         0         0         0         0         0         0         0
         0         0         0         0         0         0         0         0
         0         0         0         0         0         0         0         0
         0         0         0         0         0         0         0         0
         0         0         0         0         0         0         0         0
         0         0         0         0         0         0         0         0
         0         0         0         0         0         0         0         0
         0         0         0         0         0         0         0         0
         0         0         0         0         0         0         0         0
         0         0         0         0         0         0         0         0
         0         0         0         0         0         0         0         0
         0         0         0         0         0         0         0         0
         0         0         0         0         0         0         0         0
         0         0         0         0         0         0         0         0
         0         0         0         0         0         0         0         0
         0         0         0         0         0         0         0         0
         0         0         0         0         0         0         0         0
         0         0         0         0         0         0         0         0
         0         0         0         0         0         0         0         0
         0         0         0         0         0         0         0         0
         0         0         0         0         0         0         0         0
         0         0         0         0         0         0         0         0
         0         0         0         0         0         0         0         0
         0         0         0         0         0         0         0         0
         0         0         0         0         0         0         0         0
         0         0         0         0         0         0         0         0
         0         0         0         0         0         0         0         0
         0         0         0         0         0         0         0         0
         0         0         0         0         0         0         0         0
         0         0         0         0         0         0         0         0
         0         0         0         0         0         0         0         0
         0         0         0         0         0         0         0         0
         0         0         0         0         0         0         0         0
         0         0         0         0         0         0         0         0
         0         0         0         0         0         0         0         0
         0         0         0         0         0         0         0         0
         0         0         0         0         0         0         0         0
         0         0         0         0         0         0         0         0
         0         0         0         0         0         0         0         0
         0         0         0         0         0         0         0         0
         0         0         0         0         0         0         0         0
         0         0         0         0         0         0         0         0
         0         0         0         0         0         0         0         0
         0         0         0         0         0         0         0         0
         0         0         0         0         0         0         0         0
         0         0         0         0         0         0         0         0
         0         0         0         0         0         0         0         0
         0         0         0         0         0         0         0         0
         0         0         0         0         0         0         0         0
         0         0         0         0         0         0         0         0
         0         0         0         0         0         0         0         0
         0         0         0         0         0         0         0         0
         0         0         0         0         0         0         0         0
         0         0         0         0         0         0         0         0
         0         0         0         0         0         0         0         0
         0         0         0         0         0         0         0         0
         0         0         0         0         0         0         0         0
         0         0         0         0         0         0         0         0
         0         0         0         0         0         0         0         0
         0         0         0         0         0         0         0         0
         0         0         0         0         0         0         0         0
         0         0         0         0         0         0         0         0
         0         0         0         0         0         0         0         0
         0         0         0         0         0         0         0         0
         0         0         0         0         0         0         0         0
         0         0         0         0         0         0         0         0
         0         0         0         0         0         0         0         0
         0         0         0         0         0         0         0         0
         0         0         0         0         0         0         0         0
         0         0         0         0         0         0         0         0
         0         0         0         0         0         0         0         0
         0         0         0         0         0         0         0         0
         0         0         0         0         0         0         0         0
         0         0         0         0         0         0         0         0
         0         0         0         0         0         0         0         0
         0         0         0         0         0         0         0         0
         0         0         0         0         0         0         0         0
         0         0         0         0         0         0         0         0
         0         0         0         0         0         0         0         0
         0         0         0         0         0         0         0         0
         0         0         0         0         0         0         0         0
         0         0         0         0         0         0         0         0
         0         0         0         0         0         0         0         0
         0         0         0         0         0         0         0         0
         0         0         0         0         0         0         0         0
         0         0         0         0         0         0         0         0
         0         0         0         0         0         0         0         0
         0         0         0         0         0         0         0         0
         0         0         0         0         0         0         0         0
         0         0         0         0         0         0         0         0
         0         0         0         0         0         0         0         0
         0         0         0         0         0         0         0         0
         0         0         0         0         0         0         0         0
         0         0         0         0         0         0         0         0
         0         0         0         0         0         0         0         0
         0         0         0         0         0         0         0         0
         0         0         0         0         0         0         0         0
         0         0         0         0         0         0         0         0
         0         0         0         0         0         0         0         0
         0         0         0         0         0         0         0         0
         0         0         0         0         0         0         0         0
         0         0         0         0         0         0         0         0
         0         0         0         0         0         0         0         0
         0         0         0         0         0         0         0         0
         0         0         0         0         0         0         0         0
         0         0         0         0         0         0         0         0
         0         0         0         0         0         0         0         0
         0         0         0         0         0         0         0         0
         0         0         0         0         0         0         0         0
         0         0         0         0         0         0         0         0
         0         0         0         0         0         0         0         0
         0         0         0         0         0         0         0         0
         0         0         0         0         0         0         0         0
         0         0         0         0         0         0         0         0
         0         0         0         0         0         0         0         0
         0         0         0         0         0         0         0         0
         0         0         0         0         0         0         0         0
         0         0         0         0         0         0         0         0
         0         0         0         0         0         0         0         0
         0         0         0         0         0         0         0         0
         0         0         0         0         0         0         0         0
         0         0         0         0         0         0         0         0
         0         0         0         0         0         0         0         0
         0         0         0         0         0         0         0         0
         0         0         0         0         0         0         0         0
         0         0         0         0         0         0         0         0
         0         0         0         0         0         0         0         0
         0         0         0         0         0         0         0         0
         0         0         0         0         0         0         0         0
         0         0         0         0         0         0         0         0
         0         0         0         0         0         0         0         0
         0         0         0         0         0         0         0         0
         0         0         0         0         0         0         0         0
         0         0         0         0         0         0         0         0
         0         0         0         0         0         0         0         0
         0         0         0         0         0         0         0         0
         0         0         0         0         0         0         0         0
         0         0         0         0         0         0         0         0
         0         0         0         0         0         0         0         0
         0         0         0         0         0         0         0         0
         0         0         0         0         0         0         0         0
         0         0         0         0         0         0         0         0
         0         0         0         0         0         0         0         0
         0         0         0         0         0         0         0         0
         0         0         0         0         0         0         0         0
         0         0         0         0         0         0         0         0
         0         0         0         0         0         0         0         0
         0         0         0         0         0         0         0         0
         0         0         0         0         0         0         0         0
         0         0         0         0         0         0         0         0
         0         0         0         0         0         0         0         0
         0         0         0         0         0         0         0         0
         0         0         0         0         0         0         0         0
         0         0         0         0         0         0         0         0
         0         0         0         0         0         0         0         0
         0         0         0         0         0         0         0         0
         0         0         0         0         0         0         0         0
         0         0         0         0         0         0         0         0
         0         0         0         0         0         0         0         0
         0         0         0         0         0         0         0         0
         0         0         0         0         0         0         0         0
         0         0         0         0         0         0         0         0
         0         0         0         0         0         0         0         0
         0         0         0         0         0         0         0         0
         0         0         0         0         0         0         0         0
         0         0         0         0         0         0         0         0
         0         0         0         0         0         0         0         0
         0         0         0         0         0         0         0         0
         0         0         0         0         0         0         0         0
         0         0         0         0         0         0         0         0
         0         0         0         0         0         0         0         0
         0         0         0         0         0         0         0         0
         0         0         0         0         0         0         0         0
         0         0         0         0         0         0         0         0
         0         0         0         0         0         0         0         0
         0         0         0         0         0         0         0         0
         0         0         0         0         0         0         0         0
         0         0         0         0         0         0         0         0
         0         0         0         0         0         0         0         0
         0         0         0         0         0         0         0         0
         0         0         0         0         0         0         0         0
         0         0         0         0         0         0         0         0
         0         0         0         0         0         0         0         0
         0         0         0         0         0         0         0         0
         0         0         0         0         0         0         0         0
         0         0         0         0         0         0         0         0
         0         0         0         0         0         0         0         0
         0         0         0         0         0         0         0         0
         0         0         0         0         0         0         0         0
         0         0         0         0         0         0         0         0
         0         0         0         0         0         0         0         0
         0         0         0         0         0         0         0         0
         0         0         0         0         0         0         0         0
         0         0         0         0         0         0         0         0
         0         0         0         0         0         0         0         0
         0         0         0         0         0         0         0         0
         0         0         0         0         0         0         0         0
         0         0         0         0         0         0         0         0
         0         0         0         0         0         0         0         0
         0         0         0         0         0         0         0         0
         0         0         0         0         0         0         0         0
         0         0         0         0         0         0         0         0
         0         0         0         0         0         0         0         0
         0         0         0         0         0         0         0         0
         0         0         0         0         0         0         0         0
         0         0         0         0         0         0         0         0
         0         0         0         0         0         0         0         0
         0         0         0         0         0         0         0         0
         0         0         0         0         0         0         0         0
         0         0         0         0         0         0         0         0
         0         0         0         0         0         0         0         0
         0         0         0         0         0         0         0         0
         0         0         0         0         0         0         0         0
         0         0         0         0         0         0         0         0
         0         0         0         0         0         0         0         0
         0         0         0         0         0         0         0         0
         0         0         0         0         0         0         0         0
         0         0         0         0         0         0         0         0
         0         0         0         0         0         0         0         0
         0         0         0         0         0         0         0         0
         0         0         0         0         0         0         0         0
         0         0         0         0         0         0         0         0
         0         0         0         0         0         0         0         0
         0         0         0         0         0         0         0         0
         0         0         0         0         0         0         0         0
         0         0         0         0         0         0         0         0
         0         0         0         0         0         0         0         0
         0         0         0         0         0         0         0         0
         0         0         0         0         0         0         0         0
         0         0         0         0         0         0         0         0
         0         0         0         0         0         0         0         0
         0         0         0         0         0         0         0         0
         0         0         0         0         0         0         0         0
         0         0         0         0         0         0         0         0
         0         0         0         0         0         0         0         0
         0         0         0         0         0         0         0         0
         0         0         0         0         0         0         0         0
         0         0         0         0         0         0         0         0
         0         0         0         0         0         0         0         0
         0         0         0         0         0         0         0         0
         0         0         0         0         0         0         0         0
         0         0         0         0         0         0         0         0
         0         0         0         0         0         0         0         0
         0         0         0         0         0         0         0         0
         0         0         0         0         0         0         0         0
         0         0         0         0         0         0         0         0
         0         0         0         0         0         0         0         0
         0         0         0         0         0         0         0         0
         0         0         0         0         0         0         0         0
         0         0         0         0         0         0         0         0
         0         0         0         0         0         0         0         0
         0         0         0         0         0         0         0         0
         0         0         0         0         0         0         0         0
         0         0         0         0         0         0         0         0
         0         0         0         0         0         0         0         0
         0         0         0         0         0         0         0         0
         0         0         0         0         0         0         0         0
         0         0         0         0         0         0         0         0
         0         0         0         0         0         0         0         0
         0         0         0         0         0         0         0         0
         0         0         0         0         0         0         0         0
         0         0         0         0         0         0         0         0
         0         0         0         0         0         0         0         0
         0         0         0         0         0         0         0         0
         0         0         0         0         0         0         0         0
         0         0         0         0         0         0         0         0
         0         0         0         0         0         0         0         0
         0         0         0         0         0         0         0         0
         0         0         0         0         0         0         0         0
         0         0         0         0         0         0         0         0
         0         0         0         0         0         0         0         0
         0         0         0         0         0         0         0         0
         0         0         0         0         0         0         0         0
         0         0         0         0         0         0         0         0
         0         0         0         0         0         0         0         0
         0         0         0         0         0         0         0         0
         0         0         0         0         0         0         0         0
         0         0         0         0         0         0         0         0
         0         0         0         0         0         0         0         0
         0         0         0         0         0         0         0         0
         0         0         0         0         0         0         0         0
         0         0         0         0         0         0         0         0
         0         0         0         0         0         0         0         0
         0         0         0         0         0         0         0         0
         0         0         0         0         0         0         0         0
         0         0         0         0         0         0         0         0
         0         0         0         0         0         0         0         0
         0         0         0         0         0         0         0         0
         0         0         0         0         0         0         0         0
         0         0         0         0         0         0         0         0
         0         0         0         0         0         0         0         0
         0         0         0         0         0         0         0         0
         0         0         0         0         0         0         0         0
         0         0         0         0         0         0         0         0
         0         0         0         0         0         0         0         0
         0         0         0         0         0         0         0         0
         0         0         0         0         0         0         0         0
         0         0         0         0         0         0         0         0
         0         0         0         0         0         0         0         0
         0         0         0         0         0         0         0         0
         0         0         0         0         0         0         0         0
         0         0         0         0         0         0         0         0
         0         0         0         0         0         0         0         0
         0         0         0         0         0         0         0         0
         0         0         0         0         0         0         0         0
         0         0         0         0         0         0         0         0
         0         0         0         0         0         0         0         0
         0         0         0         0         0         0         0         0
         0         0         0         0         0         0         0         0
         0         0         0         0         0         0         0         0
         0         0         0         0         0         0         0         0
         0         0         0         0         0         0         0         0
         0         0         0         0         0         0         0         0
         0         0         0         0         0         0         0         0
         0         0         0         0         0         0         0         0
         0         0         0         0         0         0         0         0
         0         0         0         0         0         0         0         0
         0         0         0         0         0         0         0         0
         0         0         0         0         0         0         0         0
         0         0         0         0         0         0         0         0
         0         0         0         0         0         0         0         0
         0         0         0         0         0         0         0         0
         0         0         0         0         0         0         0         0
         0         0         0         0         0         0         0         0
         0         0         0         0         0         0         0         0
         0         0         0         0         0         0         0         0
         0         0         0         0         0         0         0         0
         0         0         0         0         0         0         0         0
         0         0         0         0         0         0         0         0
         0         0         0         0         0         0         0         0
         0         0         0         0         0         0         0         0
         0         0         0         0         0         0         0         0
         0         0         0         0         0         0         0         0
         0         0         0         0         0         0         0         0
         0         0         0         0         0         0         0         0
         0         0         0         0         0         0         0         0
         0         0         0         0         0         0         0         0
         0         0         0         0         0         0         0         0
         0         0         0         0         0         0         0         0
         0         0         0         0         0         0         0         0
         0         0         0         0         0         0         0         0
         0         0         0         0         0         0         0         0
         0         0         0         0         0         0         0         0
         0         0         0         0         0         0         0         0
         0         0         0         0         0         0         0         0
         0         0         0         0         0         0         0         0
         0         0         0         0         0         0         0         0
         0         0         0         0         0         0         0         0
         0         0         0         0         0         0         0         0
         0         0         0         0         0         0         0         0
         0         0         0         0         0         0         0         0
         0         0         0         0         0         0         0         0
         0         0         0         0         0         0         0         0
         0         0         0         0         0         0         0         0
         0         0         0         0         0         0         0         0
         0         0         0         0         0         0         0         0
         0         0         0         0         0         0         0         0
         0         0         0         0         0         0         0         0
         0         0         0         0         0         0         0         0
         0         0         0         0         0         0         0         0
         0         0         0         0         0         0         0         0
         0         0         0         0         0         0         0         0
         0         0         0         0         0         0         0         0
         0         0         0         0         0         0         0         0
         0         0         0         0         0         0         0         0
         0         0         0         0         0         0         0         0
         0         0         0         0         0         0         0         0
         0         0         0         0         0         0         0         0
         0         0         0         0         0         0         0         0
         0         0         0         0         0         0         0         0
         0         0         0         0         0         0         0         0
         0         0         0         0         0         0         0         0
         0         0         0         0         0         0         0         0
         0         0         0         0         0         0         0         0
         0         0         0         0         0         0         0         0
         0         0         0         0         0         0         0         0
         0         0         0         0         0         0         0         0
         0         0         0         0         0         0         0         0
         0         0         0         0         0         0         0         0
         0         0         0         0         0         0         0         0
         0         0         0         0         0         0         0         0
         0         0         0         0         0         0         0         0
         0         0         0         0         0         0         0         0
         0         0         0         0         0         0         0         0
         0         0         0         0         0         0         0         0
         0         0         0         0         0         0         0         0
         0         0         0         0         0         0         0         0
         0         0         0         0         0         0         0         0
         0         0         0         0         0         0         0         0
         0         0         0         0         0         0         0         0
         0         0         0         0         0         0         0         0
         0         0         0         0         0         0         0         0
         0         0         0         0         0         0         0         0
         0         0         0         0         0         0         0         0
         0         0         0         0         0         0         0         0
         0         0         0         0         0         0         0         0
         0         0         0         0         0         0         0         0
         0         0         0         0         0         0         0         0
         0         0         0         0         0         0         0         0
         0         0         0         0         0         0         0         0
         0         0         0         0         0         0         0         0
         0         0         0         0         0         0         0         0
         0         0         0         0         0         0         0         0
         0         0         0         0         0         0         0         0
         0         0         0         0         0         0         0         0
         0         0         0         0         0         0         0         0
         0         0         0         0         0         0         0         0
         0         0         0         0         0         0         0         0
         0         0         0         0         0         0         0         0
         0         0         0         0         0         0         0         0
         0         0         0         0         0         0         0         0
         0         0         0         0         0         0         0         0
         0         0         0         0         0         0         0         0
         0         0         0         0         0         0         0         0
         0         0         0         0         0         0         0         0
         0         0         0         0         0         0         0         0
         0         0         0         0         0         0         0         0
         0         0         0         0         0         0         0         0
         0         0         0         0         0         0         0         0
         0         0         0         0         0         0         0         0
         0         0         0         0         0         0         0         0
         0         0         0         0         0         0         0         0
         0         0         0         0         0         0         0         0
         0         0         0         0         0         0         0         0
         0         0         0         0         0         0         0         0
         0         0         0         0         0         0         0         0
         0         0         0         0         0         0         0         0
         0         0         0         0         0         0         0         0
         0         0         0         0         0         0         0         0
         0         0         0         0         0         0         0         0
         0         0         0         0         0         0         0         0
         0         0         0         0         0         0         0         0
         0         0         0         0         0         0         0         0
         0         0         0         0         0         0         0         0
         0         0         0         0         0         0         0         0
         0         0         0         0         0         0         0         0
         0         0         0         0         0         0         0         0
         0         0         0         0         0         0         0         0
         0         0         0         0         0         0         0         0
         0         0         0         0         0         0         0         0
         0         0         0         0         0         0         0         0
         0         0         0         0         0         0         0         0
         0         0         0         0         0         0         0         0
         0         0         0         0         0         0         0         0
         0         0         0         0         0         0         0         0
         0         0         0         0         0         0         0         0
         0         0         0         0         0         0         0         0
         0         0         0         0         0         0         0         0
         0         0         0         0         0         0         0         0
         0         0         0         0         0         0         0         0
         0         0         0         0         0         0         0         0
         0         0         0         0         0         0         0         0
         0         0         0         0         0         0         0         0
         0         0         0         0         0         0         0         0
         0         0         0         0         0         0         0         0
         0         0         0         0         0         0         0         0
         0         0         0         0         0         0         0         0
         0         0         0         0         0         0         0         0
         0         0         0         0         0         0         0         0
         0         0         0         0         0         0         0         0
         0         0         0         0         0         0         0         0
         0         0         0         0         0         0         0         0
         0         0         0         0         0         0         0         0
         0         0         0         0         0         0         0         0
         0         0         0         0         0         0         0         0
         0         0         0         0         0         0         0         0
         0         0         0         0         0         0         0         0
         0         0         0         0         0         0         0         0
         0         0         0         0         0         0         0         0
         0         0         0         0         0         0         0         0
         0         0         0         0         0         0         0         0
         0         0         0         0         0         0         0         0
         0         0         0         0         0         0         0         0
         0         0         0         0         0         0         0         0
         0         0         0         0         0         0         0         0
         0         0         0         0         0         0         0         0
         0         0         0         0         0         0         0         0
         0         0         0         0         0         0         0         0
         0         0         0         0         0         0         0         0
         0         0         0         0         0         0         0         0
         0         0         0         0         0         0         0         0
         0         0         0         0         0         0         0         0
         0         0         0         0         0         0         0         0
         0         0         0         0         0         0         0         0
         0         0         0         0         0         0         0         0
         0         0         0         0         0         0         0         0
         0         0         0         0         0         0         0         0
         0         0         0         0         0         0         0         0
         0         0         0         0         0         0         0         0
         0         0         0         0         0         0         0         0
         0         0         0         0         0         0         0         0
         0         0         0         0         0         0         0         0
         0         0         0         0         0         0         0         0
         0         0         0         0         0         0         0         0
         0         0         0         0         0         0         0         0
         0         0         0         0         0         0         0         0
         0         0         0         0         0         0         0         0
         0         0         0         0         0         0         0         0
         0         0         0         0         0         0         0         0
         0         0         0         0         0         0         0         0
         0         0         0         0         0         0         0         0
         0         0         0         0         0         0         0         0
         0         0         0         0         0         0         0         0
         0         0         0         0         0         0         0         0
         0         0         0         0         0         0         0         0
         0         0         0         0         0         0         0         0
         0         0         0         0         0         0         0         0
         0         0         0         0         0         0         0         0
         0         0         0         0         0         0         0         0
         0         0         0         0         0         0         0         0
         0         0         0         0         0         0         0         0
         0         0         0         0         0         0         0         0
         0         0         0         0         0         0         0         0
         0         0         0         0         0         0         0         0
         0         0         0         0         0         0         0         0
         0         0         0         0         0         0         0         0
         0         0         0         0         0         0         0         0
         0         0         0         0         0         0         0         0
         0         0         0         0         0         0         0         0
         0         0         0         0         0         0         0         0
         0         0         0         0         0         0         0         0
         0         0         0         0         0         0         0         0
         0         0         0         0         0         0         0         0
         0         0         0         0         0         0         0         0
         0         0         0         0         0         0         0         0
         0         0         0         0         0         0         0         0
         0         0         0         0         0         0         0         0
         0         0         0         0         0         0         0         0
         0         0         0         0         0         0         0         0
         0         0         0         0         0         0         0         0
         0         0         0         0         0         0         0         0
         0         0         0         0         0         0         0         0
         0         0         0         0         0         0         0         0
         0         0         0         0         0         0         0         0
         0         0         0         0         0         0         0         0
         0         0         0         0         0         0         0         0
         0         0         0         0         0         0         0         0
         0         0         0         0         0         0         0         0
         0         0         0         0         0         0         0         0
         0         0         0         0         0         0         0         0
         0         0         0         0         0         0         0         0
         0         0         0         0         0         0         0         0
         0         0         0         0         0         0         0         0
         0         0         0         0         0         0         0         0
         0         0         0         0         0         0         0         0
         0         0         0         0         0         0         0         0
         0         0         0         0         0         0         0         0
         0         0         0         0         0         0         0         0
         0         0         0         0         0         0         0         0
         0         0         0         0         0         0         0         0
         0         0         0         0         0         0         0         0
         0         0         0         0         0         0         0         0
         0         0         0         0         0         0         0         0
         0         0         0         0         0         0         0         0
         0         0         0         0         0         0         0         0
         0         0         0         0         0         0         0         0
         0         0         0         0         0         0         0         0
         0         0         0         0         0         0         0         0
         0         0         0         0         0         0         0         0
         0         0         0         0         0         0         0         0
         0         0         0         0         0         0         0         0
         0         0         0         0         0         0         0         0
         0         0         0         0         0         0         0         0
         0         0         0         0         0         0         0         0
         0         0         0         0         0         0         0         0
         0         0         0         0         0         0         0         0
         0         0         0         0         0         0         0         0
         0         0         0         0         0         0         0         0
         0         0         0         0         0         0         0         0
         0         0         0         0         0         0         0         0
         0         0         0         0         0         0         0         0
         0         0         0         0         0         0         0         0
         0         0         0         0         0         0         0         0
         0         0         0         0         0         0         0         0
         0         0         0         0         0         0         0         0
         0         0         0         0         0         0         0         0
         0         0         0         0         0         0         0         0
         0         0         0         0         0         0         0         0
         0         0         0         0         0         0         0         0
         0         0         0         0         0         0         0         0
         0         0         0         0         0         0         0         0
         0         0         0         0         0         0         0         0
         0         0         0         0         0         0         0         0
         0         0         0         0         0         0         0         0
         0         0         0         0         0         0         0         0
         0         0         0         0         0         0         0         0
         0         0         0         0         0         0         0         0
         0         0         0         0         0         0         0         0
         0         0         0         0         0         0         0         0
         0         0         0         0         0         0         0         0
         0         0         0         0         0         0         0         0
         0         0         0         0         0         0         0         0
         0         0         0         0         0         0         0         0
         0         0         0         0         0         0         0         0
         0         0         0         0         0         0         0         0
         0         0         0         0         0         0         0         0
         0         0         0         0         0         0         0         0
         0         0         0         0         0         0         0         0
         0         0         0         0         0         0         0         0
         0         0         0         0         0         0         0         0
         0         0         0         0         0         0         0         0
         0         0         0         0         0         0         0         0
         0         0         0         0         0         0         0         0
         0         0         0         0         0         0         0         0
         0         0         0         0         0         0         0         0
         0         0         0         0         0         0         0         0
         0         0         0         0         0         0         0         0
         0         0         0         0         0         0         0         0
         0         0         0         0         0         0         0         0
         0         0         0         0         0         0         0         0
         0         0         0         0         0         0         0         0
         0         0         0         0         0         0         0         0
         0         0         0         0         0         0         0         0
         0         0         0         0         0         0         0         0
         0         0         0         0         0         0         0         0
         0         0         0         0         0         0         0         0
         0         0         0         0         0         0         0         0
         0         0         0         0         0         0         0         0
         0         0         0         0         0         0         0         0
         0         0         0         0         0         0         0         0
         0         0         0         0         0         0         0         0
         0         0         0         0         0         0         0         0
         0         0         0         0         0         0         0         0
         0         0         0         0         0         0         0         0
         0         0         0         0         0         0         0         0
         0         0         0         0         0         0         0         0
         0         0         0         0         0         0         0         0
         0         0         0         0         0         0         0         0
         0         0         0         0         0         0         0         0
         0         0         0         0         0         0         0         0
         0         0         0         0         0         0         0         0
         0         0         0         0         0         0         0         0
         0         0         0         0         0         0         0         0
         0         0         0         0         0         0         0         0
         0         0         0         0         0         0         0         0
         0         0         0         0         0         0         0         0
         0         0         0         0         0         0         0         0
         0         0         0         0         0         0         0         0
         0         0         0         0         0         0         0         0
         0         0         0         0         0         0         0         0
         0         0         0         0         0         0         0         0
         0         0         0         0         0         0         0         0
         0         0         0         0         0         0         0         0
         0         0         0         0         0         0         0         0
         0         0         0         0         0         0         0         0
         0         0         0         0         0         0         0         0
         0         0         0         0         0         0         0         0
         0         0         0         0         0         0         0         0
         0         0         0         0         0         0         0         0
         0         0         0         0         0         0         0         0
         0         0         0         0         0         0         0         0
         0         0         0         0         0         0         0         0
         0         0         0         0         0         0         0         0
         0         0         0         0         0         0         0         0
         0         0         0         0         0         0         0         0
         0         0         0         0         0         0         0         0
         0         0         0         0         0         0         0         0
         0         0         0         0         0         0         0         0
         0         0         0         0         0         0         0         0
         0         0         0         0         0         0         0         0
         0         0         0         0         0         0         0         0
         0         0         0         0         0         0         0         0
         0         0         0         0         0         0         0         0
         0         0         0         0         0         0         0         0
         0         0         0         0         0         0         0         0
         0         0         0         0         0         0         0         0
         0         0         0         0         0         0         0         0
         0         0         0         0         0         0         0         0
         0         0         0         0         0         0         0         0
         0         0         0         0         0         0         0         0
         0         0         0         0         0         0         0         0
         0         0         0         0         0         0         0         0
         0         0         0         0         0         0         0         0
         0         0         0         0         0         0         0         0
         0         0         0         0         0         0         0         0
         0         0         0         0         0         0         0         0
         0         0         0         0         0         0         0         0
         0         0         0         0         0         0         0         0
         0         0         0         0         0         0         0         0
         0         0         0         0         0         0         0         0
         0         0         0         0         0         0         0         0
         0         0         0         0         0         0         0         0
         0         0         0         0         0         0         0         0
         0         0         0         0         0         0         0         0
         0         0         0         0         0         0         0         0
         0         0         0         0         0         0         0         0
         0         0         0         0         0         0         0         0
         0         0         0         0         0         0         0         0
         0         0         0         0         0         0         0         0
         0         0         0         0         0         0         0         0
         0         0         0         0         0         0         0         0
         0         0         0         0         0         0         0         0
         0         0         0         0         0         0         0         0
         0         0         0         0         0         0         0         0
         0         0         0         0         0         0         0         0
         0         0         0         0         0         0         0         0
         0         0         0         0         0         0         0         0
         0         0         0         0         0         0         0         0
         0         0         0         0         0         0         0         0
         0         0         0         0         0         0         0         0
         0         0         0         0         0         0         0         0
         0         0         0         0         0         0         0         0
         0         0         0         0         0         0         0         0
         0         0         0         0         0         0         0         0
         0         0         0         0         0         0         0         0
         0         0         0         0         0         0         0         0
         0         0         0         0         0         0         0         0
         0         0         0         0         0         0         0         0
         0         0         0         0         0         0         0         0
         0         0         0         0         0         0         0         0
         0         0         0         0         0         0         0         0
         0         0         0         0         0         0         0         0
         0         0         0         0         0         0         0         0
         0         0         0         0         0         0         0         0
         0         0         0         0         0         0         0         0
         0         0         0         0         0         0         0         0
         0         0         0         0         0         0         0         0
         0         0         0         0         0         0         0         0
         0         0         0         0         0         0         0         0
         0         0         0         0         0         0         0         0
         0         0         0         0         0         0         0         0
         0         0         0         0         0         0         0         0
         0         0         0         0         0         0         0         0
         0         0         0         0         0         0         0         0
         0         0         0         0         0         0         0         0
         0         0         0         0         0         0         0         0
         0         0         0         0         0         0         0         0
         0         0         0         0         0         0         0         0
         0         0         0         0         0         0         0         0
         0         0         0         0         0         0         0         0
         0         0         0         0         0         0         0         0
         0         0         0         0         0         0         0         0
         0         0         0         0         0         0         0         0
         0         0         0         0         0         0         0         0
         0         0         0         0         0         0         0         0
         0         0         0         0         0         0         0         0
         0         0         0         0         0         0         0         0
         0         0         0         0         0         0         0         0
         0         0         0         0         0         0         0         0
         0         0         0         0         0         0         0         0
         0         0         0         0         0         0         0         0
         0         0         0         0         0         0         0         0
         0         0         0         0         0         0         0         0
         0         0         0         0         0         0         0         0
         0         0         0         0         0         0         0         0
         0         0         0         0         0         0         0         0
         0         0         0         0         0         0         0         0
         0         0         0         0         0         0         0         0
         0         0         0         0         0         0         0         0
         0         0         0         0         0         0         0         0
         0         0         0         0         0         0         0         0
         0         0         0         0         0         0         0         0
         0         0         0         0         0         0         0         0
         0         0         0         0         0         0         0         0
         0         0         0         0         0         0         0         0
         0         0         0         0         0         0         0         0
         0         0         0         0         0         0         0         0
         0         0         0         0         0         0         0         0
         0         0         0         0         0         0         0         0
         0         0         0         0         0         0         0         0
         0         0         0         0         0         0         0         0
         0         0         0         0         0         0         0         0
         0         0         0         0         0         0         0         0
         0         0         0         0         0         0         0         0
         0         0         0         0         0         0         0         0
         0         0         0         0         0         0         0         0
         0         0         0         0         0         0         0         0
         0         0         0         0         0         0         0         0
         0         0         0         0         0         0         0         0
         0         0         0         0         0         0         0         0
         0         0         0         0         0         0         0         0
         0         0         0         0         0         0         0         0
         0         0         0         0         0         0         0         0
         0         0         0         0         0         0         0         0
         0         0         0         0         0         0         0         0
         0         0         0         0         0         0         0         0
         0         0         0         0         0         0         0         0
         0         0         0         0         0         0         0         0
         0         0         0         0         0         0         0         0
         0         0         0         0         0         0         0         0
         0         0         0         0         0         0         0         0
         0         0         0         0         0         0         0         0
         0         0         0         0         0         0         0         0
         0         0         0         0         0         0         0         0
         0         0         0         0         0         0         0         0
         0         0         0         0         0         0         0         0
         0         0         0         0         0         0         0         0
         0         0         0         0         0         0         0         0
         0         0         0         0         0         0         0         0
         0         0         0         0         0         0         0         0
         0         0         0         0         0         0         0         0
         0         0         0         0         0         0         0         0
         0         0         0         0         0         0         0         0
         0         0         0         0         0         0         0         0
         0         0         0         0         0         0         0         0
         0         0         0         0         0         0         0         0
         0         0         0         0         0         0         0         0
         0         0         0         0         0         0         0         0
         0         0         0         0         0         0         0         0
         0         0         0         0         0         0         0         0
         0         0         0         0         0         0         0         0
         0         0         0         0         0         0         0         0
         0         0         0         0         0         0         0         0
         0         0         0         0         0         0         0         0
         0         0         0         0         0         0         0         0
         0         0         0         0         0         0         0         0
         0         0         0         0         0         0         0         0
         0         0         0         0         0         0         0         0
         0         0         0         0         0         0         0         0
         0         0         0         0         0         0         0         0
         0         0         0         0         0         0         0         0
         0         0         0         0         0         0         0         0
         0         0         0         0         0         0         0         0
         0         0         0         0         0         0         0         0
         0         0         0         0         0         0         0         0
         0         0         0         0         0         0         0         0
         0         0         0         0         0         0         0         0
         0         0         0         0         0         0         0         0
         0         0         0         0         0         0         0         0
         0         0         0         0         0         0         0         0
         0         0         0         0         0         0         0         0
         0         0         0         0         0         0         0         0
         0         0         0         0         0         0         0         0
         0         0         0         0         0         0         0         0
         0         0         0         0         0         0         0         0
         0         0         0         0         0         0         0         0
         0         0         0         0         0         0         0         0
         0         0         0         0         0         0         0         0
         0         0         0         0         0         0         0         0
         0         0         0         0         0         0         0         0
         0         0         0         0         0         0         0         0
         0         0         0         0         0         0         0         0
         0         0         0         0         0         0         0         0
         0         0         0         0         0         0         0         0
         0         0         0         0         0         0         0         0
         0         0         0         0         0         0         0         0
         0         0         0         0         0         0         0         0
         0         0         0         0         0         0         0         0
         0         0         0         0         0         0         0         0
         0         0         0         0         0         0         0         0
         0         0         0         0         0         0         0         0
         0         0         0         0         0         0         0         0
         0         0         0         0         0         0         0         0
         0         0         0         0         0         0         0         0
         0         0         0         0         0         0         0         0
         0         0         0         0         0         0         0         0
         0         0         0         0         0         0         0         0
         0         0         0         0         0         0         0         0
         0         0         0         0         0         0         0         0
         0         0         0         0         0         0         0         0
         0         0         0         0         0         0         0         0
         0         0         0         0         0         0         0         0
         0         0         0         0         0         0         0         0
         0         0         0         0         0         0         0         0
         0         0         0         0         0         0         0         0
         0         0         0         0         0         0         0         0
         0         0         0         0         0         0         0         0
         0         0         0         0         0         0         0         0
         0         0         0         0         0         0         0         0
         0         0         0         0         0         0         0         0
         0         0         0         0         0         0         0         0
         0         0         0         0         0         0         0         0
         0         0         0         0         0         0         0         0
         0         0         0         0         0         0         0         0
         0         0         0         0         0         0         0         0
         0         0         0         0         0         0         0         0
         0         0         0         0         0         0         0         0
         0         0         0         0         0         0         0         0
         0         0         0         0         0         0         0         0
         0         0         0         0         0         0         0         0
         0         0         0         0         0         0         0         0
         0         0         0         0         0         0         0         0
         0         0         0         0         0         0         0         0
         0         0         0         0         0         0         0         0
         0         0         0         0         0         0         0         0
         0         0         0         0         0         0         0         0
         0         0         0         0         0         0         0         0
         0         0         0         0         0         0         0         0
         0         0         0         0         0         0         0         0
         0         0         0         0         0         0         0         0
         0         0         0         0         0         0         0         0
         0         0         0         0         0         0         0         0
         0         0         0         0         0         0         0         0
         0         0         0         0         0         0         0         0
         0         0         0         0         0         0         0         0
         0         0         0         0         0         0         0         0
         0         0         0         0         0         0         0         0
         0         0         0         0         0         0         0         0
         0         0         0         0         0         0         0         0
         0         0         0         0         0         0         0         0
         0         0         0         0         0         0         0         0
         0         0         0         0         0         0         0         0
         0         0         0         0         0         0         0         0
         0         0         0         0         0         0         0         0
         0         0         0         0         0         0         0         0
         0         0         0         0         0         0         0         0
         0         0         0         0         0         0         0         0
         0         0         0         0         0         0         0         0
         0         0         0         0         0         0         0         0
         0         0         0         0         0         0         0         0
         0         0         0         0         0         0         0         0
         0         0         0         0         0         0         0         0
         0         0         0         0         0         0         0         0
         0         0         0         0         0         0         0         0
         0         0         0         0         0         0         0         0
         0         0         0         0         0         0         0         0
         0         0         0         0         0         0         0         0
         0         0         0         0         0         0         0         0
         0         0         0         0         0         0         0         0
         0         0         0         0         0         0         0         0
         0         0         0         0         0         0         0         0
         0         0         0         0         0         0         0         0
         0         0         0         0         0         0         0         0
         0         0         0         0         0         0         0         0
         0         0         0         0         0         0         0         0
         0         0         0         0         0         0         0         0
         0         0         0         0         0         0         0         0
         0         0         0         0         0         0         0         0
         0         0         0         0         0         0         0         0
         0         0         0         0         0         0         0         0
         0         0         0         0         0         0         0         0
         0         0         0         0         0         0         0         0
         0         0         0         0         0         0         0         0
         0         0         0         0         0         0         0         0
         0         0         0         0         0         0         0         0
         0         0         0         0         0         0         0         0
         0         0         0         0         0         0         0         0
         0         0         0         0         0         0         0         0
         0         0         0         0         0         0         0         0
         0         0         0         0         0         0         0         0
         0         0         0         0         0         0         0         0
         0         0         0         0         0         0         0         0
         0         0         0         0         0         0         0         0
         0         0         0         0         0         0         0         0
         0         0         0         0         0         0         0         0
         0         0         0         0         0         0         0         0
         0         0         0         0         0         0         0         0
         0         0         0         0         0         0         0         0
         0         0         0         0         0         0         0         0
         0         0         0         0         0         0         0         0
         0         0         0         0         0         0         0         0
         0         0         0         0         0         0         0         0
         0         0         0         0         0         0         0         0
         0         0         0         0         0         0         0         0
         0         0         0         0         0         0         0         0
         0         0         0         0         0         0         0         0
         0         0         0         0         0         0         0         0
         0         0         0         0         0         0         0         0
         0         0         0         0         0         0         0         0
         0         0         0         0         0         0         0         0
         0         0         0         0         0         0         0         0
         0         0         0         0         0         0         0         0
         0         0         0         0         0         0         0         0
         0         0         0         0         0         0         0         0
         0         0         0         0         0         0         0         0
         0         0         0         0         0         0         0         0
         0         0         0         0         0         0         0         0
         0         0         0         0         0         0         0         0
         0         0         0         0         0         0         0         0
         0         0         0         0         0         0         0         0
         0         0         0         0         0         0         0         0
         0         0         0         0         0         0         0         0
         0         0         0         0         0         0         0         0
         0         0         0         0         0         0         0         0
         0         0         0         0         0         0         0         0
         0         0         0         0         0         0         0         0
         0         0         0         0         0         0         0         0
         0         0         0         0         0         0         0         0
         0         0         0         0         0         0         0         0
         0         0         0         0         0         0         0         0
         0         0         0         0         0         0         0         0
         0         0         0         0         0         0         0         0
         0         0         0         0         0         0         0         0
         0         0         0         0         0         0         0         0
         0         0         0         0         0         0         0         0
         0         0         0         0         0         0         0         0
         0         0         0         0         0         0         0         0
         0         0         0         0         0         0         0         0
         0         0         0         0         0         0         0         0
         0         0         0         0         0         0         0         0
         0         0         0         0         0         0         0         0
         0         0         0         0         0         0         0         0
         0         0         0         0         0         0         0         0
         0         0         0         0         0         0         0         0
         0         0         0         0         0         0         0         0
         0         0         0         0         0         0         0         0
         0         0         0         0         0         0         0         0
         0         0         0         0         0         0         0         0
         0         0         0         0         0         0         0         0
         0         0         0         0         0         0         0         0
         0         0         0         0         0         0         0         0
         0         0         0         0         0         0         0         0
         0         0         0         0         0         0         0         0
         0         0         0         0         0         0         0         0
         0         0         0         0         0         0         0         0
         0         0         0         0         0         0         0         0
         0         0         0         0         0         0         0         0
         0         0         0         0         0         0         0         0
         0         0         0         0         0         0         0         0
         0         0         0         0         0         0         0         0
         0         0         0         0         0         0         0         0
         0         0         0         0         0         0         0         0
         0         0         0         0         0         0         0         0
         0         0         0         0         0         0         0         0
         0         0         0         0         0         0         0         0
         0         0         0         0         0         0         0         0
         0         0         0         0         0         0         0         0
         0         0         0         0         0         0         0         0
         0         0         0         0         0         0         0         0
         0         0         0         0         0         0         0         0
         0         0         0         0         0         0         0         0
         0         0         0         0         0         0         0         0
         0         0         0         0         0         0         0         0
         0         0         0         0         0         0         0         0
         0         0         0         0         0         0         0         0
         0         0         0         0         0         0         0         0
         0         0         0         0         0         0         0         0
         0         0         0         0         0         0         0         0
         0         0         0         0         0         0         0         0
         0         0         0         0         0         0         0         0
         0         0         0         0         0         0         0         0
         0         0         0         0         0         0         0         0
         0         0         0         0         0         0         0         0
         0         0         0         0         0         0         0         0
         0         0         0         0         0         0         0         0
         0         0         0         0         0         0         0         0
         0         0         0         0         0         0         0         0
         0         0         0         0         0         0         0         0
         0         0         0         0         0         0         0         0
         0         0         0         0         0         0         0         0
         0         0         0         0         0         0         0         0
         0         0         0         0         0         0         0         0
         0         0         0         0         0         0         0         0
         0         0         0         0         0         0         0         0
         0         0         0         0         0         0         0         0
         0         0         0         0         0         0         0         0
         0         0         0         0         0         0         0         0
         0         0         0         0         0         0         0         0
         0         0         0         0         0         0         0         0
         0         0         0         0         0         0         0         0
         0         0         0         0         0         0         0         0
         0         0         0         0         0         0         0         0
         0         0         0         0         0         0         0         0
         0         0         0         0         0         0         0         0
         0         0         0         0         0         0         0         0
         0         0         0         0         0         0         0         0
         0         0         0         0         0         0         0         0
         0         0         0         0         0         0         0         0
         0         0         0         0         0         0         0         0
         0         0         0         0         0         0         0         0
         0         0         0         0         0         0         0         0
         0         0         0         0         0         0         0         0
         0         0         0         0         0         0         0         0
         0         0         0         0         0         0         0         0
         0         0         0         0         0         0         0         0
         0         0         0         0         0         0         0         0
         0         0         0         0         0         0         0         0
         0         0         0         0         0         0         0         0
         0         0         0         0         0         0         0         0
         0         0         0         0         0         0         0         0
         0         0         0         0         0         0         0         0
         0         0         0         0         0         0         0         0
         0         0         0         0         0         0         0         0
         0         0         0         0         0         0         0         0
         0         0         0         0         0         0         0         0
         0         0         0         0         0         0         0         0
         0         0         0         0         0         0         0         0
         0         0         0         0         0         0         0         0
         0         0         0         0         0         0         0         0
         0         0         0         0         0         0         0         0
         0         0         0         0         0         0         0         0
         0         0         0         0         0         0         0         0
         0         0         0         0         0         0         0         0
         0         0         0         0         0         0         0         0
         0         0         0         0         0         0         0         0
         0         0         0         0         0         0         0         0
         0         0         0         0         0         0         0         0
         0         0         0         0         0         0         0         0
         0         0         0         0         0         0         0         0
         0         0         0         0         0         0         0         0
         0         0         0         0         0         0         0         0
         0         0         0         0         0         0         0         0
         0         0         0         0         0         0         0         0
         0         0         0         0         0         0         0         0
         0         0         0         0         0         0         0         0
         0         0         0         0         0         0         0         0
         0         0         0         0         0         0         0         0
         0         0         0         0         0         0         0         0
         0         0         0         0         0         0         0         0
         0         0         0         0         0         0         0         0
         0         0         0         0         0         0         0         0
         0         0         0         0         0         0         0         0
         0         0         0         0         0         0         0         0
         0         0         0         0         0         0         0         0
         0         0         0         0         0         0         0         0
         0         0         0         0         0         0         0         0
         0         0         0         0         0         0         0         0
         0         0         0         0         0         0         0         0
         0         0         0         0         0         0         0         0
         0         0         0         0         0         0         0         0
         0         0         0         0         0         0         0         0
         0         0         0         0         0         0         0         0
         0         0         0         0         0         0         0         0
         0         0         0         0         0         0         0         0
         0         0         0         0         0         0         0         0
         0         0         0         0         0         0         0         0
         0         0         0         0         0         0         0         0
         0         0         0         0         0         0         0         0
         0         0         0         0         0         0         0         0
         0         0         0         0         0         0         0         0
         0         0         0         0         0         0         0         0
         0         0         0         0         0         0         0         0
         0         0         0         0         0         0         0         0
         0         0         0         0         0         0         0         0
         0         0         0         0         0         0         0         0
         0         0         0         0         0         0         0         0
         0         0         0         0         0         0         0         0
         0         0         0         0         0         0         0         0
         0         0         0         0         0         0         0         0
         0         0         0         0         0         0         0         0
         0         0         0         0         0         0         0         0
         0         0         0         0         0         0         0         0
         0         0         0         0         0         0         0         0
         0         0         0         0         0         0         0         0
         0         0         0         0         0         0         0         0
         0         0         0         0         0         0         0         0
         0         0         0         0         0         0         0         0
         0         0         0         0         0         0         0         0
         0         0         0         0         0         0         0         0
         0         0         0         0         0         0         0         0
         0         0         0         0         0         0         0         0
         0         0         0         0         0         0         0         0
         0         0         0         0         0         0         0         0
         0         0         0         0         0         0         0         0
         0         0         0         0         0         0         0         0
         0         0         0         0         0         0         0         0
         0         0         0         0         0         0         0         0
         0         0         0         0         0         0         0         0
         0         0         0         0         0         0         0         0
         0         0         0         0         0         0         0         0
         0         0         0         0         0         0         0         0
         0         0         0         0         0         0         0         0
         0         0         0         0         0         0         0         0
         0         0         0         0         0         0         0         0
         0         0         0         0         0         0         0         0
         0         0         0         0         0         0         0         0
         0         0         0         0         0         0         0         0
         0         0         0         0         0         0         0         0
         0         0         0         0         0         0         0         0
         0         0         0         0         0         0         0         0
         0         0         0         0         0         0         0         0
         0         0         0         0         0         0         0         0
         0         0         0         0         0         0         0         0
         0         0         0         0         0         0         0         0
         0         0         0         0         0         0         0         0
         0         0         0         0         0         0         0         0
         0         0         0         0         0         0         0         0
         0         0         0         0         0         0         0         0
         0         0         0         0         0         0         0         0
         0         0         0         0         0         0         0         0
         0         0         0         0         0         0         0         0
         0         0         0         0         0         0         0         0
         0         0         0         0         0         0         0         0
         0         0         0         0         0         0         0         0
         0         0         0         0         0         0         0         0
         0         0         0         0         0         0         0         0
         0         0         0         0         0         0         0         0
         0         0         0         0         0         0         0         0
         0         0         0         0         0         0         0         0
         0         0         0         0         0         0         0         0
         0         0         0         0         0         0         0         0
         0         0         0         0         0         0         0         0
         0         0         0         0         0         0         0         0
         0         0         0         0         0         0         0         0
         0         0         0         0         0         0         0         0
         0         0         0         0         0         0         0         0
         0         0         0         0         0         0         0         0
         0         0         0         0         0         0         0         0
         0         0         0         0         0         0         0         0
         0         0         0         0         0         0         0         0
         0         0         0         0         0         0         0         0
         0         0         0         0         0         0         0         0
         0         0         0         0         0         0         0         0
         0         0         0         0         0         0         0         0
         0         0         0         0         0         0         0         0
         0         0         0         0         0         0         0         0
         0         0         0         0         0         0         0         0
         0         0         0         0         0         0         0         0
         0         0         0         0         0         0         0         0
         0         0         0         0         0         0         0         0
         0         0         0         0         0         0         0         0
         0         0         0         0         0         0         0         0
         0         0         0         0         0         0         0         0
         0         0         0         0         0         0         0         0
         0         0         0         0         0         0         0         0
         0         0         0         0         0         0         0         0
         0         0         0         0         0         0         0         0
         0         0         0         0         0         0         0         0
         0         0         0         0         0         0         0         0
         0         0         0         0         0         0         0         0
         0         0         0         0         0         0         0         0
         0         0         0         0         0         0         0         0
         0         0         0         0         0         0         0         0
         0         0         0         0         0         0         0         0
         0         0         0         0         0         0         0         0
         0         0         0         0         0         0         0         0
         0         0         0         0         0         0         0         0
         0         0         0         0         0         0         0         0
         0         0         0         0         0         0         0         0
         0         0         0         0         0         0         0         0
         0         0         0         0         0         0         0         0
         0         0         0         0         0         0         0         0
         0         0         0         0         0         0         0         0
         0         0         0         0         0         0         0         0
         0         0         0         0         0         0         0         0
         0         0         0         0         0         0         0         0
         0         0         0         0         0         0         0         0
         0         0         0         0         0         0         0         0
         0         0         0         0         0         0         0         0
         0         0         0         0         0         0         0         0
         0         0         0         0         0         0         0         0
         0         0         0         0         0         0         0         0
         0         0         0         0         0         0         0         0
         0         0         0         0         0         0         0         0
         0         0         0         0         0         0         0         0
         0         0         0         0         0         0         0         0
         0         0         0         0         0         0         0         0
         0         0         0         0         0         0         0         0
         0         0         0         0         0         0         0         0
         0         0         0         0         0         0         0         0
         0         0         0         0         0         0         0         0
         0         0         0         0         0         0         0         0
         0         0         0         0         0         0         0         0
         0         0         0         0         0         0         0         0
         0         0         0         0         0         0         0         0
         0         0         0         0         0         0         0         0
         0         0         0         0         0         0         0         0
         0         0         0         0         0         0         0         0
         0         0         0         0         0         0         0         0
         0         0         0         0         0         0         0         0
         0         0         0         0         0         0         0         0
         0         0         0         0         0         0         0         0
         0         0         0         0         0         0         0         0
         0         0         0         0         0         0         0         0
         0         0         0         0         0         0         0         0
         0         0         0         0         0         0         0         0
         0         0         0         0         0         0         0         0
         0         0         0         0         0         0         0         0
         0         0         0         0         0         0         0         0
         0         0         0         0         0         0         0         0
         0         0         0         0         0         0         0         0
         0         0         0         0         0         0         0         0
         0         0         0         0         0         0         0         0
         0         0         0         0         0         0         0         0
         0         0         0         0         0         0         0         0
         0         0         0         0         0         0         0         0
         0         0         0         0         0         0         0         0
         0         0         0         0         0         0         0         0
         0         0         0         0         0         0         0         0
         0         0         0         0         0         0         0         0
         0         0         0         0         0         0         0         0
         0         0         0         0         0         0         0         0
         0         0         0         0         0         0         0         0
         0         0         0         0         0         0         0         0
         0         0         0         0         0         0         0         0
         0         0         0         0         0         0         0         0
         0         0         0         0         0         0         0         0
         0         0         0         0         0         0         0         0
         0         0         0         0         0         0         0         0
         0         0         0         0         0         0         0         0
         0         0         0         0         0         0         0         0
         0         0         0         0         0         0         0         0
         0         0         0         0         0         0         0         0
         0         0         0         0         0         0         0         0
         0         0         0         0         0         0         0         0
         0         0         0         0         0         0         0         0
         0         0         0         0         0         0         0         0
         0         0         0         0         0         0         0         0
         0         0         0         0         0         0         0         0
         0         0         0         0         0         0         0         0
         0         0         0         0         0         0         0         0
         0         0         0         0         0         0         0         0
         0         0         0         0         0         0         0         0
         0         0         0         0         0         0         0         0
         0         0         0         0         0         0         0         0
         0         0         0         0         0         0         0         0
         0         0         0         0         0         0         0         0
         0         0         0         0         0         0         0         0
         0         0         0         0         0         0         0         0
         0         0         0         0         0         0         0         0
         0         0         0         0         0         0         0         0
         0         0         0         0         0         0         0         0
         0         0         0         0         0         0         0         0
         0         0         0         0         0         0         0         0
         0         0         0         0         0         0         0         0
         0         0         0         0         0         0         0         0
         0         0         0         0         0         0         0         0
         0         0         0         0         0         0         0         0
         0         0         0         0         0         0         0         0
         0         0         0         0         0         0         0         0
         0         0         0         0         0         0         0         0
         0         0         0         0         0         0         0         0
         0         0         0         0         0         0         0         0
         0         0         0         0         0         0         0         0
         0         0         0         0         0         0         0         0
         0         0         0         0         0         0         0         0
         0         0         0         0         0         0         0         0
         0         0         0         0         0         0         0         0
         0         0         0         0         0         0         0         0
         0         0         0         0         0         0         0         0
         0         0         0         0         0         0         0         0
         0         0         0         0         0         0         0         0
         0         0         0         0         0         0         0         0
         0         0         0         0         0         0         0         0
         0         0         0         0         0         0         0         0
         0         0         0         0         0         0         0         0
         0         0         0         0         0         0         0         0
         0         0         0         0         0         0         0         0
         0         0         0         0         0         0         0         0
         0         0         0         0         0         0         0         0
         0         0         0         0         0         0         0         0
         0         0         0         0         0         0         0         0
         0         0         0         0         0         0         0         0
         0         0         0         0         0         0         0         0
         0         0         0         0         0         0         0         0
         0         0         0         0         0         0         0         0
         0         0         0         0         0         0         0         0
         0         0         0         0         0         0         0         0
         0         0         0         0         0         0         0         0
         0         0         0         0         0         0         0         0
         0         0         0         0         0         0         0         0
         0         0         0         0         0         0         0         0
         0         0         0         0         0         0         0         0
         0         0         0         0         0         0         0         0
         0         0         0         0         0         0         0         0
         0         0         0         0         0         0         0         0
         0         0         0         0         0         0         0         0
         0         0         0         0         0         0         0         0
         0         0         0         0         0         0         0         0
         0         0         0         0         0         0         0         0
         0         0         0         0         0         0         0         0
         0         0         0         0         0         0         0         0
         0         0         0         0         0         0         0         0
         0         0         0         0         0         0         0         0
         0         0         0         0         0         0         0         0
         0         0         0         0         0         0         0         0
         0         0         0         0         0         0         0         0
         0         0         0         0         0         0         0         0
         0         0         0         0         0         0         0         0
         0         0         0         0         0         0         0         0
         0         0         0         0         0         0         0         0
         0         0         0         0         0         0         0         0
         0         0         0         0         0         0         0         0
         0         0         0         0         0         0         0         0
         0         0         0         0         0         0         0         0
         0         0         0         0         0         0         0         0
         0         0         0         0         0         0         0         0
         0         0         0         0         0         0         0         0
         0         0         0         0         0         0         0         0
         0         0         0         0         0         0         0         0
         0         0         0         0         0         0         0         0
         0         0         0         0         0         0         0         0
         0         0         0         0         0         0         0         0
         0         0         0         0         0         0         0         0
         0         0         0         0         0         0         0         0
         0         0         0         0         0         0         0         0
         0         0         0         0         0         0         0         0
         0         0         0         0         0         0         0         0
         0         0         0         0         0         0         0         0
         0         0         0         0         0         0         0         0
         0         0         0         0         0         0         0         0
         0         0         0         0         0         0         0         0
         0         0         0         0         0         0         0         0
         0         0         0         0         0         0         0         0
         0         0         0         0         0         0         0         0
         0         0         0         0         0         0         0         0
         0         0         0         0         0         0         0         0
         0         0         0         0         0         0         0         0
         0         0         0         0         0         0         0         0
         0         0         0         0         0         0         0         0
         0         0         0         0         0         0         0         0
         0         0         0         0         0         0         0         0
         0         0         0         0         0         0         0         0
         0         0         0         0         0         0         0         0
         0         0         0         0         0         0         0         0
         0         0         0         0         0         0         0         0
         0         0         0         0         0         0         0         0
         0         0         0         0         0         0         0         0
         0         0         0         0         0         0         0         0
         0         0         0         0         0         0         0         0
         0         0         0         0         0         0         0         0
         0         0         0         0         0         0         0         0
         0         0         0         0         0         0         0         0
         0         0         0         0         0         0         0         0
         0         0         0         0         0         0         0         0
         0         0         0         0         0         0         0         0
         0         0         0         0         0         0         0         0
         0         0         0         0         0         0         0         0
         0         0         0         0         0         0         0         0
         0         0         0         0         0         0         0         0
         0         0         0         0         0         0         0         0
         0         0         0         0         0         0         0         0
         0         0         0         0         0         0         0         0
         0         0         0         0         0         0         0         0
         0         0         0         0         0         0         0         0
         0         0         0         0         0         0         0         0
         0         0         0         0         0         0         0         0
         0         0         0         0         0         0         0         0
         0         0         0         0         0         0         0         0
         0         0         0         0         0         0         0         0
         0         0         0         0         0         0         0         0
         0         0         0         0         0         0         0         0
         0         0         0         0         0         0         0         0
         0         0         0         0         0         0         0         0
         0         0         0         0         0         0         0         0
         0         0         0         0         0         0         0         0
         0         0         0         0         0         0         0         0
         0         0         0         0         0         0         0         0
         0         0         0         0         0         0         0         0
         0         0         0         0         0         0         0         0
         0         0         0         0         0         0         0         0
         0         0         0         0         0         0         0         0
         0         0         0         0         0         0         0         0
         0         0         0         0         0         0         0         0
         0         0         0         0         0         0         0         0
         0         0         0         0         0         0         0         0
         0         0         0         0         0         0         0         0
         0         0         0         0         0         0         0         0
         0         0         0         0         0         0         0         0
         0         0         0         0         0         0         0         0
         0         0         0         0         0         0         0         0
         0         0         0         0         0         0         0         0
         0         0         0         0         0         0         0         0
         0         0         0         0         0         0         0         0
         0         0         0         0         0         0         0         0
         0         0         0         0         0         0         0         0
         0         0         0         0         0         0         0         0
         0         0         0         0         0         0         0         0
         0         0         0         0         0         0         0         0
         0         0         0         0         0         0         0         0
         0         0         0         0         0         0         0         0
         0         0         0         0         0         0         0         0
         0         0         0         0         0         0         0         0
         0         0         0         0         0         0         0         0
         0         0         0         0         0         0         0         0
         0         0         0         0         0         0         0         0
         0         0         0         0         0         0         0         0
         0         0         0         0         0         0         0         0
         0         0         0         0         0         0         0         0
         0         0         0         0         0         0         0         0
         0         0         0         0         0         0         0         0
         0         0         0         0         0         0         0         0
         0         0         0         0         0         0         0         0
         0         0         0         0         0         0         0         0
         0         0         0         0         0         0         0         0
         0         0         0         0         0         0         0         0
         0         0         0         0         0         0         0         0
         0         0         0         0         0         0         0         0
         0         0         0         0         0         0         0         0
         0         0         0         0         0         0         0         0
         0         0         0         0         0         0         0         0
         0         0         0         0         0         0         0         0
         0         0         0         0         0         0         0         0
         0         0         0         0         0         0         0         0
         0         0         0         0         0         0         0         0
         0         0         0         0         0         0         0         0
         0         0         0         0         0         0         0         0
         0         0         0         0         0         0         0         0
         0         0         0         0         0         0         0         0
         0         0         0         0         0         0         0         0
         0         0         0         0         0         0         0         0
         0         0         0         0         0         0         0         0
         0         0         0         0         0         0         0         0
         0         0         0         0         0         0         0         0
         0         0         0         0         0         0         0         0
         0         0         0         0         0         0         0         0
         0         0         0         0         0         0         0         0
         0         0         0         0         0         0         0         0
         0         0         0         0         0         0         0         0
         0         0         0         0         0         0         0         0
         0         0         0         0         0         0         0         0
         0         0         0         0         0         0         0         0
         0         0         0         0         0         0         0         0
         0         0         0         0         0         0         0         0
         0         0         0         0         0         0         0         0
         0         0         0         0         0         0         0         0
         0         0         0         0         0         0         0         0
         0         0         0         0         0         0         0         0
         0         0         0         0         0         0         0         0
         0         0         0         0         0         0         0         0
         0         0         0         0         0         0         0         0
         0         0         0         0         0         0         0         0
         0         0         0         0         0         0         0         0
         0         0         0         0         0         0         0         0
         0         0         0         0         0         0         0         0
         0         0         0         0         0         0         0         0
         0         0         0         0         0         0         0         0
         0         0         0         0         0         0         0         0
         0         0         0         0         0         0         0         0
         0         0         0         0         0         0         0         0
         0         0         0         0         0         0         0         0
         0         0         0         0         0         0         0         0
         0         0         0         0         0         0         0         0
         0         0         0         0         0         0         0         0
         0         0         0         0         0         0         0         0
         0         0         0         0         0         0         0         0
         0         0         0         0         0         0         0         0
         0         0         0         0         0         0         0         0
         0         0         0         0         0         0         0         0
         0         0         0         0         0         0         0         0
         0         0         0         0         0         0         0         0
         0         0         0         0         0         0         0         0
         0         0         0         0         0         0         0         0
         0         0         0         0         0         0         0         0
         0         0         0         0         0         0         0         0
         0         0         0         0         0         0         0         0
         0         0         0         0         0         0         0         0
         0         0         0         0         0         0         0         0
         0         0         0         0         0         0         0         0
         0         0         0         0         0         0         0         0
         0         0         0         0         0         0         0         0
         0         0         0         0         0         0         0         0
         0         0         0         0         0         0         0         0
         0         0         0         0         0         0         0         0
         0         0         0         0         0         0         0         0
         0         0         0         0         0         0         0         0
         0         0         0         0         0         0         0         0
         0         0         0         0         0         0         0         0
         0         0         0         0         0         0         0         0
         0         0         0         0         0         0         0         0
         0         0         0         0         0         0         0         0
         0         0         0         0         0         0         0         0
         0         0         0         0         0         0         0         0
         0         0         0         0         0         0         0         0
         0         0         0         0         0         0         0         0
         0         0         0         0         0         0         0         0
         0         0         0         0         0         0         0         0
         0         0         0         0         0         0         0         0
         0         0         0         0         0         0         0         0
         0         0         0         0         0         0         0         0
         0         0         0         0         0         0         0         0
         0         0         0         0         0         0         0         0
         0         0         0         0         0         0         0         0
         0         0         0         0         0         0         0         0
         0         0         0         0         0         0         0         0
         0         0         0         0         0         0         0         0
         0         0         0         0         0         0         0         0
         0         0         0         0         0         0         0         0
         0         0         0         0         0         0         0         0
         0         0         0         0         0         0         0         0
         0         0         0         0         0         0         0         0
         0         0         0         0         0         0         0         0
         0         0         0         0         0         0         0         0
         0         0         0         0         0         0         0         0
         0         0         0         0         0         0         0         0
         0         0         0         0         0         0         0         0
         0         0         0         0         0         0         0         0
         0         0         0         0         0         0         0         0
         0         0         0         0         0         0         0         0
         0         0         0         0         0         0         0         0
         0         0         0         0         0         0         0         0
         0         0         0         0         0         0         0         0
         0         0         0         0         0         0         0         0
         0         0         0         0         0         0         0         0
         0         0         0         0         0         0         0         0
         0         0         0         0         0         0         0         0
         0         0         0         0         0         0         0         0
         0         0         0         0         0         0         0         0
         0         0         0         0         0         0         0         0
         0         0         0         0         0         0         0         0
         0         0         0         0         0         0         0         0
         0         0         0         0         0         0         0         0
         0         0         0         0         0         0         0         0
         0         0         0         0         0         0         0         0
         0         0         0         0         0         0         0         0
         0         0         0         0         0         0         0         0
         0         0         0         0         0         0         0         0
         0         0         0         0         0         0         0         0
         0         0         0         0         0         0         0         0
         0         0         0         0         0         0         0         0
         0         0         0         0         0         0         0         0
         0         0         0         0         0         0         0         0
         0         0         0         0         0         0         0         0
         0         0         0         0         0         0         0         0
         0         0         0         0         0         0         0         0
         0         0         0         0         0         0         0         0
         0         0         0         0         0         0         0         0
         0         0         0         0         0         0         0         0
         0         0         0         0         0         0         0         0
         0         0         0         0         0         0         0         0
         0         0         0         0         0         0         0         0
         0         0         0         0         0         0         0         0
         0         0         0         0         0         0         0         0
         0         0         0         0         0         0         0         0
         0         0         0         0         0         0         0         0
         0         0         0         0         0         0         0         0
         0         0         0         0         0         0         0         0
         0         0         0         0         0         0         0         0
         0         0         0         0         0         0         0         0
         0         0         0         0         0         0         0         0
         0         0         0         0         0         0         0         0
         0         0         0         0         0         0         0         0
         0         0         0         0         0         0         0         0
         0         0         0         0         0         0         0         0
         0         0         0         0         0         0         0         0
         0         0         0         0         0         0         0         0
         0         0         0         0         0         0         0         0
         0         0         0         0         0         0         0         0
         0         0         0         0         0         0         0         0
         0         0         0         0         0         0         0         0
         0         0         0         0         0         0         0         0
         0         0         0         0         0         0         0         0
         0         0         0         0         0         0         0         0
         0         0         0         0         0         0         0         0
         0         0         0         0         0         0         0         0
         0         0         0         0         0         0         0         0
         0         0         0         0         0         0         0         0
         0         0         0         0         0         0         0         0
         0         0         0         0         0         0         0         0
         0         0         0         0         0         0         0         0
         0         0         0         0         0         0         0         0
         0         0         0         0         0         0         0         0
         0         0         0         0         0         0         0         0
         0         0         0         0         0         0         0         0
         0         0         0         0         0         0         0         0
         0         0         0         0         0         0         0         0
         0         0         0         0         0         0         0         0
         0         0         0         0         0         0         0         0
         0         0         0         0         0         0         0         0
         0         0         0         0         0         0         0         0
         0         0         0         0         0         0         0         0
         0         0         0         0         0         0         0         0
         0         0         0         0         0         0         0         0
         0         0         0         0         0         0         0         0
         0         0         0         0         0         0         0         0
         0         0         0         0         0         0         0         0
         0         0         0         0         0         0         0         0
         0         0         0         0         0         0         0         0
         0         0         0         0         0         0         0         0
         0         0         0         0         0         0         0         0
         0         0         0         0         0         0         0         0
         0         0         0         0         0         0         0         0
         0         0         0         0         0         0         0         0
         0         0         0         0         0         0         0         0
         0         0         0         0         0         0         0         0
         0         0         0         0         0         0         0         0
         0         0         0         0         0         0         0         0
         0         0         0         0         0         0         0         0
         0         0         0         0         0         0         0         0
         0         0         0         0         0         0         0         0
         0         0         0         0         0         0         0         0
         0         0         0         0         0         0         0         0
         0         0         0         0         0         0         0         0
         0         0         0         0         0         0         0         0
         0         0         0         0         0         0         0         0
         0         0         0         0         0         0         0         0
         0         0         0         0         0         0         0         0
         0         0         0         0         0         0         0         0
         0         0         0         0         0         0         0         0
         0         0         0         0         0         0         0         0
         0         0         0         0         0         0         0         0
         0         0         0         0         0         0         0         0
         0         0         0         0         0         0         0         0
         0         0         0         0         0         0         0         0
         0         0         0         0         0         0         0         0
         0         0         0         0         0         0         0         0
         0         0         0         0         0         0         0         0
         0         0         0         0         0         0         0         0
         0         0         0         0         0         0         0         0
         0         0         0         0         0         0         0         0
         0         0         0         0         0         0         0         0
         0         0         0         0         0         0         0         0
         0         0         0         0         0         0         0         0
         0         0         0         0         0         0         0         0
         0         0         0         0         0         0         0         0
         0         0         0         0         0         0         0         0
         0         0         0         0         0         0         0         0
         0         0         0         0         0         0         0         0
         0         0         0         0         0         0         0         0
         0         0         0         0         0         0         0         0
         0         0         0         0         0         0         0         0
         0         0         0         0         0         0         0         0
         0         0         0         0         0         0         0         0
         0         0         0         0         0         0         0         0
         0         0         0         0         0         0         0         0
         0         0         0         0         0         0         0         0
         0         0         0         0         0         0         0         0
         0         0         0         0         0         0         0         0
         0         0         0         0         0         0         0         0
         0         0         0         0         0         0         0         0
         0         0         0         0         0         0         0         0
         0         0         0         0         0         0         0         0
         0         0         0         0         0         0         0         0
         0         0         0         0         0         0         0         0
         0         0         0         0         0         0         0         0
         0         0         0         0         0         0         0         0
         0         0         0         0         0         0         0         0
         0         0         0         0         0         0         0         0
         0         0         0         0         0         0         0         0
         0         0         0         0         0         0         0         0
         0         0         0         0         0         0         0         0
         0         0         0         0         0         0         0         0
         0         0         0         0         0         0         0         0
         0         0         0         0         0         0         0         0
         0         0         0         0         0         0         0         0
         0         0         0         0         0         0         0         0
         0         0         0         0         0         0         0         0
         0         0         0         0         0         0         0         0
         0         0         0         0         0         0         0         0
         0         0         0         0         0         0         0         0
         0         0         0         0         0         0         0         0
         0         0         0         0         0         0         0         0
         0         0         0         0         0         0         0         0
         0         0         0         0         0         0         0         0
         0         0         0         0         0         0         0         0
         0         0         0         0         0         0         0         0
         0         0         0         0         0         0         0         0
         0         0         0         0         0         0         0         0
         0         0         0         0         0         0         0         0
         0         0         0         0         0         0         0         0
         0         0         0         0         0         0         0         0
         0         0         0         0         0         0         0         0
         0         0         0         0         0         0         0         0
         0         0         0         0         0         0         0         0
         0         0         0         0         0         0         0         0
         0         0         0         0         0         0         0         0
         0         0         0         0         0         0         0         0
         0         0         0         0         0         0         0         0
         0         0         0         0         0         0         0         0
         0         0         0         0         0         0         0         0
         0         0         0         0         0         0         0         0
         0         0         0         0         0         0         0         0
         0         0         0         0         0         0         0         0
         0         0         0         0         0         0         0         0
         0         0         0         0         0         0         0         0
         0         0         0         0         0         0         0         0
         0         0         0         0         0         0         0         0
         0         0         0         0         0         0         0         0
         0         0         0         0         0         0         0         0
         0         0         0         0         0         0         0         0
         0         0         0         0         0         0         0         0
         0         0         0         0         0         0         0         0
         0         0         0         0         0         0         0         0
         0         0         0         0         0         0         0         0
         0         0         0         0         0         0         0         0
         0         0         0         0         0         0         0         0
         0         0         0         0         0         0         0         0
         0         0         0         0         0         0         0         0
         0         0         0         0         0         0         0         0
         0         0         0         0         0         0         0         0
         0         0         0         0         0         0         0         0
         0         0         0         0         0         0         0         0
         0         0         0         0         0         0         0         0
         0         0         0         0         0         0         0         0
         0         0         0         0         0         0         0         0
         0         0         0         0         0         0         0         0
         0         0         0         0         0         0         0         0
         0         0         0         0         0         0         0         0
         0         0         0         0         0         0         0         0
         0         0         0         0         0         0         0         0
         0         0         0         0         0         0         0         0
         0         0         0         0         0         0         0         0
         0         0         0         0         0         0         0         0
         0         0         0         0         0         0         0         0
         0         0         0         0         0         0         0         0
         0         0         0         0         0         0         0         0
         0         0         0         0         0         0         0         0
         0         0         0         0         0         0         0         0
         0         0         0         0         0         0         0         0
         0         0         0         0         0         0         0         0
         0         0         0         0         0         0         0         0
         0         0         0         0         0         0         0         0
         0         0         0         0         0         0         0         0
         0         0         0         0         0         0         0         0
         0         0         0         0         0         0         0         0
         0         0         0         0         0         0         0         0
         0         0         0         0         0         0         0         0
         0         0         0         0         0         0         0         0
         0         0         0         0         0         0         0         0
         0         0         0         0         0         0         0         0
         0         0         0         0         0         0         0         0
         0         0         0         0         0         0         0         0
         0         0         0         0         0         0         0         0
         0         0         0         0         0         0         0         0
         0         0         0         0         0         0         0         0
         0         0         0         0         0         0         0         0
         0         0         0         0         0         0         0         0
         0         0         0         0         0         0         0         0
         0         0         0         0         0         0         0         0
         0         0         0         0         0         0         0         0
         0         0         0         0         0         0         0         0
         0         0         0         0         0         0         0         0
         0         0         0         0         0         0         0         0
         0         0         0         0         0         0         0         0
         0         0         0         0         0         0         0         0
         0         0         0         0         0         0         0         0
         0         0         0         0         0         0         0         0
         0         0         0         0         0         0         0         0
         0         0         0         0         0         0         0         0
         0         0         0         0         0         0         0         0
         0         0         0         0         0         0         0         0
         0         0         0         0         0         0         0         0
         0         0         0         0         0         0         0         0
         0         0         0         0         0         0         0         0
         0         0         0         0         0         0         0         0
         0         0         0         0         0         0         0         0
         0         0         0         0         0         0         0         0
         0         0         0         0         0         0         0         0
         0         0         0         0         0         0         0         0
         0         0         0         0         0         0         0         0
         0         0         0         0         0         0         0         0
         0         0         0         0         0         0         0         0
         0         0         0         0         0         0         0         0
         0         0         0         0         0         0         0         0
         0         0         0         0         0         0         0         0
         0         0         0         0         0         0         0         0
         0         0         0         0         0         0         0         0
         0         0         0         0         0         0         0         0
         0         0         0         0         0         0         0         0
         0         0         0         0         0         0         0         0
         0         0         0         0         0         0         0         0
         0         0         0         0         0         0         0         0
         0         0         0         0         0         0         0         0
         0         0         0         0         0         0         0         0
         0         0         0         0         0         0         0         0
         0         0         0         0         0         0         0         0
         0         0         0         0         0         0         0         0
         0         0         0         0         0         0         0         0
         0         0         0         0         0         0         0         0
         0         0         0         0         0         0         0         0
         0         0         0         0         0         0         0         0
         0         0         0         0         0         0         0         0
         0         0         0         0         0         0         0         0
         0         0         0         0         0         0         0         0
         0         0         0         0         0         0         0         0
         0         0         0         0         0         0         0         0
         0         0         0         0         0         0         0         0
         0         0         0         0         0         0         0         0
         0         0         0         0         0         0         0         0
         0         0         0         0         0         0         0         0
         0         0         0         0         0         0         0         0
         0         0         0         0         0         0         0         0
         0         0         0         0         0         0         0         0
         0         0         0         0         0         0         0         0
         0         0         0         0         0         0         0         0
         0         0         0         0         0         0         0         0
         0         0         0         0         0         0         0         0
         0         0         0         0         0         0         0         0
         0         0         0         0         0         0         0         0
         0         0         0         0         0         0         0         0
         0         0         0         0         0         0         0         0
         0         0         0         0         0         0         0         0
         0         0         0         0         0         0         0         0
         0         0         0         0         0         0         0         0
         0         0         0         0         0         0         0         0
         0         0         0         0         0         0         0         0
         0         0         0         0         0         0         0         0
         0         0         0         0         0         0         0         0
         0         0         0         0         0         0         0         0
         0         0         0         0         0         0         0         0
         0         0         0         0         0         0         0         0
         0         0         0         0         0         0         0         0
         0         0         0         0         0         0         0         0
         0         0         0         0         0         0         0         0
         0         0         0         0         0         0         0         0
         0         0         0         0         0         0         0         0
         0         0         0         0         0         0         0         0
         0         0         0         0         0         0         0         0
         0         0         0         0         0         0         0         0
         0         0         0         0         0         0         0         0
         0         0         0         0         0         0         0         0
         0         0         0         0         0         0         0         0
         0         0         0         0         0         0         0         0
         0         0         0         0         0         0         0         0
         0         0         0         0         0         0         0         0
         0         0         0         0         0         0         0         0
         0         0         0         0         0         0         0         0
         0         0         0         0         0         0         0         0
         0         0         0         0         0         0         0         0
         0         0         0         0         0         0         0         0
         0         0         0         0         0         0         0         0
         0         0         0         0         0         0         0         0
         0         0         0         0         0         0         0         0
         0         0         0         0         0         0         0         0
         0         0         0         0         0         0         0         0
         0         0         0         0         0         0         0         0
         0         0         0         0         0         0         0         0
         0         0         0         0         0         0         0         0
         0         0         0         0         0         0         0         0
         0         0         0         0         0         0         0         0
         0         0         0         0         0         0         0         0
         0         0         0         0         0         0         0         0
         0         0         0         0         0         0         0         0
         0         0         0         0         0         0         0         0
         0         0         0         0         0         0         0         0
         0         0         0         0         0         0         0         0
         0         0         0         0         0         0         0         0
         0         0         0         0         0         0         0         0
         0         0         0         0         0         0         0         0
         0         0         0         0         0         0         0         0
         0         0         0         0         0         0         0         0
         0         0         0         0         0         0         0         0
         0         0         0         0         0         0         0         0
         0         0         0         0         0         0         0         0
         0         0         0         0         0         0         0         0
         0         0         0         0         0         0         0         0
         0         0         0         0         0         0         0         0
         0         0         0         0         0         0         0         0
         0         0         0         0         0         0         0         0
         0         0         0         0         0         0         0         0
         0         0         0         0         0         0         0         0
         0         0         0         0         0         0         0         0
         0         0         0         0         0         0         0         0
         0         0         0         0         0         0         0         0
         0         0         0         0         0         0         0         0
         0         0         0         0         0         0         0         0
         0         0         0         0         0         0         0         0
         0         0         0         0         0         0         0         0
         0         0         0         0         0         0         0         0
         0         0         0         0         0         0         0         0
         0         0         0         0         0         0         0         0
         0         0         0         0         0         0         0         0
         0         0         0         0         0         0         0         0
         0         0         0         0         0         0         0         0
         0         0         0         0         0         0         0         0
         0         0         0         0         0         0         0         0
         0         0         0         0         0         0         0         0
         0         0         0         0         0         0         0         0
         0         0         0         0         0         0         0         0
         0         0         0         0         0         0         0         0
         0         0         0         0         0         0         0         0
         0         0         0         0         0         0         0         0
         0         0         0         0         0         0         0         0
         0         0         0         0         0         0         0         0
         0         0         0         0         0         0         0         0
         0         0         0         0         0         0         0         0
         0         0         0         0         0         0         0         0
         0         0         0         0         0         0         0         0
         0         0         0         0         0         0         0         0
         0         0         0         0         0         0         0         0
         0         0         0         0         0         0         0         0
         0         0         0         0         0         0         0         0
         0         0         0         0         0         0         0         0
         0         0         0         0         0         0         0         0
         0         0         0         0         0         0         0         0
         0         0         0         0         0         0         0         0
         0         0         0         0         0         0         0         0
         0         0         0         0         0         0         0         0
         0         0         0         0         0         0         0         0
         0         0         0         0         0         0         0         0
         0         0         0         0         0         0         0         0
         0         0         0         0         0         0         0         0
         0         0         0         0         0         0         0         0
         0         0         0         0         0         0         0         0
         0         0         0         0         0         0         0         0
         0         0         0         0         0         0         0         0
         0         0         0         0         0         0         0         0
         0         0         0         0         0         0         0         0
         0         0         0         0         0         0         0         0
         0         0         0         0         0         0         0         0
         0         0         0         0         0         0         0         0
         0         0         0         0         0         0         0         0
         0         0         0         0         0         0         0         0
         0         0         0         0         0         0         0         0
         0         0         0         0         0         0         0         0
         0         0         0         0         0         0         0         0
         0         0         0         0         0         0         0         0
         0         0         0         0         0         0         0         0
         0         0         0         0         0         0         0         0
         0         0         0         0         0         0         0         0
         0         0         0         0         0         0         0         0
         0         0         0         0         0         0         0         0
         0         0         0         0         0         0         0         0
         0         0         0         0         0         0         0         0
         0         0         0         0         0         0         0         0
         0         0         0         0         0         0         0         0
         0         0         0         0         0         0         0         0
         0         0         0         0         0         0         0         0
         0         0         0         0         0         0         0         0
         0         0         0         0         0         0         0         0
         0         0         0         0         0         0         0         0
         0         0         0         0         0         0         0         0
         0         0         0         0         0         0         0         0
         0         0         0         0         0         0         0         0
         0         0         0         0         0         0         0         0
         0         0         0         0         0         0         0         0
         0         0         0         0         0         0         0         0
         0         0         0         0         0         0         0         0
         0         0         0         0         0         0         0         0
         0         0         0         0         0         0         0         0
         0         0         0         0         0         0         0         0
         0         0         0         0         0         0         0         0
         0         0         0         0         0         0         0         0
         0         0         0         0         0         0         0         0
         0         0         0         0         0         0         0         0
         0         0         0         0         0         0         0         0
         0         0         0         0         0         0         0         0
         0         0         0         0         0         0         0         0
         0         0         0         0         0         0         0         0
         0         0         0         0         0         0         0         0
         0         0         0         0         0         0         0         0
         0         0         0         0         0         0         0         0
         0         0         0         0         0         0         0         0
         0         0         0         0         0         0         0         0
         0         0         0         0         0         0         0         0
         0         0         0         0         0         0         0         0
         0         0         0         0         0         0         0         0
         0         0         0         0         0         0         0         0
         0         0         0         0         0         0         0         0
         0         0         0         0         0         0         0         0
         0         0         0         0         0         0         0         0
         0         0         0         0         0         0         0         0
         0         0         0         0         0         0         0         0
         0         0         0         0         0         0         0         0
         0         0         0         0         0         0         0         0
         0         0         0         0         0         0         0         0
         0         0         0         0         0         0         0         0
         0         0         0         0         0         0         0         0
         0         0         0         0         0         0         0         0
         0         0         0         0         0         0         0         0
         0         0         0         0         0         0         0         0
         0         0         0         0         0         0         0         0
         0         0         0         0         0         0         0         0
         0         0         0         0         0         0         0         0
         0         0         0         0         0         0         0         0
         0         0         0         0         0         0         0         0
         0         0         0         0         0         0         0         0
         0         0         0         0         0         0         0         0
         0         0         0         0         0         0         0         0
         0         0         0         0         0         0         0         0
         0         0         0         0         0         0         0         0
         0         0         0         0         0         0         0         0
         0         0         0         0         0         0         0         0
         0         0         0         0         0         0         0         0
         0         0         0         0         0         0         0         0
         0         0         0         0         0         0         0         0
         0         0         0         0         0         0         0         0
         0         0         0         0         0         0         0         0
         0         0         0         0         0         0         0         0
         0         0         0         0         0         0         0         0
         0         0         0         0         0         0         0         0
         0         0         0         0         0         0         0         0
         0         0         0         0         0         0         0         0
         0         0         0         0         0         0         0         0
         0         0         0         0         0         0         0         0
         0         0         0         0         0         0         0         0
         0         0         0         0         0         0         0         0
         0         0         0         0         0         0         0         0
         0         0         0         0         0         0         0         0
         0         0         0         0         0         0         0         0
         0         0         0         0         0         0         0         0
         0         0         0         0         0         0         0         0
         0         0         0         0         0         0         0         0
         0         0         0         0         0         0         0         0
         0         0         0         0         0         0         0         0
         0         0         0         0         0         0         0         0
         0         0         0         0         0         0         0         0
         0         0         0         0         0         0         0         0
         0         0         0         0         0         0         0         0
         0         0         0         0         0         0         0         0
         0         0         0         0         0         0         0         0
         0         0         0         0         0         0         0         0
         0         0         0         0         0         0         0         0
         0         0         0         0         0         0         0         0
         0         0         0         0         0         0         0         0
         0         0         0         0         0         0         0         0
         0         0         0         0         0         0         0         0
         0         0         0         0         0         0         0         0
         0         0         0         0         0         0         0         0
         0         0         0         0         0         0         0         0
         0         0         0         0         0         0         0         0
         0         0         0         0         0         0         0         0
         0         0         0         0         0         0         0         0
         0         0         0         0         0         0         0         0
         0         0         0         0         0         0         0         0
         0         0         0         0         0         0         0         0
         0         0         0         0         0         0         0         0
         0         0         0         0         0         0         0         0
         0         0         0         0         0         0         0         0
         0         0         0         0         0         0         0         0
         0         0         0         0         0         0         0         0
         0         0         0         0         0         0         0         0
         0         0         0         0         0         0         0         0
         0         0         0         0         0         0         0         0
         0         0         0         0         0         0         0         0
         0         0         0         0         0         0         0         0
         0         0         0         0         0         0         0         0
         0         0         0         0         0         0         0         0
         0         0         0         0         0         0         0         0
         0         0         0         0         0         0         0         0
         0         0         0         0         0         0         0         0
         0         0         0         0         0         0         0         0
         0         0         0         0         0         0         0         0
         0         0         0         0         0         0         0         0
         0         0         0         0         0         0         0         0
         0         0         0         0         0         0         0         0
         0         0         0         0         0         0         0         0
         0         0         0         0         0         0         0         0
         0         0         0         0         0         0         0         0
         0         0         0         0         0         0         0         0
         0         0         0         0         0         0         0         0
         0         0         0         0         0         0         0         0
         0         0         0         0         0         0         0         0
         0         0         0         0         0         0         0         0
         0         0         0         0         0         0         0         0
         0         0         0         0         0         0         0         0
         0         0         0         0         0         0         0         0
         0         0         0         0         0         0         0         0
         0         0         0         0         0         0         0         0
         0         0         0         0         0         0         0         0
         0         0         0         0         0         0         0         0
         0         0         0         0         0         0         0         0
         0         0         0         0         0         0         0         0
         0         0         0         0         0         0         0         0
         0         0         0         0         0         0         0         0
         0         0         0         0         0         0         0         0
         0         0         0         0         0         0         0         0
         0         0         0         0         0         0         0         0
         0         0         0         0         0         0         0         0
         0         0         0         0         0         0         0         0
         0         0         0         0         0         0         0         0
         0         0         0         0         0         0         0         0
         0         0         0         0         0         0         0         0
         0         0         0         0         0         0         0         0
         0         0         0         0         0         0         0         0
         0         0         0         0         0         0         0         0
         0         0         0         0         0         0         0         0
         0         0         0         0         0         0         0         0
         0         0         0         0         0         0         0         0
         0         0         0         0         0         0         0         0
         0         0         0         0         0         0         0         0
         0         0         0         0         0         0         0         0
         0         0         0         0         0         0         0         0
         0         0         0         0         0         0         0         0
         0         0         0         0         0         0         0         0
         0         0         0         0         0         0         0         0
         0         0         0         0         0         0         0         0
         0         0         0         0         0         0         0         0
         0         0         0         0         0         0         0         0
         0         0         0         0         0         0         0         0
         0         0         0         0         0         0         0         0
         0         0         0         0         0         0         0         0
         0         0         0         0         0         0         0         0
         0         0         0         0         0         0         0         0
         0         0         0         0         0         0         0         0
         0         0         0         0         0         0         0         0
         0         0         0         0         0         0         0         0
         0         0         0         0         0         0         0         0
         0         0         0         0         0         0         0         0
         0         0         0         0         0         0         0         0
         0         0         0         0         0         0         0         0
         0         0         0         0         0         0         0         0
         0         0         0         0         0         0         0         0
         0         0         0         0         0         0         0         0
         0         0         0         0         0         0         0         0
         0         0         0         0         0         0         0         0
         0         0         0         0         0         0         0         0
         0         0         0         0         0         0         0         0
         0         0         0         0         0         0         0         0
         0         0         0         0         0         0         0         0
         0         0         0         0         0         0         0         0
         0         0         0         0         0         0         0         0
         0         0         0         0         0         0         0         0
         0         0         0         0         0         0         0         0
         0         0         0         0         0         0         0         0
         0         0         0         0         0         0         0         0
         0         0         0         0         0         0         0         0
         0         0         0         0         0         0         0         0
         0         0         0         0         0         0         0         0
         0         0         0         0         0         0         0         0
         0         0         0         0         0         0         0         0
         0         0         0         0         0         0         0         0
         0         0         0         0         0         0         0         0
         0         0         0         0         0         0         0         0
         0         0         0         0         0         0         0         0
         0         0         0         0         0         0         0         0
         0         0         0         0         0         0         0         0
         0         0         0         0         0         0         0         0
         0         0         0         0         0         0         0         0
         0         0         0         0         0         0         0         0
         0         0         0         0         0         0         0         0
         0         0         0         0         0         0         0         0
         0         0         0         0         0         0         0         0
         0         0         0         0         0         0         0         0
         0         0         0         0         0         0         0         0
         0         0         0         0         0         0         0         0
         0         0         0         0         0         0         0         0
         0         0         0         0         0         0         0         0
         0         0         0         0         0         0         0         0
         0         0         0         0         0         0         0         0
         0         0         0         0         0         0         0         0
         0         0         0         0         0         0         0         0
         0         0         0         0         0         0         0         0
         0         0         0         0         0         0         0         0
         0         0         0         0         0         0         0         0
         0         0         0         0         0         0         0         0
         0         0         0         0         0         0         0         0
         0         0         0         0         0         0         0         0
         0         0         0         0         0         0         0         0
         0         0         0         0         0         0         0         0
         0         0         0         0         0         0         0         0
         0         0         0         0         0         0         0         0
         0         0         0         0         0         0         0         0
         0         0         0         0         0         0         0         0
         0         0         0         0         0         0         0         0
         0         0         0         0         0         0         0         0
         0         0         0         0         0         0         0         0
         0         0         0         0         0         0         0         0
         0         0         0         0         0         0         0         0
         0         0         0         0         0         0         0         0
         0         0         0         0         0         0         0         0
         0         0         0         0         0         0         0         0
         0         0         0         0         0         0         0         0
         0         0         0         0         0         0         0         0
         0         0         0         0         0         0         0         0
         0         0         0         0         0         0         0         0
         0         0         0         0         0         0         0         0
         0         0         0         0         0         0         0         0
         0         0         0         0         0         0         0         0
         0         0         0         0         0         0         0         0
         0         0         0         0         0         0         0         0
         0         0         0         0         0         0         0         0
         0         0         0         0         0         0         0         0
         0         0         0         0         0         0         0         0
         0         0         0         0         0         0         0         0
         0         0         0         0         0         0         0         0
         0         0         0         0         0         0         0         0
         0         0         0         0         0         0         0         0
         0         0         0         0         0         0         0         0
         0         0         0         0         0         0         0         0
         0         0         0         0         0         0         0         0
         0         0         0         0         0         0         0         0
         0         0         0         0         0         0         0         0
         0         0         0         0         0         0         0         0
         0         0         0         0         0         0         0         0
         0         0         0         0         0         0         0         0
         0         0         0         0         0         0         0         0
         0         0         0         0         0         0         0         0
         0         0         0         0         0         0         0         0
         0         0         0         0         0         0         0         0
         0         0         0         0         0         0         0         0
         0         0         0         0         0         0         0         0
         0         0         0         0         0         0         0         0
         0         0         0         0         0         0         0         0
         0         0         0         0         0         0         0         0
         0         0         0         0         0         0         0         0
         0         0         0         0         0         0         0         0
         0         0         0         0         0         0         0         0
         0         0         0         0         0         0         0         0
         0         0         0         0         0         0         0         0
         0         0         0         0         0         0         0         0
         0         0         0         0         0         0         0         0
         0         0         0         0         0         0         0         0
         0         0         0         0         0         0         0         0
         0         0         0         0         0         0         0         0
         0         0         0         0         0         0         0         0
         0         0         0         0         0         0         0         0
         0         0         0         0         0         0         0         0
         0         0         0         0         0         0         0         0
         0         0         0         0         0         0         0         0
         0         0         0         0         0         0         0         0
         0         0         0         0         0         0         0         0
         0         0         0         0         0         0         0         0
         0         0         0         0         0         0         0         0
         0         0         0         0         0         0         0         0
         0         0         0         0         0         0         0         0
         0         0         0         0         0         0         0         0
         0         0         0         0         0         0         0         0
         0         0         0         0         0         0         0         0
         0         0         0         0         0         0         0         0
         0         0         0         0         0         0         0         0
         0         0         0         0         0         0         0         0
         0         0         0         0         0         0         0         0
         0         0         0         0         0         0         0         0
         0         0         0         0         0         0         0         0
         0         0         0         0         0         0         0         0
         0         0         0         0         0         0         0         0
         0         0         0         0         0         0         0         0
         0         0         0         0         0         0         0         0
         0         0         0         0         0         0         0         0
         0         0         0         0         0         0         0         0
         0         0         0         0         0         0         0         0
         0         0         0         0         0         0         0         0
         0         0         0         0         0         0         0         0
         0         0         0         0         0         0         0         0
         0         0         0         0         0         0         0         0
         0         0         0         0         0         0         0         0
         0         0         0         0         0         0         0         0
         0         0         0         0         0         0         0         0
         0         0         0         0         0         0         0         0
         0         0         0         0         0         0         0         0
         0         0         0         0         0         0         0         0
         0         0         0         0         0         0         0         0
         0         0         0         0         0         0         0         0
         0         0         0         0         0         0         0         0
         0         0         0         0         0         0         0         0
         0         0         0         0         0         0         0         0
         0         0         0         0         0         0         0         0
         0         0         0         0         0         0         0         0
         0         0         0         0         0         0         0         0
         0         0         0         0         0         0         0         0
         0         0         0         0         0         0         0         0
         0         0         0         0         0         0         0         0
         0         0         0         0         0         0         0         0
         0         0         0         0         0         0         0         0
         0         0         0         0         0         0         0         0
         0         0         0         0         0         0         0         0
         0         0         0         0         0         0         0         0
         0         0         0         0         0         0         0         0
         0         0         0         0         0         0         0         0
         0         0         0         0         0         0         0         0
         0         0         0         0         0         0         0         0
         0         0         0         0         0         0         0         0
         0         0         0         0         0         0         0         0
         0         0         0         0         0         0         0         0
         0         0         0         0         0         0         0         0
         0         0         0         0         0         0         0         0
         0         0         0         0         0         0         0         0
         0         0         0         0         0         0         0         0
         0         0         0         0         0         0         0         0
         0         0         0         0         0         0         0         0
         0         0         0         0         0         0         0         0
         0         0         0         0         0         0         0         0
         0         0         0         0         0         0         0         0
         0         0         0         0         0         0         0         0
         0         0         0         0         0         0         0         0
         0         0         0         0         0         0         0         0
         0         0         0         0         0         0         0         0
         0         0         0         0         0         0         0         0
         0         0         0         0         0         0         0         0
         0         0         0         0         0         0         0         0
         0         0         0         0         0         0         0         0
         0         0         0         0         0         0         0         0
         0         0         0         0         0         0         0         0
         0         0         0         0         0         0         0         0
         0         0         0         0         0         0         0         0
         0         0         0         0         0         0         0         0
         0         0         0         0         0         0         0         0
         0         0         0         0         0         0         0         0
         0         0         0         0         0         0         0         0
         0         0         0         0         0         0         0         0
         0         0         0         0         0         0         0         0
         0         0         0         0         0         0         0         0
         0         0         0         0         0         0         0         0
         0         0         0         0         0         0         0         0
         0         0         0         0         0         0         0         0
         0         0         0         0         0         0         0         0
         0         0         0         0         0         0         0         0
         0         0         0         0         0         0         0         0
         0         0         0         0         0         0         0         0
         0         0         0         0         0         0         0         0
         0         0         0         0         0         0         0         0
         0         0         0         0         0         0         0         0
         0         0         0         0         0         0         0         0
         0         0         0         0         0         0         0         0
         0         0         0         0         0         0         0         0
         0         0         0         0         0         0         0         0
         0         0         0         0         0         0         0         0
         0         0         0         0         0         0         0         0
         0         0         0         0         0         0         0         0
         0         0         0         0         0         0         0         0
         0         0         0         0         0         0         0         0
         0         0         0         0         0         0         0         0
         0         0         0         0         0         0         0         0
         0         0         0         0         0         0         0         0
         0         0         0         0         0         0         0         0
         0         0         0         0         0         0         0         0
         0         0         0         0         0         0         0         0
         0         0         0         0         0         0         0         0
         0         0         0         0         0         0         0         0
         0         0         0         0         0         0         0         0
         0         0         0         0         0         0         0         0
         0         0         0         0         0         0         0         0
         0         0         0         0         0         0         0         0
         0         0         0         0         0         0         0         0
         0         0         0         0         0         0         0         0
         0         0         0         0         0         0         0         0
         0         0         0         0         0         0         0         0
         0         0         0         0         0         0         0         0
         0         0         0         0         0         0         0         0
         0         0         0         0         0         0         0         0
         0         0         0         0         0         0         0         0
         0         0         0         0         0         0         0         0
         0         0         0         0         0         0         0         0
         0         0         0         0         0         0         0         0
         0         0         0         0         0         0         0         0
         0         0         0         0         0         0         0         0
         0         0         0         0         0         0         0         0
         0         0         0         0         0         0         0         0
         0         0         0         0         0         0         0         0
         0         0         0         0         0         0         0         0
         0         0         0         0         0         0         0         0
         0         0         0         0         0         0         0         0
         0         0         0         0         0         0         0         0
         0         0         0         0         0         0         0         0
         0         0         0         0         0         0         0         0
         0         0         0         0         0         0         0         0
         0         0         0         0         0         0         0         0
         0         0         0         0         0         0         0         0
         0         0         0         0         0         0         0         0
         0         0         0         0         0         0         0         0
         0         0         0         0         0         0         0         0
         0         0         0         0         0         0         0         0
         0         0         0         0         0         0         0         0
         0         0         0         0         0         0         0         0
         0         0         0         0         0         0         0         0
         0         0         0         0         0         0         0         0
         0         0         0         0         0         0         0         0
         0         0         0         0         0         0         0         0
         0         0         0         0         0         0         0         0
         0         0         0         0         0         0         0         0
         0         0         0         0         0         0         0         0
         0         0         0         0         0         0         0         0
         0         0         0         0         0         0         0         0
         0         0         0         0         0         0         0         0
         0         0         0         0         0         0         0         0
         0         0         0         0         0         0         0         0
         0         0         0         0         0         0         0         0
         0         0         0         0         0         0         0         0
         0         0         0         0         0         0         0         0
         0         0         0         0         0         0         0         0
         0         0         0         0         0         0         0         0
         0         0         0         0         0         0         0         0
         0         0         0         0         0         0         0         0
         0         0         0         0         0         0         0         0
         0         0         0         0         0         0         0         0
         0         0         0         0         0         0         0         0
         0         0         0         0         0         0         0         0
         0         0         0         0         0         0         0         0
         0         0         0         0         0         0         0         0
         0         0         0         0         0         0         0         0
         0         0         0         0         0         0         0         0
         0         0         0         0         0         0         0         0
         0         0         0         0         0         0         0         0
         0         0         0         0         0         0         0         0
         0         0         0         0         0         0         0         0
         0         0         0         0         0         0         0         0
         0         0         0         0         0         0         0         0
         0         0         0         0         0         0         0         0
         0         0         0         0         0         0         0         0
         0         0         0         0         0         0         0         0
         0         0         0         0         0         0         0         0
         0         0         0         0         0         0         0         0
         0         0         0         0         0         0         0         0
         0         0         0         0         0         0         0         0
         0         0         0         0         0         0         0         0
         0         0         0         0         0         0         0         0
         0         0         0         0         0         0         0         0
         0         0         0         0         0         0         0         0
         0         0         0         0         0         0         0         0
         0         0         0         0         0         0         0         0
         0         0         0         0         0         0         0         0
         0         0         0         0         0         0         0         0
         0         0         0         0         0         0         0         0
         0         0         0         0         0         0         0         0
         0         0         0         0         0         0         0         0
         0         0         0         0         0         0         0         0
         0         0         0         0         0         0         0         0
         0         0         0         0         0         0         0         0
         0         0         0         0         0         0         0         0
         0         0         0         0         0         0         0         0
         0         0         0         0         0         0         0         0
         0         0         0         0         0         0         0         0
         0         0         0         0         0         0         0         0
         0         0         0         0         0         0         0         0
         0         0         0         0         0         0         0         0
         0         0         0         0         0         0         0         0
         0         0         0         0         0         0         0         0
         0         0         0         0         0         0         0         0
         0         0         0         0         0         0         0         0
         0         0         0         0         0         0         0         0
         0         0         0         0         0         0         0         0
         0         0         0         0         0         0         0         0
         0         0         0         0         0         0         0         0
         0         0         0         0         0         0         0         0
         0         0         0         0         0         0         0         0
         0         0         0         0         0         0         0         0
         0         0         0         0         0         0         0         0
         0         0         0         0         0         0         0         0
         0         0         0         0         0         0         0         0
         0         0         0         0         0         0         0         0
         0         0         0         0         0         0         0         0
         0         0         0         0         0         0         0         0
         0         0         0         0         0         0         0         0
         0         0         0         0         0         0         0         0
         0         0         0         0         0         0         0         0
         0         0         0         0         0         0         0         0
         0         0         0         0         0         0         0         0
         0         0         0         0         0         0         0         0
         0         0         0         0         0         0         0         0
         0         0         0         0         0         0         0         0
         0         0         0         0         0         0         0         0
         0         0         0         0         0         0         0         0
         0         0         0         0         0         0         0         0
         0         0         0         0         0         0         0         0
         0         0         0         0         0         0         0         0
         0         0         0         0         0         0         0         0
         0         0         0         0         0         0         0         0
         0         0         0         0         0         0         0         0
         0         0         0         0         0         0         0         0
         0         0         0         0         0         0         0         0
         0         0         0         0         0         0         0         0
         0         0         0         0         0         0         0         0
         0         0         0         0         0         0         0         0
         0         0         0         0         0         0         0         0
         0         0         0         0         0         0         0         0
         0         0         0         0         0         0         0         0
         0         0         0         0         0         0         0         0
         0         0         0         0         0         0         0         0
         0         0         0         0         0         0         0         0
         0         0         0         0         0         0         0         0
         0         0         0         0         0         0         0         0
         0         0         0         0         0         0         0         0
         0         0         0         0         0         0         0         0
         0         0         0         0         0         0         0         0
         0         0         0         0         0         0         0         0
         0         0         0         0         0         0         0         0
         0         0         0         0         0         0         0         0
         0         0         0         0         0         0         0         0
         0         0         0         0         0         0         0         0
         0         0         0         0         0         0         0         0
         0         0         0         0         0         0         0         0
         0         0         0         0         0         0         0         0
         0         0         0         0         0         0         0         0
         0         0         0         0         0         0         0         0
         0         0         0         0         0         0         0         0
         0         0         0         0         0         0         0         0
         0         0         0         0         0         0         0         0
         0         0         0         0         0         0         0         0
         0         0         0         0         0         0         0         0
         0         0         0         0         0         0         0         0
         0         0         0         0         0         0         0         0
         0         0         0         0         0         0         0         0
         0         0         0         0         0         0         0         0
         0         0         0         0         0         0         0         0
         0         0         0         0         0         0         0         0
         0         0         0         0         0         0         0         0
         0         0         0         0         0         0         0         0
         0         0         0         0         0         0         0         0
         0         0         0         0         0         0         0         0
         0         0         0         0         0         0         0         0
         0         0         0         0         0         0         0         0
         0         0         0         0         0         0         0         0
         0         0         0         0         0         0         0         0
         0         0         0         0         0         0         0         0
         0         0         0         0         0         0         0         0
         0         0         0         0         0         0         0         0
         0         0         0         0         0         0         0         0
         0         0         0         0         0         0         0         0
         0         0         0         0         0         0         0         0
         0         0         0         0         0         0         0         0
         0         0         0         0         0         0         0         0
         0         0         0         0         0         0         0         0
         0         0         0         0         0         0         0         0
         0         0         0         0         0         0         0         0
         0         0         0         0         0         0         0         0
         0         0         0         0         0         0         0         0
         0         0         0         0         0         0         0         0
         0         0         0         0         0         0         0         0
         0         0         0         0         0         0         0         0
         0         0         0         0         0         0         0         0
         0         0         0         0         0         0         0         0
         0         0         0         0         0         0         0         0
         0         0         0         0         0         0         0         0
         0         0         0         0         0         0         0         0
         0         0         0         0         0         0         0         0
         0         0         0         0         0         0         0         0
         0         0         0         0         0         0         0         0
         0         0         0         0         0         0         0         0
         0         0         0         0         0         0         0         0
         0         0         0         0         0         0         0         0
         0         0         0         0         0         0         0         0
         0         0         0         0         0         0         0         0
         0         0         0         0         0         0         0         0
         0         0         0         0         0         0         0         0
         0         0         0         0         0         0         0         0
         0         0         0         0         0         0         0         0
         0         0         0         0         0         0         0         0
         0         0         0         0         0         0         0         0
         0         0         0         0         0         0         0         0
         0         0         0         0         0         0         0         0
         0         0         0         0         0         0         0         0
         0         0         0         0         0         0         0         0
         0         0         0         0         0         0         0         0
         0         0         0         0         0         0         0         0
         0         0         0         0         0         0         0         0
         0         0         0         0         0         0         0         0
         0         0         0         0         0         0         0         0
         0         0         0         0         0         0         0         0
         0         0         0         0         0         0         0         0
         0         0         0         0         0         0         0         0
         0         0         0         0         0         0         0         0
         0         0         0         0         0         0         0         0
         0         0         0         0         0         0         0         0
         0         0         0         0         0         0         0         0
         0         0         0         0         0         0         0         0
         0         0         0         0         0         0         0         0
         0         0         0         0         0         0         0         0
         0         0         0         0         0         0         0         0
         0         0         0         0         0         0         0         0
         0         0         0         0         0         0         0         0
         0         0         0         0         0         0         0         0
         0         0         0         0         0         0         0         0
         0         0         0         0         0         0         0         0
         0         0         0         0         0         0         0         0
         0         0         0         0         0         0         0         0
         0         0         0         0         0         0         0         0
         0         0         0         0         0         0         0         0
         0         0         0         0         0         0         0         0
         0         0         0         0         0         0         0         0
         0         0         0         0         0         0         0         0
         0         0         0         0         0         0         0         0
         0         0         0         0         0         0         0         0
         0         0         0         0         0         0         0         0
         0         0         0         0         0         0         0         0
         0         0         0         0         0         0         0         0
         0         0         0         0         0         0         0         0
         0         0         0         0         0         0         0         0
         0         0         0         0         0         0         0         0
         0         0         0         0         0         0         0         0
         0         0         0         0         0         0         0         0
         0         0         0         0         0         0         0         0
         0         0         0         0         0         0         0         0
         0         0         0         0         0         0         0         0
         0         0         0         0         0         0         0         0
         0         0         0         0         0         0         0         0
         0         0         0         0         0         0         0         0
         0         0         0         0         0         0         0         0
         0         0         0         0         0         0         0         0
         0         0         0         0         0         0         0         0
         0         0         0         0         0         0         0         0
         0         0         0         0         0         0         0         0
         0         0         0         0         0         0         0         0
         0         0         0         0         0         0         0         0
         0         0         0         0         0         0         0         0
         0         0         0         0         0         0         0         0
         0         0         0         0         0         0         0         0
         0         0         0         0         0         0         0         0
         0         0         0         0         0         0         0         0
         0         0         0         0         0         0         0         0
         0         0         0         0         0         0         0         0
         0         0         0         0         0         0         0         0
         0         0         0         0         0         0         0         0
         0         0         0         0         0         0         0         0
         0         0         0         0         0         0         0         0
         0         0         0         0         0         0         0         0
         0         0         0         0         0         0         0         0
         0         0         0         0         0         0         0         0
         0         0         0         0         0         0         0         0
         0         0         0         0         0         0         0         0
         0         0         0         0         0         0         0         0
         0         0         0         0         0         0         0         0
         0         0         0         0         0         0         0         0
         0         0         0         0         0         0         0         0
         0         0         0         0         0         0         0         0
         0         0         0         0         0         0         0         0
         0         0         0         0         0         0         0         0
         0         0         0         0         0         0         0         0
         0         0         0         0         0         0         0         0
         0         0         0         0         0         0         0         0
         0         0         0         0         0         0         0         0
         0         0         0         0         0         0         0         0
         0         0         0         0         0         0         0         0
         0         0         0         0         0         0         0         0
         0         0         0         0         0         0         0         0
         0         0         0         0         0         0         0         0
         0         0         0         0         0         0         0         0
         0         0         0         0         0         0         0         0
         0         0         0         0         0         0         0         0
         0         0         0         0         0         0         0         0
         0         0         0         0         0         0         0         0
         0         0         0         0         0         0         0         0
         0         0         0         0         0         0         0         0
         0         0         0         0         0         0         0         0
         0         0         0         0         0         0         0         0
         0         0         0         0         0         0         0         0
         0         0         0         0         0         0         0         0
         0         0         0         0         0         0         0         0
         0         0         0         0         0         0         0         0
         0         0         0         0         0         0         0         0
         0         0         0         0         0         0         0         0
         0         0         0         0         0         0         0         0
         0         0         0         0         0         0         0         0
         0         0         0         0         0         0         0         0
         0         0         0         0         0         0         0         0
         0         0         0         0         0         0         0         0
         0         0         0         0         0         0         0         0
         0         0         0         0         0         0         0         0
         0         0         0         0         0         0         0         0
         0         0         0         0         0         0         0         0
         0         0         0         0         0         0         0         0
         0         0         0         0         0         0         0         0
         0         0         0         0         0         0         0         0
         0         0         0         0         0         0         0         0
         0         0         0         0         0         0         0         0
         0         0         0         0         0         0         0         0
         0         0         0         0         0         0         0         0
         0         0         0         0         0         0         0         0
         0         0         0         0         0         0         0         0
         0         0         0         0         0         0         0         0
         0         0         0         0         0         0         0         0
         0         0         0         0         0         0         0         0
         0         0         0         0         0         0         0         0
         0         0         0         0         0         0         0         0
         0         0         0         0         0         0         0         0
         0         0         0         0         0         0         0         0
         0         0         0         0         0         0         0         0
         0         0         0         0         0         0         0         0
         0         0         0         0         0         0         0         0
         0         0         0         0         0         0         0         0
         0         0         0         0         0         0         0         0
         0         0         0         0         0         0         0         0
         0         0         0         0         0         0         0         0
         0         0         0         0         0         0         0         0
         0         0         0         0         0         0         0         0
         0         0         0         0         0         0         0         0
         0         0         0         0         0         0         0         0
         0         0         0         0         0         0         0         0
         0         0         0         0         0         0         0         0
         0         0         0         0         0         0         0         0
         0         0         0         0         0         0         0         0
         0         0         0         0         0         0         0         0
         0         0         0         0         0         0         0         0
         0         0         0         0         0         0         0         0
         0         0         0         0         0         0         0         0
         0         0         0         0         0         0         0         0
         0         0         0         0         0         0         0         0
         0         0         0         0         0         0         0         0
         0         0         0         0         0         0         0         0
         0         0         0         0         0         0         0         0
         0         0         0         0         0         0         0         0
         0         0         0         0         0         0         0         0
         0         0         0         0         0         0         0         0
         0         0         0         0         0         0         0         0
         0         0         0         0         0         0         0         0
         0         0         0         0         0         0         0         0
         0         0         0         0         0         0         0         0
         0         0         0         0         0         0         0         0
         0         0         0         0         0         0         0         0
         0         0         0         0         0         0         0         0
         0         0         0         0         0         0         0         0
         0         0         0         0         0         0         0         0
         0         0         0         0         0         0         0         0
         0         0         0         0         0         0         0         0
         0         0         0         0         0         0         0         0
         0         0         0         0         0         0         0         0
         0         0         0         0         0         0         0         0
         0         0         0         0         0         0         0         0
         0         0         0         0         0         0         0         0
         0         0         0         0         0         0         0         0
         0         0         0         0         0         0         0         0
         0         0         0         0         0         0         0         0
         0         0         0         0         0         0         0         0
         0         0         0         0         0         0         0         0
         0         0         0         0         0         0         0         0
         0         0         0         0         0         0         0         0
         0         0         0         0         0         0         0         0
         0         0         0         0         0         0         0         0
         0         0         0         0         0         0         0         0
         0         0         0         0         0         0         0         0
         0         0         0         0         0         0         0         0
         0         0         0         0         0         0         0         0
         0         0         0         0         0         0         0         0
         0         0         0         0         0         0         0         0
         0         0         0         0         0         0         0         0
         0         0         0         0         0         0         0         0
         0         0         0         0         0         0         0         0
         0         0         0         0         0         0         0         0
         0         0         0         0         0         0         0         0
         0         0         0         0         0         0         0         0
         0         0         0         0         0         0         0         0
         0         0         0         0         0         0         0         0
         0         0         0         0         0         0         0         0
         0         0         0         0         0         0         0         0
         0         0         0         0         0         0         0         0
         0         0         0         0         0         0         0         0
         0         0         0         0         0         0         0         0
         0         0         0         0         0         0         0         0
         0         0         0         0         0         0         0         0
         0         0         0         0         0         0         0         0
         0         0         0         0         0         0         0         0
         0         0         0         0         0         0         0         0
         0         0         0         0         0         0         0         0
         0         0         0         0         0         0         0         0
         0         0         0         0         0         0         0         0
         0         0         0         0         0         0         0         0
         0         0         0         0         0         0         0         0
         0         0         0         0         0         0         0         0
         0         0         0         0         0         0         0         0
         0         0         0         0         0         0         0         0
         0         0         0         0         0         0         0         0
         0         0         0         0         0         0         0         0
         0         0         0         0         0         0         0         0
         0         0         0         0         0         0         0         0
         0         0         0         0         0         0         0         0
         0         0         0         0         0         0         0         0
         0         0         0         0         0         0         0         0
         0         0         0         0         0         0         0         0
         0         0         0         0         0         0         0         0
         0         0         0         0         0         0         0         0
         0         0         0         0         0         0         0         0
         0         0         0         0         0         0         0         0
         0         0         0         0         0         0         0         0
         0         0         0         0         0         0         0         0
         0         0         0         0         0         0         0         0
         0         0         0         0         0         0         0         0
         0         0         0         0         0         0         0         0
         0         0         0         0         0         0         0         0
         0         0         0         0         0         0         0         0
         0         0         0         0         0         0         0         0
         0         0         0         0         0         0         0         0
         0         0         0         0         0         0         0         0
         0         0         0         0         0         0         0         0
         0         0         0         0         0         0         0         0
         0         0         0         0         0         0         0         0
         0         0         0         0         0         0         0         0
         0         0         0         0         0         0         0         0
         0         0         0         0         0         0         0         0
         0         0         0         0         0         0         0         0
         0         0         0         0         0         0         0         0
         0         0         0         0         0         0         0         0
         0         0         0         0         0         0         0         0
         0         0         0         0         0         0         0         0
         0         0         0         0         0         0         0         0
         0         0         0         0         0         0         0         0
         0         0         0         0         0         0         0         0
         0         0         0         0         0         0         0         0
         0         0         0         0         0         0         0         0
         0         0         0         0         0         0         0         0
         0         0         0         0         0         0         0         0
         0         0         0         0         0         0         0         0
         0         0         0         0         0         0         0         0
         0         0         0         0         0         0         0         0
         0         0         0         0         0         0         0         0
         0         0         0         0         0         0         0         0
         0         0         0         0         0         0         0         0
         0         0         0         0         0         0         0         0
         0         0         0         0         0         0         0         0
         0         0         0         0         0         0         0         0
         0         0         0         0         0         0         0         0
         0         0         0         0         0         0         0         0
         0         0         0         0         0         0         0         0
         0         0         0         0         0         0         0         0
         0         0         0         0         0         0         0         0
         0         0         0         0         0         0         0         0
         0         0         0         0         0         0         0         0
         0         0         0         0         0         0         0         0
         0         0         0         0         0         0         0         0
         0         0         0         0         0         0         0         0
         0         0         0         0         0         0         0         0
         0         0         0         0         0         0         0         0
         0         0         0         0         0         0         0         0
         0         0         0         0         0         0         0         0
         0         0         0         0         0         0         0         0
         0         0         0         0         0         0         0         0
         0         0         0         0         0         0         0         0
         0         0         0         0         0         0         0         0
         0         0         0         0         0         0         0         0
         0         0         0         0         0         0         0         0
         0         0         0         0         0         0         0         0
         0         0         0         0         0         0         0         0
         0         0         0         0         0         0         0         0
         0         0         0         0         0         0         0         0
         0         0         0         0         0         0         0         0
         0         0         0         0         0         0         0         0
         0         0         0         0         0         0         0         0
         0         0         0         0         0         0         0         0
         0         0         0         0         0         0         0         0
         0         0         0         0         0         0         0         0
         0         0         0         0         0         0         0         0
         0         0         0         0         0         0         0         0
         0         0         0         0         0         0         0         0
         0         0         0         0         0         0         0         0
         0         0         0         0         0         0         0         0
         0         0         0         0         0         0         0         0
         0         0         0         0         0         0         0         0
         0         0         0         0         0         0         0         0
         0         0         0         0         0         0         0         0
         0         0         0         0         0         0         0         0
         0         0         0         0         0         0         0         0
         0         0         0         0         0         0         0         0
         0         0         0         0         0         0         0         0
         0         0         0         0         0         0         0         0
         0         0         0         0         0         0         0         0
         0         0         0         0         0         0         0         0
         0         0         0         0         0         0         0         0
         0         0         0         0         0         0         0         0
         0         0         0         0         0         0         0         0
         0         0         0         0         0         0         0         0
         0         0         0         0         0         0         0         0
         0         0         0         0         0         0         0         0
         0         0         0         0         0         0         0         0
         0         0         0         0         0         0         0         0
         0         0         0         0         0         0         0         0
         0         0         0         0         0         0         0         0
         0         0         0         0         0         0         0         0
         0         0         0         0         0         0         0         0
         0         0         0         0         0         0         0         0
         0         0         0         0         0         0         0         0
         0         0         0         0         0         0         0         0
         0         0         0         0         0         0         0         0
         0         0         0         0         0         0         0         0
         0         0         0         0         0         0         0         0
         0         0         0         0         0         0         0         0
         0         0         0         0         0         0         0         0
         0         0         0         0         0         0         0         0
         0         0         0         0         0         0         0         0
         0         0         0         0         0         0         0         0
         0         0         0         0         0         0         0         0
         0         0         0         0         0         0         0         0
         0         0         0         0         0         0         0         0
         0         0         0         0         0         0         0         0
         0         0         0         0         0         0         0         0
         0         0         0         0         0         0         0         0
         0         0         0         0         0         0         0         0
         0         0         0         0         0         0         0         0
         0         0         0         0         0         0         0         0
         0         0         0         0         0         0         0         0
         0         0         0         0         0         0         0         0
         0         0         0         0         0         0         0         0
         0         0         0         0         0         0         0         0
         0         0         0         0         0         0         0         0
         0         0         0         0         0         0         0         0
         0         0         0         0         0         0         0         0
         0         0         0         0         0         0         0         0
         0         0         0         0         0         0         0         0
         0         0         0         0         0         0         0         0
         0         0         0         0         0         0         0         0
         0         0         0         0         0         0         0         0
         0         0         0         0         0         0         0         0
         0         0         0         0         0         0         0         0
         0         0         0         0         0         0         0         0
         0         0         0         0         0         0         0         0
         0         0         0         0         0         0         0         0
         0         0         0         0         0         0         0         0
         0         0         0         0         0         0         0         0
         0         0         0         0         0         0         0         0
         0         0         0         0         0         0         0         0
         0         0         0         0         0         0         0         0
         0         0         0         0         0         0         0         0
         0         0         0         0         0         0         0         0
         0         0         0         0         0         0         0         0
         0         0         0         0         0         0         0         0
         0         0         0         0         0         0         0         0
         0         0         0         0         0         0         0         0
         0         0         0         0         0         0         0         0
         0         0         0         0         0         0         0         0
         0         0         0         0         0         0         0         0
         0         0         0         0         0         0         0         0
         0         0         0         0         0         0         0         0
         0         0         0         0         0         0         0         0
         0         0         0         0         0         0         0         0
         0         0         0         0         0         0         0         0
         0         0         0         0         0         0         0         0
         0         0         0         0         0         0         0         0
         0         0         0         0         0         0         0         0
         0         0         0         0         0         0         0         0
         0         0         0         0         0         0         0         0
         0         0         0         0         0         0         0         0
         0         0         0         0         0         0         0         0
         0         0         0         0         0         0         0         0
         0         0         0         0         0         0         0         0
         0         0         0         0         0         0         0         0
         0         0         0         0         0         0         0         0
         0         0         0         0         0         0         0         0
         0         0         0         0         0         0         0         0
         0         0         0         0         0         0         0         0
         0         0         0         0         0         0         0         0
         0         0         0         0         0         0         0         0
         0         0         0         0         0         0         0         0
         0         0         0         0         0         0         0         0
         0         0         0         0         0         0         0         0
         0         0         0         0         0         0         0         0
         0         0         0         0         0         0         0         0
         0         0         0         0         0         0         0         0
         0         0         0         0         0         0         0         0
         0         0         0         0         0         0         0         0
         0         0         0         0         0         0         0         0
         0         0         0         0         0         0         0         0
         0         0         0         0         0         0         0         0
         0         0         0         0         0         0         0         0
         0         0         0         0         0         0         0         0
         0         0         0         0         0         0         0         0
         0         0         0         0         0         0         0         0
         0         0         0         0         0         0         0         0
         0         0         0         0         0         0         0         0
         0         0         0         0         0         0         0         0
         0         0         0         0         0         0         0         0
         0         0         0         0         0         0         0         0
         0         0         0         0         0         0         0         0
         0         0         0         0         0         0         0         0
         0         0         0         0         0         0         0         0
         0         0         0         0         0         0         0         0
         0         0         0         0         0         0         0         0
         0         0         0         0         0         0         0         0
         0         0         0         0         0         0         0         0
         0         0         0         0         0         0         0         0
         0         0         0         0         0         0         0         0
         0         0         0         0         0         0         0         0
         0         0         0         0         0         0         0         0
         0         0         0         0         0         0         0         0
         0         0         0         0         0         0         0         0
         0         0         0         0         0         0         0         0
         0         0         0         0         0         0         0         0
         0         0         0         0         0         0         0         0
         0         0         0         0         0         0         0         0
         0         0         0         0         0         0         0         0
         0         0         0         0         0         0         0         0
         0         0         0         0         0         0         0         0
         0         0         0         0         0         0         0         0
         0         0         0         0         0         0         0         0
         0         0         0         0         0         0         0         0
         0         0         0         0         0         0         0         0
         0         0         0         0         0         0         0         0
         0         0         0         0         0         0         0         0
         0         0         0         0         0         0         0         0
         0         0         0         0         0         0         0         0
         0         0         0         0         0         0         0         0
         0         0         0         0         0         0         0         0
         0         0         0         0         0         0         0         0
         0         0         0         0         0         0         0         0
         0         0         0         0         0         0         0         0
         0         0         0         0         0         0         0         0
         0         0         0         0         0         0         0         0
         0         0         0         0         0         0         0         0
         0         0         0         0         0         0         0         0
         0         0         0         0         0         0         0         0
         0         0         0         0         0         0         0         0
         0         0         0         0         0         0         0         0
         0         0         0         0         0         0         0         0
         0         0         0         0         0         0         0         0
         0         0         0         0         0         0         0         0
         0         0         0         0         0         0         0         0
         0         0         0         0         0         0         0         0
         0         0         0         0         0         0         0         0
         0         0         0         0         0         0         0         0
         0         0         0         0         0         0         0         0
         0         0         0         0         0         0         0         0
         0         0         0         0         0         0         0         0
         0         0         0         0         0         0         0         0
         0         0         0         0         0         0         0         0
         0         0         0         0         0         0         0         0
         0         0         0         0         0         0         0         0
         0         0         0         0         0         0         0         0
         0         0         0         0         0         0         0         0
         0         0         0         0         0         0         0         0
         0         0         0         0         0         0         0         0
         0         0         0         0         0         0         0         0
         0         0         0         0         0         0         0         0
         0         0         0         0         0         0         0         0
         0         0         0         0         0         0         0         0
         0         0         0         0         0         0         0         0
         0         0         0         0         0         0         0         0
         0         0         0         0         0         0         0         0
         0         0         0         0         0         0         0         0
         0         0         0         0         0         0         0         0
         0         0         0         0         0         0         0         0
         0         0         0         0         0         0         0         0
         0         0         0         0         0         0         0         0
         0         0         0         0         0         0         0         0
         0         0         0         0         0         0         0         0
         0         0         0         0         0         0         0         0
         0         0         0         0         0         0         0         0
         0         0         0         0         0         0         0         0
         0         0         0         0         0         0         0         0
         0         0         0         0         0         0         0         0
         0         0         0         0         0         0         0         0
         0         0         0         0         0         0         0         0
         0         0         0         0         0         0         0         0
         0         0         0         0         0         0         0         0
         0         0         0         0         0         0         0         0
         0         0         0         0         0         0         0         0
         0         0         0         0         0         0         0         0
         0         0         0         0         0         0         0         0
         0         0         0         0         0         0         0         0
         0         0         0         0         0         0         0         0
         0         0         0         0         0         0         0         0
         0         0         0         0         0         0         0         0
         0         0         0         0         0         0         0         0
         0         0         0         0         0         0         0         0
         0         0         0         0         0         0         0         0
         0         0         0         0         0         0         0         0
         0         0         0         0         0         0         0         0
         0         0         0         0         0         0         0         0
         0         0         0         0         0         0         0         0
         0         0         0         0         0         0         0         0
         0         0         0         0         0         0         0         0
         0         0         0         0         0         0         0         0
         0         0         0         0         0         0         0         0
         0         0         0         0         0         0         0         0
         0         0         0         0         0         0         0         0
         0         0         0         0         0         0         0         0
         0         0         0         0         0         0         0         0
         0         0         0         0         0         0         0         0
         0         0         0         0         0         0         0         0
         0         0         0         0         0         0         0         0
         0         0         0         0         0         0         0         0
         0         0         0         0         0         0         0         0
         0         0         0         0         0         0         0         0
         0         0         0         0         0         0         0         0
         0         0         0         0         0         0         0         0
         0         0         0         0         0         0         0         0
         0         0         0         0         0         0         0         0
         0         0         0         0         0         0         0         0
         0         0         0         0         0         0         0         0
         0         0         0         0         0         0         0         0
         0         0         0         0         0         0         0         0
         0         0         0         0         0         0         0         0
         0         0         0         0         0         0         0         0
         0         0         0         0         0         0         0         0
         0         0         0         0         0         0         0         0
         0         0         0         0         0         0         0         0
         0         0         0         0         0         0         0         0
         0         0         0         0         0         0         0         0
         0         0         0         0         0         0         0         0
         0         0         0         0         0         0         0         0
         0         0         0         0         0         0         0         0
         0         0         0         0         0         0         0         0
         0         0         0         0         0         0         0         0
         0         0         0         0         0         0         0         0
         0         0         0         0         0         0         0         0
         0         0         0         0         0         0         0         0
         0         0         0         0         0         0         0         0
         0         0         0         0         0         0         0         0
         0         0         0         0         0         0         0         0
         0         0         0         0         0         0         0         0
         0         0         0         0         0         0         0         0
         0         0         0         0         0         0         0         0
         0         0         0         0         0         0         0         0
         0         0         0         0         0         0         0         0
         0         0         0         0         0         0         0         0
         0         0         0         0         0         0         0         0
         0         0         0         0         0         0         0         0
         0         0         0         0         0         0         0         0
         0         0         0         0         0         0         0         0
         0         0         0         0         0         0         0         0
         0         0         0         0         0         0         0         0
         0         0         0         0         0         0         0         0
         0         0         0         0         0         0         0         0
         0         0         0         0         0         0         0         0
         0         0         0         0         0         0         0         0
         0         0         0         0         0         0         0         0
         0         0         0         0         0         0         0         0
         0         0         0         0         0         0         0         0
         0         0         0         0         0         0         0         0
         0         0         0         0         0         0         0         0
         0         0         0         0         0         0         0         0
         0         0         0         0         0         0         0         0
         0         0         0         0         0         0         0         0
         0         0         0         0         0         0         0         0
         0         0         0         0         0         0         0         0
         0         0         0         0         0         0         0         0
         0         0         0         0         0         0         0         0
         0         0         0         0         0         0         0         0
         0         0         0         0         0         0         0         0
         0         0         0         0         0         0         0         0
         0         0         0         0         0         0         0         0
         0         0         0         0         0         0         0         0
         0         0         0         0         0         0         0         0
         0         0         0         0         0         0         0         0
         0         0         0         0         0         0         0         0
         0         0         0         0         0         0         0         0
         0         0         0         0         0         0         0         0
         0         0         0         0         0         0         0         0
         0         0         0         0         0         0         0         0
         0         0         0         0         0         0         0         0
         0         0         0         0         0         0         0         0
         0         0         0         0         0         0         0         0
         0         0         0         0         0         0         0         0
         0         0         0         0         0         0         0         0
         0         0         0         0         0         0         0         0
         0         0         0         0         0         0         0         0
         0         0         0         0         0         0         0         0
         0         0         0         0         0         0         0         0
         0         0         0         0         0         0         0         0
         0         0         0         0         0         0         0         0
         0         0         0         0         0         0         0         0
         0         0         0         0         0         0         0         0
         0         0         0         0         0         0         0         0
         0         0         0         0         0         0         0         0
         0         0         0         0         0         0         0         0
         0         0         0         0         0         0         0         0
         0         0         0         0         0         0         0         0
         0         0         0         0         0         0         0         0
         0         0         0         0         0         0         0         0
         0         0         0         0         0         0         0         0
         0         0         0         0         0         0         0         0
         0         0         0         0         0         0         0         0
         0         0         0         0         0         0         0         0
         0         0         0         0         0         0         0         0
         0         0         0         0         0         0         0         0
         0         0         0         0         0         0         0         0
         0         0         0         0         0         0         0         0
         0         0         0         0         0         0         0         0
         0         0         0         0         0         0         0         0
         0         0         0         0         0         0         0         0
         0         0         0         0         0         0         0         0
         0         0         0         0         0         0         0         0
         0         0         0         0         0         0         0         0
         0         0         0         0         0         0         0         0
         0         0         0         0         0         0         0         0
         0         0         0         0         0         0         0         0
         0         0         0         0         0         0         0         0
         0         0         0         0         0         0         0         0
         0         0         0         0         0         0         0         0
         0         0         0         0         0         0         0         0
         0         0         0         0         0         0         0         0
         0         0         0         0         0         0         0         0
         0         0         0         0         0         0         0         0
         0         0         0         0         0         0         0         0
         0         0         0         0         0         0         0         0
         0         0         0         0         0         0         0         0
         0         0         0         0         0         0         0         0
         0         0         0         0         0         0         0         0
         0         0         0         0         0         0         0         0
         0         0         0         0         0         0         0         0
         0         0         0         0         0         0         0         0
         0         0         0         0         0         0         0         0
         0         0         0         0         0         0         0         0
         0         0         0         0         0         0         0         0
         0         0         0         0         0         0         0         0
         0         0         0         0         0         0         0         0
         0         0         0         0         0         0         0         0
         0         0         0         0         0         0         0         0
         0         0         0         0         0         0         0         0
         0         0         0         0         0         0         0         0
         0         0         0         0         0         0         0         0
         0         0         0         0         0         0         0         0
         0         0         0         0         0         0         0         0
         0         0         0         0         0         0         0         0
         0         0         0         0         0         0         0         0
         0         0         0         0         0         0         0         0
         0         0         0         0         0         0         0         0
         0         0         0         0         0         0         0         0
         0         0         0         0         0         0         0         0
         0         0         0         0         0         0         0         0
         0         0         0         0         0         0         0         0
         0         0         0         0         0         0         0         0
         0         0         0         0         0         0         0         0
         0         0         0         0         0         0         0         0
         0         0         0         0         0         0         0         0
         0         0         0         0         0         0         0         0
         0         0         0         0         0         0         0         0
         0         0         0         0         0         0         0         0
         0         0         0         0         0         0         0         0
         0         0         0         0         0         0         0         0
         0         0         0         0         0         0         0         0
         0         0         0         0         0         0         0         0
         0         0         0         0         0         0         0         0
         0         0         0         0         0         0         0         0
         0         0         0         0         0         0         0         0
         0         0         0         0         0         0         0         0
         0         0         0         0         0         0         0         0
         0         0         0         0         0         0         0         0
         0         0         0         0         0         0         0         0
         0         0         0         0         0         0         0         0
         0         0         0         0         0         0         0         0
         0         0         0         0         0         0         0         0
         0         0         0         0         0         0         0         0
         0         0         0         0         0         0         0         0
         0         0         0         0         0         0         0         0
         0         0         0         0         0         0         0         0
         0         0         0         0         0         0         0         0
         0         0         0         0         0         0         0         0
         0         0         0         0         0         0         0         0
         0         0         0         0         0         0         0         0
         0         0         0         0         0         0         0         0
         0         0         0         0         0         0         0         0
         0         0         0         0         0         0         0         0
         0         0         0         0         0         0         0         0
         0         0         0         0         0         0         0         0
         0         0         0         0         0         0         0         0
         0         0         0         0         0         0         0         0
         0         0         0         0         0         0         0         0
         0         0         0         0         0         0         0         0
         0         0         0         0         0         0         0         0
         0         0         0         0         0         0         0         0
         0         0         0         0         0         0         0         0
         0         0         0         0         0         0         0         0
         0         0         0         0         0         0         0         0
         0         0         0         0         0         0         0         0
         0         0         0         0         0         0         0         0
         0         0         0         0         0         0         0         0
         0         0         0         0         0         0         0         0
         0         0         0         0         0         0         0         0
         0         0         0         0         0         0         0         0
         0         0         0         0         0         0         0         0
         0         0         0         0         0         0         0         0
         0         0         0         0         0         0         0         0
         0         0         0         0         0         0         0         0
         0         0         0         0         0         0         0         0
         0         0         0         0         0         0         0         0
         0         0         0         0         0         0         0         0
         0         0         0         0         0         0         0         0
         0         0         0         0         0         0         0         0
         0         0         0         0         0         0         0         0
         0         0         0         0         0         0         0         0
         0         0         0         0         0         0         0         0
         0         0         0         0         0         0         0         0
         0         0         0         0         0         0         0         0
         0         0         0         0         0         0         0         0
         0         0         0         0         0         0         0         0
         0         0         0         0         0         0         0         0
         0         0         0         0         0         0         0         0
         0         0         0         0         0         0         0         0
         0         0         0         0         0         0         0         0
         0         0         0         0         0         0         0         0
         0         0         0         0         0         0         0         0
         0         0         0         0         0         0         0         0
         0         0         0         0         0         0         0         0
         0         0         0         0         0         0         0         0
         0         0         0         0         0         0         0         0
         0         0         0         0         0         0         0         0
         0         0         0         0         0         0         0         0
         0         0         0         0         0         0         0         0
         0         0         0         0         0         0         0         0
         0         0         0         0         0         0         0         0
         0         0         0         0         0         0         0         0
         0         0         0         0         0         0         0         0
         0         0         0         0         0         0         0         0
         0         0         0         0         0         0         0         0
         0         0         0         0         0         0         0         0
         0         0         0         0         0         0         0         0
         0         0         0         0         0         0         0         0
         0         0         0         0         0         0         0         0
         0         0         0         0         0         0         0         0
         0         0         0         0         0         0         0         0
         0         0         0         0         0         0         0         0
         0         0         0         0         0         0         0         0
         0         0         0         0         0         0         0         0
         0         0         0         0         0         0         0         0
         0         0         0         0         0         0         0         0
         0         0         0         0         0         0         0         0
         0         0         0         0         0         0         0         0
         0         0         0         0         0         0         0         0
         0         0         0         0         0         0         0         0
         0         0         0         0         0         0         0         0
         0         0         0         0         0         0         0         0
         0         0         0         0         0         0         0         0
         0         0         0         0         0         0         0         0
         0         0         0         0         0         0         0         0
         0         0         0         0         0         0         0         0
         0         0         0         0         0         0         0         0
         0         0         0         0         0         0         0         0
         0         0         0         0         0         0         0         0
         0         0         0         0         0         0         0         0
         0         0         0         0         0         0         0         0
         0         0         0         0         0         0         0         0
         0         0         0         0         0         0         0         0
         0         0         0         0         0         0         0         0
         0         0         0         0         0         0         0         0
         0         0         0         0         0         0         0         0
         0         0         0         0         0         0         0         0
         0         0         0         0         0         0         0         0
         0         0         0         0         0         0         0         0
         0         0         0         0         0         0         0         0
         0         0         0         0         0         0         0         0
         0         0         0         0         0         0         0         0
         0         0         0         0         0         0         0         0
         0         0         0         0         0         0         0         0
         0         0         0         0         0         0         0         0
         0         0         0         0         0         0         0         0
         0         0         0         0         0         0         0         0
         0         0         0         0         0         0         0         0
         0         0         0         0         0         0         0         0
         0         0         0         0         0         0         0         0
         0         0         0         0         0         0         0         0
         0         0         0         0         0         0         0         0
         0         0         0         0         0         0         0         0
         0         0         0         0         0         0         0         0
         0         0         0         0         0         0         0         0
         0         0         0         0         0         0         0         0
         0         0         0         0         0         0         0         0
         0         0         0         0         0         0         0         0
         0         0         0         0         0         0         0         0
         0         0         0         0         0         0         0         0
         0         0         0         0         0         0         0         0
         0         0         0         0         0         0         0         0
         0         0         0         0         0         0         0         0
         0         0         0         0         0         0         0         0
         0         0         0         0         0         0         0         0
         0         0         0         0         0         0         0         0
         0         0         0         0         0         0         0         0
         0         0         0         0         0         0         0         0
         0         0         0         0         0         0         0         0
         0         0         0         0         0         0         0         0
         0         0         0         0         0         0         0         0
         0         0         0         0         0         0         0         0
         0         0         0         0         0         0         0         0
         0         0         0         0         0         0         0         0
         0         0         0         0         0         0         0         0
         0         0         0         0         0         0         0         0
         0         0         0         0         0         0         0         0
         0         0         0         0         0         0         0         0
         0         0         0         0         0         0         0         0
         0         0         0         0         0         0         0         0
         0         0         0         0         0         0         0         0
         0         0         0         0         0         0         0         0
         0         0         0         0         0         0         0         0
         0         0         0         0         0         0         0         0
         0         0         0         0         0         0         0         0
         0         0         0         0         0         0         0         0
         0         0         0         0         0         0         0         0
         0         0         0         0         0         0         0         0
         0         0         0         0         0         0         0         0
         0         0         0         0         0         0         0         0
         0         0         0         0         0         0         0         0
         0         0         0         0         0         0         0         0
         0         0         0         0         0         0         0         0
         0         0         0         0         0         0         0         0
         0         0         0         0         0         0         0         0
         0         0         0         0         0         0         0         0
         0         0         0         0         0         0         0         0
         0         0         0         0         0         0         0         0
         0         0         0         0         0         0         0         0
         0         0         0         0         0         0         0         0
         0         0         0         0         0         0         0         0
         0         0         0         0         0         0         0         0
         0         0         0         0         0         0         0         0
         0         0         0         0         0         0         0         0
         0         0         0         0         0         0         0         0
         0         0         0         0         0         0         0         0
         0         0         0         0         0         0         0         0
         0         0         0         0         0         0         0         0
         0         0         0         0         0         0         0         0
         0         0         0         0         0         0         0         0
         0         0         0         0         0         0         0         0
         0         0         0         0         0         0         0         0
         0         0         0         0         0         0         0         0
         0         0         0         0         0         0         0         0
         0         0         0         0         0         0         0         0
         0         0         0         0         0         0         0         0
         0         0         0         0         0         0         0         0
         0         0         0         0         0         0         0         0
         0         0         0         0         0         0         0         0
         0         0         0         0         0         0         0         0
         0         0         0         0         0         0         0         0
         0         0         0         0         0         0         0         0
         0         0         0         0         0         0         0         0
         0         0         0         0         0         0         0         0
         0         0         0         0         0         0         0         0
         0         0         0         0         0         0         0         0
         0         0         0         0         0         0         0         0
         0         0         0         0         0         0         0         0
         0         0         0         0         0         0         0         0
         0         0         0         0         0         0         0         0
         0         0         0         0         0         0         0         0
         0         0         0         0         0         0         0         0
         0         0         0         0         0         0         0         0
         0         0         0         0         0         0         0         0
         0         0         0         0         0         0         0         0
         0         0         0         0         0         0         0         0
         0         0         0         0         0         0         0         0
         0         0         0         0         0         0         0         0
         0         0         0         0         0         0         0         0
         0         0         0         0         0         0         0         0
         0         0         0         0         0         0         0         0
         0         0         0         0         0         0         0         0
         0         0         0         0         0         0         0         0
         0         0         0         0         0         0         0         0
         0         0         0         0         0         0         0         0
         0         0         0         0         0         0         0         0
         0         0         0         0         0         0         0         0
         0         0         0         0         0         0         0         0
         0         0         0         0         0         0         0         0
         0         0         0         0         0         0         0         0
         0         0         0         0         0         0         0         0
         0         0         0         0         0         0         0         0
         0         0         0         0         0         0         0         0
         0         0         0         0         0         0         0         0
         0         0         0         0         0         0         0         0
         0         0         0         0         0         0         0         0
         0         0         0         0         0         0         0         0
         0         0         0         0         0         0         0         0
         0         0         0         0         0         0         0         0
         0         0         0         0         0         0         0         0
         0         0         0         0         0         0         0         0
         0         0         0         0         0         0         0         0
         0         0         0         0         0         0         0         0
         0         0         0         0         0         0         0         0
         0         0         0         0         0         0         0         0
         0         0         0         0         0         0         0         0
         0         0         0         0         0         0         0         0
         0         0         0         0         0         0         0         0
         0         0         0         0         0         0         0         0
         0         0         0         0         0         0         0         0
         0         0         0         0         0         0         0         0
         0         0         0         0         0         0         0         0
         0         0         0         0         0         0         0         0
         0         0         0         0         0         0         0         0
         0         0         0         0         0         0         0         0
         0         0         0         0         0         0         0         0
         0         0         0         0         0         0         0         0
         0         0         0         0         0         0         0         0
         0         0         0         0         0         0         0         0
         0         0         0         0         0         0         0         0
         0         0         0         0         0         0         0         0
         0         0         0         0         0         0         0         0
         0         0         0         0         0         0         0         0
         0         0         0         0         0         0         0         0
         0         0         0         0         0         0         0         0
         0         0         0         0         0         0         0         0
         0         0         0         0         0         0         0         0
         0         0         0         0         0         0         0         0
         0         0         0         0         0         0         0         0
         0         0         0         0         0         0         0         0
         0         0         0         0         0         0         0         0
         0         0         0         0         0         0         0         0
         0         0         0         0         0         0         0         0
         0         0         0         0         0         0         0         0
         0         0         0         0         0         0         0         0
         0         0         0         0         0         0         0         0
         0         0         0         0         0         0         0         0
         0         0         0         0         0         0         0         0
         0         0         0         0         0         0         0         0
         0         0         0         0         0         0         0         0
         0         0         0         0         0         0         0         0
         0         0         0         0         0         0         0         0
         0         0         0         0         0         0         0         0
         0         0         0         0         0         0         0         0
         0         0         0         0         0         0         0         0
         0         0         0         0         0         0         0         0
         0         0         0         0         0         0         0         0
         0         0         0         0         0         0         0         0
         0         0         0         0         0         0         0         0
         0         0         0         0         0         0         0         0
         0         0         0         0         0         0         0         0
         0         0         0         0         0         0         0         0
         0         0         0         0         0         0         0         0
         0         0         0         0         0         0         0         0
         0         0         0         0         0         0         0         0
         0         0         0         0         0         0         0         0
         0         0         0         0         0         0         0         0
         0         0         0         0         0         0         0         0
         0         0         0         0         0         0         0         0
         0         0         0         0         0         0         0         0
         0         0         0         0         0         0         0         0
         0         0         0         0         0         0         0         0
         0         0         0         0         0         0         0         0
         0         0         0         0         0         0         0         0
         0         0         0         0         0         0         0         0
         0         0         0         0         0         0         0         0
         0         0         0         0         0         0         0         0
         0         0         0         0         0         0         0         0
         0         0         0         0         0         0         0         0
         0         0         0         0         0         0         0         0
         0         0         0         0         0         0         0         0
         0         0         0         0         0         0         0         0
         0         0         0         0         0         0         0         0
         0         0         0         0         0         0         0         0
         0         0         0         0         0         0         0         0
         0         0         0         0         0         0         0         0
         0         0         0         0         0         0         0         0
         0         0         0         0         0         0         0         0
         0         0         0         0         0         0         0         0
         0         0         0         0         0         0         0         0
         0         0         0         0         0         0         0         0
         0         0         0         0         0         0         0         0
         0         0         0         0         0         0         0         0
         0         0         0         0         0         0         0         0
         0         0         0         0         0         0         0         0
         0         0         0         0         0         0         0         0
         0         0         0         0         0         0         0         0
         0         0         0         0         0         0         0         0
         0         0         0         0         0         0         0         0
         0         0         0         0         0         0         0         0
         0         0         0         0         0         0         0         0
         0         0         0         0         0         0         0         0
         0         0         0         0         0         0         0         0
         0         0         0         0         0         0         0         0
         0         0         0         0         0         0         0         0
         0         0         0         0         0         0         0         0
         0         0         0         0         0         0         0         0
         0         0         0         0         0         0         0         0
         0         0         0         0         0         0         0         0
         0         0         0         0         0         0         0         0
         0         0         0         0         0         0         0         0
         0         0         0         0         0         0         0         0
         0         0         0         0         0         0         0         0
         0         0         0         0         0         0         0         0
         0         0         0         0         0         0         0         0
         0         0         0         0         0         0         0         0
         0         0         0         0         0         0         0         0
         0         0         0         0         0         0         0         0
         0         0         0         0         0         0         0         0
         0         0         0         0         0         0         0         0
         0         0         0         0         0         0         0         0
         0         0         0         0         0         0         0         0
         0         0         0         0         0         0         0         0
         0         0         0         0         0         0         0         0
         0         0         0         0         0         0         0         0
         0         0         0         0         0         0         0         0
         0         0         0         0         0         0         0         0
         0         0         0         0         0         0         0         0
         0         0         0         0         0         0         0         0
         0         0         0         0         0         0         0         0
         0         0         0         0         0         0         0         0
         0         0         0         0         0         0         0         0
         0         0         0         0         0         0         0         0
         0         0         0         0         0         0         0         0
         0         0         0         0         0         0         0         0
         0         0         0         0         0         0         0         0
         0         0         0         0         0         0         0         0
         0         0         0         0         0         0         0         0
         0         0         0         0         0         0         0         0
         0         0         0         0         0         0         0         0
         0         0         0         0         0         0         0         0
         0         0         0         0         0         0         0         0
         0         0         0         0         0         0         0         0
         0         0         0         0         0         0         0         0
         0         0         0         0         0         0         0         0
         0         0         0         0         0         0         0         0
         0         0         0         0         0         0         0         0
         0         0         0         0         0         0         0         0
         0         0         0         0         0         0         0         0
         0         0         0         0         0         0         0         0
         0         0         0         0         0         0         0         0
         0         0         0         0         0         0         0         0
         0         0         0         0         0         0         0         0
         0         0         0         0         0         0         0         0
         0         0         0         0         0         0         0         0
         0         0         0         0         0         0         0         0
         0         0         0         0         0         0         0         0
         0         0         0         0         0         0         0         0
         0         0         0         0         0         0         0         0
         0         0         0         0         0         0         0         0
         0         0         0         0         0         0         0         0
         0         0         0         0         0         0         0         0
         0         0         0         0         0         0         0         0
         0         0         0         0         0         0         0         0
         0         0         0         0         0         0         0         0
         0         0         0         0         0         0         0         0
         0         0         0         0         0         0         0         0
         0         0         0         0         0         0         0         0
         0         0         0         0         0         0         0         0
         0         0         0         0         0         0         0         0
         0         0         0         0         0         0         0         0
         0         0         0         0         0         0         0         0
         0         0         0         0         0         0         0         0
         0         0         0         0         0         0         0         0
         0         0         0         0         0         0         0         0
         0         0         0         0         0         0         0         0
         0         0         0         0         0         0         0         0
         0         0         0         0         0         0         0         0
         0         0         0         0         0         0         0         0
         0         0         0         0         0         0         0         0
         0         0         0         0         0         0         0         0
         0         0         0         0         0         0         0         0
         0         0         0         0         0         0         0         0
         0         0         0         0         0         0         0         0
         0         0         0         0         0         0         0         0
         0         0         0         0         0         0         0         0
         0         0         0         0         0         0         0         0
         0         0         0         0         0         0         0         0
         0         0         0         0         0         0         0         0
         0         0         0         0         0         0         0         0
         0         0         0         0         0         0         0         0
         0         0         0         0         0         0         0         0
         0         0         0         0         0         0         0         0
         0         0         0         0         0         0         0         0
         0         0         0         0         0         0         0         0
         0         0         0         0         0         0         0         0
         0         0         0         0         0         0         0         0
         0         0         0         0         0         0         0         0
         0         0         0         0         0         0         0         0
         0         0         0         0         0         0         0         0
         0         0         0         0         0         0         0         0
         0         0         0         0         0         0         0         0
         0         0         0         0         0         0         0         0
         0         0         0         0         0         0         0         0
         0         0         0         0         0         0         0         0
         0         0         0         0         0         0         0         0
         0         0         0         0         0         0         0         0
         0         0         0         0         0         0         0         0
         0         0         0         0         0         0         0         0
         0         0         0         0         0         0         0         0
         0         0         0         0         0         0         0         0
         0         0         0         0         0         0         0         0
         0         0         0         0         0         0         0         0
         0         0         0         0         0         0         0         0
         0         0         0         0         0         0         0         0
         0         0         0         0         0         0         0         0
         0         0         0         0         0         0         0         0
         0         0         0         0         0         0         0         0
         0         0         0         0         0         0         0         0
         0         0         0         0         0         0         0         0
         0         0         0         0         0         0         0         0
         0         0         0         0         0         0         0         0
         0         0         0         0         0         0         0         0
         0         0         0         0         0         0         0         0
         0         0         0         0         0         0         0         0
         0         0         0         0         0         0         0         0
         0         0         0         0         0         0         0         0
         0         0         0         0         0         0         0         0
         0         0         0         0         0         0         0         0
         0         0         0         0         0         0         0         0
         0         0         0         0         0         0         0         0
         0         0         0         0         0         0         0         0
         0         0         0         0         0         0         0         0
         0         0         0         0         0         0         0         0
         0         0         0         0         0         0         0         0
         0         0         0         0         0         0         0         0
         0         0         0         0         0         0         0         0
         0         0         0         0         0         0         0         0
         0         0         0         0         0         0         0         0
         0         0         0         0         0         0         0         0
         0         0         0         0         0         0         0         0
         0         0         0         0         0         0         0         0
         0         0         0         0         0         0         0         0
         0         0         0         0         0         0         0         0
         0         0         0         0         0         0         0         0
         0         0         0         0         0         0         0         0
         0         0         0         0         0         0         0         0
         0         0         0         0         0         0         0         0
         0         0         0         0         0         0         0         0
         0         0         0         0         0         0         0         0
         0         0         0         0         0         0         0         0
         0         0         0         0         0         0         0         0
         0         0         0         0         0         0         0         0
         0         0         0         0         0         0         0         0
         0         0         0         0         0         0         0         0
         0         0         0         0         0         0         0         0
         0         0         0         0         0         0         0         0
         0         0         0         0         0         0         0         0
         0         0         0         0         0         0         0         0
         0         0         0         0         0         0         0         0
         0         0         0         0         0         0         0         0
         0         0         0         0         0         0         0         0
         0         0         0         0         0         0         0         0
         0         0         0         0         0         0         0         0
         0         0         0         0         0         0         0         0
         0         0         0         0         0         0         0         0
         0         0         0         0         0         0         0         0
         0         0         0         0         0         0         0         0
         0         0         0         0         0         0         0         0
         0         0         0         0         0         0         0         0
         0         0         0         0         0         0         0         0
         0         0         0         0         0         0         0         0
         0         0         0         0         0         0         0         0
         0         0         0         0         0         0         0         0
         0         0         0         0         0         0         0         0
         0         0         0         0         0         0         0         0
         0         0         0         0         0         0         0         0
         0         0         0         0         0         0         0         0
         0         0         0         0         0         0         0         0
         0         0         0         0         0         0         0         0
         0         0         0         0         0         0         0         0
         0         0         0         0         0         0         0         0
         0         0         0         0         0         0         0         0
         0         0         0         0         0         0         0         0
         0         0         0         0         0         0         0         0
         0         0         0         0         0         0         0         0
         0         0         0         0         0         0         0         0
         0         0         0         0         0         0         0         0
         0         0         0         0         0         0         0         0
         0         0         0         0         0         0         0         0
         0         0         0         0         0         0         0         0
         0         0         0         0         0         0         0         0
         0         0         0         0         0         0         0         0
         0         0         0         0         0         0         0         0
         0         0         0         0         0         0         0         0
         0         0         0         0         0         0         0         0
         0         0         0         0         0         0         0         0
         0         0         0         0         0         0         0         0
         0         0         0         0         0         0         0         0
         0         0         0         0         0         0         0         0
         0         0         0         0         0         0         0         0
         0         0         0         0         0         0         0         0
         0         0         0         0         0         0         0         0
         0         0         0         0         0         0         0         0
         0         0         0         0         0         0         0         0
         0         0         0         0         0         0         0         0
         0         0         0         0         0         0         0         0
         0         0         0         0         0         0         0         0
         0         0         0         0         0         0         0         0
         0         0         0         0         0         0         0         0
         0         0         0         0         0         0         0         0
         0         0         0         0         0         0         0         0
         0         0         0         0         0         0         0         0
         0         0         0         0         0         0         0         0
         0         0         0         0         0         0         0         0
         0         0         0         0         0         0         0         0
         0         0         0         0         0         0         0         0
         0         0         0         0         0         0         0         0
         0         0         0         0         0         0         0         0
         0         0         0         0         0         0         0         0
         0         0         0         0         0         0         0         0
         0         0         0         0         0         0         0         0
         0         0         0         0         0         0         0         0
         0         0         0         0         0         0         0         0
         0         0         0         0         0         0         0         0
         0         0         0         0         0         0         0         0
         0         0         0         0         0         0         0         0
         0         0         0         0         0         0         0         0
         0         0         0         0         0         0         0         0
         0         0         0         0         0         0         0         0
         0         0         0         0         0         0         0         0
         0         0         0         0         0         0         0         0
         0         0         0         0         0         0         0         0
         0         0         0         0         0         0         0         0
         0         0         0         0         0         0         0         0
         0         0         0         0         0         0         0         0
         0         0         0         0         0         0         0         0
         0         0         0         0         0         0         0         0
         0         0         0         0         0         0         0         0
         0         0         0         0         0         0         0         0
         0         0         0         0         0         0         0         0
         0         0         0         0         0         0         0         0
         0         0         0         0         0         0         0         0
         0         0         0         0         0         0         0         0
         0         0         0         0         0         0         0         0
         0         0         0         0         0         0         0         0
         0         0         0         0         0         0         0         0
         0         0         0         0         0         0         0         0
         0         0         0         0         0         0         0         0
         0         0         0         0         0         0         0         0
         0         0         0         0         0         0         0         0
         0         0         0         0         0         0         0         0
         0         0         0         0         0         0         0         0
         0         0         0         0         0         0         0         0
         0         0         0         0         0         0         0         0
         0         0         0         0         0         0         0         0
         0         0         0         0         0         0         0         0
         0         0         0         0         0         0         0         0
         0         0         0         0         0         0         0         0
         0         0         0         0         0         0         0         0
         0         0         0         0         0         0         0         0
         0         0         0         0         0         0         0         0
         0         0         0         0         0         0         0         0
         0         0         0         0         0         0         0         0
         0         0         0         0         0         0         0         0
         0         0         0         0         0         0         0         0
         0         0         0         0         0         0         0         0
         0         0         0         0         0         0         0         0
         0         0         0         0         0         0         0         0
         0         0         0         0         0         0         0         0
         0         0         0         0         0         0         0         0
         0         0         0         0         0         0         0         0
         0         0         0         0         0         0         0         0
         0         0         0         0         0         0         0         0
         0         0         0         0         0         0         0         0
         0         0         0         0         0         0         0         0
         0         0         0         0         0         0         0         0
         0         0         0         0         0         0         0         0
         0         0         0         0         0         0         0         0
         0         0         0         0         0         0         0         0
         0         0         0         0         0         0         0         0
         0         0         0         0         0         0         0         0
         0         0         0         0         0         0         0         0
         0         0         0         0         0         0         0         0
         0         0         0         0         0         0         0         0
         0         0         0         0         0         0         0         0
         0         0         0         0         0         0         0         0
         0         0         0         0         0         0         0         0
         0         0         0         0         0         0         0         0
         0         0         0         0         0         0         0         0
         0         0         0         0         0         0         0         0
         0         0         0         0         0         0         0         0
         0         0         0         0         0         0         0         0
         0         0         0         0         0         0         0         0
         0         0         0         0         0         0         0         0
         0         0         0         0         0         0         0         0
         0         0         0         0         0         0         0         0
         0         0         0         0         0         0         0         0
         0         0         0         0         0         0         0         0
         0         0         0         0         0         0         0         0
         0         0         0         0         0         0         0         0
         0         0         0         0         0         0         0         0
         0         0         0         0         0         0         0         0
         0         0         0         0         0         0         0         0
         0         0         0         0         0         0         0         0
         0         0         0         0         0         0         0         0
         0         0         0         0         0         0         0         0
         0         0         0         0         0         0         0         0
         0         0         0         0         0         0         0         0
         0         0         0         0         0         0         0         0
         0         0         0         0         0         0         0         0
         0         0         0         0         0         0         0         0
         0         0         0         0         0         0         0         0
         0         0         0         0         0         0         0         0
         0         0         0         0         0         0         0         0
         0         0         0         0         0         0         0         0
         0         0         0         0         0         0         0         0
         0         0         0         0         0         0         0         0
         0         0         0         0         0         0         0         0
         0         0         0         0         0         0         0         0
         0         0         0         0         0         0         0         0
         0         0         0         0         0         0         0         0
         0         0         0         0         0         0         0         0
         0         0         0         0         0         0         0         0
         0         0         0         0         0         0         0         0
         0         0         0         0         0         0         0         0
         0         0         0         0         0         0         0         0
         0         0         0         0         0         0         0         0
         0         0         0         0         0         0         0         0
         0         0         0         0         0         0         0         0
         0         0         0         0         0         0         0         0
         0         0         0         0         0         0         0         0
         0         0         0         0         0         0         0         0
         0         0         0         0         0         0         0         0
         0         0         0         0         0         0         0         0
         0         0         0         0         0         0         0         0
         0         0         0         0         0         0         0         0
         0         0         0         0         0         0         0         0
         0         0         0         0         0         0         0         0
         0         0         0         0         0         0         0         0
         0         0         0         0         0         0         0         0
         0         0         0         0         0         0         0         0
         0         0         0         0         0         0         0         0
         0         0         0         0         0         0         0         0
         0         0         0         0         0         0         0         0
         0         0         0         0         0         0         0         0
         0         0         0         0         0         0         0         0
         0         0         0         0         0         0         0         0
         0         0         0         0         0         0         0         0
         0         0         0         0         0         0         0         0
         0         0         0         0         0         0         0         0
         0         0         0         0         0         0         0         0
         0         0         0         0         0         0         0         0
         0         0         0         0         0         0         0         0
         0         0         0         0         0         0         0         0
         0         0         0         0         0         0         0         0
         0         0         0         0         0         0         0         0
         0         0         0         0         0         0         0         0
         0         0         0         0         0         0         0         0
         0         0         0         0         0         0         0         0
         0         0         0         0         0         0         0         0
         0         0         0         0         0         0         0         0
         0         0         0         0         0         0         0         0
         0         0         0         0         0         0         0         0
         0         0         0         0         0         0         0         0
         0         0         0         0         0         0         0         0
         0         0         0         0         0         0         0         0
         0         0         0         0         0         0         0         0
         0         0         0         0         0         0         0         0
         0         0         0         0         0         0         0         0
         0         0         0         0         0         0         0         0
         0         0         0         0         0         0         0         0
         0         0         0         0         0         0         0         0
         0         0         0         0         0         0         0         0
         0         0         0         0         0         0         0         0
         0         0         0         0         0         0         0         0
         0         0         0         0         0         0         0         0
         0         0         0         0         0         0         0         0
         0         0         0         0         0         0         0         0
         0         0         0         0         0         0         0         0
         0         0         0         0         0         0         0         0
         0         0         0         0         0         0         0         0
         0         0         0         0         0         0         0         0
         0         0         0         0         0         0         0         0
         0         0         0         0         0         0         0         0
         0         0         0         0         0         0         0         0
         0         0         0         0         0         0         0         0
         0         0         0         0         0         0         0         0
         0         0         0         0         0         0         0         0
         0         0         0         0         0         0         0         0
         0         0         0         0         0         0         0         0
         0         0         0         0         0         0         0         0
         0         0         0         0         0         0         0         0
         0         0         0         0         0         0         0         0
         0         0         0         0         0         0         0         0
         0         0         0         0         0         0         0         0
         0         0         0         0         0         0         0         0
         0         0         0         0         0         0         0         0
         0         0         0         0         0         0         0         0
         0         0         0         0         0         0         0         0
         0         0         0         0         0         0         0         0
         0         0         0         0         0         0         0         0
         0         0         0         0         0         0         0         0
         0         0         0         0         0         0         0         0
         0         0         0         0         0         0         0         0
         0         0         0         0         0         0         0         0
         0         0         0         0         0         0         0         0
         0         0         0         0         0         0         0         0
         0         0         0         0         0         0         0         0
         0         0         0         0         0         0         0         0
         0         0         0         0         0         0         0         0
         0         0         0         0         0         0         0         0
         0         0         0         0         0         0         0         0
         0         0         0         0         0         0         0         0
         0         0         0         0         0         0         0         0
         0         0         0         0         0         0         0         0
         0         0         0         0         0         0         0         0
         0         0         0         0         0         0         0         0
         0         0         0         0         0         0         0         0
         0         0         0         0         0         0         0         0
         0         0         0         0         0         0         0         0
         0         0         0         0         0         0         0         0
         0         0         0         0         0         0         0         0
         0         0         0         0         0         0         0         0
         0         0         0         0         0         0         0         0
         0         0         0         0         0         0         0         0
         0         0         0         0         0         0         0         0
         0         0         0         0         0         0         0         0
         0         0         0         0         0         0         0         0
         0         0         0         0         0         0         0         0
         0         0         0         0         0         0         0         0
         0         0         0         0         0         0         0         0
         0         0         0         0         0         0         0         0
         0         0         0         0         0         0         0         0
         0         0         0         0         0         0         0         0
         0         0         0         0         0         0         0         0
         0         0         0         0         0         0         0         0
         0         0         0         0         0         0         0         0
         0         0         0         0         0         0         0         0
         0         0         0         0         0         0         0         0
         0         0         0         0         0         0         0         0
         0         0         0         0         0         0         0         0
         0         0         0         0         0         0         0         0
         0         0         0         0         0         0         0         0
         0         0         0         0         0         0         0         0
         0         0         0         0         0         0         0         0
         0         0         0         0         0         0         0         0
         0         0         0         0         0         0         0         0
         0         0         0         0         0         0         0         0
         0         0         0         0         0         0         0         0
         0         0         0         0         0         0         0         0
         0         0         0         0         0         0         0         0
         0         0         0         0         0         0         0         0
         0         0         0         0         0         0         0         0
         0         0         0         0         0         0         0         0
         0         0         0         0         0         0         0         0
         0         0         0         0         0         0         0         0
         0         0         0         0         0         0         0         0
         0         0         0         0         0         0         0         0
         0         0         0         0         0         0         0         0
         0         0         0         0         0         0         0         0
         0         0         0         0         0         0         0         0
         0         0         0         0         0         0         0         0
         0         0         0         0         0         0         0         0
         0         0         0         0         0         0         0         0
         0         0         0         0         0         0         0         0
         0         0         0         0         0         0         0         0
         0         0         0         0         0         0         0         0
         0         0         0         0         0         0         0         0
         0         0         0         0         0         0         0         0
         0         0         0         0         0         0         0         0
         0         0         0         0         0         0         0         0
         0         0         0         0         0         0         0         0
         0         0         0         0         0         0         0         0
         0         0         0         0         0         0         0         0
         0         0         0         0         0         0         0         0
         0         0         0         0         0         0         0         0
         0         0         0         0         0         0         0         0
         0         0         0         0         0         0         0         0
         0         0         0         0         0         0         0         0
         0         0         0         0         0         0         0         0
         0         0         0         0         0         0         0         0
         0         0         0         0         0         0         0         0
         0         0         0         0         0         0         0         0
         0         0         0         0         0         0         0         0
         0         0         0         0         0         0         0         0
         0         0         0         0         0         0         0         0
         0         0         0         0         0         0         0         0
         0         0         0         0         0         0         0         0
         0         0         0         0         0         0         0         0
         0         0         0         0         0         0         0         0
         0         0         0         0         0         0         0         0
         0         0         0         0         0         0         0         0
         0         0         0         0         0         0         0         0
         0         0         0         0         0         0         0         0
         0         0         0         0         0         0         0         0
         0         0         0         0         0         0         0         0
         0         0         0         0         0         0         0         0
         0         0         0         0         0         0         0         0
         0         0         0         0         0         0         0         0
         0         0         0         0         0         0         0         0
         0         0         0         0         0         0         0         0
         0         0         0         0         0         0         0         0
         0         0         0         0         0         0         0         0
         0         0         0         0         0         0         0         0
         0         0         0         0         0         0         0         0
         0         0         0         0         0         0         0         0
         0         0         0         0         0         0         0         0
         0         0         0         0         0         0         0         0
         0         0         0         0         0         0         0         0
         0         0         0         0         0         0         0         0
         0         0         0         0         0         0         0         0
         0         0         0         0         0         0         0         0
         0         0         0         0         0         0         0         0
         0         0         0         0         0         0         0         0
         0         0         0         0         0         0         0         0
         0         0         0         0         0         0         0         0
         0         0         0         0         0         0         0         0
         0         0         0         0         0         0         0         0
         0         0         0         0         0         0         0         0
         0         0         0         0         0         0         0         0
         0         0         0         0         0         0         0         0
         0         0         0         0         0         0         0         0
         0         0         0         0         0         0         0         0
         0         0         0         0         0         0         0         0
         0         0         0         0         0         0         0         0
         0         0         0         0         0         0         0         0
         0         0         0         0         0         0         0         0
         0         0         0         0         0         0         0         0
         0         0         0         0         0         0         0         0
         0         0         0         0         0         0         0         0
         0         0         0         0         0         0         0         0
         0         0         0         0         0         0         0         0
         0         0         0         0         0         0         0         0
         0         0         0         0         0         0         0         0
         0         0         0         0         0         0         0         0
         0         0         0         0         0         0         0         0
         0         0         0         0         0         0         0         0
         0         0         0         0         0         0         0         0
         0         0         0         0         0         0         0         0
         0         0         0         0         0         0         0         0
         0         0         0         0         0         0         0         0
         0         0         0         0         0         0         0         0
         0         0         0         0         0         0         0         0
         0         0         0         0         0         0         0         0
         0         0         0         0         0         0         0         0
         0         0         0         0         0         0         0         0
         0         0         0         0         0         0         0         0
         0         0         0         0         0         0         0         0
         0         0         0         0         0         0         0         0
         0         0         0         0         0         0         0         0
         0         0         0         0         0         0         0         0
         0         0         0         0         0         0         0         0
         0         0         0         0         0         0         0         0
         0         0         0         0         0         0         0         0
         0         0         0         0         0         0         0         0
         0         0         0         0         0         0         0         0
         0         0         0         0         0         0         0         0
         0         0         0         0         0         0         0         0
         0         0         0         0         0         0         0         0
         0         0         0         0         0         0         0         0
         0         0         0         0         0         0         0         0
         0         0         0         0         0         0         0         0
         0         0         0         0         0         0         0         0
         0         0         0         0         0         0         0         0
         0         0         0         0         0         0         0         0
         0         0         0         0         0         0         0         0
         0         0         0         0         0         0         0         0
         0         0         0         0         0         0         0         0
         0         0         0         0         0         0         0         0
         0         0         0         0         0         0         0         0
         0         0         0         0         0         0         0         0
         0         0         0         0         0         0         0         0
         0         0         0         0         0         0         0         0
         0         0         0         0         0         0         0         0
         0         0         0         0         0         0         0         0
         0         0         0         0         0         0         0         0
         0         0         0         0         0         0         0         0
         0         0         0         0         0         0         0         0
         0         0         0         0         0         0         0         0
         0         0         0         0         0         0         0         0
         0         0         0         0         0         0         0         0
         0         0         0         0         0         0         0         0
         0         0         0         0         0         0         0         0
         0         0         0         0         0         0         0         0
         0         0         0         0         0         0         0         0
         0         0         0         0         0         0         0         0
         0         0         0         0         0         0         0         0
         0         0         0         0         0         0         0         0
         0         0         0         0         0         0         0         0
         0         0         0         0         0         0         0         0
         0         0         0         0         0         0         0         0
         0         0         0         0         0         0         0         0
         0         0         0         0         0         0         0         0
         0         0         0         0         0         0         0         0
         0         0         0         0         0         0         0         0
         0         0         0         0         0         0         0         0
         0         0         0         0         0         0         0         0
         0         0         0         0         0         0         0         0
         0         0         0         0         0         0         0         0
         0         0         0         0         0         0         0         0
         0         0         0         0         0         0         0         0
         0         0         0         0         0         0         0         0
         0         0         0         0         0         0         0         0
         0         0         0         0         0         0         0         0
         0         0         0         0         0         0         0         0
         0         0         0         0         0         0         0         0
         0         0         0         0         0         0         0         0
         0         0         0         0         0         0         0         0
         0         0         0         0         0         0         0         0
         0         0         0         0         0         0         0         0
         0         0         0         0         0         0         0         0
         0         0         0         0         0         0         0         0
         0         0         0         0         0         0         0         0
         0         0         0         0         0         0         0         0
         0         0         0         0         0         0         0         0
         0         0         0         0         0         0         0         0
         0         0         0         0         0         0         0         0
         0         0         0         0         0         0         0         0
         0         0         0         0         0         0         0         0
         0         0         0         0         0         0         0         0
         0         0         0         0         0         0         0         0
         0         0         0         0         0         0         0         0
         0         0         0         0         0         0         0         0
         0         0         0         0         0         0         0         0
         0         0         0         0         0         0         0         0
         0         0         0         0         0         0         0         0
         0         0         0         0         0         0         0         0
         0         0         0         0         0         0         0         0
         0         0         0         0         0         0         0         0
         0         0         0         0         0         0         0         0
         0         0         0         0         0         0         0         0
         0         0         0         0         0         0         0         0
         0         0         0         0         0         0         0         0
         0         0         0         0         0         0         0         0
         0         0         0         0         0         0         0         0
         0         0         0         0         0         0         0         0
         0         0         0         0         0         0         0         0
         0         0         0         0         0         0         0         0
         0         0         0         0         0         0         0         0
         0         0         0         0         0         0         0         0
         0         0         0         0         0         0         0         0
         0         0         0         0         0         0         0         0
         0         0         0         0         0         0         0         0
         0         0         0         0         0         0         0         0
         0         0         0         0         0         0         0         0
         0         0         0         0         0         0         0         0
         0         0         0         0         0         0         0         0
         0         0         0         0         0         0         0         0
         0         0         0         0         0         0         0         0
         0         0         0         0         0         0         0         0
         0         0         0         0         0         0         0         0
         0         0         0         0         0         0         0         0
         0         0         0         0         0         0         0         0
         0         0         0         0         0         0         0         0
         0         0         0         0         0         0         0         0
         0         0         0         0         0         0         0         0
         0         0         0         0         0         0         0         0
         0         0         0         0         0         0         0         0
         0         0         0         0         0         0         0         0
         0         0         0         0         0         0         0         0
         0         0         0         0         0         0         0         0
         0         0         0         0         0         0         0         0
         0         0         0         0         0         0         0         0
         0         0         0         0         0         0         0         0
         0         0         0         0         0         0         0         0
         0         0         0         0         0         0         0         0
         0         0         0         0         0         0         0         0
         0         0         0         0         0         0         0         0
         0         0         0         0         0         0         0         0
         0         0         0         0         0         0         0         0
         0         0         0         0         0         0         0         0
         0         0         0         0         0         0         0         0
         0         0         0         0         0         0         0         0
         0         0         0         0         0         0         0         0
         0         0         0         0         0         0         0         0
         0         0         0         0         0         0         0         0
         0         0         0         0         0         0         0         0
         0         0         0         0         0         0         0         0
         0         0         0         0         0         0         0         0
         0         0         0         0         0         0         0         0
         0         0         0         0         0         0         0         0
         0         0         0         0         0         0         0         0
         0         0         0         0         0         0         0         0
         0         0         0         0         0         0         0         0
         0         0         0         0         0         0         0         0
         0         0         0         0         0         0         0         0
         0         0         0         0         0         0         0         0
         0         0         0         0         0         0         0         0
         0         0         0         0         0         0         0         0
         0         0         0         0         0         0         0         0
         0         0         0         0         0         0         0         0
         0         0         0         0         0         0         0         0
         0         0         0         0         0         0         0         0
         0         0         0         0         0         0         0         0
         0         0         0         0         0         0         0         0
         0         0         0         0         0         0         0         0
         0         0         0         0         0         0         0         0
         0         0         0         0         0         0         0         0
         0         0         0         0         0         0         0         0
         0         0         0         0         0         0         0         0
         0         0         0         0         0         0         0         0
         0         0         0         0         0         0         0         0
         0         0         0         0         0         0         0         0
         0         0         0         0         0         0         0         0
         0         0         0         0         0         0         0         0
         0         0         0         0         0         0         0         0
         0         0         0         0         0         0         0         0
         0         0         0         0         0         0         0         0
         0         0         0         0         0         0         0         0
         0         0         0         0         0         0         0         0
         0         0         0         0         0         0         0         0
         0         0         0         0         0         0         0         0
         0         0         0         0         0         0         0         0
         0         0         0         0         0         0         0         0
         0         0         0         0         0         0         0         0
         0         0         0         0         0         0         0         0
         0         0         0         0         0         0         0         0
         0         0         0         0         0         0         0         0
         0         0         0         0         0         0         0         0
         0         0         0         0         0         0         0         0
         0         0         0         0         0         0         0         0
         0         0         0         0         0         0         0         0
         0         0         0         0         0         0         0         0
         0         0         0         0         0         0         0         0
         0         0         0         0         0         0         0         0
         0         0         0         0         0         0         0         0
         0         0         0         0         0         0         0         0
         0         0         0         0         0         0         0         0
         0         0         0         0         0         0         0         0
         0         0         0         0         0         0         0         0
         0         0         0         0         0         0         0         0
         0         0         0         0         0         0         0         0
         0         0         0         0         0         0         0         0
         0         0         0         0         0         0         0         0
         0         0         0         0         0         0         0         0
         0         0         0         0         0         0         0         0
         0         0         0         0         0         0         0         0
         0         0         0         0         0         0         0         0
         0         0         0         0         0         0         0         0
         0         0         0         0         0         0         0         0
         0         0         0         0         0         0         0         0
         0         0         0         0         0         0         0         0
         0         0         0         0         0         0         0         0
         0         0         0         0         0         0         0         0
         0         0         0         0         0         0         0         0
         0         0         0         0         0         0         0         0
         0         0         0         0         0         0         0         0
         0         0         0         0         0         0         0         0
         0         0         0         0         0         0         0         0
         0         0         0         0         0         0         0         0
         0         0         0         0         0         0         0         0
         0         0         0         0         0         0         0         0
         0         0         0         0         0         0         0         0
         0         0         0         0         0         0         0         0
         0         0         0         0         0         0         0         0
         0         0         0         0         0         0         0         0
         0         0         0         0         0         0         0         0
         0         0         0         0         0         0         0         0
         0         0         0         0         0         0         0         0
         0         0         0         0         0         0         0         0
         0         0         0         0         0         0         0         0
         0         0         0         0         0         0         0         0
         0         0         0         0         0         0         0         0
         0         0         0         0         0         0         0         0
         0         0         0         0         0         0         0         0
         0         0         0         0         0         0         0         0
         0         0         0         0         0         0         0         0
         0         0         0         0         0         0         0         0
         0         0         0         0         0         0         0         0
         0         0         0         0         0         0         0         0
         0         0         0         0         0         0         0         0
         0         0         0         0         0         0         0         0
         0         0         0         0         0         0         0         0
         0         0         0         0         0         0         0         0
         0         0         0         0         0         0         0         0
         0         0         0         0         0         0         0         0
         0         0         0         0         0         0         0         0
         0         0         0         0         0         0         0         0
         0         0         0         0         0         0         0         0
         0         0         0         0         0         0         0         0
         0         0         0         0         0         0         0         0
         0         0         0         0         0         0         0         0
         0         0         0         0         0         0         0         0
         0         0         0         0         0         0         0         0
         0         0         0         0         0         0         0         0
         0         0         0         0         0         0         0         0
         0         0         0         0         0         0         0         0
         0         0         0         0         0         0         0         0
         0         0         0         0         0         0         0         0
         0         0         0         0         0         0         0         0
         0         0         0         0         0         0         0         0
         0         0         0         0         0         0         0         0
         0         0         0         0         0         0         0         0
         0         0         0         0         0         0         0         0
         0         0         0         0         0         0         0         0
         0         0         0         0         0         0         0         0
         0         0         0         0         0         0         0         0
         0         0         0         0         0         0         0         0
         0         0         0         0         0         0         0         0
         0         0         0         0         0         0         0         0
         0         0         0         0         0         0         0         0
         0         0         0         0         0         0         0         0
         0         0         0         0         0         0         0         0
         0         0         0         0         0         0         0         0
         0         0         0         0         0         0         0         0
         0         0         0         0         0         0         0         0
         0         0         0         0         0         0         0         0
         0         0         0         0         0         0         0         0
         0         0         0         0         0         0         0         0
         0         0         0         0         0         0         0         0
         0         0         0         0         0         0         0         0
         0         0         0         0         0         0         0         0
         0         0         0         0         0         0         0         0
         0         0         0         0         0         0         0         0
         0         0         0         0         0         0         0         0
         0         0         0         0         0         0         0         0
         0         0         0         0         0         0         0         0
         0         0         0         0         0         0         0         0
         0         0         0         0         0         0         0         0
         0         0         0         0         0         0         0         0
         0         0         0         0         0         0         0         0
         0         0         0         0         0         0         0         0
         0         0         0         0         0         0         0         0
         0         0         0         0         0         0         0         0
         0         0         0         0         0         0         0         0
         0         0         0         0         0         0         0         0
         0         0         0         0         0         0         0         0
         0         0         0         0         0         0         0         0
         0         0         0         0         0         0         0         0
         0         0         0         0         0         0         0         0
         0         0         0         0         0         0         0         0
         0         0         0         0         0         0         0         0
         0         0         0         0         0         0         0         0
         0         0         0         0         0         0         0         0
         0         0         0         0         0         0         0         0
         0         0         0         0         0         0         0         0
         0         0         0         0         0         0         0         0
         0         0         0         0         0         0         0         0
         0         0         0         0         0         0         0         0
         0         0         0         0         0         0         0         0
         0         0         0         0         0         0         0         0
         0         0         0         0         0         0         0         0
         0         0         0         0         0         0         0         0
         0         0         0         0         0         0         0         0
         0         0         0         0         0         0         0         0
         0         0         0         0         0         0         0         0
         0         0         0         0         0         0         0         0
         0         0         0         0         0         0         0         0
         0         0         0         0         0         0         0         0
         0         0         0         0         0         0         0         0
         0         0         0         0         0         0         0         0
         0         0         0         0         0         0         0         0
         0         0         0         0         0         0         0         0
         0         0         0         0         0         0         0         0
         0         0         0         0         0         0         0         0
         0         0         0         0         0         0         0         0
         0         0         0         0         0         0         0         0
         0         0         0         0         0         0         0         0
         0         0         0         0         0         0         0         0
         0         0         0         0         0         0         0         0
         0         0         0         0         0         0         0         0
         0         0         0         0         0         0         0         0
         0         0         0         0         0         0         0         0
         0         0         0         0         0         0         0         0
         0         0         0         0         0         0         0         0
         0         0         0         0         0         0         0         0
         0         0         0         0         0         0         0         0
         0         0         0         0         0         0         0         0
         0         0         0         0         0         0         0         0
         0         0         0         0         0         0         0         0
         0         0         0         0         0         0         0         0
         0         0         0         0         0         0         0         0
         0         0         0         0         0         0         0         0
         0         0         0         0         0         0         0         0
         0         0         0         0         0         0         0         0
         0         0         0         0         0         0         0         0
         0         0         0         0         0         0         0         0
         0         0         0         0         0         0         0         0
         0         0         0         0         0         0         0         0
         0         0         0         0         0         0         0         0
         0         0         0         0         0         0         0         0
         0         0         0         0         0         0         0         0
         0         0         0         0         0         0         0         0
         0         0         0         0         0         0         0         0
         0         0         0         0         0         0         0         0
         0         0         0         0         0         0         0         0
         0         0         0         0         0         0         0         0
         0         0         0         0         0         0         0         0
         0         0         0         0         0         0         0         0
         0         0         0         0         0         0         0         0
         0         0         0         0         0         0         0         0
         0         0         0         0         0         0         0         0
         0         0         0         0         0         0         0         0
         0         0         0         0         0         0         0         0
         0         0         0         0         0         0         0         0
         0         0         0         0         0         0         0         0
         0         0         0         0         0         0         0         0
         0         0         0         0         0         0         0         0
         0         0         0         0         0         0         0         0
         0         0         0         0         0         0         0         0
         0         0         0         0         0         0         0         0
         0         0         0         0         0         0         0         0
         0         0         0         0         0         0         0         0
         0         0         0         0         0         0         0         0
         0         0         0         0         0         0         0         0
         0         0         0         0         0         0         0         0
         0         0         0         0         0         0         0         0
         0         0         0         0         0         0         0         0
         0         0         0         0         0         0         0         0
         0         0         0         0         0         0         0         0
         0         0         0         0         0         0         0         0
         0         0         0         0         0         0         0         0
         0         0         0         0         0         0         0         0
         0         0         0         0         0         0         0         0
         0         0         0         0         0         0         0         0
         0         0         0         0         0         0         0         0
         0         0         0         0         0         0         0         0
         0         0         0         0         0         0         0         0
         0         0         0         0         0         0         0         0
         0         0         0         0         0         0         0         0
         0         0         0         0         0         0         0         0
         0         0         0         0         0         0         0         0
         0         0         0         0         0         0         0         0
         0         0         0         0         0         0         0         0
         0         0         0         0         0         0         0         0
         0         0         0         0         0         0         0         0
         0         0         0         0         0         0         0         0
         0         0         0         0         0         0         0         0
         0         0         0         0         0         0         0         0
         0         0         0         0         0         0         0         0
         0         0         0         0         0         0         0         0
         0         0         0         0         0         0         0         0
         0         0         0         0         0         0         0         0
         0         0         0         0         0         0         0         0
         0         0         0         0         0         0         0         0
         0         0         0         0         0         0         0         0
         0         0         0         0         0         0         0         0
         0         0         0         0         0         0         0         0
         0         0         0         0         0         0         0         0
         0         0         0         0         0         0         0         0
         0         0         0         0         0         0         0         0
         0         0         0         0         0         0         0         0
         0         0         0         0         0         0         0         0
         0         0         0         0         0         0         0         0
         0         0         0         0         0         0         0         0
         0         0         0         0         0         0         0         0
         0         0         0         0         0         0         0         0
         0         0         0         0         0         0         0         0
         0         0         0         0         0         0         0         0
         0         0         0         0         0         0         0         0
         0         0         0         0         0         0         0         0
         0         0         0         0         0         0         0         0
         0         0         0         0         0         0         0         0
         0         0         0         0         0         0         0         0
         0         0         0         0         0         0         0         0
         0         0         0         0         0         0         0         0
         0         0         0         0         0         0         0         0
         0         0         0         0         0         0         0         0
         0         0         0         0         0         0         0         0
         0         0         0         0         0         0         0         0
         0         0         0         0         0         0         0         0
         0         0         0         0         0         0         0         0
         0         0         0         0         0         0         0         0
         0         0         0         0         0         0         0         0
         0         0         0         0         0         0         0         0
         0         0         0         0         0         0         0         0
         0         0         0         0         0         0         0         0
         0         0         0         0         0         0         0         0
         0         0         0         0         0         0         0         0
         0         0         0         0         0         0         0         0
         0         0         0         0         0         0         0         0
         0         0         0         0         0         0         0         0
         0         0         0         0         0         0         0         0
         0         0         0         0         0         0         0         0
         0         0         0         0         0         0         0         0
         0         0         0         0         0         0         0         0
         0         0         0         0         0         0         0         0
         0         0         0         0         0         0         0         0
         0         0         0         0         0         0         0         0
         0         0         0         0         0         0         0         0
         0         0         0         0         0         0         0         0
         0         0         0         0         0         0         0         0
         0         0         0         0         0         0         0         0
         0         0         0         0         0         0         0         0
         0         0         0         0         0         0         0         0
         0         0         0         0         0         0         0         0
         0         0         0         0         0         0         0         0
         0         0         0         0         0         0         0         0
         0         0         0         0         0         0         0         0
         0         0         0         0         0         0         0         0
         0         0         0         0         0         0         0         0
         0         0         0         0         0         0         0         0
         0         0         0         0         0         0         0         0
         0         0         0         0         0         0         0         0
         0         0         0         0         0         0         0         0
         0         0         0         0         0         0         0         0
         0         0         0         0         0         0         0         0
         0         0         0         0         0         0         0         0
         0         0         0         0         0         0         0         0
         0         0         0         0         0         0         0         0
         0         0         0         0         0         0         0         0
         0         0         0         0         0         0         0         0
         0         0         0         0         0         0         0         0
         0         0         0         0         0         0         0         0
         0         0         0         0         0         0         0         0
         0         0         0         0         0         0         0         0
         0         0         0         0         0         0         0         0
         0         0         0         0         0         0         0         0
         0         0         0         0         0         0         0         0
         0         0         0         0         0         0         0         0
         0         0         0         0         0         0         0         0
         0         0         0         0         0         0         0         0
         0         0         0         0         0         0         0         0
         0         0         0         0         0         0         0         0
         0         0         0         0         0         0         0         0
         0         0         0         0         0         0         0         0
         0         0         0         0         0         0         0         0
         0         0         0         0         0         0         0         0
         0         0         0         0         0         0         0         0
         0         0         0         0         0         0         0         0
         0         0         0         0         0         0         0         0
         0         0         0         0         0         0         0         0
         0         0         0         0         0         0         0         0
         0         0         0         0         0         0         0         0
         0         0         0         0         0         0         0         0
         0         0         0         0         0         0         0         0
         0         0         0         0         0         0         0         0
         0         0         0         0         0         0         0         0
         0         0         0         0         0         0         0         0
         0         0         0         0         0         0         0         0
         0         0         0         0         0         0         0         0
         0         0         0         0         0         0         0         0
         0         0         0         0         0         0         0         0
         0         0         0         0         0         0         0         0
         0         0         0         0         0         0         0         0
         0         0         0         0         0         0         0         0
         0         0         0         0         0         0         0         0
         0         0         0         0         0         0         0         0
         0         0         0         0         0         0         0         0
         0         0         0         0         0         0         0         0
         0         0         0         0         0         0         0         0
         0         0         0         0         0         0         0         0
         0         0         0         0         0         0         0         0
         0         0         0         0         0         0         0         0
         0         0         0         0         0         0         0         0
         0         0         0         0         0         0         0         0
         0         0         0         0         0         0         0         0
         0         0         0         0         0         0         0         0
         0         0         0         0         0         0         0         0
         0         0         0         0         0         0         0         0
         0         0         0         0         0         0         0         0
         0         0         0         0         0         0         0         0
         0         0         0         0         0         0         0         0
         0         0         0         0         0         0         0         0
         0         0         0         0         0         0         0         0
         0         0         0         0         0         0         0         0
         0         0         0         0         0         0         0         0
         0         0         0         0         0         0         0         0
         0         0         0         0         0         0         0         0
         0         0         0         0         0         0         0         0
         0         0         0         0         0         0         0         0
         0         0         0         0         0         0         0         0
         0         0         0         0         0         0         0         0
         0         0         0         0         0         0         0         0
         0         0         0         0         0         0         0         0
         0         0         0         0         0         0         0         0
         0         0         0         0         0         0         0         0
         0         0         0         0         0         0         0         0
         0         0         0         0         0         0         0         0
         0         0         0         0         0         0         0         0
         0         0         0         0         0         0         0         0
         0         0         0         0         0         0         0         0
         0         0         0         0         0         0         0         0
         0         0         0         0         0         0         0         0
         0         0         0         0         0         0         0         0
         0         0         0         0         0         0         0         0
         0         0         0         0         0         0         0         0
         0         0         0         0         0         0         0         0
         0         0         0         0         0         0         0         0
         0         0         0         0         0         0         0         0
         0         0         0         0         0         0         0         0
         0         0         0         0         0         0         0         0
         0         0         0         0         0         0         0         0
         0         0         0         0         0         0         0         0
         0         0         0         0         0         0         0         0
         0         0         0         0         0         0         0         0
         0         0         0         0         0         0         0         0
         0         0         0         0         0         0         0         0
         0         0         0         0         0         0         0         0
         0         0         0         0         0         0         0         0
         0         0         0         0         0         0         0         0
         0         0         0         0         0         0         0         0
         0         0         0         0         0         0         0         0
         0         0         0         0         0         0         0         0
         0         0         0         0         0         0         0         0
         0         0         0         0         0         0         0         0
         0         0         0         0         0         0         0         0
         0         0         0         0         0         0         0         0
         0         0         0         0         0         0         0         0
         0         0         0         0         0         0         0         0
         0         0         0         0         0         0         0         0
         0         0         0         0         0         0         0         0
         0         0         0         0         0         0         0         0
         0         0         0         0         0         0         0         0
         0         0         0         0         0         0         0         0
         0         0         0         0         0         0         0         0
         0         0         0         0         0         0         0         0
         0         0         0         0         0         0         0         0
         0         0         0         0         0         0         0         0
         0         0         0         0         0         0         0         0
         0         0         0         0         0         0         0         0
         0         0         0         0         0         0         0         0
         0         0         0         0         0         0         0         0
         0         0         0         0         0         0         0         0
         0         0         0         0         0         0         0         0
         0         0         0         0         0         0         0         0
         0         0         0         0         0         0         0         0
         0         0         0         0         0         0         0         0
         0         0         0         0         0         0         0         0
         0         0         0         0         0         0         0         0
         0         0         0         0         0         0         0         0
         0         0         0         0         0         0         0         0
         0         0         0         0         0         0         0         0
         0         0         0         0         0         0         0         0
         0         0         0         0         0         0         0         0
         0         0         0         0         0         0         0         0
         0         0         0         0         0         0         0         0
         0         0         0         0         0         0         0         0
         0         0         0         0         0         0         0         0
         0         0         0         0         0         0         0         0
         0         0         0         0         0         0         0         0
         0         0         0         0         0         0         0         0
         0         0         0         0         0         0         0         0
         0         0         0         0         0         0         0         0
         0         0         0         0         0         0         0         0
         0         0         0         0         0         0         0         0
         0         0         0         0         0         0         0         0
         0         0         0         0         0         0         0         0
         0         0         0         0         0         0         0         0
         0         0         0         0         0         0         0         0
         0         0         0         0         0         0         0         0
         0         0         0         0         0         0         0         0
         0         0         0         0         0         0         0         0
         0         0         0         0         0         0         0         0
         0         0         0         0         0         0         0         0
         0         0         0         0         0         0         0         0
         0         0         0         0         0         0         0         0
         0         0         0         0         0         0         0         0
         0         0         0         0         0         0         0         0
         0         0         0         0         0         0         0         0
         0         0         0         0         0         0         0         0
         0         0         0         0         0         0         0         0
         0         0         0         0         0         0         0         0
         0         0         0         0         0         0         0         0
         0         0         0         0         0         0         0         0
         0         0         0         0         0         0         0         0
         0         0         0         0         0         0         0         0
         0         0         0         0         0         0         0         0
         0         0         0         0         0         0         0         0
         0         0         0         0         0         0         0         0
         0         0         0         0         0         0         0         0
         0         0         0         0         0         0         0         0
         0         0         0         0         0         0         0         0
         0         0         0         0         0         0         0         0
         0         0         0         0         0         0         0         0
         0         0         0         0         0         0         0         0
         0         0         0         0         0         0         0         0
         0         0         0         0         0         0         0         0
         0         0         0         0         0         0         0         0
         0         0         0         0         0         0         0         0
         0         0         0         0         0         0         0         0
         0         0         0         0         0         0         0         0
         0         0         0         0         0         0         0         0
         0         0         0         0         0         0         0         0
         0         0         0         0         0         0         0         0
         0         0         0         0         0         0         0         0
         0         0         0         0         0         0         0         0
         0         0         0         0         0         0         0         0
         0         0         0         0         0         0         0         0
         0         0         0         0         0         0         0         0
         0         0         0         0         0         0         0         0
         0         0         0         0         0         0         0         0
         0         0         0         0         0         0         0         0
         0         0         0         0         0         0         0         0
         0         0         0         0         0         0         0         0
         0         0         0         0         0         0         0         0
         0         0         0         0         0         0         0         0
         0         0         0         0         0         0         0         0
         0         0         0         0         0         0         0         0
         0         0         0         0         0         0         0         0
         0         0         0         0         0         0         0         0
         0         0         0         0         0         0         0         0
         0         0         0         0         0         0         0         0
         0         0         0         0         0         0         0         0
         0         0         0         0         0         0         0         0
         0         0         0         0         0         0         0         0
         0         0         0         0         0         0         0         0
         0         0         0         0         0         0         0         0
         0         0         0         0         0         0         0         0
         0         0         0         0         0         0         0         0
         0         0         0         0         0         0         0         0
         0         0         0         0         0         0         0         0
         0         0         0         0         0         0         0         0
         0         0         0         0         0         0         0         0
         0         0         0         0         0         0         0         0
         0         0         0         0         0         0         0         0
         0         0         0         0         0         0         0         0
         0         0         0         0         0         0         0         0
         0         0         0         0         0         0         0         0
         0         0         0         0         0         0         0         0
         0         0         0         0         0         0         0         0
         0         0         0         0         0         0         0         0
         0         0         0         0         0         0         0         0
         0         0         0         0         0         0         0         0
         0         0         0         0         0         0         0         0
         0         0         0         0         0         0         0         0
         0         0         0         0         0         0         0         0
         0         0         0         0         0         0         0         0
         0         0         0         0         0         0         0         0
         0         0         0         0         0         0         0         0
         0         0         0         0         0         0         0         0
         0         0         0         0         0         0         0         0
         0         0         0         0         0         0         0         0
         0         0         0         0         0         0         0         0
         0         0         0         0         0         0         0         0
         0         0         0         0         0         0         0         0
         0         0         0         0         0         0         0         0
         0         0         0         0         0         0         0         0
         0         0         0         0         0         0         0         0
         0         0         0         0         0         0         0         0
         0         0         0         0         0         0         0         0
         0         0         0         0         0         0         0         0
         0         0         0         0         0         0         0         0
         0         0         0         0         0         0         0         0
         0         0         0         0         0         0         0         0
         0         0         0         0         0         0         0         0
         0         0         0         0         0         0         0         0
         0         0         0         0         0         0         0         0
         0         0         0         0         0         0         0         0
         0         0         0         0         0         0         0         0
         0         0         0         0         0         0         0         0
         0         0         0         0         0         0         0         0
         0         0         0         0         0         0         0         0
         0         0         0         0         0         0         0         0
         0         0         0         0         0         0         0         0
         0         0         0         0         0         0         0         0
         0         0         0         0         0         0         0         0
         0         0         0         0         0         0         0         0
         0         0         0         0         0         0         0         0
         0         0         0         0         0         0         0         0
         0         0         0         0         0         0         0         0
         0         0         0         0         0         0         0         0
         0         0         0         0         0         0         0         0
         0         0         0         0         0         0         0         0
         0         0         0         0         0         0         0         0
         0         0         0         0         0         0         0         0
         0         0         0         0         0         0         0         0
         0         0         0         0         0         0         0         0
         0         0         0         0         0         0         0         0
         0         0         0         0         0         0         0         0
         0         0         0         0         0         0         0         0
         0         0         0         0         0         0         0         0
         0         0         0         0         0         0         0         0
         0         0         0         0         0         0         0         0
         0         0         0         0         0         0         0         0
         0         0         0         0         0         0         0         0
         0         0         0         0         0         0         0         0
         0         0         0         0         0         0         0         0
         0         0         0         0         0         0         0         0
         0         0         0         0         0         0         0         0
         0         0         0         0         0         0         0         0
         0         0         0         0         0         0         0         0
         0         0         0         0         0         0         0         0
         0         0         0         0         0         0         0         0
         0         0         0         0         0         0         0         0
         0         0         0         0         0         0         0         0
         0         0         0         0         0         0         0         0
         0         0         0         0         0         0         0         0
         0         0         0         0         0         0         0         0
         0         0         0         0         0         0         0         0
         0         0         0         0         0         0         0         0
         0         0         0         0         0         0         0         0
         0         0         0         0         0         0         0         0
         0         0         0         0         0         0         0         0
         0         0         0         0         0         0         0         0
         0         0         0         0         0         0         0         0
         0         0         0         0         0         0         0         0
         0         0         0         0         0         0         0         0
         0         0         0         0         0         0         0         0
         0         0         0         0         0         0         0         0
         0         0         0         0         0         0         0         0
         0         0         0         0         0         0         0         0
         0         0         0         0         0         0         0         0
         0         0         0         0         0         0         0         0
         0         0         0         0         0         0         0         0
         0         0         0         0         0         0         0         0
         0         0         0         0         0         0         0         0
         0         0         0         0         0         0         0         0
         0         0         0         0         0         0         0         0
         0         0         0         0         0         0         0         0
         0         0         0         0         0         0         0         0
         0         0         0         0         0         0         0         0
         0         0         0         0         0         0         0         0
         0         0         0         0         0         0         0         0
         0         0         0         0         0         0         0         0
         0         0         0         0         0         0         0         0
         0         0         0         0         0         0         0         0
         0         0         0         0         0         0         0         0
         0         0         0         0         0         0         0         0
         0         0         0         0         0         0         0         0
         0         0         0         0         0         0         0         0
         0         0         0         0         0         0         0         0
         0         0         0         0         0         0         0         0
         0         0         0         0         0         0         0         0
         0         0         0         0         0         0         0         0
         0         0         0         0         0         0         0         0
         0         0         0         0         0         0         0         0
         0         0         0         0         0         0         0         0
         0         0         0         0         0         0         0         0
         0         0         0         0         0         0         0         0
         0         0         0         0         0         0         0         0
         0         0         0         0         0         0         0         0
         0         0         0         0         0         0         0         0
         0         0         0         0         0         0         0         0
         0         0         0         0         0         0         0         0
         0         0         0         0         0         0         0         0
         0         0         0         0         0         0         0         0
         0         0         0         0         0         0         0         0
         0         0         0         0         0         0         0         0
         0         0         0         0         0         0         0         0
         0         0         0         0         0         0         0         0
         0         0         0         0         0         0         0         0
         0         0         0         0         0         0         0         0
         0         0         0         0         0         0         0         0
         0         0         0         0         0         0         0         0
         0         0         0         0         0         0         0         0
         0         0         0         0         0         0         0         0
         0         0         0         0         0         0         0         0
         0         0         0         0         0         0         0         0
         0         0         0         0         0         0         0         0
         0         0         0         0         0         0         0         0
         0         0         0         0         0         0         0         0
         0         0         0         0         0         0         0         0
         0         0         0         0         0         0         0         0
         0         0         0         0         0         0         0         0
         0         0         0         0         0         0         0         0
         0         0         0         0         0         0         0         0
         0         0         0         0         0         0         0         0
         0         0         0         0         0         0         0         0
         0         0         0         0         0         0         0         0
         0         0         0         0         0         0         0         0
         0         0         0         0         0         0         0         0
         0         0         0         0         0         0         0         0
         0         0         0         0         0         0         0         0
         0         0         0         0         0         0         0         0
         0         0         0         0         0         0         0         0
         0         0         0         0         0         0         0         0
         0         0         0         0         0         0         0         0
         0         0         0         0         0         0         0         0
         0         0         0         0         0         0         0         0
         0         0         0         0         0         0         0         0
         0         0         0         0         0         0         0         0
         0         0         0         0         0         0         0         0
         0         0         0         0         0         0         0         0
         0         0         0         0         0         0         0         0
         0         0         0         0         0         0         0         0
         0         0         0         0         0         0         0         0
         0         0         0         0         0         0         0         0
         0         0         0         0         0         0         0         0
         0         0         0         0         0         0         0         0
         0         0         0         0         0         0         0         0
         0         0         0         0         0         0         0         0
         0         0         0         0         0         0         0         0
         0         0         0         0         0         0         0         0
         0         0         0         0         0         0         0         0
         0         0         0         0         0         0         0         0
         0         0         0         0         0         0         0         0
         0         0         0         0         0         0         0         0
         0         0         0         0         0         0         0         0
         0         0         0         0         0         0         0         0
         0         0         0         0         0         0         0         0
         0         0         0         0         0         0         0         0
         0         0         0         0         0         0         0         0
         0         0         0         0         0         0         0         0
         0         0         0         0         0         0         0         0
         0         0         0         0         0         0         0         0
         0         0         0         0         0         0         0         0
         0         0         0         0         0         0         0         0
         0         0         0         0         0         0         0         0
         0         0         0         0         0         0         0         0
         0         0         0         0         0         0         0         0
         0         0         0         0         0         0         0         0
         0         0         0         0         0         0         0         0
         0         0         0         0         0         0         0         0
         0         0         0         0         0         0         0         0
         0         0         0         0         0         0         0         0
         0         0         0         0         0         0         0         0
         0         0         0         0         0         0         0         0
         0         0         0         0         0         0         0         0
         0         0         0         0         0         0         0         0
         0         0         0         0         0         0         0         0
         0         0         0         0         0         0         0         0
         0         0         0         0         0         0         0         0
         0         0         0         0         0         0         0         0
         0         0         0         0         0         0         0         0
         0         0         0         0         0         0         0         0
         0         0         0         0         0         0         0         0
         0         0         0         0         0         0         0         0
         0         0         0         0         0         0         0         0
         0         0         0         0         0         0         0         0
         0         0         0         0         0         0         0         0
         0         0         0         0         0         0         0         0
         0         0         0         0         0         0         0         0
         0         0         0         0         0         0         0         0
         0         0         0         0         0         0         0         0
         0         0         0         0         0         0         0         0
         0         0         0         0         0         0         0         0
         0         0         0         0         0         0         0         0
         0         0         0         0         0         0         0         0
         0         0         0         0         0         0         0         0
         0         0         0         0         0         0         0         0
         0         0         0         0         0         0         0         0
         0         0         0         0         0         0         0         0
         0         0         0         0         0         0         0         0
         0         0         0         0         0         0         0         0
         0         0         0         0         0         0         0         0
         0         0         0         0         0         0         0         0
         0         0         0         0         0         0         0         0
         0         0         0         0         0         0         0         0
         0         0         0         0         0         0         0         0
         0         0         0         0         0         0         0         0
         0         0         0         0         0         0         0         0
         0         0         0         0         0         0         0         0
         0         0         0         0         0         0         0         0
         0         0         0         0         0         0         0         0
         0         0         0         0         0         0         0         0
         0         0         0         0         0         0         0         0
         0         0         0         0         0         0         0         0
         0         0         0         0         0         0         0         0
         0         0         0         0         0         0         0         0
         0         0         0         0         0         0         0         0
         0         0         0         0         0         0         0         0
         0         0         0         0         0         0         0         0
         0         0         0         0         0         0         0         0
         0         0         0         0         0         0         0         0
         0         0         0         0         0         0         0         0
         0         0         0         0         0         0         0         0
         0         0         0         0         0         0         0         0
         0         0         0         0         0         0         0         0
         0         0         0         0         0         0         0         0
         0         0         0         0         0         0         0         0
         0         0         0         0         0         0         0         0
         0         0         0         0         0         0         0         0
         0         0         0         0         0         0         0         0
         0         0         0         0         0         0         0         0
         0         0         0         0         0         0         0         0
         0         0         0         0         0         0         0         0
         0         0         0         0         0         0         0         0
         0         0         0         0         0         0         0         0
         0         0         0         0         0         0         0         0
         0         0         0         0         0         0         0         0
         0         0         0         0         0         0         0         0
         0         0         0         0         0         0         0         0
         0         0         0         0         0         0         0         0
         0         0         0         0         0         0         0         0
         0         0         0         0         0         0         0         0
         0         0         0         0         0         0         0         0
         0         0         0         0         0         0         0         0
         0         0         0         0         0         0         0         0
         0         0         0         0         0         0         0         0
         0         0         0         0         0         0         0         0
         0         0         0         0         0         0         0         0
         0         0         0         0         0         0         0         0
         0         0         0         0         0         0         0         0
         0         0         0         0         0         0         0         0
         0         0         0         0         0         0         0         0
         0         0         0         0         0         0         0         0
         0         0         0         0         0         0         0         0
         0         0         0         0         0         0         0         0
         0         0         0         0         0         0         0         0
         0         0         0         0         0         0         0         0
         0         0         0         0         0         0         0         0
         0         0         0         0         0         0         0         0
         0         0         0         0         0         0         0         0
         0         0         0         0         0         0         0         0
         0         0         0         0         0         0         0         0
         0         0         0         0         0         0         0         0
         0         0         0         0         0         0         0         0
         0         0         0         0         0         0         0         0
         0         0         0         0         0         0         0         0
         0         0         0         0         0         0         0         0
         0         0         0         0         0         0         0         0
         0         0         0         0         0         0         0         0
         0         0         0         0         0         0         0         0
         0         0         0         0         0         0         0         0
         0         0         0         0         0         0         0         0
         0         0         0         0         0         0         0         0
         0         0         0         0         0         0         0         0
         0         0         0         0         0         0         0         0
         0         0         0         0         0         0         0         0
         0         0         0         0         0         0         0         0
         0         0         0         0         0         0         0         0
         0         0         0         0         0         0         0         0
         0         0         0         0         0         0         0         0
         0         0         0         0         0         0         0         0
         0         0         0         0         0         0         0         0
         0         0         0         0         0         0         0         0
         0         0         0         0         0         0         0         0
         0         0         0         0         0         0         0         0
         0         0         0         0         0         0         0         0
         0         0         0         0         0         0         0         0
         0         0         0         0         0         0         0         0
         0         0         0         0         0         0         0         0
         0         0         0         0         0         0         0         0
         0         0         0         0         0         0         0         0
         0         0         0         0         0         0         0         0
         0         0         0         0         0         0         0         0
         0         0         0         0         0         0         0         0
         0         0         0         0         0         0         0         0
         0         0         0         0         0         0         0         0
         0         0         0         0         0         0         0         0
         0         0         0         0         0         0         0         0
         0         0         0         0         0         0         0         0
         0         0         0         0         0         0         0         0
         0         0         0         0         0         0         0         0
         0         0         0         0         0         0         0         0
         0         0         0         0         0         0         0         0
         0         0         0         0         0         0         0         0
         0         0         0         0         0         0         0         0
         0         0         0         0         0         0         0         0
         0         0         0         0         0         0         0         0
         0         0         0         0         0         0         0         0
         0         0         0         0         0         0         0         0
         0         0         0         0         0         0         0         0
         0         0         0         0         0         0         0         0
         0         0         0         0         0         0         0         0
         0         0         0         0         0         0         0         0
         0         0         0         0         0         0         0         0
         0         0         0         0         0         0         0         0
         0         0         0         0         0         0         0         0
         0         0         0         0         0         0         0         0
         0         0         0         0         0         0         0         0
         0         0         0         0         0         0         0         0
         0         0         0         0         0         0         0         0
         0         0         0         0         0         0         0         0
         0         0         0         0         0         0         0         0
         0         0         0         0         0         0         0         0
         0         0         0         0         0         0         0         0
         0         0         0         0         0         0         0         0
         0         0         0         0         0         0         0         0
         0         0         0         0         0         0         0         0
         0         0         0         0         0         0         0         0
         0         0         0         0         0         0         0         0
         0         0         0         0         0         0         0         0
         0         0         0         0         0         0         0         0
         0         0         0         0         0         0         0         0
         0         0         0         0         0         0         0         0
         0         0         0         0         0         0         0         0
         0         0         0         0         0         0         0         0
         0         0         0         0         0         0         0         0
         0         0         0         0         0         0         0         0
         0         0         0         0         0         0         0         0
         0         0         0         0         0         0         0         0
         0         0         0         0         0         0         0         0
         0         0         0         0         0         0         0         0
         0         0         0         0         0         0         0         0
         0         0         0         0         0         0         0         0
         0         0         0         0         0         0         0         0
         0         0         0         0         0         0         0         0
         0         0         0         0         0         0         0         0
         0         0         0         0         0         0         0         0
         0         0         0         0         0         0         0         0
         0         0         0         0         0         0         0         0
         0         0         0         0         0         0         0         0
         0         0         0         0         0         0         0         0
         0         0         0         0         0         0         0         0
         0         0         0         0         0         0         0         0
         0         0         0         0         0         0         0         0
         0         0         0         0         0         0         0         0
         0         0         0         0         0         0         0         0
         0         0         0         0         0         0         0         0
         0         0         0         0         0         0         0         0
         0         0         0         0         0         0         0         0
         0         0         0         0         0         0         0         0
         0         0         0         0         0         0         0         0
         0         0         0         0         0         0         0         0
         0         0         0         0         0         0         0         0
         0         0         0         0         0         0         0         0
         0         0         0         0         0         0         0         0
         0         0         0         0         0         0         0         0
         0         0         0         0         0         0         0         0
         0         0         0         0         0         0         0         0
         0         0         0         0         0         0         0         0
         0         0         0         0         0         0         0         0
         0         0         0         0         0         0         0         0
         0         0         0         0         0         0         0         0
         0         0         0         0         0         0         0         0
         0         0         0         0         0         0         0         0
         0         0         0         0         0         0         0         0
         0         0         0         0         0         0         0         0
         0         0         0         0         0         0         0         0
         0         0         0         0         0         0         0         0
         0         0         0         0         0         0         0         0
         0         0         0         0         0         0         0         0
         0         0         0         0         0         0         0         0
         0         0         0         0         0         0         0         0
         0         0         0         0         0         0         0         0
         0         0         0         0         0         0         0         0
         0         0         0         0         0         0         0         0
         0         0         0         0         0         0         0         0
         0         0         0         0         0         0         0         0
         0         0         0         0         0         0         0         0
         0         0         0         0         0         0         0         0
         0         0         0         0         0         0         0         0
         0         0         0         0         0         0         0         0
         0         0         0         0         0         0         0         0
         0         0         0         0         0         0         0         0
         0         0         0         0         0         0         0         0
         0         0         0         0         0         0         0         0
         0         0         0         0         0         0         0         0
         0         0         0         0         0         0         0         0
         0         0         0         0         0         0         0         0
         0         0         0         0         0         0         0         0
         0         0         0         0         0         0         0         0
         0         0         0         0         0         0         0         0
         0         0         0         0         0         0         0         0
         0         0         0         0         0         0         0         0
         0         0         0         0         0         0         0         0
         0         0         0         0         0         0         0         0
         0         0         0         0         0         0         0         0
         0         0         0         0         0         0         0         0
         0         0         0         0         0         0         0         0
         0         0         0         0         0         0         0         0
         0         0         0         0         0         0         0         0
         0         0         0         0         0         0         0         0
         0         0         0         0         0         0         0         0
         0         0         0         0         0         0         0         0
         0         0         0         0         0         0         0         0
         0         0         0         0         0         0         0         0
         0         0         0         0         0         0         0         0
         0         0         0         0         0         0         0         0
         0         0         0         0         0         0         0         0
         0         0         0         0         0         0         0         0
         0         0         0         0         0         0         0         0
         0         0         0         0         0         0         0         0
         0         0         0         0         0         0         0         0
         0         0         0         0         0         0         0         0
         0         0         0         0         0         0         0         0
         0         0         0         0         0         0         0         0
         0         0         0         0         0         0         0         0
         0         0         0         0         0         0         0         0
         0         0         0         0         0         0         0         0
         0         0         0         0         0         0         0         0
         0         0         0         0         0         0         0         0
         0         0         0         0         0         0         0         0
         0         0         0         0         0         0         0         0
         0         0         0         0         0         0         0         0
         0         0         0         0         0         0         0         0
         0         0         0         0         0         0         0         0
         0         0         0         0         0         0         0         0
         0         0         0         0         0         0         0         0
         0         0         0         0         0         0         0         0
         0         0         0         0         0         0         0         0
         0         0         0         0         0         0         0         0
         0         0         0         0         0         0         0         0
         0         0         0         0         0         0         0         0
         0         0         0         0         0         0         0         0
         0         0         0         0         0         0         0         0
         0         0         0         0         0         0         0         0
         0         0         0         0         0         0         0         0
         0         0         0         0         0         0         0         0
         0         0         0         0         0         0         0         0
         0         0         0         0         0         0         0         0
         0         0         0         0         0         0         0         0
         0         0         0         0         0         0         0         0
         0         0         0         0         0         0         0         0
         0         0         0         0         0         0         0         0
         0         0         0         0         0         0         0         0
         0         0         0         0         0         0         0         0
         0         0         0         0         0         0         0         0
         0         0         0         0         0         0         0         0
         0         0         0         0         0         0         0         0
         0         0         0         0         0         0         0         0
         0         0         0         0         0         0         0         0
         0         0         0         0         0         0         0         0
         0         0         0         0         0         0         0         0
         0         0         0         0         0         0         0         0
         0         0         0         0         0         0         0         0
         0         0         0         0         0         0         0         0
         0         0         0         0         0         0         0         0
         0         0         0         0         0         0         0         0
         0         0         0         0         0         0         0         0
         0         0         0         0         0         0         0         0
         0         0         0         0         0         0         0         0
         0         0         0         0         0         0         0         0
         0         0         0         0         0         0         0         0
         0         0         0         0         0         0         0         0
         0         0         0         0         0         0         0         0
         0         0         0         0         0         0         0         0
         0         0         0         0         0         0         0         0
         0         0         0         0         0         0         0         0
         0         0         0         0         0         0         0         0
         0         0         0         0         0         0         0         0
         0         0         0         0         0         0         0         0
         0         0         0         0         0         0         0         0
         0         0         0         0         0         0         0         0
         0         0         0         0         0         0         0         0
         0         0         0         0         0         0         0         0
         0         0         0         0         0         0         0         0
         0         0         0         0         0         0         0         0
         0         0         0         0         0         0         0         0
         0         0         0         0         0         0         0         0
         0         0         0         0         0         0         0         0
         0         0         0         0         0         0         0         0
         0         0         0         0         0         0         0         0
         0         0         0         0         0         0         0         0
         0         0         0         0         0         0         0         0
         0         0         0         0         0         0         0         0
         0         0         0         0         0         0         0         0
         0         0         0         0         0         0         0         0
         0         0         0         0         0         0         0         0
         0         0         0         0         0         0         0         0
         0         0         0         0         0         0         0         0
         0         0         0         0         0         0         0         0
         0         0         0         0         0         0         0         0
         0         0         0         0         0         0         0         0
         0         0         0         0         0         0         0         0
         0         0         0         0         0         0         0         0
         0         0         0         0         0         0         0         0
         0         0         0         0         0         0         0         0
         0         0         0         0         0         0         0         0
         0         0         0         0         0         0         0         0
         0         0         0         0         0         0         0         0
         0         0         0         0         0         0         0         0
         0         0         0         0         0         0         0         0
         0         0         0         0         0         0         0         0
         0         0         0         0         0         0         0         0
         0         0         0         0         0         0         0         0
         0         0         0         0         0         0         0         0
         0         0         0         0         0         0         0         0
         0         0         0         0         0         0         0         0
         0         0         0         0         0         0         0         0
         0         0         0         0         0         0         0         0
         0         0         0         0         0         0         0         0
         0         0         0         0         0         0         0         0
         0         0         0         0         0         0         0         0
         0         0         0         0         0         0         0         0
         0         0         0         0         0         0         0         0
         0         0         0         0         0         0         0         0
         0         0         0         0         0         0         0         0
         0         0         0         0         0         0         0         0
         0         0         0         0         0         0         0         0
         0         0         0         0         0         0         0         0
         0         0         0         0         0         0         0         0
         0         0         0         0         0         0         0         0
         0         0         0         0         0         0         0         0
         0         0         0         0         0         0         0         0
         0         0         0         0         0         0         0         0
         0         0         0         0         0         0         0         0
         0         0         0         0         0         0         0         0
         0         0         0         0         0         0         0         0
         0         0         0         0         0         0         0         0
         0         0         0         0         0         0         0         0
         0         0         0         0         0         0         0         0
         0         0         0         0         0         0         0         0
         0         0         0         0         0         0         0         0
         0         0         0         0         0         0         0         0
         0         0         0         0         0         0         0         0
         0         0         0         0         0         0         0         0
         0         0         0         0         0         0         0         0
         0         0         0         0         0         0         0         0
         0         0         0         0         0         0         0         0
         0         0         0         0         0         0         0         0
         0         0         0         0         0         0         0         0
         0         0         0         0         0         0         0         0
         0         0         0         0         0         0         0         0
         0         0         0         0         0         0         0         0
         0         0         0         0         0         0         0         0
         0         0         0         0         0         0         0         0
         0         0         0         0         0         0         0         0
         0         0         0         0         0         0         0         0
         0         0         0         0         0         0         0         0
         0         0         0         0         0         0         0         0
         0         0         0         0         0         0         0         0
         0         0         0         0         0         0         0         0
         0         0         0         0         0         0         0         0
         0         0         0         0         0         0         0         0
         0         0         0         0         0         0         0         0
         0         0         0         0         0         0         0         0
         0         0         0         0         0         0         0         0
         0         0         0         0         0         0         0         0
         0         0         0         0         0         0         0         0
         0         0         0         0         0         0         0         0
         0         0         0         0         0         0         0         0
         0         0         0         0         0         0         0         0
         0         0         0         0         0         0         0         0
         0         0         0         0         0         0         0         0
         0         0         0         0         0         0         0         0
         0         0         0         0         0         0         0         0
         0         0         0         0         0         0         0         0
         0         0         0         0         0         0         0         0
         0         0         0         0         0         0         0         0
         0         0         0         0         0         0         0         0
         0         0         0         0         0         0         0         0
         0         0         0         0         0         0         0         0
         0         0         0         0         0         0         0         0
         0         0         0         0         0         0         0         0
         0         0         0         0         0         0         0         0
         0         0         0         0         0         0         0         0
         0         0         0         0         0         0         0         0
         0         0         0         0         0         0         0         0
         0         0         0         0         0         0         0         0
         0         0         0         0         0         0         0         0
         0         0         0         0         0         0         0         0
         0         0         0         0         0         0         0         0
         0         0         0         0         0         0         0         0
         0         0         0         0         0         0         0         0
         0         0         0         0         0         0         0         0
         0         0         0         0         0         0         0         0
         0         0         0         0         0         0         0         0
         0         0         0         0         0         0         0         0
         0         0         0         0         0         0         0         0
         0         0         0         0         0         0         0         0
         0         0         0         0         0         0         0         0
         0         0         0         0         0         0         0         0
         0         0         0         0         0         0         0         0
         0         0         0         0         0         0         0         0
         0         0         0         0         0         0         0         0
         0         0         0         0         0         0         0         0
         0         0         0         0         0         0         0         0
         0         0         0         0         0         0         0         0
         0         0         0         0         0         0         0         0
         0         0         0         0         0         0         0         0
         0         0         0         0         0         0         0         0
         0         0         0         0         0         0         0         0
         0         0         0         0         0         0         0         0
         0         0         0         0         0         0         0         0
         0         0         0         0         0         0         0         0
         0         0         0         0         0         0         0         0
         0         0         0         0         0         0         0         0
         0         0         0         0         0         0         0         0
         0         0         0         0         0         0         0         0
         0         0         0         0         0         0         0         0
         0         0         0         0         0         0         0         0
         0         0         0         0         0         0         0         0
         0         0         0         0         0         0         0         0
         0         0         0         0         0         0         0         0
         0         0         0         0         0         0         0         0
         0         0         0         0         0         0         0         0
         0         0         0         0         0         0         0         0
         0         0         0         0         0         0         0         0
         0         0         0         0         0         0         0         0
         0         0         0         0         0         0         0         0
         0         0         0         0         0         0         0         0
         0         0         0         0         0         0         0         0
         0         0         0         0         0         0         0         0
         0         0         0         0         0         0         0         0
         0         0         0         0         0         0         0         0
         0         0         0         0         0         0         0         0
         0         0         0         0         0         0         0         0
         0         0         0         0         0         0         0         0
         0         0         0         0         0         0         0         0
         0         0         0         0         0         0         0         0
         0         0         0         0         0         0         0         0
         0         0         0         0         0         0         0         0
         0         0         0         0         0         0         0         0
         0         0         0         0         0         0         0         0
         0         0         0         0         0         0         0         0
         0         0         0         0         0         0         0         0
         0         0         0         0         0         0         0         0
         0         0         0         0         0         0         0         0
         0         0         0         0         0         0         0         0
         0         0         0         0         0         0         0         0
         0         0         0         0         0         0         0         0
         0         0         0         0         0         0         0         0
         0         0         0         0         0         0         0         0
         0         0         0         0         0         0         0         0
         0         0         0         0         0         0         0         0
         0         0         0         0         0         0         0         0
         0         0         0         0         0         0         0         0
         0         0         0         0         0         0         0         0
         0         0         0         0         0         0         0         0
         0         0         0         0         0         0         0         0
         0         0         0         0         0         0         0         0
         0         0         0         0         0         0         0         0
         0         0         0         0         0         0         0         0
         0         0         0         0         0         0         0         0
         0         0         0         0         0         0         0         0
         0         0         0         0         0         0         0         0
         0         0         0         0         0         0         0         0
         0         0         0         0         0         0         0         0
         0         0         0         0         0         0         0         0
         0         0         0         0         0         0         0         0
         0         0         0         0         0         0         0         0
         0         0         0         0         0         0         0         0
         0         0         0         0         0         0         0         0
         0         0         0         0         0         0         0         0
         0         0         0         0         0         0         0         0
         0         0         0         0         0         0         0         0
         0         0         0         0         0         0         0         0
         0         0         0         0         0         0         0         0
         0         0         0         0         0         0         0         0
         0         0         0         0         0         0         0         0
         0         0         0         0         0         0         0         0
         0         0         0         0         0         0         0         0
         0         0         0         0         0         0         0         0
         0         0         0         0         0         0         0         0
         0         0         0         0         0         0         0         0
         0         0         0         0         0         0         0         0
         0         0         0         0         0         0         0         0
         0         0         0         0         0         0         0         0
         0         0         0         0         0         0         0         0
         0         0         0         0         0         0         0         0
         0         0         0         0         0         0         0         0
         0         0         0         0         0         0         0         0
         0         0         0         0         0         0         0         0
         0         0         0         0         0         0         0         0
         0         0         0         0         0         0         0         0
         0         0         0         0         0         0         0         0
         0         0         0         0         0         0         0         0
         0         0         0         0         0         0         0         0
         0         0         0         0         0         0         0         0
         0         0         0         0         0         0         0         0
         0         0         0         0         0         0         0         0
         0         0         0         0         0         0         0         0
         0         0         0         0         0         0         0         0
         0         0         0         0         0         0         0         0
         0         0         0         0         0         0         0         0
         0         0         0         0         0         0         0         0
         0         0         0         0         0         0         0         0
         0         0         0         0         0         0         0         0
         0         0         0         0         0         0         0         0
         0         0         0         0         0         0         0         0
         0         0         0         0         0         0         0         0
         0         0         0         0         0         0         0         0
         0         0         0         0         0         0         0         0
         0         0         0         0         0         0         0         0
         0         0         0         0         0         0         0         0
         0         0         0         0         0         0         0         0
         0         0         0         0         0         0         0         0
         0         0         0         0         0         0         0         0
         0         0         0         0         0         0         0         0
         0         0         0         0         0         0         0         0
         0         0         0         0         0         0         0         0
         0         0         0         0         0         0         0         0
         0         0         0         0         0         0         0         0
         0         0         0         0         0         0         0         0
         0         0         0         0         0         0         0         0
         0         0         0         0         0         0         0         0
         0         0         0         0         0         0         0         0
         0         0         0         0         0         0         0         0
         0         0         0         0         0         0         0         0
         0         0         0         0         0         0         0         0
         0         0         0         0         0         0         0         0
         0         0         0         0         0         0         0         0
         0         0         0         0         0         0         0         0
         0         0         0         0         0         0         0         0
         0         0         0         0         0         0         0         0
         0         0         0         0         0         0         0         0
         0         0         0         0         0         0         0         0
         0         0         0         0         0         0         0         0
         0         0         0         0         0         0         0         0
         0         0         0         0         0         0         0         0
         0         0         0         0         0         0         0         0
         0         0         0         0         0         0         0         0
         0         0         0         0         0         0         0         0
         0         0         0         0         0         0         0         0
         0         0         0         0         0         0         0         0
         0         0         0         0         0         0         0         0
         0         0         0         0         0         0         0         0
         0         0         0         0         0         0         0         0
         0         0         0         0         0         0         0         0
         0         0         0         0         0         0         0         0
         0         0         0         0         0         0         0         0
         0         0         0         0         0         0         0         0
         0         0         0         0         0         0         0         0
         0         0         0         0         0         0         0         0
         0         0         0         0         0         0         0         0
         0         0         0         0         0         0         0         0
         0         0         0         0         0         0         0         0
         0         0         0         0         0         0         0         0
         0         0         0         0         0         0         0         0
         0         0         0         0         0         0         0         0
         0         0         0         0         0         0         0         0
         0         0         0         0         0         0         0         0
         0         0         0         0         0         0         0         0
         0         0         0         0         0         0         0         0
         0         0         0         0         0         0         0         0
         0         0         0         0         0         0         0         0
         0         0         0         0         0         0         0         0
         0         0         0         0         0         0         0         0
         0         0         0         0         0         0         0         0
         0         0         0         0         0         0         0         0
         0         0         0         0         0         0         0         0
         0         0         0         0         0         0         0         0
         0         0         0         0         0         0         0         0
         0         0         0         0         0         0         0         0
         0         0         0         0         0         0         0         0
         0         0         0         0         0         0         0         0
         0         0         0         0         0         0         0         0
         0         0         0         0         0         0         0         0
         0         0         0         0         0         0         0         0
         0         0         0         0         0         0         0         0
         0         0         0         0         0         0         0         0
         0         0         0         0         0         0         0         0
         0         0         0         0         0         0         0         0
         0         0         0         0         0         0         0         0
         0         0         0         0         0         0         0         0
         0         0         0         0         0         0         0         0
         0         0         0         0         0         0         0         0
         0         0         0         0         0         0         0         0
         0         0         0         0         0         0         0         0
         0         0         0         0         0         0         0         0
         0         0         0         0         0         0         0         0
         0         0         0         0         0         0         0         0
         0         0         0         0         0         0         0         0
         0         0         0         0         0         0         0         0
         0         0         0         0         0         0         0         0
         0         0         0         0         0         0         0         0
         0         0         0         0         0         0         0         0
         0         0         0         0         0         0         0         0
         0         0         0         0         0         0         0         0
         0         0         0         0         0         0         0         0
         0         0         0         0         0         0         0         0
         0         0         0         0         0         0         0         0
         0         0         0         0         0         0         0         0
         0         0         0         0         0         0         0         0
         0         0         0         0         0         0         0         0
         0         0         0         0         0         0         0         0
         0         0         0         0         0         0         0         0
         0         0         0         0         0         0         0         0
         0         0         0         0         0         0         0         0
         0         0         0         0         0         0         0         0
         0         0         0         0         0         0         0         0
         0         0         0         0         0         0         0         0
         0         0         0         0         0         0         0         0
         0         0         0         0         0         0         0         0
         0         0         0         0         0         0         0         0
         0         0         0         0         0         0         0         0
         0         0         0         0         0         0         0         0
         0         0         0         0         0         0         0         0
         0         0         0         0         0         0         0         0
         0         0         0         0         0         0         0         0
         0         0         0         0         0         0         0         0
         0         0         0         0         0         0         0         0
         0         0         0         0         0         0         0         0
         0         0         0         0         0         0         0         0
         0         0         0         0         0         0         0         0
         0         0         0         0         0         0         0         0
         0         0         0         0         0         0         0         0
         0         0         0         0         0         0         0         0
         0         0         0         0         0         0         0         0
         0         0         0         0         0         0         0         0
         0         0         0         0         0         0         0         0
         0         0         0         0         0         0         0         0
         0         0         0         0         0         0         0         0
         0         0         0         0         0         0         0         0
         0         0         0         0         0         0         0         0
         0         0         0         0         0         0         0         0
         0         0         0         0         0         0         0         0
         0         0         0         0         0         0         0         0
         0         0         0         0         0         0         0         0
         0         0         0         0         0         0         0         0
         0         0         0         0         0         0         0         0
         0         0         0         0         0         0         0         0
         0         0         0         0         0         0         0         0
         0         0         0         0         0         0         0         0
         0         0         0         0         0         0         0         0
         0         0         0         0         0         0         0         0
         0         0         0         0         0         0         0         0
         0         0         0         0         0         0         0         0
         0         0         0         0         0         0         0         0
         0         0         0         0         0         0         0         0
         0         0         0         0         0         0         0         0
         0         0         0         0         0         0         0         0
         0         0         0         0         0         0         0         0
         0         0         0         0         0         0         0         0
         0         0         0         0         0         0         0         0
         0         0         0         0         0         0         0         0
         0         0         0         0         0         0         0         0
         0         0         0         0         0         0         0         0
         0         0         0         0         0         0         0         0
         0         0         0         0         0         0         0         0
         0         0         0         0         0         0         0         0
         0         0         0         0         0         0         0         0
         0         0         0         0         0         0         0         0
         0         0         0         0         0         0         0         0
         0         0         0         0         0         0         0         0
         0         0         0         0         0         0         0         0
         0         0         0         0         0         0         0         0
         0         0         0         0         0         0         0         0
         0         0         0         0         0         0         0         0
         0         0         0         0         0         0         0         0
         0         0         0         0         0         0         0         0
         0         0         0         0         0         0         0         0
         0         0         0         0         0         0         0         0
         0         0         0         0         0         0         0         0
         0         0         0         0         0         0         0         0
         0         0         0         0         0         0         0         0
         0         0         0         0         0         0         0         0
         0         0         0         0         0         0         0         0
         0         0         0         0         0         0         0         0
         0         0         0         0         0         0         0         0
         0         0         0         0         0         0         0         0
         0         0         0         0         0         0         0         0
         0         0         0         0         0         0         0         0
         0         0         0         0         0         0         0         0
         0         0         0         0         0         0         0         0
         0         0         0         0         0         0         0         0
         0         0         0         0         0         0         0         0
         0         0         0         0         0         0         0         0
         0         0         0         0         0         0         0         0
         0         0         0         0         0         0         0         0
         0         0         0         0         0         0         0         0
         0         0         0         0         0         0         0         0
         0         0         0         0         0         0         0         0
         0         0         0         0         0         0         0         0
         0         0         0         0         0         0         0         0
         0         0         0         0         0         0         0         0
         0         0         0         0         0         0         0         0
         0         0         0         0         0         0         0         0
         0         0         0         0         0         0         0         0
         0         0         0         0         0         0         0         0
         0         0         0         0         0         0         0         0
         0         0         0         0         0         0         0         0
         0         0         0         0         0         0         0         0
         0         0         0         0         0         0         0         0
         0         0         0         0         0         0         0         0
         0         0         0         0         0         0         0         0
         0         0         0         0         0         0         0         0
         0         0         0         0         0         0         0         0
         0         0         0         0         0         0         0         0
         0         0         0         0         0         0         0         0
         0         0         0         0         0         0         0         0
         0         0         0         0         0         0         0         0
         0         0         0         0         0         0         0         0
         0         0         0         0         0         0         0         0
         0         0         0         0         0         0         0         0
         0         0         0         0         0         0         0         0
         0         0         0         0         0         0         0         0
         0         0         0         0         0         0         0         0
         0         0         0         0         0         0         0         0
         0         0         0         0         0         0         0         0
         0         0         0         0         0         0         0         0
         0         0         0         0         0         0         0         0
         0         0         0         0         0         0         0         0
         0         0         0         0         0         0         0         0
         0         0         0         0         0         0         0         0
         0         0         0         0         0         0         0         0
         0         0         0         0         0         0         0         0
         0         0         0         0         0         0         0         0
         0         0         0         0         0         0         0         0
         0         0         0         0         0         0         0         0
         0         0         0         0         0         0         0         0
         0         0         0         0         0         0         0         0
         0         0         0         0         0         0         0         0
         0         0         0         0         0         0         0         0
         0         0         0         0         0         0         0         0
         0         0         0         0         0         0         0         0
         0         0         0         0         0         0         0         0
         0         0         0         0         0         0         0         0
         0         0         0         0         0         0         0         0
         0         0         0         0         0         0         0         0
         0         0         0         0         0         0         0         0
         0         0         0         0         0         0         0         0
         0         0         0         0         0         0         0         0
         0         0         0         0         0         0         0         0
         0         0         0         0         0         0         0         0
         0         0         0         0         0         0         0         0
         0         0         0         0         0         0         0         0
         0         0         0         0         0         0         0         0
         0         0         0         0         0         0         0         0
         0         0         0         0         0         0         0         0
         0         0         0         0         0         0         0         0
         0         0         0         0         0         0         0         0
         0         0         0         0         0         0         0         0
         0         0         0         0         0         0         0         0
         0         0         0         0         0         0         0         0
         0         0         0         0         0         0         0         0
         0         0         0         0         0         0         0         0
         0         0         0         0         0         0         0         0
         0         0         0         0         0         0         0         0
         0         0         0         0         0         0         0         0
         0         0         0         0         0         0         0         0
         0         0         0         0         0         0         0         0
         0         0         0         0         0         0         0         0
         0         0         0         0         0         0         0         0
         0         0         0         0         0         0         0         0
         0         0         0         0         0         0         0         0
         0         0         0         0         0         0         0         0
         0         0         0         0         0         0         0         0
         0         0         0         0         0         0         0         0
         0         0         0         0         0         0         0         0
         0         0         0         0         0         0         0         0
         0         0         0         0         0         0         0         0
         0         0         0         0         0         0         0         0
         0         0         0         0         0         0         0         0
         0         0         0         0         0         0         0         0
         0         0         0         0         0         0         0         0
         0         0         0         0         0         0         0         0
         0         0         0         0         0         0         0         0
         0         0         0         0         0         0         0         0
         0         0         0         0         0         0         0         0
         0         0         0         0         0         0         0         0
         0         0         0         0         0         0         0         0
         0         0         0         0         0         0         0         0
         0         0         0         0         0         0         0         0
         0         0         0         0         0         0         0         0
         0         0         0         0         0         0         0         0
         0         0         0         0         0         0         0         0
         0         0         0         0         0         0         0         0
         0         0         0         0         0         0         0         0
         0         0         0         0         0         0         0         0
         0         0         0         0         0         0         0         0
         0         0         0         0         0         0         0         0
         0         0         0         0         0         0         0         0
         0         0         0         0         0         0         0         0
         0         0         0         0         0         0         0         0
         0         0         0         0         0         0         0         0
         0         0         0         0         0         0         0         0
         0         0         0         0         0         0         0         0
         0         0         0         0         0         0         0         0
         0         0         0         0         0         0         0         0
         0         0         0         0         0         0         0         0
         0         0         0         0         0         0         0         0
         0         0         0         0         0         0         0         0
         0         0         0         0         0         0         0         0
         0         0         0         0         0         0         0         0
         0         0         0         0         0         0         0         0
         0         0         0         0         0         0         0         0
         0         0         0         0         0         0         0         0
         0         0         0         0         0         0         0         0
         0         0         0         0         0         0         0         0
         0         0         0         0         0         0         0         0
         0         0         0         0         0         0         0         0
         0         0         0         0         0         0         0         0
         0         0         0         0         0         0         0         0
         0         0         0         0         0         0         0         0
         0         0         0         0         0         0         0         0
         0         0         0         0         0         0         0         0
         0         0         0         0         0         0         0         0
         0         0         0         0         0         0         0         0
         0         0         0         0         0         0         0         0
         0         0         0         0         0         0         0         0
         0         0         0         0         0         0         0         0
         0         0         0         0         0         0         0         0
         0         0         0         0         0         0         0         0
         0         0         0         0         0         0         0         0
         0         0         0         0         0         0         0         0
         0         0         0         0         0         0         0         0
         0         0         0         0         0         0         0         0
         0         0         0         0         0         0         0         0
         0         0         0         0         0         0         0         0
         0         0         0         0         0         0         0         0
         0         0         0         0         0         0         0         0
         0         0         0         0         0         0         0         0
         0         0         0         0         0         0         0         0
         0         0         0         0         0         0         0         0
         0         0         0         0         0         0         0         0
         0         0         0         0         0         0         0         0
         0         0         0         0         0         0         0         0
         0         0         0         0         0         0         0         0
         0         0         0         0         0         0         0         0
         0         0         0         0         0         0         0         0
         0         0         0         0         0         0         0         0
         0         0         0         0         0         0         0         0
         0         0         0         0         0         0         0         0
         0         0         0         0         0         0         0         0
         0         0         0         0         0         0         0         0
         0         0         0         0         0         0         0         0
         0         0         0         0         0         0         0         0
         0         0         0         0         0         0         0         0
         0         0         0         0         0         0         0         0
         0         0         0         0         0         0         0         0
         0         0         0         0         0         0         0         0
         0         0         0         0         0         0         0         0
         0         0         0         0         0         0         0         0
         0         0         0         0         0         0         0         0
         0         0         0         0         0         0         0         0
         0         0         0         0         0         0         0         0
         0         0         0         0         0         0         0         0
         0         0         0         0         0         0         0         0
         0         0         0         0         0         0         0         0
         0         0         0         0         0         0         0         0
         0         0         0         0         0         0         0         0
         0         0         0         0         0         0         0         0
         0         0         0         0         0         0         0         0
         0         0         0         0         0         0         0         0
         0         0         0         0         0         0         0         0
         0         0         0         0         0         0         0         0
         0         0         0         0         0         0         0         0
         0         0         0         0         0         0         0         0
         0         0         0         0         0         0         0         0
         0         0         0         0         0         0         0         0
         0         0         0         0         0         0         0         0
         0         0         0         0         0         0         0         0
         0         0         0         0         0         0         0         0
         0         0         0         0         0         0         0         0
         0         0         0         0         0         0         0         0
         0         0         0         0         0         0         0         0
         0         0         0         0         0         0         0         0
         0         0         0         0         0         0         0         0
         0         0         0         0         0         0         0         0
         0         0         0         0         0         0         0         0
         0         0         0         0         0         0         0         0
         0         0         0         0         0         0         0         0
         0         0         0         0         0         0         0         0
         0         0         0         0         0         0         0         0
         0         0         0         0         0         0         0         0
         0         0         0         0         0         0         0         0
         0         0         0         0         0         0         0         0
         0         0         0         0         0         0         0         0
         0         0         0         0         0         0         0         0
         0         0         0         0         0         0         0         0
         0         0         0         0         0         0         0         0
         0         0         0         0         0         0         0         0
         0         0         0         0         0         0         0         0
         0         0         0         0         0         0         0         0
         0         0         0         0         0         0         0         0
         0         0         0         0         0         0         0         0
         0         0         0         0         0         0         0         0
         0         0         0         0         0         0         0         0
         0         0         0         0         0         0         0         0
         0         0         0         0         0         0         0         0
         0         0         0         0         0         0         0         0
         0         0         0         0         0         0         0         0
         0         0         0         0         0         0         0         0
         0         0         0         0         0         0         0         0
         0         0         0         0         0         0         0         0
         0         0         0         0         0         0         0         0
         0         0         0         0         0         0         0         0
         0         0         0         0         0         0         0         0
         0         0         0         0         0         0         0         0
         0         0         0         0         0         0         0         0
         0         0         0         0         0         0         0         0
         0         0         0         0         0         0         0         0
         0         0         0         0         0         0         0         0
         0         0         0         0         0         0         0         0
         0         0         0         0         0         0         0         0
         0         0         0         0         0         0         0         0
         0         0         0         0         0         0         0         0
         0         0         0         0         0         0         0         0
         0         0         0         0         0         0         0         0
         0         0         0         0         0         0         0         0
         0         0         0         0         0         0         0         0
         0         0         0         0         0         0         0         0
         0         0         0         0         0         0         0         0
         0         0         0         0         0         0         0         0
         0         0         0         0         0         0         0         0
         0         0         0         0         0         0         0         0
         0         0         0         0         0         0         0         0
         0         0         0         0         0         0         0         0
         0         0         0         0         0         0         0         0
         0         0         0         0         0         0         0         0
         0         0         0         0         0         0         0         0
         0         0         0         0         0         0         0         0
         0         0         0         0         0         0         0         0
         0         0         0         0         0         0         0         0
         0         0         0         0         0         0         0         0
         0         0         0         0         0         0         0         0
         0         0         0         0         0         0         0         0
         0         0         0         0         0         0         0         0
         0         0         0         0         0         0         0         0
         0         0         0         0         0         0         0         0
         0         0         0         0         0         0         0         0
         0         0         0         0         0         0         0         0
         0         0         0         0         0         0         0         0
         0         0         0         0         0         0         0         0
         0         0         0         0         0         0         0         0
         0         0         0         0         0         0         0         0
         0         0         0         0         0         0         0         0
         0         0         0         0         0         0         0         0
         0         0         0         0         0         0         0         0
         0         0         0         0         0         0         0         0
         0         0         0         0         0         0         0         0
         0         0         0         0         0         0         0         0
         0         0         0         0         0         0         0         0
         0         0         0         0         0         0         0         0
         0         0         0         0         0         0         0         0
         0         0         0         0         0         0         0         0
         0         0         0         0         0         0         0         0
         0         0         0         0         0         0         0         0
         0         0         0         0         0         0         0         0
         0         0         0         0         0         0         0         0
         0         0         0         0         0         0         0         0
         0         0         0         0         0         0         0         0
         0         0         0         0         0         0         0         0
         0         0         0         0         0         0         0         0
         0         0         0         0         0         0         0         0
         0         0         0         0         0         0         0         0
         0         0         0         0         0         0         0         0
         0         0         0         0         0         0         0         0
         0         0         0         0         0         0         0         0
         0         0         0         0         0         0         0         0
         0         0         0         0         0         0         0         0
         0         0         0         0         0         0         0         0
         0         0         0         0         0         0         0         0
         0         0         0         0         0         0         0         0
         0         0         0         0         0         0         0         0
         0         0         0         0         0         0         0         0
         0         0         0         0         0         0         0         0
         0         0         0         0         0         0         0         0
         0         0         0         0         0         0         0         0
         0         0         0         0         0         0         0         0
         0         0         0         0         0         0         0         0
         0         0         0         0         0         0         0         0
         0         0         0         0         0         0         0         0
         0         0         0         0         0         0         0         0
         0         0         0         0         0         0         0         0
         0         0         0         0         0         0         0         0
         0         0         0         0         0         0         0         0
         0         0         0         0         0         0         0         0
         0         0         0         0         0         0         0         0
         0         0         0         0         0         0         0         0
         0         0         0         0         0         0         0         0
         0         0         0         0         0         0         0         0
         0         0         0         0         0         0         0         0
         0         0         0         0         0         0         0         0
         0         0         0         0         0         0         0         0
         0         0         0         0         0         0         0         0
         0         0         0         0         0         0         0         0
         0         0         0         0         0         0         0         0
         0         0         0         0         0         0         0         0
         0         0         0         0         0         0         0         0
         0         0         0         0         0         0         0         0
         0         0         0         0         0         0         0         0
         0         0         0         0         0         0         0         0
         0         0         0         0         0         0         0         0
         0         0         0         0         0         0         0         0
         0         0         0         0         0         0         0         0
         0         0         0         0         0         0         0         0
         0         0         0         0         0         0         0         0
         0         0         0         0         0         0         0         0
         0         0         0         0         0         0         0         0
         0         0         0         0         0         0         0         0
         0         0         0         0         0         0         0         0
         0         0         0         0         0         0         0         0
         0         0         0         0         0         0         0         0
         0         0         0         0         0         0         0         0
         0         0         0         0         0         0         0         0
         0         0         0         0         0         0         0         0
         0         0         0         0         0         0         0         0
         0         0         0         0         0         0         0         0
         0         0         0         0         0         0         0         0
         0         0         0         0         0         0         0         0
         0         0         0         0         0         0         0         0
         0         0         0         0         0         0         0         0
         0         0         0         0         0         0         0         0
         0         0         0         0         0         0         0         0
         0         0         0         0         0         0         0         0
         0         0         0         0         0         0         0         0
         0         0         0         0         0         0         0         0
         0         0         0         0         0         0         0         0
         0         0         0         0         0         0         0         0
         0         0         0         0         0         0         0         0
         0         0         0         0         0         0         0         0
         0         0         0         0         0         0         0         0
         0         0         0         0         0         0         0         0
         0         0         0         0         0         0         0         0
         0         0         0         0         0         0         0         0
         0         0         0         0         0         0         0         0
         0         0         0         0         0         0         0         0
         0         0         0         0         0         0         0         0
         0         0         0         0         0         0         0         0
         0         0         0         0         0         0         0         0
         0         0         0         0         0         0         0         0
         0         0         0         0         0         0         0         0
         0         0         0         0         0         0         0         0
         0         0         0         0         0         0         0         0
         0         0         0         0         0         0         0         0
         0         0         0         0         0         0         0         0
         0         0         0         0         0         0         0         0
         0         0         0         0         0         0         0         0
         0         0         0         0         0         0         0         0
         0         0         0         0         0         0         0         0
         0         0         0         0         0         0         0         0
         0         0         0         0         0         0         0         0
         0         0         0         0         0         0         0         0
         0         0         0         0         0         0         0         0
         0         0         0         0         0         0         0         0
         0         0         0         0         0         0         0         0
         0         0         0         0         0         0         0         0
         0         0         0         0         0         0         0         0
         0         0         0         0         0         0         0         0
         0         0         0         0         0         0         0         0
         0         0         0         0         0         0         0         0
         0         0         0         0         0         0         0         0
         0         0         0         0         0         0         0         0
         0         0         0         0         0         0         0         0
         0         0         0         0         0         0         0         0
         0         0         0         0         0         0         0         0
         0         0         0         0         0         0         0         0
         0         0         0         0         0         0         0         0
         0         0         0         0         0         0         0         0
         0         0         0         0         0         0         0         0
         0         0         0         0         0         0         0         0
         0         0         0         0         0         0         0         0
         0         0         0         0         0         0         0         0
         0         0         0         0         0         0         0         0
         0         0         0         0         0         0         0         0
         0         0         0         0         0         0         0         0
         0         0         0         0         0         0         0         0
         0         0         0         0         0         0         0         0
         0         0         0         0         0         0         0         0
         0         0         0         0         0         0         0         0
         0         0         0         0         0         0         0         0
         0         0         0         0         0         0         0         0
         0         0         0         0         0         0         0         0
         0         0         0         0         0         0         0         0
         0         0         0         0         0         0         0         0
         0         0         0         0         0         0         0         0
         0         0         0         0         0         0         0         0
         0         0         0         0         0         0         0         0
         0         0         0         0         0         0         0         0
         0         0         0         0         0         0         0         0
         0         0         0         0         0         0         0         0
         0         0         0         0         0         0         0         0
         0         0         0         0         0         0         0         0
         0         0         0         0         0         0         0         0
         0         0         0         0         0         0         0         0
         0         0         0         0         0         0         0         0
         0         0         0         0         0         0         0         0
         0         0         0         0         0         0         0         0
         0         0         0         0         0         0         0         0
         0         0         0         0         0         0         0         0
         0         0         0         0         0         0         0         0
         0         0         0         0         0         0         0         0
         0         0         0         0         0         0         0         0
         0         0         0         0         0         0         0         0
         0         0         0         0         0         0         0         0
         0         0         0         0         0         0         0         0
         0         0         0         0         0         0         0         0
         0         0         0         0         0         0         0         0
         0         0         0         0         0         0         0         0
         0         0         0         0         0         0         0         0
         0         0         0         0         0         0         0         0
         0         0         0         0         0         0         0         0
         0         0         0         0         0         0         0         0
         0         0         0         0         0         0         0         0
         0         0         0         0         0         0         0         0
         0         0         0         0         0         0         0         0
         0         0         0         0         0         0         0         0
         0         0         0         0         0         0         0         0
         0         0         0         0         0         0         0         0
         0         0         0         0         0         0         0         0
         0         0         0         0         0         0         0         0
         0         0         0         0         0         0         0         0
         0         0         0         0         0         0         0         0
         0         0         0         0         0         0         0         0
         0         0         0         0         0         0         0         0
         0         0         0         0         0         0         0         0
         0         0         0         0         0         0         0         0
         0         0         0         0         0         0         0         0
         0         0         0         0         0         0         0         0
         0         0         0         0         0         0         0         0
         0         0         0         0         0         0         0         0
         0         0         0         0         0         0         0         0
         0         0         0         0         0         0         0         0
         0         0         0         0         0         0         0         0
         0         0         0         0         0         0         0         0
         0         0         0         0         0         0         0         0
         0         0         0         0         0         0         0         0
         0         0         0         0         0         0         0         0
         0         0         0         0         0         0         0         0
         0         0         0         0         0         0         0         0
         0         0         0         0         0         0         0         0
         0         0         0         0         0         0         0         0
         0         0         0         0         0         0         0         0
         0         0         0         0         0         0         0         0
         0         0         0         0         0         0         0         0
         0         0         0         0         0         0         0         0
         0         0         0         0         0         0         0         0
         0         0         0         0         0         0         0         0
         0         0         0         0         0         0         0         0
         0         0         0         0         0         0         0         0
         0         0         0         0         0         0         0         0
         0         0         0         0         0         0         0         0
         0         0         0         0         0         0         0         0
         0         0         0         0         0         0         0         0
         0         0         0         0         0         0         0         0
         0         0         0         0         0         0         0         0
         0         0         0         0         0         0         0         0
         0         0         0         0         0         0         0         0
         0         0         0         0         0         0         0         0
         0         0         0         0         0         0         0         0
         0         0         0         0         0         0         0         0
         0         0         0         0         0         0         0         0
         0         0         0         0         0         0         0         0
         0         0         0         0         0         0         0         0
         0         0         0         0         0         0         0         0
         0         0         0         0         0         0         0         0
         0         0         0         0         0         0         0         0
         0         0         0         0         0         0         0         0
         0         0         0         0         0         0         0         0
         0         0         0         0         0         0         0         0
         0         0         0         0         0         0         0         0
         0         0         0         0         0         0         0         0
         0         0         0         0         0         0         0         0
         0         0         0         0         0         0         0         0
         0         0         0         0         0         0         0         0
         0         0         0         0         0         0         0         0
         0         0         0         0         0         0         0         0
         0         0         0         0         0         0         0         0
         0         0         0         0         0         0         0         0
         0         0         0         0         0         0         0         0
         0         0         0         0         0         0         0         0
         0         0         0         0         0         0         0         0
         0         0         0         0         0         0         0         0
         0         0         0         0         0         0         0         0
         0         0         0         0         0         0         0         0
         0         0         0         0         0         0         0         0
         0         0         0         0         0         0         0         0
         0         0         0         0         0         0         0         0
         0         0         0         0         0         0         0         0
         0         0         0         0         0         0         0         0
         0         0         0         0         0         0         0         0
         0         0         0         0         0         0         0         0
         0         0         0         0         0         0         0         0
         0         0         0         0         0         0         0         0
         0         0         0         0         0         0         0         0
         0         0         0         0         0         0         0         0
         0         0         0         0         0         0         0         0
         0         0         0         0         0         0         0         0
         0         0         0         0         0         0         0         0
         0         0         0         0         0         0         0         0
         0         0         0         0         0         0         0         0
         0         0         0         0         0         0         0         0
         0         0         0         0         0         0         0         0
         0         0         0         0         0         0         0         0
         0         0         0         0         0         0         0         0
         0         0         0         0         0         0         0         0
         0         0         0         0         0         0         0         0
         0         0         0         0         0         0         0         0
         0         0         0         0         0         0         0         0
         0         0         0         0         0         0         0         0
         0         0         0         0         0         0         0         0
         0         0         0         0         0         0         0         0
         0         0         0         0         0         0         0         0
         0         0         0         0         0         0         0         0
         0         0         0         0         0         0         0         0
         0         0         0         0         0         0         0         0
         0         0         0         0         0         0         0         0
         0         0         0         0         0         0         0         0
         0         0         0         0         0         0         0         0
         0         0         0         0         0         0         0         0
         0         0         0         0         0         0         0         0
         0         0         0         0         0         0         0         0
         0         0         0         0         0         0         0         0
         0         0         0         0         0         0         0         0
         0         0         0         0         0         0         0         0
         0         0         0         0         0         0         0         0
         0         0         0         0         0         0         0         0
         0         0         0         0         0         0         0         0
         0         0         0         0         0         0         0         0
         0         0         0         0         0         0         0         0
         0         0         0         0         0         0         0         0
         0         0         0         0         0         0         0         0
         0         0         0         0         0         0         0         0
         0         0         0         0         0         0         0         0
         0         0         0         0         0         0         0         0
         0         0         0         0         0         0         0         0
         0         0         0         0         0         0         0         0
         0         0         0         0         0         0         0         0
         0         0         0         0         0         0         0         0
         0         0         0         0         0         0         0         0
         0         0         0         0         0         0         0         0
         0         0         0         0         0         0         0         0
         0         0         0         0         0         0         0         0
         0         0         0         0         0         0         0         0
         0         0         0         0         0         0         0         0
         0         0         0         0         0         0         0         0
         0         0         0         0         0         0         0         0
         0         0         0         0         0         0         0         0
         0         0         0         0         0         0         0         0
         0         0         0         0         0         0         0         0
         0         0         0         0         0         0         0         0
         0         0         0         0         0         0         0         0
         0         0         0         0         0         0         0         0
         0         0         0         0         0         0         0         0
         0         0         0         0         0         0         0         0
         0         0         0         0         0         0         0         0
         0         0         0         0         0         0         0         0
         0         0         0         0         0         0         0         0
         0         0         0         0         0         0         0         0
         0         0         0         0         0         0         0         0
         0         0         0         0         0         0         0         0
         0         0         0         0         0         0         0         0
         0         0         0         0         0         0         0         0
         0         0         0         0         0         0         0         0
         0         0         0         0         0         0         0         0
         0         0         0         0         0         0         0         0
         0         0         0         0         0         0         0         0
         0         0         0         0         0         0         0         0
         0         0         0         0         0         0         0         0
         0         0         0         0         0         0         0         0
         0         0         0         0         0         0         0         0
         0         0         0         0         0         0         0         0
         0         0         0         0         0         0         0         0
         0         0         0         0         0         0         0         0
         0         0         0         0         0         0         0         0
         0         0         0         0         0         0         0         0
         0         0         0         0         0         0         0         0
         0         0         0         0         0         0         0         0
         0         0         0         0         0         0         0         0
         0         0         0         0         0         0         0         0
         0         0         0         0         0         0         0         0
         0         0         0         0         0         0         0         0
         0         0         0         0         0         0         0         0
         0         0         0         0         0         0         0         0
         0         0         0         0         0         0         0         0
         0         0         0         0         0         0         0         0
         0         0         0         0         0         0         0         0
         0         0         0         0         0         0         0         0
         0         0         0         0         0         0         0         0
         0         0         0         0         0         0         0         0
         0         0         0         0         0         0         0         0
         0         0         0         0         0         0         0         0
         0         0         0         0         0         0         0         0
         0         0         0         0         0         0         0         0
         0         0         0         0         0         0         0         0
         0         0         0         0         0         0         0         0
         0         0         0         0         0         0         0         0
         0         0         0         0         0         0         0         0
         0         0         0         0         0         0         0         0
         0         0         0         0         0         0         0         0
         0         0         0         0         0         0         0         0
         0         0         0         0         0         0         0         0
         0         0         0         0         0         0         0         0
         0         0         0         0         0         0         0         0
         0         0         0         0         0         0         0         0
         0         0         0         0         0         0         0         0
         0         0         0         0         0         0         0         0
         0         0         0         0         0         0         0         0
         0         0         0         0         0         0         0         0
         0         0         0         0         0         0         0         0
         0         0         0         0         0         0         0         0
         0         0         0         0         0         0         0         0
         0         0         0         0         0         0         0         0
         0         0         0         0         0         0         0         0
         0         0         0         0         0         0         0         0
         0         0         0         0         0         0         0         0
         0         0         0         0         0         0         0         0
         0         0         0         0         0         0         0         0
         0         0         0         0         0         0         0         0
         0         0         0         0         0         0         0         0
         0         0         0         0         0         0         0         0
         0         0         0         0         0         0         0         0
         0         0         0         0         0         0         0         0
         0         0         0         0         0         0         0         0
         0         0         0         0         0         0         0         0
         0         0         0         0         0         0         0         0
         0         0         0         0         0         0         0         0
         0         0         0         0         0         0         0         0
         0         0         0         0         0         0         0         0
         0         0         0         0         0         0         0         0
         0         0         0         0         0         0         0         0
         0         0         0         0         0         0         0         0
         0         0         0         0         0         0         0         0
         0         0         0         0         0         0         0         0
         0         0         0         0         0         0         0         0
         0         0         0         0         0         0         0         0
         0         0         0         0         0         0         0         0
         0         0         0         0         0         0         0         0
         0         0         0         0         0         0         0         0
         0         0         0         0         0         0         0         0
         0         0         0         0         0         0         0         0
         0         0         0         0         0         0         0         0
         0         0         0         0         0         0         0         0
         0         0         0         0         0         0         0         0
         0         0         0         0         0         0         0         0
         0         0         0         0         0         0         0         0
         0         0         0         0         0         0         0         0
         0         0         0         0         0         0         0         0
         0         0         0         0         0         0         0         0
         0         0         0         0         0         0         0         0
         0         0         0         0         0         0         0         0
         0         0         0         0         0         0         0         0
         0         0         0         0         0         0         0         0
         0         0         0         0         0         0         0         0
         0         0         0         0         0         0         0         0
         0         0         0         0         0         0         0         0
         0         0         0         0         0         0         0         0
         0         0         0         0         0         0         0         0
         0         0         0         0         0         0         0         0
         0         0         0         0         0         0         0         0
         0         0         0         0         0         0         0         0
         0         0         0         0         0         0         0         0
         0         0         0         0         0         0         0         0
         0         0         0         0         0         0         0         0
         0         0         0         0         0         0         0         0
         0         0         0         0         0         0         0         0
         0         0         0         0         0         0         0         0
         0         0         0         0         0         0         0         0
         0         0         0         0         0         0         0         0
         0         0         0         0         0         0         0         0
         0         0         0         0         0         0         0         0
         0         0         0         0         0         0         0         0
         0         0         0         0         0         0         0         0
         0         0         0         0         0         0         0         0
         0         0         0         0         0         0         0         0
         0         0         0         0         0         0         0         0
         0         0         0         0         0         0         0         0
         0         0         0         0         0         0         0         0
         0         0         0         0         0         0         0         0
         0         0         0         0         0         0         0         0
         0         0         0         0         0         0         0         0
         0         0         0         0         0         0         0         0
         0         0         0         0         0         0         0         0
         0         0         0         0         0         0         0         0
         0         0         0         0         0         0         0         0
         0         0         0         0         0         0         0         0
         0         0         0         0         0         0         0         0
         0         0         0         0         0         0         0         0
         0         0         0         0         0         0         0         0
         0         0         0         0         0         0         0         0
         0         0         0         0         0         0         0         0
         0         0         0         0         0         0         0         0
         0         0         0         0         0         0         0         0
         0         0         0         0         0         0         0         0
         0         0         0         0         0         0         0         0
         0         0         0         0         0         0         0         0
         0         0         0         0         0         0         0         0
         0         0         0         0         0         0         0         0
         0         0         0         0         0         0         0         0
         0         0         0         0         0         0         0         0
         0         0         0         0         0         0         0         0
         0         0         0         0         0         0         0         0
         0         0         0         0         0         0         0         0
         0         0         0         0         0         0         0         0
         0         0         0         0         0         0         0         0
         0         0         0         0         0         0         0         0
         0         0         0         0         0         0         0         0
         0         0         0         0         0         0         0         0
         0         0         0         0         0         0         0         0
         0         0         0         0         0         0         0         0
         0         0         0         0         0         0         0         0
         0         0         0         0         0         0         0         0
         0         0         0         0         0         0         0         0
         0         0         0         0         0         0         0         0
         0         0         0         0         0         0         0         0
         0         0         0         0         0         0         0         0
         0         0         0         0         0         0         0         0
         0         0         0         0         0         0         0         0
         0         0         0         0         0         0         0         0
         0         0         0         0         0         0         0         0
         0         0         0         0         0         0         0         0
         0         0         0         0         0         0         0         0
         0         0         0         0         0         0         0         0
         0         0         0         0         0         0         0         0
         0         0         0         0         0         0         0         0
         0         0         0         0         0         0         0         0
         0         0         0         0         0         0         0         0
         0         0         0         0         0         0         0         0
         0         0         0         0         0         0         0         0
         0         0         0         0         0         0         0         0
         0         0         0         0         0         0         0         0
         0         0         0         0         0         0         0         0
         0         0         0         0         0         0         0         0
         0         0         0         0         0         0         0         0
         0         0         0         0         0         0         0         0
         0         0         0         0         0         0         0         0
         0         0         0         0         0         0         0         0
         0         0         0         0         0         0         0         0
         0         0         0         0         0         0         0         0
         0         0         0         0         0         0         0         0
         0         0         0         0         0         0         0         0
         0         0         0         0         0         0         0         0
         0         0         0         0         0         0         0         0
         0         0         0         0         0         0         0         0
         0         0         0         0         0         0         0         0
         0         0         0         0         0         0         0         0
         0         0         0         0         0         0         0         0
         0         0         0         0         0         0         0         0
         0         0         0         0         0         0         0         0
         0         0         0         0         0         0         0         0
         0         0         0         0         0         0         0         0
         0         0         0         0         0         0         0         0
         0         0         0         0         0         0         0         0
         0         0         0         0         0         0         0         0
         0         0         0         0         0         0         0         0
         0         0         0         0         0         0         0         0
         0         0         0         0         0         0         0         0
         0         0         0         0         0         0         0         0
         0         0         0         0         0         0         0         0
         0         0         0         0         0         0         0         0
         0         0         0         0         0         0         0         0
         0         0         0         0         0         0         0         0
         0         0         0         0         0         0         0         0
         0         0         0         0         0         0         0         0
         0         0         0         0         0         0         0         0
         0         0         0         0         0         0         0         0
         0         0         0         0         0         0         0         0
         0         0         0         0         0         0         0         0
         0         0         0         0         0         0         0         0
         0         0         0         0         0         0         0         0
         0         0         0         0         0         0         0         0
         0         0         0         0         0         0         0         0
         0         0         0         0         0         0         0         0
         0         0         0         0         0         0         0         0
         0         0         0         0         0         0         0         0
         0         0         0         0         0         0         0         0
         0         0         0         0         0         0         0         0
         0         0         0         0         0         0         0         0
         0         0         0         0         0         0         0         0
         0         0         0         0         0         0         0         0
         0         0         0         0         0         0         0         0
         0         0         0         0         0         0         0         0
         0         0         0         0         0         0         0         0
         0         0         0         0         0         0         0         0
         0         0         0         0         0         0         0         0
         0         0         0         0         0         0         0         0
         0         0         0         0         0         0         0         0
         0         0         0         0         0         0         0         0
         0         0         0         0         0         0         0         0
         0         0         0         0         0         0         0         0
         0         0         0         0         0         0         0         0
         0         0         0         0         0         0         0         0
         0         0         0         0         0         0         0         0
         0         0         0         0         0         0         0         0
         0         0         0         0         0         0         0         0
         0         0         0         0         0         0         0         0
         0         0         0         0         0         0         0         0
         0         0         0         0         0         0         0         0
         0         0         0         0         0         0         0         0
         0         0         0         0         0         0         0         0
         0         0         0         0         0         0         0         0
         0         0         0         0         0         0         0         0
         0         0         0         0         0         0         0         0
         0         0         0         0         0         0         0         0
         0         0         0         0         0         0         0         0
         0         0         0         0         0         0         0         0
         0         0         0         0         0         0         0         0
         0         0         0         0         0         0         0         0
         0         0         0         0         0         0         0         0
         0         0         0         0         0         0         0         0
         0         0         0         0         0         0         0         0
         0         0         0         0         0         0         0         0
         0         0         0         0         0         0         0         0
         0         0         0         0         0         0         0         0
         0         0         0         0         0         0         0         0
         0         0         0         0         0         0         0         0
         0         0         0         0         0         0         0         0
         0         0         0         0         0         0         0         0
         0         0         0         0         0         0         0         0
         0         0         0         0         0         0         0         0
         0         0         0         0         0         0         0         0
         0         0         0         0         0         0         0         0
         0         0         0         0         0         0         0         0
         0         0         0         0         0         0         0         0
         0         0         0         0         0         0         0         0
         0         0         0         0         0         0         0         0
         0         0         0         0         0         0         0         0
         0         0         0         0         0         0         0         0
         0         0         0         0         0         0         0         0
         0         0         0         0         0         0         0         0
         0         0         0         0         0         0         0         0
         0         0         0         0         0         0         0         0
         0         0         0         0         0         0         0         0
         0         0         0         0         0         0         0         0
         0         0         0         0         0         0         0         0
         0         0         0         0         0         0         0         0
         0         0         0         0         0         0         0         0
         0         0         0         0         0         0         0         0
         0         0         0         0         0         0         0         0
         0         0         0         0         0         0         0         0
         0         0         0         0         0         0         0         0
         0         0         0         0         0         0         0         0
         0         0         0         0         0         0         0         0
         0         0         0         0         0         0         0         0
         0         0         0         0         0         0         0         0
         0         0         0         0         0         0         0         0
         0         0         0         0         0         0         0         0
         0         0         0         0         0         0         0         0
         0         0         0         0         0         0         0         0
         0         0         0         0         0         0         0         0
         0         0         0         0         0         0         0         0
         0         0         0         0         0         0         0         0
         0         0         0         0         0         0         0         0
         0         0         0         0         0         0         0         0
         0         0         0         0         0         0         0         0
         0         0         0         0         0         0         0         0
         0         0         0         0         0         0         0         0
         0         0         0         0         0         0         0         0
         0         0         0         0         0         0         0         0
         0         0         0         0         0         0         0         0
         0         0         0         0         0         0         0         0
         0         0         0         0         0         0         0         0
         0         0         0         0         0         0         0         0
         0         0         0         0         0         0         0         0
         0         0         0         0         0         0         0         0
         0         0         0         0         0         0         0         0
         0         0         0         0         0         0         0         0
         0         0         0         0         0         0         0         0
         0         0         0         0         0         0         0         0
         0         0         0         0         0         0         0         0
         0         0         0         0         0         0         0         0
         0         0         0         0         0         0         0         0
         0         0         0         0         0         0         0         0
         0         0         0         0         0         0         0         0
         0         0         0         0         0         0         0         0
         0         0         0         0         0         0         0         0
         0         0         0         0         0         0         0         0
         0         0         0         0         0         0         0         0
         0         0         0         0         0         0         0         0
         0         0         0         0         0         0         0         0
         0         0         0         0         0         0         0         0
         0         0         0         0         0         0         0         0
         0         0         0         0         0         0         0         0
         0         0         0         0         0         0         0         0
         0         0         0         0         0         0         0         0
         0         0         0         0         0         0         0         0
         0         0         0         0         0         0         0         0
         0         0         0         0         0         0         0         0
         0         0         0         0         0         0         0         0
         0         0         0         0         0         0         0         0
         0         0         0         0         0         0         0         0
         0         0         0         0         0         0         0         0
         0         0         0         0         0         0         0         0
         0         0         0         0         0         0         0         0
         0         0         0         0         0         0         0         0
         0         0         0         0         0         0         0         0
         0         0         0         0         0         0         0         0
         0         0         0         0         0         0         0         0
         0         0         0         0         0         0         0         0
         0         0         0         0         0         0         0         0
         0         0         0         0         0         0         0         0
         0         0         0         0         0         0         0         0
         0         0         0         0         0         0         0         0
         0         0         0         0         0         0         0         0
         0         0         0         0         0         0         0         0
         0         0         0         0         0         0         0         0
         0         0         0         0         0         0         0         0
         0         0         0         0         0         0         0         0
         0         0         0         0         0         0         0         0
         0         0         0         0         0         0         0         0
         0         0         0         0         0         0         0         0
         0         0         0         0         0         0         0         0
         0         0         0         0         0         0         0         0
         0         0         0         0         0         0         0         0
         0         0         0         0         0         0         0         0
         0         0         0         0         0         0         0         0
         0         0         0         0         0         0         0         0
         0         0         0         0         0         0         0         0
         0         0         0         0         0         0         0         0
         0         0         0         0         0         0         0         0
         0         0         0         0         0         0         0         0
         0         0         0         0         0         0         0         0
         0         0         0         0         0         0         0         0
         0         0         0         0         0         0         0         0
         0         0         0         0         0         0         0         0
         0         0         0         0         0         0         0         0
         0         0         0         0         0         0         0         0
         0         0         0         0         0         0         0         0
         0         0         0         0         0         0         0         0
         0         0         0         0         0         0         0         0
         0         0         0         0         0         0         0         0
         0         0         0         0         0         0         0         0
         0         0         0         0         0         0         0         0
         0         0         0         0         0         0         0         0
         0         0         0         0         0         0         0         0
         0         0         0         0         0         0         0         0
         0         0         0         0         0         0         0         0
         0         0         0         0         0         0         0         0
         0         0         0         0         0         0         0         0
         0         0         0         0         0         0         0         0
         0         0         0         0         0         0         0         0
         0         0         0         0         0         0         0         0
         0         0         0         0         0         0         0         0
         0         0         0         0         0         0         0         0
         0         0         0         0         0         0         0         0
         0         0         0         0         0         0         0         0
         0         0         0         0         0         0         0         0
         0         0         0         0         0         0         0         0
         0         0         0         0         0         0         0         0
         0         0         0         0         0         0         0         0
         0         0         0         0         0         0         0         0
         0         0         0         0         0         0         0         0
         0         0         0         0         0         0         0         0
         0         0         0         0         0         0         0         0
         0         0         0         0         0         0         0         0
         0         0         0         0         0         0         0         0
         0         0         0         0         0         0         0         0
         0         0         0         0         0         0         0         0
         0         0         0         0         0         0         0         0
         0         0         0         0         0         0         0         0
         0         0         0         0         0         0         0         0
         0         0         0         0         0         0         0         0
         0         0         0         0         0         0         0         0
         0         0         0         0         0         0         0         0
         0         0         0         0         0         0         0         0
         0         0         0         0         0         0         0         0
         0         0         0         0         0         0         0         0
         0         0         0         0         0         0         0         0
         0         0         0         0         0         0         0         0
         0         0         0         0         0         0         0         0
         0         0         0         0         0         0         0         0
         0         0         0         0         0         0         0         0
         0         0         0         0         0         0         0         0
         0         0         0         0         0         0         0         0
         0         0         0         0         0         0         0         0
         0         0         0         0         0         0         0         0
         0         0         0         0         0         0         0         0
         0         0         0         0         0         0         0         0
         0         0         0         0         0         0         0         0
         0         0         0         0         0         0         0         0
         0         0         0         0         0         0         0         0
         0         0         0         0         0         0         0         0
         0         0         0         0         0         0         0         0
         0         0         0         0         0         0         0         0
         0         0         0         0         0         0         0         0
         0         0         0         0         0         0         0         0
         0         0         0         0         0         0         0         0
         0         0         0         0         0         0         0         0
         0         0         0         0         0         0         0         0
         0         0         0         0         0         0         0         0
         0         0         0         0         0         0         0         0
         0         0         0         0         0         0         0         0
         0         0         0         0         0         0         0         0
         0         0         0         0         0         0         0         0
         0         0         0         0         0         0         0         0
         0         0         0         0         0         0         0         0
         0         0         0         0         0         0         0         0
         0         0         0         0         0         0         0         0
         0         0         0         0         0         0         0         0
         0         0         0         0         0         0         0         0
         0         0         0         0         0         0         0         0
         0         0         0         0         0         0         0         0
         0         0         0         0         0         0         0         0
         0         0         0         0         0         0         0         0
         0         0         0         0         0         0         0         0
         0         0         0         0         0         0         0         0
         0         0         0         0         0         0         0         0
         0         0         0         0         0         0         0         0
         0         0         0         0         0         0         0         0
         0         0         0         0         0         0         0         0
         0         0         0         0         0         0         0         0
         0         0         0         0         0         0         0         0
         0         0         0         0         0         0         0         0
         0         0         0         0         0         0         0         0
         0         0         0         0         0         0         0         0
         0         0         0         0         0         0         0         0
         0         0         0         0         0         0         0         0
         0         0         0         0         0         0         0         0
         0         0         0         0         0         0         0         0
         0         0         0         0         0         0         0         0
         0         0         0         0         0         0         0         0
         0         0         0         0         0         0         0         0
         0         0         0         0         0         0         0         0
         0         0         0         0         0         0         0         0
         0         0         0         0         0         0         0         0
         0         0         0         0         0         0         0         0
         0         0         0         0         0         0         0         0
         0         0         0         0         0         0         0         0
         0         0         0         0         0         0         0         0
         0         0         0         0         0         0         0         0
         0         0         0         0         0         0         0         0
         0         0         0         0         0         0         0         0
         0         0         0         0         0         0         0         0
         0         0         0         0         0         0         0         0
         0         0         0         0         0         0         0         0
         0         0         0         0         0         0         0         0
         0         0         0         0         0         0         0         0
         0         0         0         0         0         0         0         0
         0         0         0         0         0         0         0         0
         0         0         0         0         0         0         0         0
         0         0         0         0         0         0         0         0
         0         0         0         0         0         0         0         0
         0         0         0         0         0         0         0         0
         0         0         0         0         0         0         0         0
         0         0         0         0         0         0         0         0
         0         0         0         0         0         0         0         0
         0         0         0         0         0         0         0         0
         0         0         0         0         0         0         0         0
         0         0         0         0         0         0         0         0
         0         0         0         0         0         0         0         0
         0         0         0         0         0         0         0         0
         0         0         0         0         0         0         0         0
         0         0         0         0         0         0         0         0
         0         0         0         0         0         0         0         0
         0         0         0         0         0         0         0         0
         0         0         0         0         0         0         0         0
         0         0         0         0         0         0         0         0
         0         0         0         0         0         0         0         0
         0         0         0         0         0         0         0         0
         0         0         0         0         0         0         0         0
         0         0         0         0         0         0         0         0
         0         0         0         0         0         0         0         0
         0         0         0         0         0         0         0         0
         0         0         0         0         0         0         0         0
         0         0         0         0         0         0         0         0
         0         0         0         0         0         0         0         0
         0         0         0         0         0         0         0         0
         0         0         0         0         0         0         0         0
         0         0         0         0         0         0         0         0
         0         0         0         0         0         0         0         0
         0         0         0         0         0         0         0         0
         0         0         0         0         0         0         0         0
         0         0         0         0         0         0         0         0
         0         0         0         0         0         0         0         0
         0         0         0         0         0         0         0         0
         0         0         0         0         0         0         0         0
         0         0         0         0         0         0         0         0
         0         0         0         0         0         0         0         0
         0         0         0         0         0         0         0         0
         0         0         0         0         0         0         0         0
         0         0         0         0         0         0         0         0
         0         0         0         0         0         0         0         0
         0         0         0         0         0         0         0         0
         0         0         0         0         0         0         0         0
         0         0         0         0         0         0         0         0
         0         0         0         0         0         0         0         0
         0         0         0         0         0         0         0         0
         0         0         0         0         0         0         0         0
         0         0         0         0         0         0         0         0
         0         0         0         0         0         0         0         0
         0         0         0         0         0         0         0         0
         0         0         0         0         0         0         0         0
         0         0         0         0         0         0         0         0
         0         0         0         0         0         0         0         0
         0         0         0         0         0         0         0         0
         0         0         0         0         0         0         0         0
         0         0         0         0         0         0         0         0
         0         0         0         0         0         0         0         0
         0         0         0         0         0         0         0         0
         0         0         0         0         0         0         0         0
         0         0         0         0         0         0         0         0
         0         0         0         0         0         0         0         0
         0         0         0         0         0         0         0         0
         0         0         0         0         0         0         0         0
         0         0         0         0         0         0         0         0
         0         0         0         0         0         0         0         0
         0         0         0         0         0         0         0         0
         0         0         0         0         0         0         0         0
         0         0         0         0         0         0         0         0
         0         0         0         0         0         0         0         0
         0         0         0         0         0         0         0         0
         0         0         0         0         0         0         0         0
         0         0         0         0         0         0         0         0
         0         0         0         0         0         0         0         0
         0         0         0         0         0         0         0         0
         0         0         0         0         0         0         0         0
         0         0         0         0         0         0         0         0
         0         0         0         0         0         0         0         0
         0         0         0         0         0         0         0         0
         0         0         0         0         0         0         0         0
         0         0         0         0         0         0         0         0
         0         0         0         0         0         0         0         0
         0         0         0         0         0         0         0         0
         0         0         0         0         0         0         0         0
         0         0         0         0         0         0         0         0
         0         0         0         0         0         0         0         0
         0         0         0         0         0         0         0         0
         0         0         0         0         0         0         0         0
         0         0         0         0         0         0         0         0
         0         0         0         0         0         0         0         0
         0         0         0         0         0         0         0         0
         0         0         0         0         0         0         0         0
         0         0         0         0         0         0         0         0
         0         0         0         0         0         0         0         0
         0         0         0         0         0         0         0         0
         0         0         0         0         0         0         0         0
         0         0         0         0         0         0         0         0
         0         0         0         0         0         0         0         0
         0         0         0         0         0         0         0         0
         0         0         0         0         0         0         0         0
         0         0         0         0         0         0         0         0
         0         0         0         0         0         0         0         0
         0         0         0         0         0         0         0         0
         0         0         0         0         0         0         0         0
         0         0         0         0         0         0         0         0
         0         0         0         0         0         0         0         0
         0         0         0         0         0         0         0         0
         0         0         0         0         0         0         0         0
         0         0         0         0         0         0         0         0
         0         0         0         0         0         0         0         0
         0         0         0         0         0         0         0         0
         0         0         0         0         0         0         0         0
         0         0         0         0         0         0         0         0
         0         0         0         0         0         0         0         0
         0         0         0         0         0         0         0         0
         0         0         0         0         0         0         0         0
         0         0         0         0         0         0         0         0
         0         0         0         0         0         0         0         0
         0         0         0         0         0         0         0         0
         0         0         0         0         0         0         0         0
         0         0         0         0         0         0         0         0
         0         0         0         0         0         0         0         0
         0         0         0         0         0         0         0         0
         0         0         0         0         0         0         0         0
         0         0         0         0         0         0         0         0
         0         0         0         0         0         0         0         0
         0         0         0         0         0         0         0         0
         0         0         0         0         0         0         0         0
         0         0         0         0         0         0         0         0
         0         0         0         0         0         0         0         0
         0         0         0         0         0         0         0         0
         0         0         0         0         0         0         0         0
         0         0         0         0         0         0         0         0
         0         0         0         0         0         0         0         0
         0         0         0         0         0         0         0         0
         0         0         0         0         0         0         0         0
         0         0         0         0         0         0         0         0
         0         0         0         0         0         0         0         0
         0         0         0         0         0         0         0         0
         0         0         0         0         0         0         0         0
         0         0         0         0         0         0         0         0
         0         0         0         0         0         0         0         0
         0         0         0         0         0         0         0         0
         0         0         0         0         0         0         0         0
         0         0         0         0         0         0         0         0
         0         0         0         0         0         0         0         0
         0         0         0         0         0         0         0         0
         0         0         0         0         0         0         0         0
         0         0         0         0         0         0         0         0
         0         0         0         0         0         0         0         0
         0         0         0         0         0         0         0         0
         0         0         0         0         0         0         0         0
         0         0         0         0         0         0         0         0
         0         0         0         0         0         0         0         0
         0         0         0         0         0         0         0         0
         0         0         0         0         0         0         0         0
         0         0         0         0         0         0         0         0
         0         0         0         0         0         0         0         0
         0         0         0         0         0         0         0         0
         0         0         0         0         0         0         0         0
         0         0         0         0         0         0         0         0
         0         0         0         0         0         0         0         0
         0         0         0         0         0         0         0         0
         0         0         0         0         0         0         0         0
         0         0         0         0         0         0         0         0
         0         0         0         0         0         0         0         0
         0         0         0         0         0         0         0         0
         0         0         0         0         0         0         0         0
         0         0         0         0         0         0         0         0
         0         0         0         0         0         0         0         0
         0         0         0         0         0         0         0         0
         0         0         0         0         0         0         0         0
         0         0         0         0         0         0         0         0
         0         0         0         0         0         0         0         0
         0         0         0         0         0         0         0         0
         0         0         0         0         0         0         0         0
         0         0         0         0         0         0         0         0
         0         0         0         0         0         0         0         0
         0         0         0         0         0         0         0         0
         0         0         0         0         0         0         0         0
         0         0         0         0         0         0         0         0
         0         0         0         0         0         0         0         0
         0         0         0         0         0         0         0         0
         0         0         0         0         0         0         0         0
         0         0         0         0         0         0         0         0
         0         0         0         0         0         0         0         0
         0         0         0         0         0         0         0         0
         0         0         0         0         0         0         0         0
         0         0         0         0         0         0         0         0
         0         0         0         0         0         0         0         0
         0         0         0         0         0         0         0         0
         0         0         0         0         0         0         0         0
         0         0         0         0         0         0         0         0
         0         0         0         0         0         0         0         0
         0         0         0         0         0         0         0         0
         0         0         0         0         0         0         0         0
         0         0         0         0         0         0         0         0
         0         0         0         0         0         0         0         0
         0         0         0         0         0         0         0         0
         0         0         0         0         0         0         0         0
         0         0         0         0         0         0         0         0
         0         0         0         0         0         0         0         0
         0         0         0         0         0         0         0         0
         0         0         0         0         0         0         0         0
         0         0         0         0         0         0         0         0
         0         0         0         0         0         0         0         0
         0         0         0         0         0         0         0         0
         0         0         0         0         0         0         0         0
         0         0         0         0         0         0         0         0
         0         0         0         0         0         0         0         0
         0         0         0         0         0         0         0         0
         0         0         0         0         0         0         0         0
         0         0         0         0         0         0         0         0
         0         0         0         0         0         0         0         0
         0         0         0         0         0         0         0         0
         0         0         0         0         0         0         0         0
         0         0         0         0         0         0         0         0
         0         0         0         0         0         0         0         0
         0         0         0         0         0         0         0         0
         0         0         0         0         0         0         0         0
         0         0         0         0         0         0         0         0
         0         0         0         0         0         0         0         0
         0         0         0         0         0         0         0         0
         0         0         0         0         0         0         0         0
         0         0         0         0         0         0         0         0
         0         0         0         0         0         0         0         0
         0         0         0         0         0         0         0         0
         0         0         0         0         0         0         0         0
         0         0         0         0         0         0         0         0
         0         0         0         0         0         0         0         0
         0         0         0         0         0         0         0         0
         0         0         0         0         0         0         0         0
         0         0         0         0         0         0         0         0
         0         0         0         0         0         0         0         0
         0         0         0         0         0         0         0         0
         0         0         0         0         0         0         0         0
         0         0         0         0         0         0         0         0
         0         0         0         0         0         0         0         0
         0         0         0         0         0         0         0         0
         0         0         0         0         0         0         0         0
         0         0         0         0         0         0         0         0
         0         0         0         0         0         0         0         0
         0         0         0         0         0         0         0         0
         0         0         0         0         0         0         0         0
         0         0         0         0         0         0         0         0
         0         0         0         0         0         0         0         0
         0         0         0         0         0         0         0         0
         0         0         0         0         0         0         0         0
         0         0         0         0         0         0         0         0
         0         0         0         0         0         0         0         0
         0         0         0         0         0         0         0         0
         0         0         0         0         0         0         0         0
         0         0         0         0         0         0         0         0
         0         0         0         0         0         0         0         0
         0         0         0         0         0         0         0         0
         0         0         0         0         0         0         0         0
         0         0         0         0         0         0         0         0
         0         0         0         0         0         0         0         0
         0         0         0         0         0         0         0         0
         0         0         0         0         0         0         0         0
         0         0         0         0         0         0         0         0
         0         0         0         0         0         0         0         0
         0         0         0         0         0         0         0         0
         0         0         0         0         0         0         0         0
         0         0         0         0         0         0         0         0
         0         0         0         0         0         0         0         0
         0         0         0         0         0         0         0         0
         0         0         0         0         0         0         0         0
         0         0         0         0         0         0         0         0
         0         0         0         0         0         0         0         0
         0         0         0         0         0         0         0         0
         0         0         0         0         0         0         0         0
         0         0         0         0         0         0         0         0
         0         0         0         0         0         0         0         0
         0         0         0         0         0         0         0         0
         0         0         0         0         0         0         0         0
         0         0         0         0         0         0         0         0
         0         0         0         0         0         0         0         0
         0         0         0         0         0         0         0         0
         0         0         0         0         0         0         0         0
         0         0         0         0         0         0         0         0
         0         0         0         0         0         0         0         0
         0         0         0         0         0         0         0         0
         0         0         0         0         0         0         0         0
         0         0         0         0         0         0         0         0
         0         0         0         0         0         0         0         0
         0         0         0         0         0         0         0         0
         0         0         0         0         0         0         0         0
         0         0         0         0         0         0         0         0
         0         0         0         0         0         0         0         0
         0         0         0         0         0         0         0         0
         0         0         0         0         0         0         0         0
         0         0         0         0         0         0         0         0
         0         0         0         0         0         0         0         0
         0         0         0         0         0         0         0         0
         0         0         0         0         0         0         0         0
         0         0         0         0         0         0         0         0
         0         0         0         0         0         0         0         0
         0         0         0         0         0         0         0         0
         0         0         0         0         0         0         0         0
         0         0         0         0         0         0         0         0
         0         0         0         0         0         0         0         0
         0         0         0         0         0         0         0         0
         0         0         0         0         0         0         0         0
         0         0         0         0         0         0         0         0
         0         0         0         0         0         0         0         0
         0         0         0         0         0         0         0         0
         0         0         0         0         0         0         0         0
         0         0         0         0         0         0         0         0
         0         0         0         0         0         0         0         0
         0         0         0         0         0         0         0         0
         0         0         0         0         0         0         0         0
         0         0         0         0         0         0         0         0
         0         0         0         0         0         0         0         0
         0         0         0         0         0         0         0         0
         0         0         0         0         0         0         0         0
         0         0         0         0         0         0         0         0
         0         0         0         0         0         0         0         0
         0         0         0         0         0         0         0         0
         0         0         0         0         0         0         0         0
         0         0         0         0         0         0         0         0
         0         0         0         0         0         0         0         0
         0         0         0         0         0         0         0         0
         0         0         0         0         0         0         0         0
         0         0         0         0         0         0         0         0
         0         0         0         0         0         0         0         0
         0         0         0         0         0         0         0         0
         0         0         0         0         0         0         0         0
         0         0         0         0         0         0         0         0
         0         0         0         0         0         0         0         0
         0         0         0         0         0         0         0         0
         0         0         0         0         0         0         0         0
         0         0         0         0         0         0         0         0
         0         0         0         0         0         0         0         0
         0         0         0         0         0         0         0         0
         0         0         0         0         0         0         0         0
         0         0         0         0         0         0         0         0
         0         0         0         0         0         0         0         0
         0         0         0         0         0         0         0         0
         0         0         0         0         0         0         0         0
         0         0         0         0         0         0         0         0
         0         0         0         0         0         0         0         0
         0         0         0         0         0         0         0         0
         0         0         0         0         0         0         0         0
         0         0         0         0         0         0         0         0
         0         0         0         0         0         0         0         0
         0         0         0         0         0         0         0         0
         0         0         0         0         0         0         0         0
         0         0         0         0         0         0         0         0
         0         0         0         0         0         0         0         0
         0         0         0         0         0         0         0         0
         0         0         0         0         0         0         0         0
         0         0         0         0         0         0         0         0
         0         0         0         0         0         0         0         0
         0         0         0         0         0         0         0         0
         0         0         0         0         0         0         0         0
         0         0         0         0         0         0         0         0
         0         0         0         0         0         0         0         0
         0         0         0         0         0         0         0         0
         0         0         0         0         0         0         0         0
         0         0         0         0         0         0         0         0
         0         0         0         0         0         0         0         0
         0         0         0         0         0         0         0         0
         0         0         0         0         0         0         0         0
         0         0         0         0         0         0         0         0
         0         0         0         0         0         0         0         0
         0         0         0         0         0         0         0         0
         0         0         0         0         0         0         0         0
         0         0         0         0         0         0         0         0
         0         0         0         0         0         0         0         0
         0         0         0         0         0         0         0         0
         0         0         0         0         0         0         0         0
         0         0         0         0         0         0         0         0
         0         0         0         0         0         0         0         0
         0         0         0         0         0         0         0         0
         0         0         0         0         0         0         0         0
         0         0         0         0         0         0         0         0
         0         0         0         0         0         0         0         0
         0         0         0         0         0         0         0         0
         0         0         0         0         0         0         0         0
         0         0         0         0         0         0         0         0
         0         0         0         0         0         0         0         0
         0         0         0         0         0         0         0         0
         0         0         0         0         0         0         0         0
         0         0         0         0         0         0         0         0
         0         0         0         0         0         0         0         0
         0         0         0         0         0         0         0         0
         0         0         0         0         0         0         0         0
         0         0         0         0         0         0         0         0
         0         0         0         0         0         0         0         0
         0         0         0         0         0         0         0         0
         0         0         0         0         0         0         0         0
         0         0         0         0         0         0         0         0
         0         0         0         0         0         0         0         0
         0         0         0         0         0         0         0         0
         0         0         0         0         0         0         0         0
         0         0         0         0         0         0         0         0
         0         0         0         0         0         0         0         0
         0         0         0         0         0         0         0         0
         0         0         0         0         0         0         0         0
         0         0         0         0         0         0         0         0
         0         0         0         0         0         0         0         0
         0         0         0         0         0         0         0         0
         0         0         0         0         0         0         0         0
         0         0         0         0         0         0         0         0
         0         0         0         0         0         0         0         0
         0         0         0         0         0         0         0         0
         0         0         0         0         0         0         0         0
         0         0         0         0         0         0         0         0
         0         0         0         0         0         0         0         0
         0         0         0         0         0         0         0         0
         0         0         0         0         0         0         0         0
         0         0         0         0         0         0         0         0
         0         0         0         0         0         0         0         0
         0         0         0         0         0         0         0         0
         0         0         0         0         0         0         0         0
         0         0         0         0         0         0         0         0
         0         0         0         0         0         0         0         0
         0         0         0         0         0         0         0         0
         0         0         0         0         0         0         0         0
         0         0         0         0         0         0         0         0
         0         0         0         0         0         0         0         0
         0         0         0         0         0         0         0         0
         0         0         0         0         0         0         0         0
         0         0         0         0         0         0         0         0
         0         0         0         0         0         0         0         0
         0         0         0         0         0         0         0         0
         0         0         0         0         0         0         0         0
         0         0         0         0         0         0         0         0
         0         0         0         0         0         0         0         0
         0         0         0         0         0         0         0         0
         0         0         0         0         0         0         0         0
         0         0         0         0         0         0         0         0
         0         0         0         0         0         0         0         0
         0         0         0         0         0         0         0         0
         0         0         0         0         0         0         0         0
         0         0         0         0         0         0         0         0
         0         0         0         0         0         0         0         0
         0         0         0         0         0         0         0         0
         0         0         0         0         0         0         0         0
         0         0         0         0         0         0         0         0
         0         0         0         0         0         0         0         0
         0         0         0         0         0         0         0         0
         0         0         0         0         0         0         0         0
         0         0         0         0         0         0         0         0
         0         0         0         0         0         0         0         0
         0         0         0         0         0         0         0         0
         0         0         0         0         0         0         0         0
         0         0         0         0         0         0         0         0
         0         0         0         0         0         0         0         0
         0         0         0         0         0         0         0         0
         0         0         0         0         0         0         0         0
         0         0         0         0         0         0         0         0
         0         0         0         0         0         0         0         0
         0         0         0         0         0         0         0         0
         0         0         0         0         0         0         0         0
         0         0         0         0         0         0         0         0
         0         0         0         0         0         0         0         0
         0         0         0         0         0         0         0         0
         0         0         0         0         0         0         0         0
         0         0         0         0         0         0         0         0
         0         0         0         0         0         0         0         0
         0         0         0         0         0         0         0         0
         0         0         0         0         0         0         0         0
         0         0         0         0         0         0         0         0
         0         0         0         0         0         0         0         0
         0         0         0         0         0         0         0         0
         0         0         0         0         0         0         0         0
         0         0         0         0         0         0         0         0
         0         0         0         0         0         0         0         0
         0         0         0         0         0         0         0         0
         0         0         0         0         0         0         0         0
         0         0         0         0         0         0         0         0
         0         0         0         0         0         0         0         0
         0         0         0         0         0         0         0         0
         0         0         0         0         0         0         0         0
         0         0         0         0         0         0         0         0
         0         0         0         0         0         0         0         0
         0         0         0         0         0         0         0         0
         0         0         0         0         0         0         0         0
         0         0         0         0         0         0         0         0
         0         0         0         0         0         0         0         0
         0         0         0         0         0         0         0         0
         0         0         0         0         0         0         0         0
         0         0         0         0         0         0         0         0
         0         0         0         0         0         0         0         0
         0         0         0         0         0         0         0         0
         0         0         0         0         0         0         0         0
         0         0         0         0         0         0         0         0
         0         0         0         0         0         0         0         0
         0         0         0         0         0         0         0         0
         0         0         0         0         0         0         0         0
         0         0         0         0         0         0         0         0
         0         0         0         0         0         0         0         0
         0         0         0         0         0         0         0         0
         0         0         0         0         0         0         0         0
         0         0         0         0         0         0         0         0
         0         0         0         0         0         0         0         0
         0         0         0         0         0         0         0         0
         0         0         0         0         0         0         0         0
         0         0         0         0         0         0         0         0
         0         0         0         0         0         0         0         0
         0         0         0         0         0         0         0         0
         0         0         0         0         0         0         0         0
         0         0         0         0         0         0         0         0
         0         0         0         0         0         0         0         0
         0         0         0         0         0         0         0         0
         0         0         0         0         0         0         0         0
         0         0         0         0         0         0         0         0
         0         0         0         0         0         0         0         0
         0         0         0         0         0         0         0         0
         0         0         0         0         0         0         0         0
         0         0         0         0         0         0         0         0
         0         0         0         0         0         0         0         0
         0         0         0         0         0         0         0         0
         0         0         0         0         0         0         0         0
         0         0         0         0         0         0         0         0
         0         0         0         0         0         0         0         0
         0         0         0         0         0         0         0         0
         0         0         0         0         0         0         0         0
         0         0         0         0         0         0         0         0
         0         0         0         0         0         0         0         0
         0         0         0         0         0         0         0         0
         0         0         0         0         0         0         0         0
         0         0         0         0         0         0         0         0
         0         0         0         0         0         0         0         0
         0         0         0         0         0         0         0         0
         0         0         0         0         0         0         0         0
         0         0         0         0         0         0         0         0
         0         0         0         0         0         0         0         0
         0         0         0         0         0         0         0         0
         0         0         0         0         0         0         0         0
         0         0         0         0         0         0         0         0
         0         0         0         0         0         0         0         0
         0         0         0         0         0         0         0         0
         0         0         0         0         0         0         0         0
         0         0         0         0         0         0         0         0
         0         0         0         0         0         0         0         0
         0         0         0         0         0         0         0         0
         0         0         0         0         0         0         0         0
         0         0         0         0         0         0         0         0
         0         0         0         0         0         0         0         0
         0         0         0         0         0         0         0         0
         0         0         0         0         0         0         0         0
         0         0         0         0         0         0         0         0
         0         0         0         0         0         0         0         0
         0         0         0         0         0         0         0         0
         0         0         0         0         0         0         0         0
         0         0         0         0         0         0         0         0
         0         0         0         0         0         0         0         0
         0         0         0         0         0         0         0         0
         0         0         0         0         0         0         0         0
         0         0         0         0         0         0         0         0
         0         0         0         0         0         0         0         0
         0         0         0         0         0         0         0         0
         0         0         0         0         0         0         0         0
         0         0         0         0         0         0         0         0
         0         0         0         0         0         0         0         0
         0         0         0         0         0         0         0         0
         0         0         0         0         0         0         0         0
         0         0         0         0         0         0         0         0
         0         0         0         0         0         0         0         0
         0         0         0         0         0         0         0         0
         0         0         0         0         0         0         0         0
         0         0         0         0         0         0         0         0
         0         0         0         0         0         0         0         0
         0         0         0         0         0         0         0         0
         0         0         0         0         0         0         0         0
         0         0         0         0         0         0         0         0
         0         0         0         0         0         0         0         0
         0         0         0         0         0         0         0         0
         0         0         0         0         0         0         0         0
         0         0         0         0         0         0         0         0
         0         0         0         0         0         0         0         0
         0         0         0         0         0         0         0         0
         0         0         0         0         0         0         0         0
         0         0         0         0         0         0         0         0
         0         0         0         0         0         0         0         0
         0         0         0         0         0         0         0         0
         0         0         0         0         0         0         0         0
         0         0         0         0         0         0         0         0
         0         0         0         0         0         0         0         0
         0         0         0         0         0         0         0         0
         0         0         0         0         0         0         0         0
         0         0         0         0         0         0         0         0
         0         0         0         0         0         0         0         0
         0         0         0         0         0         0         0         0
         0         0         0         0         0         0         0         0
         0         0         0         0         0         0         0         0
         0         0         0         0         0         0         0         0
         0         0         0         0         0         0         0         0
         0         0         0         0         0         0         0         0
         0         0         0         0         0         0         0         0
         0         0         0         0         0         0         0         0
         0         0         0         0         0         0         0         0
         0         0         0         0         0         0         0         0
         0         0         0         0         0         0         0         0
         0         0         0         0         0         0         0         0
         0         0         0         0         0         0         0         0
         0         0         0         0         0         0         0         0
         0         0         0         0         0         0         0         0
         0         0         0         0         0         0         0         0
         0         0         0         0         0         0         0         0
         0         0         0         0         0         0         0         0
         0         0         0         0         0         0         0         0
         0         0         0         0         0         0         0         0
         0         0         0         0         0         0         0         0
         0         0         0         0         0         0         0         0
         0         0         0         0         0         0         0         0
         0         0         0         0         0         0         0         0
         0         0         0         0         0         0         0         0
         0         0         0         0         0         0         0         0
         0         0         0         0         0         0         0         0
         0         0         0         0         0         0         0         0
         0         0         0         0         0         0         0         0
         0         0         0         0         0         0         0         0
         0         0         0         0         0         0         0         0
         0         0         0         0         0         0         0         0
         0         0         0         0         0         0         0         0
         0         0         0         0         0         0         0         0
         0         0         0         0         0         0         0         0
         0         0         0         0         0         0         0         0
         0         0         0         0         0         0         0         0
         0         0         0         0         0         0         0         0
         0         0         0         0         0         0         0         0
         0         0         0         0         0         0         0         0
         0         0         0         0         0         0         0         0
         0         0         0         0         0         0         0         0
         0         0         0         0         0         0         0         0
         0         0         0         0         0         0         0         0
         0         0         0         0         0         0         0         0
         0         0         0         0         0         0         0         0
         0         0         0         0         0         0         0         0
         0         0         0         0         0         0         0         0
         0         0         0         0         0         0         0         0
         0         0         0         0         0         0         0         0
         0         0         0         0         0         0         0         0
         0         0         0         0         0         0         0         0
         0         0         0         0         0         0         0         0
         0         0         0         0         0         0         0         0
         0         0         0         0         0         0         0         0
         0         0         0         0         0         0         0         0
         0         0         0         0         0         0         0         0
         0         0         0         0         0         0         0         0
         0         0         0         0         0         0         0         0
         0         0         0         0         0         0         0         0
         0         0         0         0         0         0         0         0
         0         0         0         0         0         0         0         0
         0         0         0         0         0         0         0         0
         0         0         0         0         0         0         0         0
         0         0         0         0         0         0         0         0
         0         0         0         0         0         0         0         0
         0         0         0         0         0         0         0         0
         0         0         0         0         0         0         0         0
         0         0         0         0         0         0         0         0
         0         0         0         0         0         0         0         0
         0         0         0         0         0         0         0         0
         0         0         0         0         0         0         0         0
         0         0         0         0         0         0         0         0
         0         0         0         0         0         0         0         0
         0         0         0         0         0         0         0         0
         0         0         0         0         0         0         0         0
         0         0         0         0         0         0         0         0
         0         0         0         0         0         0         0         0
         0         0         0         0         0         0         0         0
         0         0         0         0         0         0         0         0
         0         0         0         0         0         0         0         0
         0         0         0         0         0         0         0         0
         0         0         0         0         0         0         0         0
         0         0         0         0         0         0         0         0
         0         0         0         0         0         0         0         0
         0         0         0         0         0         0         0         0
         0         0         0         0         0         0         0         0
         0         0         0         0         0         0         0         0
         0         0         0         0         0         0         0         0
         0         0         0         0         0         0         0         0
         0         0         0         0         0         0         0         0
         0         0         0         0         0         0         0         0
         0         0         0         0         0         0         0         0
         0         0         0         0         0         0         0         0
         0         0         0         0         0         0         0         0
         0         0         0         0         0         0         0         0
         0         0         0         0         0         0         0         0
         0         0         0         0         0         0         0         0
         0         0         0         0         0         0         0         0
         0         0         0         0         0         0         0         0
         0         0         0         0         0         0         0         0
         0         0         0         0         0         0         0         0
         0         0         0         0         0         0         0         0
         0         0         0         0         0         0         0         0
         0         0         0         0         0         0         0         0
         0         0         0         0         0         0         0         0
         0         0         0         0         0         0         0         0
         0         0         0         0         0         0         0         0
         0         0         0         0         0         0         0         0
         0         0         0         0         0         0         0         0
         0         0         0         0         0         0         0         0
         0         0         0         0         0         0         0         0
         0         0         0         0         0         0         0         0
         0         0         0         0         0         0         0         0
         0         0         0         0         0         0         0         0
         0         0         0         0         0         0         0         0
         0         0         0         0         0         0         0         0
         0         0         0         0         0         0         0         0
         0         0         0         0         0         0         0         0
         0         0         0         0         0         0         0         0
         0         0         0         0         0         0         0         0
         0         0         0         0         0         0         0         0
         0         0         0         0         0         0         0         0
         0         0         0         0         0         0         0         0
         0         0         0         0         0         0         0         0
         0         0         0         0         0         0         0         0
         0         0         0         0         0         0         0         0
         0         0         0         0         0         0         0         0
         0         0         0         0         0         0         0         0
         0         0         0         0         0         0         0         0
         0         0         0         0         0         0         0         0
         0         0         0         0         0         0         0         0
         0         0         0         0         0         0         0         0
         0         0         0         0         0         0         0         0
         0         0         0         0         0         0         0         0
         0         0         0         0         0         0         0         0
         0         0         0         0         0         0         0         0
         0         0         0         0         0         0         0         0
         0         0         0         0         0         0         0         0
         0         0         0         0         0         0         0         0
         0         0         0         0         0         0         0         0
         0         0         0         0         0         0         0         0
         0         0         0         0         0         0         0         0
         0         0         0         0         0         0         0         0
         0         0         0         0         0         0         0         0
         0         0         0         0         0         0         0         0
         0         0         0         0         0         0         0         0
         0         0         0         0         0         0         0         0
         0         0         0         0         0         0         0         0
         0         0         0         0         0         0         0         0
         0         0         0         0         0         0         0         0
         0         0         0         0         0         0         0         0
         0         0         0         0         0         0         0         0
         0         0         0         0         0         0         0         0
         0         0         0         0         0         0         0         0
         0         0         0         0         0         0         0         0
         0         0         0         0         0         0         0         0
         0         0         0         0         0         0         0         0
         0         0         0         0         0         0         0         0
         0         0         0         0         0         0         0         0
         0         0         0         0         0         0         0         0
         0         0         0         0         0         0         0         0
         0         0         0         0         0         0         0         0
         0         0         0         0         0         0         0         0
         0         0         0         0         0         0         0         0
         0         0         0         0         0         0         0         0
         0         0         0         0         0         0         0         0
         0         0         0         0         0         0         0         0
         0         0         0         0         0         0         0         0
         0         0         0         0         0         0         0         0
         0         0         0         0         0         0         0         0
         0         0         0         0         0         0         0         0
         0         0         0         0         0         0         0         0
         0         0         0         0         0         0         0         0
         0         0         0         0         0         0         0         0
         0         0         0         0         0         0         0         0
         0         0         0         0         0         0         0         0
         0         0         0         0         0         0         0         0
         0         0         0         0         0         0         0         0
         0         0         0         0         0         0         0         0
         0         0         0

     26961         0 !NGRP NST2
         0         1         0         3         1         0         6         1         0
         9         1         0        12         1         0        15         1         0
        18         1         0        21         1         0        24         1         0
        27         1         0        30         1         0        33         1         0
        36         1         0        39         1         0        42         1         0
        45         1         0        48         1         0        51         1         0
        54         1         0        57         1         0        60         1         0
        63         1         0        66         1         0        69         1         0
        72         1         0        75         1         0        78         1         0
        81         1         0        84         1         0        87         1         0
        90         1         0        93         1         0        96         1         0
        99         1         0       102         1         0       105         1         0
       108         1         0       111         1         0       114         1         0
       117         1         0       120         1         0       123         1         0
       126         1         0       129         1         0       132         1         0
       135         1         0       138         1         0       141         1         0
       144         1         0       147         1         0       150         1         0
       153         1         0       156         1         0       159         1         0
       162         1         0       165         1         0       168         1         0
       171         1         0       174         1         0       177         1         0
       180         1         0       183         1         0       186         1         0
       189         1         0       192         1         0       195         1         0
       198         1         0       201         1         0       204         1         0
       207         1         0       210         1         0       213         1         0
       216         1         0       219         1         0       222         1         0
       225         1         0       228         1         0       231         1         0
       234         1         0       237         1         0       240         1         0
       243         1         0       246         1         0       249         1         0
       252         1         0       255         1         0       258         1         0
       261         1         0       264         1         0       267         1         0
       270         1         0       273         1         0       276         1         0
       279         1         0       282         1         0       285         1         0
       288         1         0       291         1         0       294         1         0
       297         1         0       300         1         0       303         1         0
       306         1         0       309         1         0       312         1         0
       315         1         0       318         1         0       321         1         0
       324         1         0       327         1         0       330         1         0
       333         1         0       336         1         0       339         1         0
       342         1         0       345         1         0       348         1         0
       351         1         0       354         1         0       357         1         0
       360         1         0       363         1         0       366         1         0
       369         1         0       372         1         0       375         1         0
       378         1         0       381         1         0       384         1         0
       387         1         0       390         1         0       393         1         0
       396         1         0       399         1         0       402         1         0
       405         1         0       408         1         0       411         1         0
       414         1         0       417         1         0       420         1         0
       423         1         0       426         1         0       429         1         0
       432         1         0       435         1         0       438         1         0
       441         1         0       444         1         0       447         1         0
       450         1         0       453         1         0       456         1         0
       459         1         0       462         1         0       465         1         0
       468         1         0       471         1         0       474         1         0
       477         1         0       480         1         0       483         1         0
       486         1         0       489         1         0       492         1         0
       495         1         0       498         1         0       501         1         0
       504         1         0       507         1         0       510         1         0
       513         1         0       516         1         0       519         1         0
       522         1         0       525         1         0       528         1         0
       531         1         0       534         1         0       537         1         0
       540         1         0       543         1         0       546         1         0
       549         1         0       552         1         0       555         1         0
       558         1         0       561         1         0       564         1         0
       567         1         0       570         1         0       573         1         0
       576         1         0       579         1         0       582         1         0
       585         1         0       588         1         0       591         1         0
       594         1         0       597         1         0       600         1         0
       603         1         0       606         1         0       609         1         0
       612         1         0       615         1         0       618         1         0
       621         1         0       624         1         0       627         1         0
       630         1         0       633         1         0       636         1         0
       639         1         0       642         1         0       645         1         0
       648         1         0       651         1         0       654         1         0
       657         1         0       660         1         0       663         1         0
       666         1         0       669         1         0       672         1         0
       675         1         0       678         1         0       681         1         0
       684         1         0       687         1         0       690         1         0
       693         1         0       696         1         0       699         1         0
       702         1         0       705         1         0       708         1         0
       711         1         0       714         1         0       717         1         0
       720         1         0       723         1         0       726         1         0
       729         1         0       732         1         0       735         1         0
       738         1         0       741         1         0       744         1         0
       747         1         0       750         1         0       753         1         0
       756         1         0       759         1         0       762         1         0
       765         1         0       768         1         0       771         1         0
       774         1         0       777         1         0       780         1         0
       783         1         0       786         1         0       789         1         0
       792         1         0       795         1         0       798         1         0
       801         1         0       804         1         0       807         1         0
       810         1         0       813         1         0       816         1         0
       819         1         0       822         1         0       825         1         0
       828         1         0       831         1         0       834         1         0
       837         1         0       840         1         0       843         1         0
       846         1         0       849         1         0       852         1         0
       855         1         0       858         1         0       861         1         0
       864         1         0       867         1         0       870         1         0
       873         1         0       876         1         0       879         1         0
       882         1         0       885         1         0       888         1         0
       891         1         0       894         1         0       897         1         0
       900         1         0       903         1         0       906         1         0
       909         1         0       912         1         0       915         1         0
       918         1         0       921         1         0       924         1         0
       927         1         0       930         1         0       933         1         0
       936         1         0       939         1         0       942         1         0
       945         1         0       948         1         0       951         1         0
       954         1         0       957         1         0       960         1         0
       963         1         0       966         1         0       969         1         0
       972         1         0       975         1         0       978         1         0
       981         1         0       984         1         0       987         1         0
       990         1         0       993         1         0       996         1         0
       999         1         0      1002         1         0      1005         1         0
      1008         1         0      1011         1         0      1014         1         0
      1017         1         0      1020         1         0      1023         1         0
      1026         1         0      1029         1         0      1032         1         0
      1035         1         0      1038         1         0      1041         1         0
      1044         1         0      1047         1         0      1050         1         0
      1053         1         0      1056         1         0      1059         1         0
      1062         1         0      1065         1         0      1068         1         0
      1071         1         0      1074         1         0      1077         1         0
      1080         1         0      1083         1         0      1086         1         0
      1089         1         0      1092         1         0      1095         1         0
      1098         1         0      1101         1         0      1104         1         0
      1107         1         0      1110         1         0      1113         1         0
      1116         1         0      1119         1         0      1122         1         0
      1125         1         0      1128         1         0      1131         1         0
      1134         1         0      1137         1         0      1140         1         0
      1143         1         0      1146         1         0      1149         1         0
      1152         1         0      1155         1         0      1158         1         0
      1161         1         0      1164         1         0      1167         1         0
      1170         1         0      1173         1         0      1176         1         0
      1179         1         0      1182         1         0      1185         1         0
      1188         1         0      1191         1         0      1194         1         0
      1197         1         0      1200         1         0      1203         1         0
      1206         1         0      1209         1         0      1212         1         0
      1215         1         0      1218         1         0      1221         1         0
      1224         1         0      1227         1         0      1230         1         0
      1233         1         0      1236         1         0      1239         1         0
      1242         1         0      1245         1         0      1248         1         0
      1251         1         0      1254         1         0      1257         1         0
      1260         1         0      1263         1         0      1266         1         0
      1269         1         0      1272         1         0      1275         1         0
      1278         1         0      1281         1         0      1284         1         0
      1287         1         0      1290         1         0      1293         1         0
      1296         1         0      1299         1         0      1302         1         0
      1305         1         0      1308         1         0      1311         1         0
      1314         1         0      1317         1         0      1320         1         0
      1323         1         0      1326         1         0      1329         1         0
      1332         1         0      1335         1         0      1338         1         0
      1341         1         0      1344         1         0      1347         1         0
      1350         1         0      1353         1         0      1356         1         0
      1359         1         0      1362         1         0      1365         1         0
      1368         1         0      1371         1         0      1374         1         0
      1377         1         0      1380         1         0      1383         1         0
      1386         1         0      1389         1         0      1392         1         0
      1395         1         0      1398         1         0      1401         1         0
      1404         1         0      1407         1         0      1410         1         0
      1413         1         0      1416         1         0      1419         1         0
      1422         1         0      1425         1         0      1428         1         0
      1431         1         0      1434         1         0      1437         1         0
      1440         1         0      1443         1         0      1446         1         0
      1449         1         0      1452         1         0      1455         1         0
      1458         1         0      1461         1         0      1464         1         0
      1467         1         0      1470         1         0      1473         1         0
      1476         1         0      1479         1         0      1482         1         0
      1485         1         0      1488         1         0      1491         1         0
      1494         1         0      1497         1         0      1500         1         0
      1503         1         0      1506         1         0      1509         1         0
      1512         1         0      1515         1         0      1518         1         0
      1521         1         0      1524         1         0      1527         1         0
      1530         1         0      1533         1         0      1536         1         0
      1539         1         0      1542         1         0      1545         1         0
      1548         1         0      1551         1         0      1554         1         0
      1557         1         0      1560         1         0      1563         1         0
      1566         1         0      1569         1         0      1572         1         0
      1575         1         0      1578         1         0      1581         1         0
      1584         1         0      1587         1         0      1590         1         0
      1593         1         0      1596         1         0      1599         1         0
      1602         1         0      1605         1         0      1608         1         0
      1611         1         0      1614         1         0      1617         1         0
      1620         1         0      1623         1         0      1626         1         0
      1629         1         0      1632         1         0      1635         1         0
      1638         1         0      1641         1         0      1644         1         0
      1647         1         0      1650         1         0      1653         1         0
      1656         1         0      1659         1         0      1662         1         0
      1665         1         0      1668         1         0      1671         1         0
      1674         1         0      1677         1         0      1680         1         0
      1683         1         0      1686         1         0      1689         1         0
      1692         1         0      1695         1         0      1698         1         0
      1701         1         0      1704         1         0      1707         1         0
      1710         1         0      1713         1         0      1716         1         0
      1719         1         0      1722         1         0      1725         1         0
      1728         1         0      1731         1         0      1734         1         0
      1737         1         0      1740         1         0      1743         1         0
      1746         1         0      1749         1         0      1752         1         0
      1755         1         0      1758         1         0      1761         1         0
      1764         1         0      1767         1         0      1770         1         0
      1773         1         0      1776         1         0      1779         1         0
      1782         1         0      1785         1         0      1788         1         0
      1791         1         0      1794         1         0      1797         1         0
      1800         1         0      1803         1         0      1806         1         0
      1809         1         0      1812         1         0      1815         1         0
      1818         1         0      1821         1         0      1824         1         0
      1827         1         0      1830         1         0      1833         1         0
      1836         1         0      1839         1         0      1842         1         0
      1845         1         0      1848         1         0      1851         1         0
      1854         1         0      1857         1         0      1860         1         0
      1863         1         0      1866         1         0      1869         1         0
      1872         1         0      1875         1         0      1878         1         0
      1881         1         0      1884         1         0      1887         1         0
      1890         1         0      1893         1         0      1896         1         0
      1899         1         0      1902         1         0      1905         1         0
      1908         1         0      1911         1         0      1914         1         0
      1917         1         0      1920         1         0      1923         1         0
      1926         1         0      1929         1         0      1932         1         0
      1935         1         0      1938         1         0      1941         1         0
      1944         1         0      1947         1         0      1950         1         0
      1953         1         0      1956         1         0      1959         1         0
      1962         1         0      1965         1         0      1968         1         0
      1971         1         0      1974         1         0      1977         1         0
      1980         1         0      1983         1         0      1986         1         0
      1989         1         0      1992         1         0      1995         1         0
      1998         1         0      2001         1         0      2004         1         0
      2007         1         0      2010         1         0      2013         1         0
      2016         1         0      2019         1         0      2022         1         0
      2025         1         0      2028         1         0      2031         1         0
      2034         1         0      2037         1         0      2040         1         0
      2043         1         0      2046         1         0      2049         1         0
      2052         1         0      2055         1         0      2058         1         0
      2061         1         0      2064         1         0      2067         1         0
      2070         1         0      2073         1         0      2076         1         0
      2079         1         0      2082         1         0      2085         1         0
      2088         1         0      2091         1         0      2094         1         0
      2097         1         0      2100         1         0      2103         1         0
      2106         1         0      2109         1         0      2112         1         0
      2115         1         0      2118         1         0      2121         1         0
      2124         1         0      2127         1         0      2130         1         0
      2133         1         0      2136         1         0      2139         1         0
      2142         1         0      2145         1         0      2148         1         0
      2151         1         0      2154         1         0      2157         1         0
      2160         1         0      2163         1         0      2166         1         0
      2169         1         0      2172         1         0      2175         1         0
      2178         1         0      2181         1         0      2184         1         0
      2187         1         0      2190         1         0      2193         1         0
      2196         1         0      2199         1         0      2202         1         0
      2205         1         0      2208         1         0      2211         1         0
      2214         1         0      2217         1         0      2220         1         0
      2223         1         0      2226         1         0      2229         1         0
      2232         1         0      2235         1         0      2238         1         0
      2241         1         0      2244         1         0      2247         1         0
      2250         1         0      2253         1         0      2256         1         0
      2259         1         0      2262         1         0      2265         1         0
      2268         1         0      2271         1         0      2274         1         0
      2277         1         0      2280         1         0      2283         1         0
      2286         1         0      2289         1         0      2292         1         0
      2295         1         0      2298         1         0      2301         1         0
      2304         1         0      2307         1         0      2310         1         0
      2313         1         0      2316         1         0      2319         1         0
      2322         1         0      2325         1         0      2328         1         0
      2331         1         0      2334         1         0      2337         1         0
      2340         1         0      2343         1         0      2346         1         0
      2349         1         0      2352         1         0      2355         1         0
      2358         1         0      2361         1         0      2364         1         0
      2367         1         0      2370         1         0      2373         1         0
      2376         1         0      2379         1         0      2382         1         0
      2385         1         0      2388         1         0      2391         1         0
      2394         1         0      2397         1         0      2400         1         0
      2403         1         0      2406         1         0      2409         1         0
      2412         1         0      2415         1         0      2418         1         0
      2421         1         0      2424         1         0      2427         1         0
      2430         1         0      2433         1         0      2436         1         0
      2439         1         0      2442         1         0      2445         1         0
      2448         1         0      2451         1         0      2454         1         0
      2457         1         0      2460         1         0      2463         1         0
      2466         1         0      2469         1         0      2472         1         0
      2475         1         0      2478         1         0      2481         1         0
      2484         1         0      2487         1         0      2490         1         0
      2493         1         0      2496         1         0      2499         1         0
      2502         1         0      2505         1         0      2508         1         0
      2511         1         0      2514         1         0      2517         1         0
      2520         1         0      2523         1         0      2526         1         0
      2529         1         0      2532         1         0      2535         1         0
      2538         1         0      2541         1         0      2544         1         0
      2547         1         0      2550         1         0      2553         1         0
      2556         1         0      2559         1         0      2562         1         0
      2565         1         0      2568         1         0      2571         1         0
      2574         1         0      2577         1         0      2580         1         0
      2583         1         0      2586         1         0      2589         1         0
      2592         1         0      2595         1         0      2598         1         0
      2601         1         0      2604         1         0      2607         1         0
      2610         1         0      2613         1         0      2616         1         0
      2619         1         0      2622         1         0      2625         1         0
      2628         1         0      2631         1         0      2634         1         0
      2637         1         0      2640         1         0      2643         1         0
      2646         1         0      2649         1         0      2652         1         0
      2655         1         0      2658         1         0      2661         1         0
      2664         1         0      2667         1         0      2670         1         0
      2673         1         0      2676         1         0      2679         1         0
      2682         1         0      2685         1         0      2688         1         0
      2691         1         0      2694         1         0      2697         1         0
      2700         1         0      2703         1         0      2706         1         0
      2709         1         0      2712         1         0      2715         1         0
      2718         1         0      2721         1         0      2724         1         0
      2727         1         0      2730         1         0      2733         1         0
      2736         1         0      2739         1         0      2742         1         0
      2745         1         0      2748         1         0      2751         1         0
      2754         1         0      2757         1         0      2760         1         0
      2763         1         0      2766         1         0      2769         1         0
      2772         1         0      2775         1         0      2778         1         0
      2781         1         0      2784         1         0      2787         1         0
      2790         1         0      2793         1         0      2796         1         0
      2799         1         0      2802         1         0      2805         1         0
      2808         1         0      2811         1         0      2814         1         0
      2817         1         0      2820         1         0      2823         1         0
      2826         1         0      2829         1         0      2832         1         0
      2835         1         0      2838         1         0      2841         1         0
      2844         1         0      2847         1         0      2850         1         0
      2853         1         0      2856         1         0      2859         1         0
      2862         1         0      2865         1         0      2868         1         0
      2871         1         0      2874         1         0      2877         1         0
      2880         1         0      2883         1         0      2886         1         0
      2889         1         0      2892         1         0      2895         1         0
      2898         1         0      2901         1         0      2904         1         0
      2907         1         0      2910         1         0      2913         1         0
      2916         1         0      2919         1         0      2922         1         0
      2925         1         0      2928         1         0      2931         1         0
      2934         1         0      2937         1         0      2940         1         0
      2943         1         0      2946         1         0      2949         1         0
      2952         1         0      2955         1         0      2958         1         0
      2961         1         0      2964         1         0      2967         1         0
      2970         1         0      2973         1         0      2976         1         0
      2979         1         0      2982         1         0      2985         1         0
      2988         1         0      2991         1         0      2994         1         0
      2997         1         0      3000         1         0      3003         1         0
      3006         1         0      3009         1         0      3012         1         0
      3015         1         0      3018         1         0      3021         1         0
      3024         1         0      3027         1         0      3030         1         0
      3033         1         0      3036         1         0      3039         1         0
      3042         1         0      3045         1         0      3048         1         0
      3051         1         0      3054         1         0      3057         1         0
      3060         1         0      3063         1         0      3066         1         0
      3069         1         0      3072         1         0      3075         1         0
      3078         1         0      3081         1         0      3084         1         0
      3087         1         0      3090         1         0      3093         1         0
      3096         1         0      3099         1         0      3102         1         0
      3105         1         0      3108         1         0      3111         1         0
      3114         1         0      3117         1         0      3120         1         0
      3123         1         0      3126         1         0      3129         1         0
      3132         1         0      3135         1         0      3138         1         0
      3141         1         0      3144         1         0      3147         1         0
      3150         1         0      3153         1         0      3156         1         0
      3159         1         0      3162         1         0      3165         1         0
      3168         1         0      3171         1         0      3174         1         0
      3177         1         0      3180         1         0      3183         1         0
      3186         1         0      3189         1         0      3192         1         0
      3195         1         0      3198         1         0      3201         1         0
      3204         1         0      3207         1         0      3210         1         0
      3213         1         0      3216         1         0      3219         1         0
      3222         1         0      3225         1         0      3228         1         0
      3231         1         0      3234         1         0      3237         1         0
      3240         1         0      3243         1         0      3246         1         0
      3249         1         0      3252         1         0      3255         1         0
      3258         1         0      3261         1         0      3264         1         0
      3267         1         0      3270         1         0      3273         1         0
      3276         1         0      3279         1         0      3282         1         0
      3285         1         0      3288         1         0      3291         1         0
      3294         1         0      3297         1         0      3300         1         0
      3303         1         0      3306         1         0      3309         1         0
      3312         1         0      3315         1         0      3318         1         0
      3321         1         0      3324         1         0      3327         1         0
      3330         1         0      3333         1         0      3336         1         0
      3339         1         0      3342         1         0      3345         1         0
      3348         1         0      3351         1         0      3354         1         0
      3357         1         0      3360         1         0      3363         1         0
      3366         1         0      3369         1         0      3372         1         0
      3375         1         0      3378         1         0      3381         1         0
      3384         1         0      3387         1         0      3390         1         0
      3393         1         0      3396         1         0      3399         1         0
      3402         1         0      3405         1         0      3408         1         0
      3411         1         0      3414         1         0      3417         1         0
      3420         1         0      3423         1         0      3426         1         0
      3429         1         0      3432         1         0      3435         1         0
      3438         1         0      3441         1         0      3444         1         0
      3447         1         0      3450         1         0      3453         1         0
      3456         1         0      3459         1         0      3462         1         0
      3465         1         0      3468         1         0      3471         1         0
      3474         1         0      3477         1         0      3480         1         0
      3483         1         0      3486         1         0      3489         1         0
      3492         1         0      3495         1         0      3498         1         0
      3501         1         0      3504         1         0      3507         1         0
      3510         1         0      3513         1         0      3516         1         0
      3519         1         0      3522         1         0      3525         1         0
      3528         1         0      3531         1         0      3534         1         0
      3537         1         0      3540         1         0      3543         1         0
      3546         1         0      3549         1         0      3552         1         0
      3555         1         0      3558         1         0      3561         1         0
      3564         1         0      3567         1         0      3570         1         0
      3573         1         0      3576         1         0      3579         1         0
      3582         1         0      3585         1         0      3588         1         0
      3591         1         0      3594         1         0      3597         1         0
      3600         1         0      3603         1         0      3606         1         0
      3609         1         0      3612         1         0      3615         1         0
      3618         1         0      3621         1         0      3624         1         0
      3627         1         0      3630         1         0      3633         1         0
      3636         1         0      3639         1         0      3642         1         0
      3645         1         0      3648         1         0      3651         1         0
      3654         1         0      3657         1         0      3660         1         0
      3663         1         0      3666         1         0      3669         1         0
      3672         1         0      3675         1         0      3678         1         0
      3681         1         0      3684         1         0      3687         1         0
      3690         1         0      3693         1         0      3696         1         0
      3699         1         0      3702         1         0      3705         1         0
      3708         1         0      3711         1         0      3714         1         0
      3717         1         0      3720         1         0      3723         1         0
      3726         1         0      3729         1         0      3732         1         0
      3735         1         0      3738         1         0      3741         1         0
      3744         1         0      3747         1         0      3750         1         0
      3753         1         0      3756         1         0      3759         1         0
      3762         1         0      3765         1         0      3768         1         0
      3771         1         0      3774         1         0      3777         1         0
      3780         1         0      3783         1         0      3786         1         0
      3789         1         0      3792         1         0      3795         1         0
      3798         1         0      3801         1         0      3804         1         0
      3807         1         0      3810         1         0      3813         1         0
      3816         1         0      3819         1         0      3822         1         0
      3825         1         0      3828         1         0      3831         1         0
      3834         1         0      3837         1         0      3840         1         0
      3843         1         0      3846         1         0      3849         1         0
      3852         1         0      3855         1         0      3858         1         0
      3861         1         0      3864         1         0      3867         1         0
      3870         1         0      3873         1         0      3876         1         0
      3879         1         0      3882         1         0      3885         1         0
      3888         1         0      3891         1         0      3894         1         0
      3897         1         0      3900         1         0      3903         1         0
      3906         1         0      3909         1         0      3912         1         0
      3915         1         0      3918         1         0      3921         1         0
      3924         1         0      3927         1         0      3930         1         0
      3933         1         0      3936         1         0      3939         1         0
      3942         1         0      3945         1         0      3948         1         0
      3951         1         0      3954         1         0      3957         1         0
      3960         1         0      3963         1         0      3966         1         0
      3969         1         0      3972         1         0      3975         1         0
      3978         1         0      3981         1         0      3984         1         0
      3987         1         0      3990         1         0      3993         1         0
      3996         1         0      3999         1         0      4002         1         0
      4005         1         0      4008         1         0      4011         1         0
      4014         1         0      4017         1         0      4020         1         0
      4023         1         0      4026         1         0      4029         1         0
      4032         1         0      4035         1         0      4038         1         0
      4041         1         0      4044         1         0      4047         1         0
      4050         1         0      4053         1         0      4056         1         0
      4059         1         0      4062         1         0      4065         1         0
      4068         1         0      4071         1         0      4074         1         0
      4077         1         0      4080         1         0      4083         1         0
      4086         1         0      4089         1         0      4092         1         0
      4095         1         0      4098         1         0      4101         1         0
      4104         1         0      4107         1         0      4110         1         0
      4113         1         0      4116         1         0      4119         1         0
      4122         1         0      4125         1         0      4128         1         0
      4131         1         0      4134         1         0      4137         1         0
      4140         1         0      4143         1         0      4146         1         0
      4149         1         0      4152         1         0      4155         1         0
      4158         1         0      4161         1         0      4164         1         0
      4167         1         0      4170         1         0      4173         1         0
      4176         1         0      4179         1         0      4182         1         0
      4185         1         0      4188         1         0      4191         1         0
      4194         1         0      4197         1         0      4200         1         0
      4203         1         0      4206         1         0      4209         1         0
      4212         1         0      4215         1         0      4218         1         0
      4221         1         0      4224         1         0      4227         1         0
      4230         1         0      4233         1         0      4236         1         0
      4239         1         0      4242         1         0      4245         1         0
      4248         1         0      4251         1         0      4254         1         0
      4257         1         0      4260         1         0      4263         1         0
      4266         1         0      4269         1         0      4272         1         0
      4275         1         0      4278         1         0      4281         1         0
      4284         1         0      4287         1         0      4290         1         0
      4293         1         0      4296         1         0      4299         1         0
      4302         1         0      4305         1         0      4308         1         0
      4311         1         0      4314         1         0      4317         1         0
      4320         1         0      4323         1         0      4326         1         0
      4329         1         0      4332         1         0      4335         1         0
      4338         1         0      4341         1         0      4344         1         0
      4347         1         0      4350         1         0      4353         1         0
      4356         1         0      4359         1         0      4362         1         0
      4365         1         0      4368         1         0      4371         1         0
      4374         1         0      4377         1         0      4380         1         0
      4383         1         0      4386         1         0      4389         1         0
      4392         1         0      4395         1         0      4398         1         0
      4401         1         0      4404         1         0      4407         1         0
      4410         1         0      4413         1         0      4416         1         0
      4419         1         0      4422         1         0      4425         1         0
      4428         1         0      4431         1         0      4434         1         0
      4437         1         0      4440         1         0      4443         1         0
      4446         1         0      4449         1         0      4452         1         0
      4455         1         0      4458         1         0      4461         1         0
      4464         1         0      4467         1         0      4470         1         0
      4473         1         0      4476         1         0      4479         1         0
      4482         1         0      4485         1         0      4488         1         0
      4491         1         0      4494         1         0      4497         1         0
      4500         1         0      4503         1         0      4506         1         0
      4509         1         0      4512         1         0      4515         1         0
      4518         1         0      4521         1         0      4524         1         0
      4527         1         0      4530         1         0      4533         1         0
      4536         1         0      4539         1         0      4542         1         0
      4545         1         0      4548         1         0      4551         1         0
      4554         1         0      4557         1         0      4560         1         0
      4563         1         0      4566         1         0      4569         1         0
      4572         1         0      4575         1         0      4578         1         0
      4581         1         0      4584         1         0      4587         1         0
      4590         1         0      4593         1         0      4596         1         0
      4599         1         0      4602         1         0      4605         1         0
      4608         1         0      4611         1         0      4614         1         0
      4617         1         0      4620         1         0      4623         1         0
      4626         1         0      4629         1         0      4632         1         0
      4635         1         0      4638         1         0      4641         1         0
      4644         1         0      4647         1         0      4650         1         0
      4653         1         0      4656         1         0      4659         1         0
      4662         1         0      4665         1         0      4668         1         0
      4671         1         0      4674         1         0      4677         1         0
      4680         1         0      4683         1         0      4686         1         0
      4689         1         0      4692         1         0      4695         1         0
      4698         1         0      4701         1         0      4704         1         0
      4707         1         0      4710         1         0      4713         1         0
      4716         1         0      4719         1         0      4722         1         0
      4725         1         0      4728         1         0      4731         1         0
      4734         1         0      4737         1         0      4740         1         0
      4743         1         0      4746         1         0      4749         1         0
      4752         1         0      4755         1         0      4758         1         0
      4761         1         0      4764         1         0      4767         1         0
      4770         1         0      4773         1         0      4776         1         0
      4779         1         0      4782         1         0      4785         1         0
      4788         1         0      4791         1         0      4794         1         0
      4797         1         0      4800         1         0      4803         1         0
      4806         1         0      4809         1         0      4812         1         0
      4815         1         0      4818         1         0      4821         1         0
      4824         1         0      4827         1         0      4830         1         0
      4833         1         0      4836         1         0      4839         1         0
      4842         1         0      4845         1         0      4848         1         0
      4851         1         0      4854         1         0      4857         1         0
      4860         1         0      4863         1         0      4866         1         0
      4869         1         0      4872         1         0      4875         1         0
      4878         1         0      4881         1         0      4884         1         0
      4887         1         0      4890         1         0      4893         1         0
      4896         1         0      4899         1         0      4902         1         0
      4905         1         0      4908         1         0      4911         1         0
      4914         1         0      4917         1         0      4920         1         0
      4923         1         0      4926         1         0      4929         1         0
      4932         1         0      4935         1         0      4938         1         0
      4941         1         0      4944         1         0      4947         1         0
      4950         1         0      4953         1         0      4956         1         0
      4959         1         0      4962         1         0      4965         1         0
      4968         1         0      4971         1         0      4974         1         0
      4977         1         0      4980         1         0      4983         1         0
      4986         1         0      4989         1         0      4992         1         0
      4995         1         0      4998         1         0      5001         1         0
      5004         1         0      5007         1         0      5010         1         0
      5013         1         0      5016         1         0      5019         1         0
      5022         1         0      5025         1         0      5028         1         0
      5031         1         0      5034         1         0      5037         1         0
      5040         1         0      5043         1         0      5046         1         0
      5049         1         0      5052         1         0      5055         1         0
      5058         1         0      5061         1         0      5064         1         0
      5067         1         0      5070         1         0      5073         1         0
      5076         1         0      5079         1         0      5082         1         0
      5085         1         0      5088         1         0      5091         1         0
      5094         1         0      5097         1         0      5100         1         0
      5103         1         0      5106         1         0      5109         1         0
      5112         1         0      5115         1         0      5118         1         0
      5121         1         0      5124         1         0      5127         1         0
      5130         1         0      5133         1         0      5136         1         0
      5139         1         0      5142         1         0      5145         1         0
      5148         1         0      5151         1         0      5154         1         0
      5157         1         0      5160         1         0      5163         1         0
      5166         1         0      5169         1         0      5172         1         0
      5175         1         0      5178         1         0      5181         1         0
      5184         1         0      5187         1         0      5190         1         0
      5193         1         0      5196         1         0      5199         1         0
      5202         1         0      5205         1         0      5208         1         0
      5211         1         0      5214         1         0      5217         1         0
      5220         1         0      5223         1         0      5226         1         0
      5229         1         0      5232         1         0      5235         1         0
      5238         1         0      5241         1         0      5244         1         0
      5247         1         0      5250         1         0      5253         1         0
      5256         1         0      5259         1         0      5262         1         0
      5265         1         0      5268         1         0      5271         1         0
      5274         1         0      5277         1         0      5280         1         0
      5283         1         0      5286         1         0      5289         1         0
      5292         1         0      5295         1         0      5298         1         0
      5301         1         0      5304         1         0      5307         1         0
      5310         1         0      5313         1         0      5316         1         0
      5319         1         0      5322         1         0      5325         1         0
      5328         1         0      5331         1         0      5334         1         0
      5337         1         0      5340         1         0      5343         1         0
      5346         1         0      5349         1         0      5352         1         0
      5355         1         0      5358         1         0      5361         1         0
      5364         1         0      5367         1         0      5370         1         0
      5373         1         0      5376         1         0      5379         1         0
      5382         1         0      5385         1         0      5388         1         0
      5391         1         0      5394         1         0      5397         1         0
      5400         1         0      5403         1         0      5406         1         0
      5409         1         0      5412         1         0      5415         1         0
      5418         1         0      5421         1         0      5424         1         0
      5427         1         0      5430         1         0      5433         1         0
      5436         1         0      5439         1         0      5442         1         0
      5445         1         0      5448         1         0      5451         1         0
      5454         1         0      5457         1         0      5460         1         0
      5463         1         0      5466         1         0      5469         1         0
      5472         1         0      5475         1         0      5478         1         0
      5481         1         0      5484         1         0      5487         1         0
      5490         1         0      5493         1         0      5496         1         0
      5499         1         0      5502         1         0      5505         1         0
      5508         1         0      5511         1         0      5514         1         0
      5517         1         0      5520         1         0      5523         1         0
      5526         1         0      5529         1         0      5532         1         0
      5535         1         0      5538         1         0      5541         1         0
      5544         1         0      5547         1         0      5550         1         0
      5553         1         0      5556         1         0      5559         1         0
      5562         1         0      5565         1         0      5568         1         0
      5571         1         0      5574         1         0      5577         1         0
      5580         1         0      5583         1         0      5586         1         0
      5589         1         0      5592         1         0      5595         1         0
      5598         1         0      5601         1         0      5604         1         0
      5607         1         0      5610         1         0      5613         1         0
      5616         1         0      5619         1         0      5622         1         0
      5625         1         0      5628         1         0      5631         1         0
      5634         1         0      5637         1         0      5640         1         0
      5643         1         0      5646         1         0      5649         1         0
      5652         1         0      5655         1         0      5658         1         0
      5661         1         0      5664         1         0      5667         1         0
      5670         1         0      5673         1         0      5676         1         0
      5679         1         0      5682         1         0      5685         1         0
      5688         1         0      5691         1         0      5694         1         0
      5697         1         0      5700         1         0      5703         1         0
      5706         1         0      5709         1         0      5712         1         0
      5715         1         0      5718         1         0      5721         1         0
      5724         1         0      5727         1         0      5730         1         0
      5733         1         0      5736         1         0      5739         1         0
      5742         1         0      5745         1         0      5748         1         0
      5751         1         0      5754         1         0      5757         1         0
      5760         1         0      5763         1         0      5766         1         0
      5769         1         0      5772         1         0      5775         1         0
      5778         1         0      5781         1         0      5784         1         0
      5787         1         0      5790         1         0      5793         1         0
      5796         1         0      5799         1         0      5802         1         0
      5805         1         0      5808         1         0      5811         1         0
      5814         1         0      5817         1         0      5820         1         0
      5823         1         0      5826         1         0      5829         1         0
      5832         1         0      5835         1         0      5838         1         0
      5841         1         0      5844         1         0      5847         1         0
      5850         1         0      5853         1         0      5856         1         0
      5859         1         0      5862         1         0      5865         1         0
      5868         1         0      5871         1         0      5874         1         0
      5877         1         0      5880         1         0      5883         1         0
      5886         1         0      5889         1         0      5892         1         0
      5895         1         0      5898         1         0      5901         1         0
      5904         1         0      5907         1         0      5910         1         0
      5913         1         0      5916         1         0      5919         1         0
      5922         1         0      5925         1         0      5928         1         0
      5931         1         0      5934         1         0      5937         1         0
      5940         1         0      5943         1         0      5946         1         0
      5949         1         0      5952         1         0      5955         1         0
      5958         1         0      5961         1         0      5964         1         0
      5967         1         0      5970         1         0      5973         1         0
      5976         1         0      5979         1         0      5982         1         0
      5985         1         0      5988         1         0      5991         1         0
      5994         1         0      5997         1         0      6000         1         0
      6003         1         0      6006         1         0      6009         1         0
      6012         1         0      6015         1         0      6018         1         0
      6021         1         0      6024         1         0      6027         1         0
      6030         1         0      6033         1         0      6036         1         0
      6039         1         0      6042         1         0      6045         1         0
      6048         1         0      6051         1         0      6054         1         0
      6057         1         0      6060         1         0      6063         1         0
      6066         1         0      6069         1         0      6072         1         0
      6075         1         0      6078         1         0      6081         1         0
      6084         1         0      6087         1         0      6090         1         0
      6093         1         0      6096         1         0      6099         1         0
      6102         1         0      6105         1         0      6108         1         0
      6111         1         0      6114         1         0      6117         1         0
      6120         1         0      6123         1         0      6126         1         0
      6129         1         0      6132         1         0      6135         1         0
      6138         1         0      6141         1         0      6144         1         0
      6147         1         0      6150         1         0      6153         1         0
      6156         1         0      6159         1         0      6162         1         0
      6165         1         0      6168         1         0      6171         1         0
      6174         1         0      6177         1         0      6180         1         0
      6183         1         0      6186         1         0      6189         1         0
      6192         1         0      6195         1         0      6198         1         0
      6201         1         0      6204         1         0      6207         1         0
      6210         1         0      6213         1         0      6216         1         0
      6219         1         0      6222         1         0      6225         1         0
      6228         1         0      6231         1         0      6234         1         0
      6237         1         0      6240         1         0      6243         1         0
      6246         1         0      6249         1         0      6252         1         0
      6255         1         0      6258         1         0      6261         1         0
      6264         1         0      6267         1         0      6270         1         0
      6273         1         0      6276         1         0      6279         1         0
      6282         1         0      6285         1         0      6288         1         0
      6291         1         0      6294         1         0      6297         1         0
      6300         1         0      6303         1         0      6306         1         0
      6309         1         0      6312         1         0      6315         1         0
      6318         1         0      6321         1         0      6324         1         0
      6327         1         0      6330         1         0      6333         1         0
      6336         1         0      6339         1         0      6342         1         0
      6345         1         0      6348         1         0      6351         1         0
      6354         1         0      6357         1         0      6360         1         0
      6363         1         0      6366         1         0      6369         1         0
      6372         1         0      6375         1         0      6378         1         0
      6381         1         0      6384         1         0      6387         1         0
      6390         1         0      6393         1         0      6396         1         0
      6399         1         0      6402         1         0      6405         1         0
      6408         1         0      6411         1         0      6414         1         0
      6417         1         0      6420         1         0      6423         1         0
      6426         1         0      6429         1         0      6432         1         0
      6435         1         0      6438         1         0      6441         1         0
      6444         1         0      6447         1         0      6450         1         0
      6453         1         0      6456         1         0      6459         1         0
      6462         1         0      6465         1         0      6468         1         0
      6471         1         0      6474         1         0      6477         1         0
      6480         1         0      6483         1         0      6486         1         0
      6489         1         0      6492         1         0      6495         1         0
      6498         1         0      6501         1         0      6504         1         0
      6507         1         0      6510         1         0      6513         1         0
      6516         1         0      6519         1         0      6522         1         0
      6525         1         0      6528         1         0      6531         1         0
      6534         1         0      6537         1         0      6540         1         0
      6543         1         0      6546         1         0      6549         1         0
      6552         1         0      6555         1         0      6558         1         0
      6561         1         0      6564         1         0      6567         1         0
      6570         1         0      6573         1         0      6576         1         0
      6579         1         0      6582         1         0      6585         1         0
      6588         1         0      6591         1         0      6594         1         0
      6597         1         0      6600         1         0      6603         1         0
      6606         1         0      6609         1         0      6612         1         0
      6615         1         0      6618         1         0      6621         1         0
      6624         1         0      6627         1         0      6630         1         0
      6633         1         0      6636         1         0      6639         1         0
      6642         1         0      6645         1         0      6648         1         0
      6651         1         0      6654         1         0      6657         1         0
      6660         1         0      6663         1         0      6666         1         0
      6669         1         0      6672         1         0      6675         1         0
      6678         1         0      6681         1         0      6684         1         0
      6687         1         0      6690         1         0      6693         1         0
      6696         1         0      6699         1         0      6702         1         0
      6705         1         0      6708         1         0      6711         1         0
      6714         1         0      6717         1         0      6720         1         0
      6723         1         0      6726         1         0      6729         1         0
      6732         1         0      6735         1         0      6738         1         0
      6741         1         0      6744         1         0      6747         1         0
      6750         1         0      6753         1         0      6756         1         0
      6759         1         0      6762         1         0      6765         1         0
      6768         1         0      6771         1         0      6774         1         0
      6777         1         0      6780         1         0      6783         1         0
      6786         1         0      6789         1         0      6792         1         0
      6795         1         0      6798         1         0      6801         1         0
      6804         1         0      6807         1         0      6810         1         0
      6813         1         0      6816         1         0      6819         1         0
      6822         1         0      6825         1         0      6828         1         0
      6831         1         0      6834         1         0      6837         1         0
      6840         1         0      6843         1         0      6846         1         0
      6849         1         0      6852         1         0      6855         1         0
      6858         1         0      6861         1         0      6864         1         0
      6867         1         0      6870         1         0      6873         1         0
      6876         1         0      6879         1         0      6882         1         0
      6885         1         0      6888         1         0      6891         1         0
      6894         1         0      6897         1         0      6900         1         0
      6903         1         0      6906         1         0      6909         1         0
      6912         1         0      6915         1         0      6918         1         0
      6921         1         0      6924         1         0      6927         1         0
      6930         1         0      6933         1         0      6936         1         0
      6939         1         0      6942         1         0      6945         1         0
      6948         1         0      6951         1         0      6954         1         0
      6957         1         0      6960         1         0      6963         1         0
      6966         1         0      6969         1         0      6972         1         0
      6975         1         0      6978         1         0      6981         1         0
      6984         1         0      6987         1         0      6990         1         0
      6993         1         0      6996         1         0      6999         1         0
      7002         1         0      7005         1         0      7008         1         0
      7011         1         0      7014         1         0      7017         1         0
      7020         1         0      7023         1         0      7026         1         0
      7029         1         0      7032         1         0      7035         1         0
      7038         1         0      7041         1         0      7044         1         0
      7047         1         0      7050         1         0      7053         1         0
      7056         1         0      7059         1         0      7062         1         0
      7065         1         0      7068         1         0      7071         1         0
      7074         1         0      7077         1         0      7080         1         0
      7083         1         0      7086         1         0      7089         1         0
      7092         1         0      7095         1         0      7098         1         0
      7101         1         0      7104         1         0      7107         1         0
      7110         1         0      7113         1         0      7116         1         0
      7119         1         0      7122         1         0      7125         1         0
      7128         1         0      7131         1         0      7134         1         0
      7137         1         0      7140         1         0      7143         1         0
      7146         1         0      7149         1         0      7152         1         0
      7155         1         0      7158         1         0      7161         1         0
      7164         1         0      7167         1         0      7170         1         0
      7173         1         0      7176         1         0      7179         1         0
      7182         1         0      7185         1         0      7188         1         0
      7191         1         0      7194         1         0      7197         1         0
      7200         1         0      7203         1         0      7206         1         0
      7209         1         0      7212         1         0      7215         1         0
      7218         1         0      7221         1         0      7224         1         0
      7227         1         0      7230         1         0      7233         1         0
      7236         1         0      7239         1         0      7242         1         0
      7245         1         0      7248         1         0      7251         1         0
      7254         1         0      7257         1         0      7260         1         0
      7263         1         0      7266         1         0      7269         1         0
      7272         1         0      7275         1         0      7278         1         0
      7281         1         0      7284         1         0      7287         1         0
      7290         1         0      7293         1         0      7296         1         0
      7299         1         0      7302         1         0      7305         1         0
      7308         1         0      7311         1         0      7314         1         0
      7317         1         0      7320         1         0      7323         1         0
      7326         1         0      7329         1         0      7332         1         0
      7335         1         0      7338         1         0      7341         1         0
      7344         1         0      7347         1         0      7350         1         0
      7353         1         0      7356         1         0      7359         1         0
      7362         1         0      7365         1         0      7368         1         0
      7371         1         0      7374         1         0      7377         1         0
      7380         1         0      7383         1         0      7386         1         0
      7389         1         0      7392         1         0      7395         1         0
      7398         1         0      7401         1         0      7404         1         0
      7407         1         0      7410         1         0      7413         1         0
      7416         1         0      7419         1         0      7422         1         0
      7425         1         0      7428         1         0      7431         1         0
      7434         1         0      7437         1         0      7440         1         0
      7443         1         0      7446         1         0      7449         1         0
      7452         1         0      7455         1         0      7458         1         0
      7461         1         0      7464         1         0      7467         1         0
      7470         1         0      7473         1         0      7476         1         0
      7479         1         0      7482         1         0      7485         1         0
      7488         1         0      7491         1         0      7494         1         0
      7497         1         0      7500         1         0      7503         1         0
      7506         1         0      7509         1         0      7512         1         0
      7515         1         0      7518         1         0      7521         1         0
      7524         1         0      7527         1         0      7530         1         0
      7533         1         0      7536         1         0      7539         1         0
      7542         1         0      7545         1         0      7548         1         0
      7551         1         0      7554         1         0      7557         1         0
      7560         1         0      7563         1         0      7566         1         0
      7569         1         0      7572         1         0      7575         1         0
      7578         1         0      7581         1         0      7584         1         0
      7587         1         0      7590         1         0      7593         1         0
      7596         1         0      7599         1         0      7602         1         0
      7605         1         0      7608         1         0      7611         1         0
      7614         1         0      7617         1         0      7620         1         0
      7623         1         0      7626         1         0      7629         1         0
      7632         1         0      7635         1         0      7638         1         0
      7641         1         0      7644         1         0      7647         1         0
      7650         1         0      7653         1         0      7656         1         0
      7659         1         0      7662         1         0      7665         1         0
      7668         1         0      7671         1         0      7674         1         0
      7677         1         0      7680         1         0      7683         1         0
      7686         1         0      7689         1         0      7692         1         0
      7695         1         0      7698         1         0      7701         1         0
      7704         1         0      7707         1         0      7710         1         0
      7713         1         0      7716         1         0      7719         1         0
      7722         1         0      7725         1         0      7728         1         0
      7731         1         0      7734         1         0      7737         1         0
      7740         1         0      7743         1         0      7746         1         0
      7749         1         0      7752         1         0      7755         1         0
      7758         1         0      7761         1         0      7764         1         0
      7767         1         0      7770         1         0      7773         1         0
      7776         1         0      7779         1         0      7782         1         0
      7785         1         0      7788         1         0      7791         1         0
      7794         1         0      7797         1         0      7800         1         0
      7803         1         0      7806         1         0      7809         1         0
      7812         1         0      7815         1         0      7818         1         0
      7821         1         0      7824         1         0      7827         1         0
      7830         1         0      7833         1         0      7836         1         0
      7839         1         0      7842         1         0      7845         1         0
      7848         1         0      7851         1         0      7854         1         0
      7857         1         0      7860         1         0      7863         1         0
      7866         1         0      7869         1         0      7872         1         0
      7875         1         0      7878         1         0      7881         1         0
      7884         1         0      7887         1         0      7890         1         0
      7893         1         0      7896         1         0      7899         1         0
      7902         1         0      7905         1         0      7908         1         0
      7911         1         0      7914         1         0      7917         1         0
      7920         1         0      7923         1         0      7926         1         0
      7929         1         0      7932         1         0      7935         1         0
      7938         1         0      7941         1         0      7944         1         0
      7947         1         0      7950         1         0      7953         1         0
      7956         1         0      7959         1         0      7962         1         0
      7965         1         0      7968         1         0      7971         1         0
      7974         1         0      7977         1         0      7980         1         0
      7983         1         0      7986         1         0      7989         1         0
      7992         1         0      7995         1         0      7998         1         0
      8001         1         0      8004         1         0      8007         1         0
      8010         1         0      8013         1         0      8016         1         0
      8019         1         0      8022         1         0      8025         1         0
      8028         1         0      8031         1         0      8034         1         0
      8037         1         0      8040         1         0      8043         1         0
      8046         1         0      8049         1         0      8052         1         0
      8055         1         0      8058         1         0      8061         1         0
      8064         1         0      8067         1         0      8070         1         0
      8073         1         0      8076         1         0      8079         1         0
      8082         1         0      8085         1         0      8088         1         0
      8091         1         0      8094         1         0      8097         1         0
      8100         1         0      8103         1         0      8106         1         0
      8109         1         0      8112         1         0      8115         1         0
      8118         1         0      8121         1         0      8124         1         0
      8127         1         0      8130         1         0      8133         1         0
      8136         1         0      8139         1         0      8142         1         0
      8145         1         0      8148         1         0      8151         1         0
      8154         1         0      8157         1         0      8160         1         0
      8163         1         0      8166         1         0      8169         1         0
      8172         1         0      8175         1         0      8178         1         0
      8181         1         0      8184         1         0      8187         1         0
      8190         1         0      8193         1         0      8196         1         0
      8199         1         0      8202         1         0      8205         1         0
      8208         1         0      8211         1         0      8214         1         0
      8217         1         0      8220         1         0      8223         1         0
      8226         1         0      8229         1         0      8232         1         0
      8235         1         0      8238         1         0      8241         1         0
      8244         1         0      8247         1         0      8250         1         0
      8253         1         0      8256         1         0      8259         1         0
      8262         1         0      8265         1         0      8268         1         0
      8271         1         0      8274         1         0      8277         1         0
      8280         1         0      8283         1         0      8286         1         0
      8289         1         0      8292         1         0      8295         1         0
      8298         1         0      8301         1         0      8304         1         0
      8307         1         0      8310         1         0      8313         1         0
      8316         1         0      8319         1         0      8322         1         0
      8325         1         0      8328         1         0      8331         1         0
      8334         1         0      8337         1         0      8340         1         0
      8343         1         0      8346         1         0      8349         1         0
      8352         1         0      8355         1         0      8358         1         0
      8361         1         0      8364         1         0      8367         1         0
      8370         1         0      8373         1         0      8376         1         0
      8379         1         0      8382         1         0      8385         1         0
      8388         1         0      8391         1         0      8394         1         0
      8397         1         0      8400         1         0      8403         1         0
      8406         1         0      8409         1         0      8412         1         0
      8415         1         0      8418         1         0      8421         1         0
      8424         1         0      8427         1         0      8430         1         0
      8433         1         0      8436         1         0      8439         1         0
      8442         1         0      8445         1         0      8448         1         0
      8451         1         0      8454         1         0      8457         1         0
      8460         1         0      8463         1         0      8466         1         0
      8469         1         0      8472         1         0      8475         1         0
      8478         1         0      8481         1         0      8484         1         0
      8487         1         0      8490         1         0      8493         1         0
      8496         1         0      8499         1         0      8502         1         0
      8505         1         0      8508         1         0      8511         1         0
      8514         1         0      8517         1         0      8520         1         0
      8523         1         0      8526         1         0      8529         1         0
      8532         1         0      8535         1         0      8538         1         0
      8541         1         0      8544         1         0      8547         1         0
      8550         1         0      8553         1         0      8556         1         0
      8559         1         0      8562         1         0      8565         1         0
      8568         1         0      8571         1         0      8574         1         0
      8577         1         0      8580         1         0      8583         1         0
      8586         1         0      8589         1         0      8592         1         0
      8595         1         0      8598         1         0      8601         1         0
      8604         1         0      8607         1         0      8610         1         0
      8613         1         0      8616         1         0      8619         1         0
      8622         1         0      8625         1         0      8628         1         0
      8631         1         0      8634         1         0      8637         1         0
      8640         1         0      8643         1         0      8646         1         0
      8649         1         0      8652         1         0      8655         1         0
      8658         1         0      8661         1         0      8664         1         0
      8667         1         0      8670         1         0      8673         1         0
      8676         1         0      8679         1         0      8682         1         0
      8685         1         0      8688         1         0      8691         1         0
      8694         1         0      8697         1         0      8700         1         0
      8703         1         0      8706         1         0      8709         1         0
      8712         1         0      8715         1         0      8718         1         0
      8721         1         0      8724         1         0      8727         1         0
      8730         1         0      8733         1         0      8736         1         0
      8739         1         0      8742         1         0      8745         1         0
      8748         1         0      8751         1         0      8754         1         0
      8757         1         0      8760         1         0      8763         1         0
      8766         1         0      8769         1         0      8772         1         0
      8775         1         0      8778         1         0      8781         1         0
      8784         1         0      8787         1         0      8790         1         0
      8793         1         0      8796         1         0      8799         1         0
      8802         1         0      8805         1         0      8808         1         0
      8811         1         0      8814         1         0      8817         1         0
      8820         1         0      8823         1         0      8826         1         0
      8829         1         0      8832         1         0      8835         1         0
      8838         1         0      8841         1         0      8844         1         0
      8847         1         0      8850         1         0      8853         1         0
      8856         1         0      8859         1         0      8862         1         0
      8865         1         0      8868         1         0      8871         1         0
      8874         1         0      8877         1         0      8880         1         0
      8883         1         0      8886         1         0      8889         1         0
      8892         1         0      8895         1         0      8898         1         0
      8901         1         0      8904         1         0      8907         1         0
      8910         1         0      8913         1         0      8916         1         0
      8919         1         0      8922         1         0      8925         1         0
      8928         1         0      8931         1         0      8934         1         0
      8937         1         0      8940         1         0      8943         1         0
      8946         1         0      8949         1         0      8952         1         0
      8955         1         0      8958         1         0      8961         1         0
      8964         1         0      8967         1         0      8970         1         0
      8973         1         0      8976         1         0      8979         1         0
      8982         1         0      8985         1         0      8988         1         0
      8991         1         0      8994         1         0      8997         1         0
      9000         1         0      9003         1         0      9006         1         0
      9009         1         0      9012         1         0      9015         1         0
      9018         1         0      9021         1         0      9024         1         0
      9027         1         0      9030         1         0      9033         1         0
      9036         1         0      9039         1         0      9042         1         0
      9045         1         0      9048         1         0      9051         1         0
      9054         1         0      9057         1         0      9060         1         0
      9063         1         0      9066         1         0      9069         1         0
      9072         1         0      9075         1         0      9078         1         0
      9081         1         0      9084         1         0      9087         1         0
      9090         1         0      9093         1         0      9096         1         0
      9099         1         0      9102         1         0      9105         1         0
      9108         1         0      9111         1         0      9114         1         0
      9117         1         0      9120         1         0      9123         1         0
      9126         1         0      9129         1         0      9132         1         0
      9135         1         0      9138         1         0      9141         1         0
      9144         1         0      9147         1         0      9150         1         0
      9153         1         0      9156         1         0      9159         1         0
      9162         1         0      9165         1         0      9168         1         0
      9171         1         0      9174         1         0      9177         1         0
      9180         1         0      9183         1         0      9186         1         0
      9189         1         0      9192         1         0      9195         1         0
      9198         1         0      9201         1         0      9204         1         0
      9207         1         0      9210         1         0      9213         1         0
      9216         1         0      9219         1         0      9222         1         0
      9225         1         0      9228         1         0      9231         1         0
      9234         1         0      9237         1         0      9240         1         0
      9243         1         0      9246         1         0      9249         1         0
      9252         1         0      9255         1         0      9258         1         0
      9261         1         0      9264         1         0      9267         1         0
      9270         1         0      9273         1         0      9276         1         0
      9279         1         0      9282         1         0      9285         1         0
      9288         1         0      9291         1         0      9294         1         0
      9297         1         0      9300         1         0      9303         1         0
      9306         1         0      9309         1         0      9312         1         0
      9315         1         0      9318         1         0      9321         1         0
      9324         1         0      9327         1         0      9330         1         0
      9333         1         0      9336         1         0      9339         1         0
      9342         1         0      9345         1         0      9348         1         0
      9351         1         0      9354         1         0      9357         1         0
      9360         1         0      9363         1         0      9366         1         0
      9369         1         0      9372         1         0      9375         1         0
      9378         1         0      9381         1         0      9384         1         0
      9387         1         0      9390         1         0      9393         1         0
      9396         1         0      9399         1         0      9402         1         0
      9405         1         0      9408         1         0      9411         1         0
      9414         1         0      9417         1         0      9420         1         0
      9423         1         0      9426         1         0      9429         1         0
      9432         1         0      9435         1         0      9438         1         0
      9441         1         0      9444         1         0      9447         1         0
      9450         1         0      9453         1         0      9456         1         0
      9459         1         0      9462         1         0      9465         1         0
      9468         1         0      9471         1         0      9474         1         0
      9477         1         0      9480         1         0      9483         1         0
      9486         1         0      9489         1         0      9492         1         0
      9495         1         0      9498         1         0      9501         1         0
      9504         1         0      9507         1         0      9510         1         0
      9513         1         0      9516         1         0      9519         1         0
      9522         1         0      9525         1         0      9528         1         0
      9531         1         0      9534         1         0      9537         1         0
      9540         1         0      9543         1         0      9546         1         0
      9549         1         0      9552         1         0      9555         1         0
      9558         1         0      9561         1         0      9564         1         0
      9567         1         0      9570         1         0      9573         1         0
      9576         1         0      9579         1         0      9582         1         0
      9585         1         0      9588         1         0      9591         1         0
      9594         1         0      9597         1         0      9600         1         0
      9603         1         0      9606         1         0      9609         1         0
      9612         1         0      9615         1         0      9618         1         0
      9621         1         0      9624         1         0      9627         1         0
      9630         1         0      9633         1         0      9636         1         0
      9639         1         0      9642         1         0      9645         1         0
      9648         1         0      9651         1         0      9654         1         0
      9657         1         0      9660         1         0      9663         1         0
      9666         1         0      9669         1         0      9672         1         0
      9675         1         0      9678         1         0      9681         1         0
      9684         1         0      9687         1         0      9690         1         0
      9693         1         0      9696         1         0      9699         1         0
      9702         1         0      9705         1         0      9708         1         0
      9711         1         0      9714         1         0      9717         1         0
      9720         1         0      9723         1         0      9726         1         0
      9729         1         0      9732         1         0      9735         1         0
      9738         1         0      9741         1         0      9744         1         0
      9747         1         0      9750         1         0      9753         1         0
      9756         1         0      9759         1         0      9762         1         0
      9765         1         0      9768         1         0      9771         1         0
      9774         1         0      9777         1         0      9780         1         0
      9783         1         0      9786         1         0      9789         1         0
      9792         1         0      9795         1         0      9798         1         0
      9801         1         0      9804         1         0      9807         1         0
      9810         1         0      9813         1         0      9816         1         0
      9819         1         0      9822         1         0      9825         1         0
      9828         1         0      9831         1         0      9834         1         0
      9837         1         0      9840         1         0      9843         1         0
      9846         1         0      9849         1         0      9852         1         0
      9855         1         0      9858         1         0      9861         1         0
      9864         1         0      9867         1         0      9870         1         0
      9873         1         0      9876         1         0      9879         1         0
      9882         1         0      9885         1         0      9888         1         0
      9891         1         0      9894         1         0      9897         1         0
      9900         1         0      9903         1         0      9906         1         0
      9909         1         0      9912         1         0      9915         1         0
      9918         1         0      9921         1         0      9924         1         0
      9927         1         0      9930         1         0      9933         1         0
      9936         1         0      9939         1         0      9942         1         0
      9945         1         0      9948         1         0      9951         1         0
      9954         1         0      9957         1         0      9960         1         0
      9963         1         0      9966         1         0      9969         1         0
      9972         1         0      9975         1         0      9978         1         0
      9981         1         0      9984         1         0      9987         1         0
      9990         1         0      9993         1         0      9996         1         0
      9999         1         0     10002         1         0     10005         1         0
     10008         1         0     10011         1         0     10014         1         0
     10017         1         0     10020         1         0     10023         1         0
     10026         1         0     10029         1         0     10032         1         0
     10035         1         0     10038         1         0     10041         1         0
     10044         1         0     10047         1         0     10050         1         0
     10053         1         0     10056         1         0     10059         1         0
     10062         1         0     10065         1         0     10068         1         0
     10071         1         0     10074         1         0     10077         1         0
     10080         1         0     10083         1         0     10086         1         0
     10089         1         0     10092         1         0     10095         1         0
     10098         1         0     10101         1         0     10104         1         0
     10107         1         0     10110         1         0     10113         1         0
     10116         1         0     10119         1         0     10122         1         0
     10125         1         0     10128         1         0     10131         1         0
     10134         1         0     10137         1         0     10140         1         0
     10143         1         0     10146         1         0     10149         1         0
     10152         1         0     10155         1         0     10158         1         0
     10161         1         0     10164         1         0     10167         1         0
     10170         1         0     10173         1         0     10176         1         0
     10179         1         0     10182         1         0     10185         1         0
     10188         1         0     10191         1         0     10194         1         0
     10197         1         0     10200         1         0     10203         1         0
     10206         1         0     10209         1         0     10212         1         0
     10215         1         0     10218         1         0     10221         1         0
     10224         1         0     10227         1         0     10230         1         0
     10233         1         0     10236         1         0     10239         1         0
     10242         1         0     10245         1         0     10248         1         0
     10251         1         0     10254         1         0     10257         1         0
     10260         1         0     10263         1         0     10266         1         0
     10269         1         0     10272         1         0     10275         1         0
     10278         1         0     10281         1         0     10284         1         0
     10287         1         0     10290         1         0     10293         1         0
     10296         1         0     10299         1         0     10302         1         0
     10305         1         0     10308         1         0     10311         1         0
     10314         1         0     10317         1         0     10320         1         0
     10323         1         0     10326         1         0     10329         1         0
     10332         1         0     10335         1         0     10338         1         0
     10341         1         0     10344         1         0     10347         1         0
     10350         1         0     10353         1         0     10356         1         0
     10359         1         0     10362         1         0     10365         1         0
     10368         1         0     10371         1         0     10374         1         0
     10377         1         0     10380         1         0     10383         1         0
     10386         1         0     10389         1         0     10392         1         0
     10395         1         0     10398         1         0     10401         1         0
     10404         1         0     10407         1         0     10410         1         0
     10413         1         0     10416         1         0     10419         1         0
     10422         1         0     10425         1         0     10428         1         0
     10431         1         0     10434         1         0     10437         1         0
     10440         1         0     10443         1         0     10446         1         0
     10449         1         0     10452         1         0     10455         1         0
     10458         1         0     10461         1         0     10464         1         0
     10467         1         0     10470         1         0     10473         1         0
     10476         1         0     10479         1         0     10482         1         0
     10485         1         0     10488         1         0     10491         1         0
     10494         1         0     10497         1         0     10500         1         0
     10503         1         0     10506         1         0     10509         1         0
     10512         1         0     10515         1         0     10518         1         0
     10521         1         0     10524         1         0     10527         1         0
     10530         1         0     10533         1         0     10536         1         0
     10539         1         0     10542         1         0     10545         1         0
     10548         1         0     10551         1         0     10554         1         0
     10557         1         0     10560         1         0     10563         1         0
     10566         1         0     10569         1         0     10572         1         0
     10575         1         0     10578         1         0     10581         1         0
     10584         1         0     10587         1         0     10590         1         0
     10593         1         0     10596         1         0     10599         1         0
     10602         1         0     10605         1         0     10608         1         0
     10611         1         0     10614         1         0     10617         1         0
     10620         1         0     10623         1         0     10626         1         0
     10629         1         0     10632         1         0     10635         1         0
     10638         1         0     10641         1         0     10644         1         0
     10647         1         0     10650         1         0     10653         1         0
     10656         1         0     10659         1         0     10662         1         0
     10665         1         0     10668         1         0     10671         1         0
     10674         1         0     10677         1         0     10680         1         0
     10683         1         0     10686         1         0     10689         1         0
     10692         1         0     10695         1         0     10698         1         0
     10701         1         0     10704         1         0     10707         1         0
     10710         1         0     10713         1         0     10716         1         0
     10719         1         0     10722         1         0     10725         1         0
     10728         1         0     10731         1         0     10734         1         0
     10737         1         0     10740         1         0     10743         1         0
     10746         1         0     10749         1         0     10752         1         0
     10755         1         0     10758         1         0     10761         1         0
     10764         1         0     10767         1         0     10770         1         0
     10773         1         0     10776         1         0     10779         1         0
     10782         1         0     10785         1         0     10788         1         0
     10791         1         0     10794         1         0     10797         1         0
     10800         1         0     10803         1         0     10806         1         0
     10809         1         0     10812         1         0     10815         1         0
     10818         1         0     10821         1         0     10824         1         0
     10827         1         0     10830         1         0     10833         1         0
     10836         1         0     10839         1         0     10842         1         0
     10845         1         0     10848         1         0     10851         1         0
     10854         1         0     10857         1         0     10860         1         0
     10863         1         0     10866         1         0     10869         1         0
     10872         1         0     10875         1         0     10878         1         0
     10881         1         0     10884         1         0     10887         1         0
     10890         1         0     10893         1         0     10896         1         0
     10899         1         0     10902         1         0     10905         1         0
     10908         1         0     10911         1         0     10914         1         0
     10917         1         0     10920         1         0     10923         1         0
     10926         1         0     10929         1         0     10932         1         0
     10935         1         0     10938         1         0     10941         1         0
     10944         1         0     10947         1         0     10950         1         0
     10953         1         0     10956         1         0     10959         1         0
     10962         1         0     10965         1         0     10968         1         0
     10971         1         0     10974         1         0     10977         1         0
     10980         1         0     10983         1         0     10986         1         0
     10989         1         0     10992         1         0     10995         1         0
     10998         1         0     11001         1         0     11004         1         0
     11007         1         0     11010         1         0     11013         1         0
     11016         1         0     11019         1         0     11022         1         0
     11025         1         0     11028         1         0     11031         1         0
     11034         1         0     11037         1         0     11040         1         0
     11043         1         0     11046         1         0     11049         1         0
     11052         1         0     11055         1         0     11058         1         0
     11061         1         0     11064         1         0     11067         1         0
     11070         1         0     11073         1         0     11076         1         0
     11079         1         0     11082         1         0     11085         1         0
     11088         1         0     11091         1         0     11094         1         0
     11097         1         0     11100         1         0     11103         1         0
     11106         1         0     11109         1         0     11112         1         0
     11115         1         0     11118         1         0     11121         1         0
     11124         1         0     11127         1         0     11130         1         0
     11133         1         0     11136         1         0     11139         1         0
     11142         1         0     11145         1         0     11148         1         0
     11151         1         0     11154         1         0     11157         1         0
     11160         1         0     11163         1         0     11166         1         0
     11169         1         0     11172         1         0     11175         1         0
     11178         1         0     11181         1         0     11184         1         0
     11187         1         0     11190         1         0     11193         1         0
     11196         1         0     11199         1         0     11202         1         0
     11205         1         0     11208         1         0     11211         1         0
     11214         1         0     11217         1         0     11220         1         0
     11223         1         0     11226         1         0     11229         1         0
     11232         1         0     11235         1         0     11238         1         0
     11241         1         0     11244         1         0     11247         1         0
     11250         1         0     11253         1         0     11256         1         0
     11259         1         0     11262         1         0     11265         1         0
     11268         1         0     11271         1         0     11274         1         0
     11277         1         0     11280         1         0     11283         1         0
     11286         1         0     11289         1         0     11292         1         0
     11295         1         0     11298         1         0     11301         1         0
     11304         1         0     11307         1         0     11310         1         0
     11313         1         0     11316         1         0     11319         1         0
     11322         1         0     11325         1         0     11328         1         0
     11331         1         0     11334         1         0     11337         1         0
     11340         1         0     11343         1         0     11346         1         0
     11349         1         0     11352         1         0     11355         1         0
     11358         1         0     11361         1         0     11364         1         0
     11367         1         0     11370         1         0     11373         1         0
     11376         1         0     11379         1         0     11382         1         0
     11385         1         0     11388         1         0     11391         1         0
     11394         1         0     11397         1         0     11400         1         0
     11403         1         0     11406         1         0     11409         1         0
     11412         1         0     11415         1         0     11418         1         0
     11421         1         0     11424         1         0     11427         1         0
     11430         1         0     11433         1         0     11436         1         0
     11439         1         0     11442         1         0     11445         1         0
     11448         1         0     11451         1         0     11454         1         0
     11457         1         0     11460         1         0     11463         1         0
     11466         1         0     11469         1         0     11472         1         0
     11475         1         0     11478         1         0     11481         1         0
     11484         1         0     11487         1         0     11490         1         0
     11493         1         0     11496         1         0     11499         1         0
     11502         1         0     11505         1         0     11508         1         0
     11511         1         0     11514         1         0     11517         1         0
     11520         1         0     11523         1         0     11526         1         0
     11529         1         0     11532         1         0     11535         1         0
     11538         1         0     11541         1         0     11544         1         0
     11547         1         0     11550         1         0     11553         1         0
     11556         1         0     11559         1         0     11562         1         0
     11565         1         0     11568         1         0     11571         1         0
     11574         1         0     11577         1         0     11580         1         0
     11583         1         0     11586         1         0     11589         1         0
     11592         1         0     11595         1         0     11598         1         0
     11601         1         0     11604         1         0     11607         1         0
     11610         1         0     11613         1         0     11616         1         0
     11619         1         0     11622         1         0     11625         1         0
     11628         1         0     11631         1         0     11634         1         0
     11637         1         0     11640         1         0     11643         1         0
     11646         1         0     11649         1         0     11652         1         0
     11655         1         0     11658         1         0     11661         1         0
     11664         1         0     11667         1         0     11670         1         0
     11673         1         0     11676         1         0     11679         1         0
     11682         1         0     11685         1         0     11688         1         0
     11691         1         0     11694         1         0     11697         1         0
     11700         1         0     11703         1         0     11706         1         0
     11709         1         0     11712         1         0     11715         1         0
     11718         1         0     11721         1         0     11724         1         0
     11727         1         0     11730         1         0     11733         1         0
     11736         1         0     11739         1         0     11742         1         0
     11745         1         0     11748         1         0     11751         1         0
     11754         1         0     11757         1         0     11760         1         0
     11763         1         0     11766         1         0     11769         1         0
     11772         1         0     11775         1         0     11778         1         0
     11781         1         0     11784         1         0     11787         1         0
     11790         1         0     11793         1         0     11796         1         0
     11799         1         0     11802         1         0     11805         1         0
     11808         1         0     11811         1         0     11814         1         0
     11817         1         0     11820         1         0     11823         1         0
     11826         1         0     11829         1         0     11832         1         0
     11835         1         0     11838         1         0     11841         1         0
     11844         1         0     11847         1         0     11850         1         0
     11853         1         0     11856         1         0     11859         1         0
     11862         1         0     11865         1         0     11868         1         0
     11871         1         0     11874         1         0     11877         1         0
     11880         1         0     11883         1         0     11886         1         0
     11889         1         0     11892         1         0     11895         1         0
     11898         1         0     11901         1         0     11904         1         0
     11907         1         0     11910         1         0     11913         1         0
     11916         1         0     11919         1         0     11922         1         0
     11925         1         0     11928         1         0     11931         1         0
     11934         1         0     11937         1         0     11940         1         0
     11943         1         0     11946         1         0     11949         1         0
     11952         1         0     11955         1         0     11958         1         0
     11961         1         0     11964         1         0     11967         1         0
     11970         1         0     11973         1         0     11976         1         0
     11979         1         0     11982         1         0     11985         1         0
     11988         1         0     11991         1         0     11994         1         0
     11997         1         0     12000         1         0     12003         1         0
     12006         1         0     12009         1         0     12012         1         0
     12015         1         0     12018         1         0     12021         1         0
     12024         1         0     12027         1         0     12030         1         0
     12033         1         0     12036         1         0     12039         1         0
     12042         1         0     12045         1         0     12048         1         0
     12051         1         0     12054         1         0     12057         1         0
     12060         1         0     12063         1         0     12066         1         0
     12069         1         0     12072         1         0     12075         1         0
     12078         1         0     12081         1         0     12084         1         0
     12087         1         0     12090         1         0     12093         1         0
     12096         1         0     12099         1         0     12102         1         0
     12105         1         0     12108         1         0     12111         1         0
     12114         1         0     12117         1         0     12120         1         0
     12123         1         0     12126         1         0     12129         1         0
     12132         1         0     12135         1         0     12138         1         0
     12141         1         0     12144         1         0     12147         1         0
     12150         1         0     12153         1         0     12156         1         0
     12159         1         0     12162         1         0     12165         1         0
     12168         1         0     12171         1         0     12174         1         0
     12177         1         0     12180         1         0     12183         1         0
     12186         1         0     12189         1         0     12192         1         0
     12195         1         0     12198         1         0     12201         1         0
     12204         1         0     12207         1         0     12210         1         0
     12213         1         0     12216         1         0     12219         1         0
     12222         1         0     12225         1         0     12228         1         0
     12231         1         0     12234         1         0     12237         1         0
     12240         1         0     12243         1         0     12246         1         0
     12249         1         0     12252         1         0     12255         1         0
     12258         1         0     12261         1         0     12264         1         0
     12267         1         0     12270         1         0     12273         1         0
     12276         1         0     12279         1         0     12282         1         0
     12285         1         0     12288         1         0     12291         1         0
     12294         1         0     12297         1         0     12300         1         0
     12303         1         0     12306         1         0     12309         1         0
     12312         1         0     12315         1         0     12318         1         0
     12321         1         0     12324         1         0     12327         1         0
     12330         1         0     12333         1         0     12336         1         0
     12339         1         0     12342         1         0     12345         1         0
     12348         1         0     12351         1         0     12354         1         0
     12357         1         0     12360         1         0     12363         1         0
     12366         1         0     12369         1         0     12372         1         0
     12375         1         0     12378         1         0     12381         1         0
     12384         1         0     12387         1         0     12390         1         0
     12393         1         0     12396         1         0     12399         1         0
     12402         1         0     12405         1         0     12408         1         0
     12411         1         0     12414         1         0     12417         1         0
     12420         1         0     12423         1         0     12426         1         0
     12429         1         0     12432         1         0     12435         1         0
     12438         1         0     12441         1         0     12444         1         0
     12447         1         0     12450         1         0     12453         1         0
     12456         1         0     12459         1         0     12462         1         0
     12465         1         0     12468         1         0     12471         1         0
     12474         1         0     12477         1         0     12480         1         0
     12483         1         0     12486         1         0     12489         1         0
     12492         1         0     12495         1         0     12498         1         0
     12501         1         0     12504         1         0     12507         1         0
     12510         1         0     12513         1         0     12516         1         0
     12519         1         0     12522         1         0     12525         1         0
     12528         1         0     12531         1         0     12534         1         0
     12537         1         0     12540         1         0     12543         1         0
     12546         1         0     12549         1         0     12552         1         0
     12555         1         0     12558         1         0     12561         1         0
     12564         1         0     12567         1         0     12570         1         0
     12573         1         0     12576         1         0     12579         1         0
     12582         1         0     12585         1         0     12588         1         0
     12591         1         0     12594         1         0     12597         1         0
     12600         1         0     12603         1         0     12606         1         0
     12609         1         0     12612         1         0     12615         1         0
     12618         1         0     12621         1         0     12624         1         0
     12627         1         0     12630         1         0     12633         1         0
     12636         1         0     12639         1         0     12642         1         0
     12645         1         0     12648         1         0     12651         1         0
     12654         1         0     12657         1         0     12660         1         0
     12663         1         0     12666         1         0     12669         1         0
     12672         1         0     12675         1         0     12678         1         0
     12681         1         0     12684         1         0     12687         1         0
     12690         1         0     12693         1         0     12696         1         0
     12699         1         0     12702         1         0     12705         1         0
     12708         1         0     12711         1         0     12714         1         0
     12717         1         0     12720         1         0     12723         1         0
     12726         1         0     12729         1         0     12732         1         0
     12735         1         0     12738         1         0     12741         1         0
     12744         1         0     12747         1         0     12750         1         0
     12753         1         0     12756         1         0     12759         1         0
     12762         1         0     12765         1         0     12768         1         0
     12771         1         0     12774         1         0     12777         1         0
     12780         1         0     12783         1         0     12786         1         0
     12789         1         0     12792         1         0     12795         1         0
     12798         1         0     12801         1         0     12804         1         0
     12807         1         0     12810         1         0     12813         1         0
     12816         1         0     12819         1         0     12822         1         0
     12825         1         0     12828         1         0     12831         1         0
     12834         1         0     12837         1         0     12840         1         0
     12843         1         0     12846         1         0     12849         1         0
     12852         1         0     12855         1         0     12858         1         0
     12861         1         0     12864         1         0     12867         1         0
     12870         1         0     12873         1         0     12876         1         0
     12879         1         0     12882         1         0     12885         1         0
     12888         1         0     12891         1         0     12894         1         0
     12897         1         0     12900         1         0     12903         1         0
     12906         1         0     12909         1         0     12912         1         0
     12915         1         0     12918         1         0     12921         1         0
     12924         1         0     12927         1         0     12930         1         0
     12933         1         0     12936         1         0     12939         1         0
     12942         1         0     12945         1         0     12948         1         0
     12951         1         0     12954         1         0     12957         1         0
     12960         1         0     12963         1         0     12966         1         0
     12969         1         0     12972         1         0     12975         1         0
     12978         1         0     12981         1         0     12984         1         0
     12987         1         0     12990         1         0     12993         1         0
     12996         1         0     12999         1         0     13002         1         0
     13005         1         0     13008         1         0     13011         1         0
     13014         1         0     13017         1         0     13020         1         0
     13023         1         0     13026         1         0     13029         1         0
     13032         1         0     13035         1         0     13038         1         0
     13041         1         0     13044         1         0     13047         1         0
     13050         1         0     13053         1         0     13056         1         0
     13059         1         0     13062         1         0     13065         1         0
     13068         1         0     13071         1         0     13074         1         0
     13077         1         0     13080         1         0     13083         1         0
     13086         1         0     13089         1         0     13092         1         0
     13095         1         0     13098         1         0     13101         1         0
     13104         1         0     13107         1         0     13110         1         0
     13113         1         0     13116         1         0     13119         1         0
     13122         1         0     13125         1         0     13128         1         0
     13131         1         0     13134         1         0     13137         1         0
     13140         1         0     13143         1         0     13146         1         0
     13149         1         0     13152         1         0     13155         1         0
     13158         1         0     13161         1         0     13164         1         0
     13167         1         0     13170         1         0     13173         1         0
     13176         1         0     13179         1         0     13182         1         0
     13185         1         0     13188         1         0     13191         1         0
     13194         1         0     13197         1         0     13200         1         0
     13203         1         0     13206         1         0     13209         1         0
     13212         1         0     13215         1         0     13218         1         0
     13221         1         0     13224         1         0     13227         1         0
     13230         1         0     13233         1         0     13236         1         0
     13239         1         0     13242         1         0     13245         1         0
     13248         1         0     13251         1         0     13254         1         0
     13257         1         0     13260         1         0     13263         1         0
     13266         1         0     13269         1         0     13272         1         0
     13275         1         0     13278         1         0     13281         1         0
     13284         1         0     13287         1         0     13290         1         0
     13293         1         0     13296         1         0     13299         1         0
     13302         1         0     13305         1         0     13308         1         0
     13311         1         0     13314         1         0     13317         1         0
     13320         1         0     13323         1         0     13326         1         0
     13329         1         0     13332         1         0     13335         1         0
     13338         1         0     13341         1         0     13344         1         0
     13347         1         0     13350         1         0     13353         1         0
     13356         1         0     13359         1         0     13362         1         0
     13365         1         0     13368         1         0     13371         1         0
     13374         1         0     13377         1         0     13380         1         0
     13383         1         0     13386         1         0     13389         1         0
     13392         1         0     13395         1         0     13398         1         0
     13401         1         0     13404         1         0     13407         1         0
     13410         1         0     13413         1         0     13416         1         0
     13419         1         0     13422         1         0     13425         1         0
     13428         1         0     13431         1         0     13434         1         0
     13437         1         0     13440         1         0     13443         1         0
     13446         1         0     13449         1         0     13452         1         0
     13455         1         0     13458         1         0     13461         1         0
     13464         1         0     13467         1         0     13470         1         0
     13473         1         0     13476         1         0     13479         1         0
     13482         1         0     13485         1         0     13488         1         0
     13491         1         0     13494         1         0     13497         1         0
     13500         1         0     13503         1         0     13506         1         0
     13509         1         0     13512         1         0     13515         1         0
     13518         1         0     13521         1         0     13524         1         0
     13527         1         0     13530         1         0     13533         1         0
     13536         1         0     13539         1         0     13542         1         0
     13545         1         0     13548         1         0     13551         1         0
     13554         1         0     13557         1         0     13560         1         0
     13563         1         0     13566         1         0     13569         1         0
     13572         1         0     13575         1         0     13578         1         0
     13581         1         0     13584         1         0     13587         1         0
     13590         1         0     13593         1         0     13596         1         0
     13599         1         0     13602         1         0     13605         1         0
     13608         1         0     13611         1         0     13614         1         0
     13617         1         0     13620         1         0     13623         1         0
     13626         1         0     13629         1         0     13632         1         0
     13635         1         0     13638         1         0     13641         1         0
     13644         1         0     13647         1         0     13650         1         0
     13653         1         0     13656         1         0     13659         1         0
     13662         1         0     13665         1         0     13668         1         0
     13671         1         0     13674         1         0     13677         1         0
     13680         1         0     13683         1         0     13686         1         0
     13689         1         0     13692         1         0     13695         1         0
     13698         1         0     13701         1         0     13704         1         0
     13707         1         0     13710         1         0     13713         1         0
     13716         1         0     13719         1         0     13722         1         0
     13725         1         0     13728         1         0     13731         1         0
     13734         1         0     13737         1         0     13740         1         0
     13743         1         0     13746         1         0     13749         1         0
     13752         1         0     13755         1         0     13758         1         0
     13761         1         0     13764         1         0     13767         1         0
     13770         1         0     13773         1         0     13776         1         0
     13779         1         0     13782         1         0     13785         1         0
     13788         1         0     13791         1         0     13794         1         0
     13797         1         0     13800         1         0     13803         1         0
     13806         1         0     13809         1         0     13812         1         0
     13815         1         0     13818         1         0     13821         1         0
     13824         1         0     13827         1         0     13830         1         0
     13833         1         0     13836         1         0     13839         1         0
     13842         1         0     13845         1         0     13848         1         0
     13851         1         0     13854         1         0     13857         1         0
     13860         1         0     13863         1         0     13866         1         0
     13869         1         0     13872         1         0     13875         1         0
     13878         1         0     13881         1         0     13884         1         0
     13887         1         0     13890         1         0     13893         1         0
     13896         1         0     13899         1         0     13902         1         0
     13905         1         0     13908         1         0     13911         1         0
     13914         1         0     13917         1         0     13920         1         0
     13923         1         0     13926         1         0     13929         1         0
     13932         1         0     13935         1         0     13938         1         0
     13941         1         0     13944         1         0     13947         1         0
     13950         1         0     13953         1         0     13956         1         0
     13959         1         0     13962         1         0     13965         1         0
     13968         1         0     13971         1         0     13974         1         0
     13977         1         0     13980         1         0     13983         1         0
     13986         1         0     13989         1         0     13992         1         0
     13995         1         0     13998         1         0     14001         1         0
     14004         1         0     14007         1         0     14010         1         0
     14013         1         0     14016         1         0     14019         1         0
     14022         1         0     14025         1         0     14028         1         0
     14031         1         0     14034         1         0     14037         1         0
     14040         1         0     14043         1         0     14046         1         0
     14049         1         0     14052         1         0     14055         1         0
     14058         1         0     14061         1         0     14064         1         0
     14067         1         0     14070         1         0     14073         1         0
     14076         1         0     14079         1         0     14082         1         0
     14085         1         0     14088         1         0     14091         1         0
     14094         1         0     14097         1         0     14100         1         0
     14103         1         0     14106         1         0     14109         1         0
     14112         1         0     14115         1         0     14118         1         0
     14121         1         0     14124         1         0     14127         1         0
     14130         1         0     14133         1         0     14136         1         0
     14139         1         0     14142         1         0     14145         1         0
     14148         1         0     14151         1         0     14154         1         0
     14157         1         0     14160         1         0     14163         1         0
     14166         1         0     14169         1         0     14172         1         0
     14175         1         0     14178         1         0     14181         1         0
     14184         1         0     14187         1         0     14190         1         0
     14193         1         0     14196         1         0     14199         1         0
     14202         1         0     14205         1         0     14208         1         0
     14211         1         0     14214         1         0     14217         1         0
     14220         1         0     14223         1         0     14226         1         0
     14229         1         0     14232         1         0     14235         1         0
     14238         1         0     14241         1         0     14244         1         0
     14247         1         0     14250         1         0     14253         1         0
     14256         1         0     14259         1         0     14262         1         0
     14265         1         0     14268         1         0     14271         1         0
     14274         1         0     14277         1         0     14280         1         0
     14283         1         0     14286         1         0     14289         1         0
     14292         1         0     14295         1         0     14298         1         0
     14301         1         0     14304         1         0     14307         1         0
     14310         1         0     14313         1         0     14316         1         0
     14319         1         0     14322         1         0     14325         1         0
     14328         1         0     14331         1         0     14334         1         0
     14337         1         0     14340         1         0     14343         1         0
     14346         1         0     14349         1         0     14352         1         0
     14355         1         0     14358         1         0     14361         1         0
     14364         1         0     14367         1         0     14370         1         0
     14373         1         0     14376         1         0     14379         1         0
     14382         1         0     14385         1         0     14388         1         0
     14391         1         0     14394         1         0     14397         1         0
     14400         1         0     14403         1         0     14406         1         0
     14409         1         0     14412         1         0     14415         1         0
     14418         1         0     14421         1         0     14424         1         0
     14427         1         0     14430         1         0     14433         1         0
     14436         1         0     14439         1         0     14442         1         0
     14445         1         0     14448         1         0     14451         1         0
     14454         1         0     14457         1         0     14460         1         0
     14463         1         0     14466         1         0     14469         1         0
     14472         1         0     14475         1         0     14478         1         0
     14481         1         0     14484         1         0     14487         1         0
     14490         1         0     14493         1         0     14496         1         0
     14499         1         0     14502         1         0     14505         1         0
     14508         1         0     14511         1         0     14514         1         0
     14517         1         0     14520         1         0     14523         1         0
     14526         1         0     14529         1         0     14532         1         0
     14535         1         0     14538         1         0     14541         1         0
     14544         1         0     14547         1         0     14550         1         0
     14553         1         0     14556         1         0     14559         1         0
     14562         1         0     14565         1         0     14568         1         0
     14571         1         0     14574         1         0     14577         1         0
     14580         1         0     14583         1         0     14586         1         0
     14589         1         0     14592         1         0     14595         1         0
     14598         1         0     14601         1         0     14604         1         0
     14607         1         0     14610         1         0     14613         1         0
     14616         1         0     14619         1         0     14622         1         0
     14625         1         0     14628         1         0     14631         1         0
     14634         1         0     14637         1         0     14640         1         0
     14643         1         0     14646         1         0     14649         1         0
     14652         1         0     14655         1         0     14658         1         0
     14661         1         0     14664         1         0     14667         1         0
     14670         1         0     14673         1         0     14676         1         0
     14679         1         0     14682         1         0     14685         1         0
     14688         1         0     14691         1         0     14694         1         0
     14697         1         0     14700         1         0     14703         1         0
     14706         1         0     14709         1         0     14712         1         0
     14715         1         0     14718         1         0     14721         1         0
     14724         1         0     14727         1         0     14730         1         0
     14733         1         0     14736         1         0     14739         1         0
     14742         1         0     14745         1         0     14748         1         0
     14751         1         0     14754         1         0     14757         1         0
     14760         1         0     14763         1         0     14766         1         0
     14769         1         0     14772         1         0     14775         1         0
     14778         1         0     14781         1         0     14784         1         0
     14787         1         0     14790         1         0     14793         1         0
     14796         1         0     14799         1         0     14802         1         0
     14805         1         0     14808         1         0     14811         1         0
     14814         1         0     14817         1         0     14820         1         0
     14823         1         0     14826         1         0     14829         1         0
     14832         1         0     14835         1         0     14838         1         0
     14841         1         0     14844         1         0     14847         1         0
     14850         1         0     14853         1         0     14856         1         0
     14859         1         0     14862         1         0     14865         1         0
     14868         1         0     14871         1         0     14874         1         0
     14877         1         0     14880         1         0     14883         1         0
     14886         1         0     14889         1         0     14892         1         0
     14895         1         0     14898         1         0     14901         1         0
     14904         1         0     14907         1         0     14910         1         0
     14913         1         0     14916         1         0     14919         1         0
     14922         1         0     14925         1         0     14928         1         0
     14931         1         0     14934         1         0     14937         1         0
     14940         1         0     14943         1         0     14946         1         0
     14949         1         0     14952         1         0     14955         1         0
     14958         1         0     14961         1         0     14964         1         0
     14967         1         0     14970         1         0     14973         1         0
     14976         1         0     14979         1         0     14982         1         0
     14985         1         0     14988         1         0     14991         1         0
     14994         1         0     14997         1         0     15000         1         0
     15003         1         0     15006         1         0     15009         1         0
     15012         1         0     15015         1         0     15018         1         0
     15021         1         0     15024         1         0     15027         1         0
     15030         1         0     15033         1         0     15036         1         0
     15039         1         0     15042         1         0     15045         1         0
     15048         1         0     15051         1         0     15054         1         0
     15057         1         0     15060         1         0     15063         1         0
     15066         1         0     15069         1         0     15072         1         0
     15075         1         0     15078         1         0     15081         1         0
     15084         1         0     15087         1         0     15090         1         0
     15093         1         0     15096         1         0     15099         1         0
     15102         1         0     15105         1         0     15108         1         0
     15111         1         0     15114         1         0     15117         1         0
     15120         1         0     15123         1         0     15126         1         0
     15129         1         0     15132         1         0     15135         1         0
     15138         1         0     15141         1         0     15144         1         0
     15147         1         0     15150         1         0     15153         1         0
     15156         1         0     15159         1         0     15162         1         0
     15165         1         0     15168         1         0     15171         1         0
     15174         1         0     15177         1         0     15180         1         0
     15183         1         0     15186         1         0     15189         1         0
     15192         1         0     15195         1         0     15198         1         0
     15201         1         0     15204         1         0     15207         1         0
     15210         1         0     15213         1         0     15216         1         0
     15219         1         0     15222         1         0     15225         1         0
     15228         1         0     15231         1         0     15234         1         0
     15237         1         0     15240         1         0     15243         1         0
     15246         1         0     15249         1         0     15252         1         0
     15255         1         0     15258         1         0     15261         1         0
     15264         1         0     15267         1         0     15270         1         0
     15273         1         0     15276         1         0     15279         1         0
     15282         1         0     15285         1         0     15288         1         0
     15291         1         0     15294         1         0     15297         1         0
     15300         1         0     15303         1         0     15306         1         0
     15309         1         0     15312         1         0     15315         1         0
     15318         1         0     15321         1         0     15324         1         0
     15327         1         0     15330         1         0     15333         1         0
     15336         1         0     15339         1         0     15342         1         0
     15345         1         0     15348         1         0     15351         1         0
     15354         1         0     15357         1         0     15360         1         0
     15363         1         0     15366         1         0     15369         1         0
     15372         1         0     15375         1         0     15378         1         0
     15381         1         0     15384         1         0     15387         1         0
     15390         1         0     15393         1         0     15396         1         0
     15399         1         0     15402         1         0     15405         1         0
     15408         1         0     15411         1         0     15414         1         0
     15417         1         0     15420         1         0     15423         1         0
     15426         1         0     15429         1         0     15432         1         0
     15435         1         0     15438         1         0     15441         1         0
     15444         1         0     15447         1         0     15450         1         0
     15453         1         0     15456         1         0     15459         1         0
     15462         1         0     15465         1         0     15468         1         0
     15471         1         0     15474         1         0     15477         1         0
     15480         1         0     15483         1         0     15486         1         0
     15489         1         0     15492         1         0     15495         1         0
     15498         1         0     15501         1         0     15504         1         0
     15507         1         0     15510         1         0     15513         1         0
     15516         1         0     15519         1         0     15522         1         0
     15525         1         0     15528         1         0     15531         1         0
     15534         1         0     15537         1         0     15540         1         0
     15543         1         0     15546         1         0     15549         1         0
     15552         1         0     15555         1         0     15558         1         0
     15561         1         0     15564         1         0     15567         1         0
     15570         1         0     15573         1         0     15576         1         0
     15579         1         0     15582         1         0     15585         1         0
     15588         1         0     15591         1         0     15594         1         0
     15597         1         0     15600         1         0     15603         1         0
     15606         1         0     15609         1         0     15612         1         0
     15615         1         0     15618         1         0     15621         1         0
     15624         1         0     15627         1         0     15630         1         0
     15633         1         0     15636         1         0     15639         1         0
     15642         1         0     15645         1         0     15648         1         0
     15651         1         0     15654         1         0     15657         1         0
     15660         1         0     15663         1         0     15666         1         0
     15669         1         0     15672         1         0     15675         1         0
     15678         1         0     15681         1         0     15684         1         0
     15687         1         0     15690         1         0     15693         1         0
     15696         1         0     15699         1         0     15702         1         0
     15705         1         0     15708         1         0     15711         1         0
     15714         1         0     15717         1         0     15720         1         0
     15723         1         0     15726         1         0     15729         1         0
     15732         1         0     15735         1         0     15738         1         0
     15741         1         0     15744         1         0     15747         1         0
     15750         1         0     15753         1         0     15756         1         0
     15759         1         0     15762         1         0     15765         1         0
     15768         1         0     15771         1         0     15774         1         0
     15777         1         0     15780         1         0     15783         1         0
     15786         1         0     15789         1         0     15792         1         0
     15795         1         0     15798         1         0     15801         1         0
     15804         1         0     15807         1         0     15810         1         0
     15813         1         0     15816         1         0     15819         1         0
     15822         1         0     15825         1         0     15828         1         0
     15831         1         0     15834         1         0     15837         1         0
     15840         1         0     15843         1         0     15846         1         0
     15849         1         0     15852         1         0     15855         1         0
     15858         1         0     15861         1         0     15864         1         0
     15867         1         0     15870         1         0     15873         1         0
     15876         1         0     15879         1         0     15882         1         0
     15885         1         0     15888         1         0     15891         1         0
     15894         1         0     15897         1         0     15900         1         0
     15903         1         0     15906         1         0     15909         1         0
     15912         1         0     15915         1         0     15918         1         0
     15921         1         0     15924         1         0     15927         1         0
     15930         1         0     15933         1         0     15936         1         0
     15939         1         0     15942         1         0     15945         1         0
     15948         1         0     15951         1         0     15954         1         0
     15957         1         0     15960         1         0     15963         1         0
     15966         1         0     15969         1         0     15972         1         0
     15975         1         0     15978         1         0     15981         1         0
     15984         1         0     15987         1         0     15990         1         0
     15993         1         0     15996         1         0     15999         1         0
     16002         1         0     16005         1         0     16008         1         0
     16011         1         0     16014         1         0     16017         1         0
     16020         1         0     16023         1         0     16026         1         0
     16029         1         0     16032         1         0     16035         1         0
     16038         1         0     16041         1         0     16044         1         0
     16047         1         0     16050         1         0     16053         1         0
     16056         1         0     16059         1         0     16062         1         0
     16065         1         0     16068         1         0     16071         1         0
     16074         1         0     16077         1         0     16080         1         0
     16083         1         0     16086         1         0     16089         1         0
     16092         1         0     16095         1         0     16098         1         0
     16101         1         0     16104         1         0     16107         1         0
     16110         1         0     16113         1         0     16116         1         0
     16119         1         0     16122         1         0     16125         1         0
     16128         1         0     16131         1         0     16134         1         0
     16137         1         0     16140         1         0     16143         1         0
     16146         1         0     16149         1         0     16152         1         0
     16155         1         0     16158         1         0     16161         1         0
     16164         1         0     16167         1         0     16170         1         0
     16173         1         0     16176         1         0     16179         1         0
     16182         1         0     16185         1         0     16188         1         0
     16191         1         0     16194         1         0     16197         1         0
     16200         1         0     16203         1         0     16206         1         0
     16209         1         0     16212         1         0     16215         1         0
     16218         1         0     16221         1         0     16224         1         0
     16227         1         0     16230         1         0     16233         1         0
     16236         1         0     16239         1         0     16242         1         0
     16245         1         0     16248         1         0     16251         1         0
     16254         1         0     16257         1         0     16260         1         0
     16263         1         0     16266         1         0     16269         1         0
     16272         1         0     16275         1         0     16278         1         0
     16281         1         0     16284         1         0     16287         1         0
     16290         1         0     16293         1         0     16296         1         0
     16299         1         0     16302         1         0     16305         1         0
     16308         1         0     16311         1         0     16314         1         0
     16317         1         0     16320         1         0     16323         1         0
     16326         1         0     16329         1         0     16332         1         0
     16335         1         0     16338         1         0     16341         1         0
     16344         1         0     16347         1         0     16350         1         0
     16353         1         0     16356         1         0     16359         1         0
     16362         1         0     16365         1         0     16368         1         0
     16371         1         0     16374         1         0     16377         1         0
     16380         1         0     16383         1         0     16386         1         0
     16389         1         0     16392         1         0     16395         1         0
     16398         1         0     16401         1         0     16404         1         0
     16407         1         0     16410         1         0     16413         1         0
     16416         1         0     16419         1         0     16422         1         0
     16425         1         0     16428         1         0     16431         1         0
     16434         1         0     16437         1         0     16440         1         0
     16443         1         0     16446         1         0     16449         1         0
     16452         1         0     16455         1         0     16458         1         0
     16461         1         0     16464         1         0     16467         1         0
     16470         1         0     16473         1         0     16476         1         0
     16479         1         0     16482         1         0     16485         1         0
     16488         1         0     16491         1         0     16494         1         0
     16497         1         0     16500         1         0     16503         1         0
     16506         1         0     16509         1         0     16512         1         0
     16515         1         0     16518         1         0     16521         1         0
     16524         1         0     16527         1         0     16530         1         0
     16533         1         0     16536         1         0     16539         1         0
     16542         1         0     16545         1         0     16548         1         0
     16551         1         0     16554         1         0     16557         1         0
     16560         1         0     16563         1         0     16566         1         0
     16569         1         0     16572         1         0     16575         1         0
     16578         1         0     16581         1         0     16584         1         0
     16587         1         0     16590         1         0     16593         1         0
     16596         1         0     16599         1         0     16602         1         0
     16605         1         0     16608         1         0     16611         1         0
     16614         1         0     16617         1         0     16620         1         0
     16623         1         0     16626         1         0     16629         1         0
     16632         1         0     16635         1         0     16638         1         0
     16641         1         0     16644         1         0     16647         1         0
     16650         1         0     16653         1         0     16656         1         0
     16659         1         0     16662         1         0     16665         1         0
     16668         1         0     16671         1         0     16674         1         0
     16677         1         0     16680         1         0     16683         1         0
     16686         1         0     16689         1         0     16692         1         0
     16695         1         0     16698         1         0     16701         1         0
     16704         1         0     16707         1         0     16710         1         0
     16713         1         0     16716         1         0     16719         1         0
     16722         1         0     16725         1         0     16728         1         0
     16731         1         0     16734         1         0     16737         1         0
     16740         1         0     16743         1         0     16746         1         0
     16749         1         0     16752         1         0     16755         1         0
     16758         1         0     16761         1         0     16764         1         0
     16767         1         0     16770         1         0     16773         1         0
     16776         1         0     16779         1         0     16782         1         0
     16785         1         0     16788         1         0     16791         1         0
     16794         1         0     16797         1         0     16800         1         0
     16803         1         0     16806         1         0     16809         1         0
     16812         1         0     16815         1         0     16818         1         0
     16821         1         0     16824         1         0     16827         1         0
     16830         1         0     16833         1         0     16836         1         0
     16839         1         0     16842         1         0     16845         1         0
     16848         1         0     16851         1         0     16854         1         0
     16857         1         0     16860         1         0     16863         1         0
     16866         1         0     16869         1         0     16872         1         0
     16875         1         0     16878         1         0     16881         1         0
     16884         1         0     16887         1         0     16890         1         0
     16893         1         0     16896         1         0     16899         1         0
     16902         1         0     16905         1         0     16908         1         0
     16911         1         0     16914         1         0     16917         1         0
     16920         1         0     16923         1         0     16926         1         0
     16929         1         0     16932         1         0     16935         1         0
     16938         1         0     16941         1         0     16944         1         0
     16947         1         0     16950         1         0     16953         1         0
     16956         1         0     16959         1         0     16962         1         0
     16965         1         0     16968         1         0     16971         1         0
     16974         1         0     16977         1         0     16980         1         0
     16983         1         0     16986         1         0     16989         1         0
     16992         1         0     16995         1         0     16998         1         0
     17001         1         0     17004         1         0     17007         1         0
     17010         1         0     17013         1         0     17016         1         0
     17019         1         0     17022         1         0     17025         1         0
     17028         1         0     17031         1         0     17034         1         0
     17037         1         0     17040         1         0     17043         1         0
     17046         1         0     17049         1         0     17052         1         0
     17055         1         0     17058         1         0     17061         1         0
     17064         1         0     17067         1         0     17070         1         0
     17073         1         0     17076         1         0     17079         1         0
     17082         1         0     17085         1         0     17088         1         0
     17091         1         0     17094         1         0     17097         1         0
     17100         1         0     17103         1         0     17106         1         0
     17109         1         0     17112         1         0     17115         1         0
     17118         1         0     17121         1         0     17124         1         0
     17127         1         0     17130         1         0     17133         1         0
     17136         1         0     17139         1         0     17142         1         0
     17145         1         0     17148         1         0     17151         1         0
     17154         1         0     17157         1         0     17160         1         0
     17163         1         0     17166         1         0     17169         1         0
     17172         1         0     17175         1         0     17178         1         0
     17181         1         0     17184         1         0     17187         1         0
     17190         1         0     17193         1         0     17196         1         0
     17199         1         0     17202         1         0     17205         1         0
     17208         1         0     17211         1         0     17214         1         0
     17217         1         0     17220         1         0     17223         1         0
     17226         1         0     17229         1         0     17232         1         0
     17235         1         0     17238         1         0     17241         1         0
     17244         1         0     17247         1         0     17250         1         0
     17253         1         0     17256         1         0     17259         1         0
     17262         1         0     17265         1         0     17268         1         0
     17271         1         0     17274         1         0     17277         1         0
     17280         1         0     17283         1         0     17286         1         0
     17289         1         0     17292         1         0     17295         1         0
     17298         1         0     17301         1         0     17304         1         0
     17307         1         0     17310         1         0     17313         1         0
     17316         1         0     17319         1         0     17322         1         0
     17325         1         0     17328         1         0     17331         1         0
     17334         1         0     17337         1         0     17340         1         0
     17343         1         0     17346         1         0     17349         1         0
     17352         1         0     17355         1         0     17358         1         0
     17361         1         0     17364         1         0     17367         1         0
     17370         1         0     17373         1         0     17376         1         0
     17379         1         0     17382         1         0     17385         1         0
     17388         1         0     17391         1         0     17394         1         0
     17397         1         0     17400         1         0     17403         1         0
     17406         1         0     17409         1         0     17412         1         0
     17415         1         0     17418         1         0     17421         1         0
     17424         1         0     17427         1         0     17430         1         0
     17433         1         0     17436         1         0     17439         1         0
     17442         1         0     17445         1         0     17448         1         0
     17451         1         0     17454         1         0     17457         1         0
     17460         1         0     17463         1         0     17466         1         0
     17469         1         0     17472         1         0     17475         1         0
     17478         1         0     17481         1         0     17484         1         0
     17487         1         0     17490         1         0     17493         1         0
     17496         1         0     17499         1         0     17502         1         0
     17505         1         0     17508         1         0     17511         1         0
     17514         1         0     17517         1         0     17520         1         0
     17523         1         0     17526         1         0     17529         1         0
     17532         1         0     17535         1         0     17538         1         0
     17541         1         0     17544         1         0     17547         1         0
     17550         1         0     17553         1         0     17556         1         0
     17559         1         0     17562         1         0     17565         1         0
     17568         1         0     17571         1         0     17574         1         0
     17577         1         0     17580         1         0     17583         1         0
     17586         1         0     17589         1         0     17592         1         0
     17595         1         0     17598         1         0     17601         1         0
     17604         1         0     17607         1         0     17610         1         0
     17613         1         0     17616         1         0     17619         1         0
     17622         1         0     17625         1         0     17628         1         0
     17631         1         0     17634         1         0     17637         1         0
     17640         1         0     17643         1         0     17646         1         0
     17649         1         0     17652         1         0     17655         1         0
     17658         1         0     17661         1         0     17664         1         0
     17667         1         0     17670         1         0     17673         1         0
     17676         1         0     17679         1         0     17682         1         0
     17685         1         0     17688         1         0     17691         1         0
     17694         1         0     17697         1         0     17700         1         0
     17703         1         0     17706         1         0     17709         1         0
     17712         1         0     17715         1         0     17718         1         0
     17721         1         0     17724         1         0     17727         1         0
     17730         1         0     17733         1         0     17736         1         0
     17739         1         0     17742         1         0     17745         1         0
     17748         1         0     17751         1         0     17754         1         0
     17757         1         0     17760         1         0     17763         1         0
     17766         1         0     17769         1         0     17772         1         0
     17775         1         0     17778         1         0     17781         1         0
     17784         1         0     17787         1         0     17790         1         0
     17793         1         0     17796         1         0     17799         1         0
     17802         1         0     17805         1         0     17808         1         0
     17811         1         0     17814         1         0     17817         1         0
     17820         1         0     17823         1         0     17826         1         0
     17829         1         0     17832         1         0     17835         1         0
     17838         1         0     17841         1         0     17844         1         0
     17847         1         0     17850         1         0     17853         1         0
     17856         1         0     17859         1         0     17862         1         0
     17865         1         0     17868         1         0     17871         1         0
     17874         1         0     17877         1         0     17880         1         0
     17883         1         0     17886         1         0     17889         1         0
     17892         1         0     17895         1         0     17898         1         0
     17901         1         0     17904         1         0     17907         1         0
     17910         1         0     17913         1         0     17916         1         0
     17919         1         0     17922         1         0     17925         1         0
     17928         1         0     17931         1         0     17934         1         0
     17937         1         0     17940         1         0     17943         1         0
     17946         1         0     17949         1         0     17952         1         0
     17955         1         0     17958         1         0     17961         1         0
     17964         1         0     17967         1         0     17970         1         0
     17973         1         0     17976         1         0     17979         1         0
     17982         1         0     17985         1         0     17988         1         0
     17991         1         0     17994         1         0     17997         1         0
     18000         1         0     18003         1         0     18006         1         0
     18009         1         0     18012         1         0     18015         1         0
     18018         1         0     18021         1         0     18024         1         0
     18027         1         0     18030         1         0     18033         1         0
     18036         1         0     18039         1         0     18042         1         0
     18045         1         0     18048         1         0     18051         1         0
     18054         1         0     18057         1         0     18060         1         0
     18063         1         0     18066         1         0     18069         1         0
     18072         1         0     18075         1         0     18078         1         0
     18081         1         0     18084         1         0     18087         1         0
     18090         1         0     18093         1         0     18096         1         0
     18099         1         0     18102         1         0     18105         1         0
     18108         1         0     18111         1         0     18114         1         0
     18117         1         0     18120         1         0     18123         1         0
     18126         1         0     18129         1         0     18132         1         0
     18135         1         0     18138         1         0     18141         1         0
     18144         1         0     18147         1         0     18150         1         0
     18153         1         0     18156         1         0     18159         1         0
     18162         1         0     18165         1         0     18168         1         0
     18171         1         0     18174         1         0     18177         1         0
     18180         1         0     18183         1         0     18186         1         0
     18189         1         0     18192         1         0     18195         1         0
     18198         1         0     18201         1         0     18204         1         0
     18207         1         0     18210         1         0     18213         1         0
     18216         1         0     18219         1         0     18222         1         0
     18225         1         0     18228         1         0     18231         1         0
     18234         1         0     18237         1         0     18240         1         0
     18243         1         0     18246         1         0     18249         1         0
     18252         1         0     18255         1         0     18258         1         0
     18261         1         0     18264         1         0     18267         1         0
     18270         1         0     18273         1         0     18276         1         0
     18279         1         0     18282         1         0     18285         1         0
     18288         1         0     18291         1         0     18294         1         0
     18297         1         0     18300         1         0     18303         1         0
     18306         1         0     18309         1         0     18312         1         0
     18315         1         0     18318         1         0     18321         1         0
     18324         1         0     18327         1         0     18330         1         0
     18333         1         0     18336         1         0     18339         1         0
     18342         1         0     18345         1         0     18348         1         0
     18351         1         0     18354         1         0     18357         1         0
     18360         1         0     18363         1         0     18366         1         0
     18369         1         0     18372         1         0     18375         1         0
     18378         1         0     18381         1         0     18384         1         0
     18387         1         0     18390         1         0     18393         1         0
     18396         1         0     18399         1         0     18402         1         0
     18405         1         0     18408         1         0     18411         1         0
     18414         1         0     18417         1         0     18420         1         0
     18423         1         0     18426         1         0     18429         1         0
     18432         1         0     18435         1         0     18438         1         0
     18441         1         0     18444         1         0     18447         1         0
     18450         1         0     18453         1         0     18456         1         0
     18459         1         0     18462         1         0     18465         1         0
     18468         1         0     18471         1         0     18474         1         0
     18477         1         0     18480         1         0     18483         1         0
     18486         1         0     18489         1         0     18492         1         0
     18495         1         0     18498         1         0     18501         1         0
     18504         1         0     18507         1         0     18510         1         0
     18513         1         0     18516         1         0     18519         1         0
     18522         1         0     18525         1         0     18528         1         0
     18531         1         0     18534         1         0     18537         1         0
     18540         1         0     18543         1         0     18546         1         0
     18549         1         0     18552         1         0     18555         1         0
     18558         1         0     18561         1         0     18564         1         0
     18567         1         0     18570         1         0     18573         1         0
     18576         1         0     18579         1         0     18582         1         0
     18585         1         0     18588         1         0     18591         1         0
     18594         1         0     18597         1         0     18600         1         0
     18603         1         0     18606         1         0     18609         1         0
     18612         1         0     18615         1         0     18618         1         0
     18621         1         0     18624         1         0     18627         1         0
     18630         1         0     18633         1         0     18636         1         0
     18639         1         0     18642         1         0     18645         1         0
     18648         1         0     18651         1         0     18654         1         0
     18657         1         0     18660         1         0     18663         1         0
     18666         1         0     18669         1         0     18672         1         0
     18675         1         0     18678         1         0     18681         1         0
     18684         1         0     18687         1         0     18690         1         0
     18693         1         0     18696         1         0     18699         1         0
     18702         1         0     18705         1         0     18708         1         0
     18711         1         0     18714         1         0     18717         1         0
     18720         1         0     18723         1         0     18726         1         0
     18729         1         0     18732         1         0     18735         1         0
     18738         1         0     18741         1         0     18744         1         0
     18747         1         0     18750         1         0     18753         1         0
     18756         1         0     18759         1         0     18762         1         0
     18765         1         0     18768         1         0     18771         1         0
     18774         1         0     18777         1         0     18780         1         0
     18783         1         0     18786         1         0     18789         1         0
     18792         1         0     18795         1         0     18798         1         0
     18801         1         0     18804         1         0     18807         1         0
     18810         1         0     18813         1         0     18816         1         0
     18819         1         0     18822         1         0     18825         1         0
     18828         1         0     18831         1         0     18834         1         0
     18837         1         0     18840         1         0     18843         1         0
     18846         1         0     18849         1         0     18852         1         0
     18855         1         0     18858         1         0     18861         1         0
     18864         1         0     18867         1         0     18870         1         0
     18873         1         0     18876         1         0     18879         1         0
     18882         1         0     18885         1         0     18888         1         0
     18891         1         0     18894         1         0     18897         1         0
     18900         1         0     18903         1         0     18906         1         0
     18909         1         0     18912         1         0     18915         1         0
     18918         1         0     18921         1         0     18924         1         0
     18927         1         0     18930         1         0     18933         1         0
     18936         1         0     18939         1         0     18942         1         0
     18945         1         0     18948         1         0     18951         1         0
     18954         1         0     18957         1         0     18960         1         0
     18963         1         0     18966         1         0     18969         1         0
     18972         1         0     18975         1         0     18978         1         0
     18981         1         0     18984         1         0     18987         1         0
     18990         1         0     18993         1         0     18996         1         0
     18999         1         0     19002         1         0     19005         1         0
     19008         1         0     19011         1         0     19014         1         0
     19017         1         0     19020         1         0     19023         1         0
     19026         1         0     19029         1         0     19032         1         0
     19035         1         0     19038         1         0     19041         1         0
     19044         1         0     19047         1         0     19050         1         0
     19053         1         0     19056         1         0     19059         1         0
     19062         1         0     19065         1         0     19068         1         0
     19071         1         0     19074         1         0     19077         1         0
     19080         1         0     19083         1         0     19086         1         0
     19089         1         0     19092         1         0     19095         1         0
     19098         1         0     19101         1         0     19104         1         0
     19107         1         0     19110         1         0     19113         1         0
     19116         1         0     19119         1         0     19122         1         0
     19125         1         0     19128         1         0     19131         1         0
     19134         1         0     19137         1         0     19140         1         0
     19143         1         0     19146         1         0     19149         1         0
     19152         1         0     19155         1         0     19158         1         0
     19161         1         0     19164         1         0     19167         1         0
     19170         1         0     19173         1         0     19176         1         0
     19179         1         0     19182         1         0     19185         1         0
     19188         1         0     19191         1         0     19194         1         0
     19197         1         0     19200         1         0     19203         1         0
     19206         1         0     19209         1         0     19212         1         0
     19215         1         0     19218         1         0     19221         1         0
     19224         1         0     19227         1         0     19230         1         0
     19233         1         0     19236         1         0     19239         1         0
     19242         1         0     19245         1         0     19248         1         0
     19251         1         0     19254         1         0     19257         1         0
     19260         1         0     19263         1         0     19266         1         0
     19269         1         0     19272         1         0     19275         1         0
     19278         1         0     19281         1         0     19284         1         0
     19287         1         0     19290         1         0     19293         1         0
     19296         1         0     19299         1         0     19302         1         0
     19305         1         0     19308         1         0     19311         1         0
     19314         1         0     19317         1         0     19320         1         0
     19323         1         0     19326         1         0     19329         1         0
     19332         1         0     19335         1         0     19338         1         0
     19341         1         0     19344         1         0     19347         1         0
     19350         1         0     19353         1         0     19356         1         0
     19359         1         0     19362         1         0     19365         1         0
     19368         1         0     19371         1         0     19374         1         0
     19377         1         0     19380         1         0     19383         1         0
     19386         1         0     19389         1         0     19392         1         0
     19395         1         0     19398         1         0     19401         1         0
     19404         1         0     19407         1         0     19410         1         0
     19413         1         0     19416         1         0     19419         1         0
     19422         1         0     19425         1         0     19428         1         0
     19431         1         0     19434         1         0     19437         1         0
     19440         1         0     19443         1         0     19446         1         0
     19449         1         0     19452         1         0     19455         1         0
     19458         1         0     19461         1         0     19464         1         0
     19467         1         0     19470         1         0     19473         1         0
     19476         1         0     19479         1         0     19482         1         0
     19485         1         0     19488         1         0     19491         1         0
     19494         1         0     19497         1         0     19500         1         0
     19503         1         0     19506         1         0     19509         1         0
     19512         1         0     19515         1         0     19518         1         0
     19521         1         0     19524         1         0     19527         1         0
     19530         1         0     19533         1         0     19536         1         0
     19539         1         0     19542         1         0     19545         1         0
     19548         1         0     19551         1         0     19554         1         0
     19557         1         0     19560         1         0     19563         1         0
     19566         1         0     19569         1         0     19572         1         0
     19575         1         0     19578         1         0     19581         1         0
     19584         1         0     19587         1         0     19590         1         0
     19593         1         0     19596         1         0     19599         1         0
     19602         1         0     19605         1         0     19608         1         0
     19611         1         0     19614         1         0     19617         1         0
     19620         1         0     19623         1         0     19626         1         0
     19629         1         0     19632         1         0     19635         1         0
     19638         1         0     19641         1         0     19644         1         0
     19647         1         0     19650         1         0     19653         1         0
     19656         1         0     19659         1         0     19662         1         0
     19665         1         0     19668         1         0     19671         1         0
     19674         1         0     19677         1         0     19680         1         0
     19683         1         0     19686         1         0     19689         1         0
     19692         1         0     19695         1         0     19698         1         0
     19701         1         0     19704         1         0     19707         1         0
     19710         1         0     19713         1         0     19716         1         0
     19719         1         0     19722         1         0     19725         1         0
     19728         1         0     19731         1         0     19734         1         0
     19737         1         0     19740         1         0     19743         1         0
     19746         1         0     19749         1         0     19752         1         0
     19755         1         0     19758         1         0     19761         1         0
     19764         1         0     19767         1         0     19770         1         0
     19773         1         0     19776         1         0     19779         1         0
     19782         1         0     19785         1         0     19788         1         0
     19791         1         0     19794         1         0     19797         1         0
     19800         1         0     19803         1         0     19806         1         0
     19809         1         0     19812         1         0     19815         1         0
     19818         1         0     19821         1         0     19824         1         0
     19827         1         0     19830         1         0     19833         1         0
     19836         1         0     19839         1         0     19842         1         0
     19845         1         0     19848         1         0     19851         1         0
     19854         1         0     19857         1         0     19860         1         0
     19863         1         0     19866         1         0     19869         1         0
     19872         1         0     19875         1         0     19878         1         0
     19881         1         0     19884         1         0     19887         1         0
     19890         1         0     19893         1         0     19896         1         0
     19899         1         0     19902         1         0     19905         1         0
     19908         1         0     19911         1         0     19914         1         0
     19917         1         0     19920         1         0     19923         1         0
     19926         1         0     19929         1         0     19932         1         0
     19935         1         0     19938         1         0     19941         1         0
     19944         1         0     19947         1         0     19950         1         0
     19953         1         0     19956         1         0     19959         1         0
     19962         1         0     19965         1         0     19968         1         0
     19971         1         0     19974         1         0     19977         1         0
     19980         1         0     19983         1         0     19986         1         0
     19989         1         0     19992         1         0     19995         1         0
     19998         1         0     20001         1         0     20004         1         0
     20007         1         0     20010         1         0     20013         1         0
     20016         1         0     20019         1         0     20022         1         0
     20025         1         0     20028         1         0     20031         1         0
     20034         1         0     20037         1         0     20040         1         0
     20043         1         0     20046         1         0     20049         1         0
     20052         1         0     20055         1         0     20058         1         0
     20061         1         0     20064         1         0     20067         1         0
     20070         1         0     20073         1         0     20076         1         0
     20079         1         0     20082         1         0     20085         1         0
     20088         1         0     20091         1         0     20094         1         0
     20097         1         0     20100         1         0     20103         1         0
     20106         1         0     20109         1         0     20112         1         0
     20115         1         0     20118         1         0     20121         1         0
     20124         1         0     20127         1         0     20130         1         0
     20133         1         0     20136         1         0     20139         1         0
     20142         1         0     20145         1         0     20148         1         0
     20151         1         0     20154         1         0     20157         1         0
     20160         1         0     20163         1         0     20166         1         0
     20169         1         0     20172         1         0     20175         1         0
     20178         1         0     20181         1         0     20184         1         0
     20187         1         0     20190         1         0     20193         1         0
     20196         1         0     20199         1         0     20202         1         0
     20205         1         0     20208         1         0     20211         1         0
     20214         1         0     20217         1         0     20220         1         0
     20223         1         0     20226         1         0     20229         1         0
     20232         1         0     20235         1         0     20238         1         0
     20241         1         0     20244         1         0     20247         1         0
     20250         1         0     20253         1         0     20256         1         0
     20259         1         0     20262         1         0     20265         1         0
     20268         1         0     20271         1         0     20274         1         0
     20277         1         0     20280         1         0     20283         1         0
     20286         1         0     20289         1         0     20292         1         0
     20295         1         0     20298         1         0     20301         1         0
     20304         1         0     20307         1         0     20310         1         0
     20313         1         0     20316         1         0     20319         1         0
     20322         1         0     20325         1         0     20328         1         0
     20331         1         0     20334         1         0     20337         1         0
     20340         1         0     20343         1         0     20346         1         0
     20349         1         0     20352         1         0     20355         1         0
     20358         1         0     20361         1         0     20364         1         0
     20367         1         0     20370         1         0     20373         1         0
     20376         1         0     20379         1         0     20382         1         0
     20385         1         0     20388         1         0     20391         1         0
     20394         1         0     20397         1         0     20400         1         0
     20403         1         0     20406         1         0     20409         1         0
     20412         1         0     20415         1         0     20418         1         0
     20421         1         0     20424         1         0     20427         1         0
     20430         1         0     20433         1         0     20436         1         0
     20439         1         0     20442         1         0     20445         1         0
     20448         1         0     20451         1         0     20454         1         0
     20457         1         0     20460         1         0     20463         1         0
     20466         1         0     20469         1         0     20472         1         0
     20475         1         0     20478         1         0     20481         1         0
     20484         1         0     20487         1         0     20490         1         0
     20493         1         0     20496         1         0     20499         1         0
     20502         1         0     20505         1         0     20508         1         0
     20511         1         0     20514         1         0     20517         1         0
     20520         1         0     20523         1         0     20526         1         0
     20529         1         0     20532         1         0     20535         1         0
     20538         1         0     20541         1         0     20544         1         0
     20547         1         0     20550         1         0     20553         1         0
     20556         1         0     20559         1         0     20562         1         0
     20565         1         0     20568         1         0     20571         1         0
     20574         1         0     20577         1         0     20580         1         0
     20583         1         0     20586         1         0     20589         1         0
     20592         1         0     20595         1         0     20598         1         0
     20601         1         0     20604         1         0     20607         1         0
     20610         1         0     20613         1         0     20616         1         0
     20619         1         0     20622         1         0     20625         1         0
     20628         1         0     20631         1         0     20634         1         0
     20637         1         0     20640         1         0     20643         1         0
     20646         1         0     20649         1         0     20652         1         0
     20655         1         0     20658         1         0     20661         1         0
     20664         1         0     20667         1         0     20670         1         0
     20673         1         0     20676         1         0     20679         1         0
     20682         1         0     20685         1         0     20688         1         0
     20691         1         0     20694         1         0     20697         1         0
     20700         1         0     20703         1         0     20706         1         0
     20709         1         0     20712         1         0     20715         1         0
     20718         1         0     20721         1         0     20724         1         0
     20727         1         0     20730         1         0     20733         1         0
     20736         1         0     20739         1         0     20742         1         0
     20745         1         0     20748         1         0     20751         1         0
     20754         1         0     20757         1         0     20760         1         0
     20763         1         0     20766         1         0     20769         1         0
     20772         1         0     20775         1         0     20778         1         0
     20781         1         0     20784         1         0     20787         1         0
     20790         1         0     20793         1         0     20796         1         0
     20799         1         0     20802         1         0     20805         1         0
     20808         1         0     20811         1         0     20814         1         0
     20817         1         0     20820         1         0     20823         1         0
     20826         1         0     20829         1         0     20832         1         0
     20835         1         0     20838         1         0     20841         1         0
     20844         1         0     20847         1         0     20850         1         0
     20853         1         0     20856         1         0     20859         1         0
     20862         1         0     20865         1         0     20868         1         0
     20871         1         0     20874         1         0     20877         1         0
     20880         1         0     20883         1         0     20886         1         0
     20889         1         0     20892         1         0     20895         1         0
     20898         1         0     20901         1         0     20904         1         0
     20907         1         0     20910         1         0     20913         1         0
     20916         1         0     20919         1         0     20922         1         0
     20925         1         0     20928         1         0     20931         1         0
     20934         1         0     20937         1         0     20940         1         0
     20943         1         0     20946         1         0     20949         1         0
     20952         1         0     20955         1         0     20958         1         0
     20961         1         0     20964         1         0     20967         1         0
     20970         1         0     20973         1         0     20976         1         0
     20979         1         0     20982         1         0     20985         1         0
     20988         1         0     20991         1         0     20994         1         0
     20997         1         0     21000         1         0     21003         1         0
     21006         1         0     21009         1         0     21012         1         0
     21015         1         0     21018         1         0     21021         1         0
     21024         1         0     21027         1         0     21030         1         0
     21033         1         0     21036         1         0     21039         1         0
     21042         1         0     21045         1         0     21048         1         0
     21051         1         0     21054         1         0     21057         1         0
     21060         1         0     21063         1         0     21066         1         0
     21069         1         0     21072         1         0     21075         1         0
     21078         1         0     21081         1         0     21084         1         0
     21087         1         0     21090         1         0     21093         1         0
     21096         1         0     21099         1         0     21102         1         0
     21105         1         0     21108         1         0     21111         1         0
     21114         1         0     21117         1         0     21120         1         0
     21123         1         0     21126         1         0     21129         1         0
     21132         1         0     21135         1         0     21138         1         0
     21141         1         0     21144         1         0     21147         1         0
     21150         1         0     21153         1         0     21156         1         0
     21159         1         0     21162         1         0     21165         1         0
     21168         1         0     21171         1         0     21174         1         0
     21177         1         0     21180         1         0     21183         1         0
     21186         1         0     21189         1         0     21192         1         0
     21195         1         0     21198         1         0     21201         1         0
     21204         1         0     21207         1         0     21210         1         0
     21213         1         0     21216         1         0     21219         1         0
     21222         1         0     21225         1         0     21228         1         0
     21231         1         0     21234         1         0     21237         1         0
     21240         1         0     21243         1         0     21246         1         0
     21249         1         0     21252         1         0     21255         1         0
     21258         1         0     21261         1         0     21264         1         0
     21267         1         0     21270         1         0     21273         1         0
     21276         1         0     21279         1         0     21282         1         0
     21285         1         0     21288         1         0     21291         1         0
     21294         1         0     21297         1         0     21300         1         0
     21303         1         0     21306         1         0     21309         1         0
     21312         1         0     21315         1         0     21318         1         0
     21321         1         0     21324         1         0     21327         1         0
     21330         1         0     21333         1         0     21336         1         0
     21339         1         0     21342         1         0     21345         1         0
     21348         1         0     21351         1         0     21354         1         0
     21357         1         0     21360         1         0     21363         1         0
     21366         1         0     21369         1         0     21372         1         0
     21375         1         0     21378         1         0     21381         1         0
     21384         1         0     21387         1         0     21390         1         0
     21393         1         0     21396         1         0     21399         1         0
     21402         1         0     21405         1         0     21408         1         0
     21411         1         0     21414         1         0     21417         1         0
     21420         1         0     21423         1         0     21426         1         0
     21429         1         0     21432         1         0     21435         1         0
     21438         1         0     21441         1         0     21444         1         0
     21447         1         0     21450         1         0     21453         1         0
     21456         1         0     21459         1         0     21462         1         0
     21465         1         0     21468         1         0     21471         1         0
     21474         1         0     21477         1         0     21480         1         0
     21483         1         0     21486         1         0     21489         1         0
     21492         1         0     21495         1         0     21498         1         0
     21501         1         0     21504         1         0     21507         1         0
     21510         1         0     21513         1         0     21516         1         0
     21519         1         0     21522         1         0     21525         1         0
     21528         1         0     21531         1         0     21534         1         0
     21537         1         0     21540         1         0     21543         1         0
     21546         1         0     21549         1         0     21552         1         0
     21555         1         0     21558         1         0     21561         1         0
     21564         1         0     21567         1         0     21570         1         0
     21573         1         0     21576         1         0     21579         1         0
     21582         1         0     21585         1         0     21588         1         0
     21591         1         0     21594         1         0     21597         1         0
     21600         1         0     21603         1         0     21606         1         0
     21609         1         0     21612         1         0     21615         1         0
     21618         1         0     21621         1         0     21624         1         0
     21627         1         0     21630         1         0     21633         1         0
     21636         1         0     21639         1         0     21642         1         0
     21645         1         0     21648         1         0     21651         1         0
     21654         1         0     21657         1         0     21660         1         0
     21663         1         0     21666         1         0     21669         1         0
     21672         1         0     21675         1         0     21678         1         0
     21681         1         0     21684         1         0     21687         1         0
     21690         1         0     21693         1         0     21696         1         0
     21699         1         0     21702         1         0     21705         1         0
     21708         1         0     21711         1         0     21714         1         0
     21717         1         0     21720         1         0     21723         1         0
     21726         1         0     21729         1         0     21732         1         0
     21735         1         0     21738         1         0     21741         1         0
     21744         1         0     21747         1         0     21750         1         0
     21753         1         0     21756         1         0     21759         1         0
     21762         1         0     21765         1         0     21768         1         0
     21771         1         0     21774         1         0     21777         1         0
     21780         1         0     21783         1         0     21786         1         0
     21789         1         0     21792         1         0     21795         1         0
     21798         1         0     21801         1         0     21804         1         0
     21807         1         0     21810         1         0     21813         1         0
     21816         1         0     21819         1         0     21822         1         0
     21825         1         0     21828         1         0     21831         1         0
     21834         1         0     21837         1         0     21840         1         0
     21843         1         0     21846         1         0     21849         1         0
     21852         1         0     21855         1         0     21858         1         0
     21861         1         0     21864         1         0     21867         1         0
     21870         1         0     21873         1         0     21876         1         0
     21879         1         0     21882         1         0     21885         1         0
     21888         1         0     21891         1         0     21894         1         0
     21897         1         0     21900         1         0     21903         1         0
     21906         1         0     21909         1         0     21912         1         0
     21915         1         0     21918         1         0     21921         1         0
     21924         1         0     21927         1         0     21930         1         0
     21933         1         0     21936         1         0     21939         1         0
     21942         1         0     21945         1         0     21948         1         0
     21951         1         0     21954         1         0     21957         1         0
     21960         1         0     21963         1         0     21966         1         0
     21969         1         0     21972         1         0     21975         1         0
     21978         1         0     21981         1         0     21984         1         0
     21987         1         0     21990         1         0     21993         1         0
     21996         1         0     21999         1         0     22002         1         0
     22005         1         0     22008         1         0     22011         1         0
     22014         1         0     22017         1         0     22020         1         0
     22023         1         0     22026         1         0     22029         1         0
     22032         1         0     22035         1         0     22038         1         0
     22041         1         0     22044         1         0     22047         1         0
     22050         1         0     22053         1         0     22056         1         0
     22059         1         0     22062         1         0     22065         1         0
     22068         1         0     22071         1         0     22074         1         0
     22077         1         0     22080         1         0     22083         1         0
     22086         1         0     22089         1         0     22092         1         0
     22095         1         0     22098         1         0     22101         1         0
     22104         1         0     22107         1         0     22110         1         0
     22113         1         0     22116         1         0     22119         1         0
     22122         1         0     22125         1         0     22128         1         0
     22131         1         0     22134         1         0     22137         1         0
     22140         1         0     22143         1         0     22146         1         0
     22149         1         0     22152         1         0     22155         1         0
     22158         1         0     22161         1         0     22164         1         0
     22167         1         0     22170         1         0     22173         1         0
     22176         1         0     22179         1         0     22182         1         0
     22185         1         0     22188         1         0     22191         1         0
     22194         1         0     22197         1         0     22200         1         0
     22203         1         0     22206         1         0     22209         1         0
     22212         1         0     22215         1         0     22218         1         0
     22221         1         0     22224         1         0     22227         1         0
     22230         1         0     22233         1         0     22236         1         0
     22239         1         0     22242         1         0     22245         1         0
     22248         1         0     22251         1         0     22254         1         0
     22257         1         0     22260         1         0     22263         1         0
     22266         1         0     22269         1         0     22272         1         0
     22275         1         0     22278         1         0     22281         1         0
     22284         1         0     22287         1         0     22290         1         0
     22293         1         0     22296         1         0     22299         1         0
     22302         1         0     22305         1         0     22308         1         0
     22311         1         0     22314         1         0     22317         1         0
     22320         1         0     22323         1         0     22326         1         0
     22329         1         0     22332         1         0     22335         1         0
     22338         1         0     22341         1         0     22344         1         0
     22347         1         0     22350         1         0     22353         1         0
     22356         1         0     22359         1         0     22362         1         0
     22365         1         0     22368         1         0     22371         1         0
     22374         1         0     22377         1         0     22380         1         0
     22383         1         0     22386         1         0     22389         1         0
     22392         1         0     22395         1         0     22398         1         0
     22401         1         0     22404         1         0     22407         1         0
     22410         1         0     22413         1         0     22416         1         0
     22419         1         0     22422         1         0     22425         1         0
     22428         1         0     22431         1         0     22434         1         0
     22437         1         0     22440         1         0     22443         1         0
     22446         1         0     22449         1         0     22452         1         0
     22455         1         0     22458         1         0     22461         1         0
     22464         1         0     22467         1         0     22470         1         0
     22473         1         0     22476         1         0     22479         1         0
     22482         1         0     22485         1         0     22488         1         0
     22491         1         0     22494         1         0     22497         1         0
     22500         1         0     22503         1         0     22506         1         0
     22509         1         0     22512         1         0     22515         1         0
     22518         1         0     22521         1         0     22524         1         0
     22527         1         0     22530         1         0     22533         1         0
     22536         1         0     22539         1         0     22542         1         0
     22545         1         0     22548         1         0     22551         1         0
     22554         1         0     22557         1         0     22560         1         0
     22563         1         0     22566         1         0     22569         1         0
     22572         1         0     22575         1         0     22578         1         0
     22581         1         0     22584         1         0     22587         1         0
     22590         1         0     22593         1         0     22596         1         0
     22599         1         0     22602         1         0     22605         1         0
     22608         1         0     22611         1         0     22614         1         0
     22617         1         0     22620         1         0     22623         1         0
     22626         1         0     22629         1         0     22632         1         0
     22635         1         0     22638         1         0     22641         1         0
     22644         1         0     22647         1         0     22650         1         0
     22653         1         0     22656         1         0     22659         1         0
     22662         1         0     22665         1         0     22668         1         0
     22671         1         0     22674         1         0     22677         1         0
     22680         1         0     22683         1         0     22686         1         0
     22689         1         0     22692         1         0     22695         1         0
     22698         1         0     22701         1         0     22704         1         0
     22707         1         0     22710         1         0     22713         1         0
     22716         1         0     22719         1         0     22722         1         0
     22725         1         0     22728         1         0     22731         1         0
     22734         1         0     22737         1         0     22740         1         0
     22743         1         0     22746         1         0     22749         1         0
     22752         1         0     22755         1         0     22758         1         0
     22761         1         0     22764         1         0     22767         1         0
     22770         1         0     22773         1         0     22776         1         0
     22779         1         0     22782         1         0     22785         1         0
     22788         1         0     22791         1         0     22794         1         0
     22797         1         0     22800         1         0     22803         1         0
     22806         1         0     22809         1         0     22812         1         0
     22815         1         0     22818         1         0     22821         1         0
     22824         1         0     22827         1         0     22830         1         0
     22833         1         0     22836         1         0     22839         1         0
     22842         1         0     22845         1         0     22848         1         0
     22851         1         0     22854         1         0     22857         1         0
     22860         1         0     22863         1         0     22866         1         0
     22869         1         0     22872         1         0     22875         1         0
     22878         1         0     22881         1         0     22884         1         0
     22887         1         0     22890         1         0     22893         1         0
     22896         1         0     22899         1         0     22902         1         0
     22905         1         0     22908         1         0     22911         1         0
     22914         1         0     22917         1         0     22920         1         0
     22923         1         0     22926         1         0     22929         1         0
     22932         1         0     22935         1         0     22938         1         0
     22941         1         0     22944         1         0     22947         1         0
     22950         1         0     22953         1         0     22956         1         0
     22959         1         0     22962         1         0     22965         1         0
     22968         1         0     22971         1         0     22974         1         0
     22977         1         0     22980         1         0     22983         1         0
     22986         1         0     22989         1         0     22992         1         0
     22995         1         0     22998         1         0     23001         1         0
     23004         1         0     23007         1         0     23010         1         0
     23013         1         0     23016         1         0     23019         1         0
     23022         1         0     23025         1         0     23028         1         0
     23031         1         0     23034         1         0     23037         1         0
     23040         1         0     23043         1         0     23046         1         0
     23049         1         0     23052         1         0     23055         1         0
     23058         1         0     23061         1         0     23064         1         0
     23067         1         0     23070         1         0     23073         1         0
     23076         1         0     23079         1         0     23082         1         0
     23085         1         0     23088         1         0     23091         1         0
     23094         1         0     23097         1         0     23100         1         0
     23103         1         0     23106         1         0     23109         1         0
     23112         1         0     23115         1         0     23118         1         0
     23121         1         0     23124         1         0     23127         1         0
     23130         1         0     23133         1         0     23136         1         0
     23139         1         0     23142         1         0     23145         1         0
     23148         1         0     23151         1         0     23154         1         0
     23157         1         0     23160         1         0     23163         1         0
     23166         1         0     23169         1         0     23172         1         0
     23175         1         0     23178         1         0     23181         1         0
     23184         1         0     23187         1         0     23190         1         0
     23193         1         0     23196         1         0     23199         1         0
     23202         1         0     23205         1         0     23208         1         0
     23211         1         0     23214         1         0     23217         1         0
     23220         1         0     23223         1         0     23226         1         0
     23229         1         0     23232         1         0     23235         1         0
     23238         1         0     23241         1         0     23244         1         0
     23247         1         0     23250         1         0     23253         1         0
     23256         1         0     23259         1         0     23262         1         0
     23265         1         0     23268         1         0     23271         1         0
     23274         1         0     23277         1         0     23280         1         0
     23283         1         0     23286         1         0     23289         1         0
     23292         1         0     23295         1         0     23298         1         0
     23301         1         0     23304         1         0     23307         1         0
     23310         1         0     23313         1         0     23316         1         0
     23319         1         0     23322         1         0     23325         1         0
     23328         1         0     23331         1         0     23334         1         0
     23337         1         0     23340         1         0     23343         1         0
     23346         1         0     23349         1         0     23352         1         0
     23355         1         0     23358         1         0     23361         1         0
     23364         1         0     23367         1         0     23370         1         0
     23373         1         0     23376         1         0     23379         1         0
     23382         1         0     23385         1         0     23388         1         0
     23391         1         0     23394         1         0     23397         1         0
     23400         1         0     23403         1         0     23406         1         0
     23409         1         0     23412         1         0     23415         1         0
     23418         1         0     23421         1         0     23424         1         0
     23427         1         0     23430         1         0     23433         1         0
     23436         1         0     23439         1         0     23442         1         0
     23445         1         0     23448         1         0     23451         1         0
     23454         1         0     23457         1         0     23460         1         0
     23463         1         0     23466         1         0     23469         1         0
     23472         1         0     23475         1         0     23478         1         0
     23481         1         0     23484         1         0     23487         1         0
     23490         1         0     23493         1         0     23496         1         0
     23499         1         0     23502         1         0     23505         1         0
     23508         1         0     23511         1         0     23514         1         0
     23517         1         0     23520         1         0     23523         1         0
     23526         1         0     23529         1         0     23532         1         0
     23535         1         0     23538         1         0     23541         1         0
     23544         1         0     23547         1         0     23550         1         0
     23553         1         0     23556         1         0     23559         1         0
     23562         1         0     23565         1         0     23568         1         0
     23571         1         0     23574         1         0     23577         1         0
     23580         1         0     23583         1         0     23586         1         0
     23589         1         0     23592         1         0     23595         1         0
     23598         1         0     23601         1         0     23604         1         0
     23607         1         0     23610         1         0     23613         1         0
     23616         1         0     23619         1         0     23622         1         0
     23625         1         0     23628         1         0     23631         1         0
     23634         1         0     23637         1         0     23640         1         0
     23643         1         0     23646         1         0     23649         1         0
     23652         1         0     23655         1         0     23658         1         0
     23661         1         0     23664         1         0     23667         1         0
     23670         1         0     23673         1         0     23676         1         0
     23679         1         0     23682         1         0     23685         1         0
     23688         1         0     23691         1         0     23694         1         0
     23697         1         0     23700         1         0     23703         1         0
     23706         1         0     23709         1         0     23712         1         0
     23715         1         0     23718         1         0     23721         1         0
     23724         1         0     23727         1         0     23730         1         0
     23733         1         0     23736         1         0     23739         1         0
     23742         1         0     23745         1         0     23748         1         0
     23751         1         0     23754         1         0     23757         1         0
     23760         1         0     23763         1         0     23766         1         0
     23769         1         0     23772         1         0     23775         1         0
     23778         1         0     23781         1         0     23784         1         0
     23787         1         0     23790         1         0     23793         1         0
     23796         1         0     23799         1         0     23802         1         0
     23805         1         0     23808         1         0     23811         1         0
     23814         1         0     23817         1         0     23820         1         0
     23823         1         0     23826         1         0     23829         1         0
     23832         1         0     23835         1         0     23838         1         0
     23841         1         0     23844         1         0     23847         1         0
     23850         1         0     23853         1         0     23856         1         0
     23859         1         0     23862         1         0     23865         1         0
     23868         1         0     23871         1         0     23874         1         0
     23877         1         0     23880         1         0     23883         1         0
     23886         1         0     23889         1         0     23892         1         0
     23895         1         0     23898         1         0     23901         1         0
     23904         1         0     23907         1         0     23910         1         0
     23913         1         0     23916         1         0     23919         1         0
     23922         1         0     23925         1         0     23928         1         0
     23931         1         0     23934         1         0     23937         1         0
     23940         1         0     23943         1         0     23946         1         0
     23949         1         0     23952         1         0     23955         1         0
     23958         1         0     23961         1         0     23964         1         0
     23967         1         0     23970         1         0     23973         1         0
     23976         1         0     23979         1         0     23982         1         0
     23985         1         0     23988         1         0     23991         1         0
     23994         1         0     23997         1         0     24000         1         0
     24003         1         0     24006         1         0     24009         1         0
     24012         1         0     24015         1         0     24018         1         0
     24021         1         0     24024         1         0     24027         1         0
     24030         1         0     24033         1         0     24036         1         0
     24039         1         0     24042         1         0     24045         1         0
     24048         1         0     24051         1         0     24054         1         0
     24057         1         0     24060         1         0     24063         1         0
     24066         1         0     24069         1         0     24072         1         0
     24075         1         0     24078         1         0     24081         1         0
     24084         1         0     24087         1         0     24090         1         0
     24093         1         0     24096         1         0     24099         1         0
     24102         1         0     24105         1         0     24108         1         0
     24111         1         0     24114         1         0     24117         1         0
     24120         1         0     24123         1         0     24126         1         0
     24129         1         0     24132         1         0     24135         1         0
     24138         1         0     24141         1         0     24144         1         0
     24147         1         0     24150         1         0     24153         1         0
     24156         1         0     24159         1         0     24162         1         0
     24165         1         0     24168         1         0     24171         1         0
     24174         1         0     24177         1         0     24180         1         0
     24183         1         0     24186         1         0     24189         1         0
     24192         1         0     24195         1         0     24198         1         0
     24201         1         0     24204         1         0     24207         1         0
     24210         1         0     24213         1         0     24216         1         0
     24219         1         0     24222         1         0     24225         1         0
     24228         1         0     24231         1         0     24234         1         0
     24237         1         0     24240         1         0     24243         1         0
     24246         1         0     24249         1         0     24252         1         0
     24255         1         0     24258         1         0     24261         1         0
     24264         1         0     24267         1         0     24270         1         0
     24273         1         0     24276         1         0     24279         1         0
     24282         1         0     24285         1         0     24288         1         0
     24291         1         0     24294         1         0     24297         1         0
     24300         1         0     24303         1         0     24306         1         0
     24309         1         0     24312         1         0     24315         1         0
     24318         1         0     24321         1         0     24324         1         0
     24327         1         0     24330         1         0     24333         1         0
     24336         1         0     24339         1         0     24342         1         0
     24345         1         0     24348         1         0     24351         1         0
     24354         1         0     24357         1         0     24360         1         0
     24363         1         0     24366         1         0     24369         1         0
     24372         1         0     24375         1         0     24378         1         0
     24381         1         0     24384         1         0     24387         1         0
     24390         1         0     24393         1         0     24396         1         0
     24399         1         0     24402         1         0     24405         1         0
     24408         1         0     24411         1         0     24414         1         0
     24417         1         0     24420         1         0     24423         1         0
     24426         1         0     24429         1         0     24432         1         0
     24435         1         0     24438         1         0     24441         1         0
     24444         1         0     24447         1         0     24450         1         0
     24453         1         0     24456         1         0     24459         1         0
     24462         1         0     24465         1         0     24468         1         0
     24471         1         0     24474         1         0     24477         1         0
     24480         1         0     24483         1         0     24486         1         0
     24489         1         0     24492         1         0     24495         1         0
     24498         1         0     24501         1         0     24504         1         0
     24507         1         0     24510         1         0     24513         1         0
     24516         1         0     24519         1         0     24522         1         0
     24525         1         0     24528         1         0     24531         1         0
     24534         1         0     24537         1         0     24540         1         0
     24543         1         0     24546         1         0     24549         1         0
     24552         1         0     24555         1         0     24558         1         0
     24561         1         0     24564         1         0     24567         1         0
     24570         1         0     24573         1         0     24576         1         0
     24579         1         0     24582         1         0     24585         1         0
     24588         1         0     24591         1         0     24594         1         0
     24597         1         0     24600         1         0     24603         1         0
     24606         1         0     24609         1         0     24612         1         0
     24615         1         0     24618         1         0     24621         1         0
     24624         1         0     24627         1         0     24630         1         0
     24633         1         0     24636         1         0     24639         1         0
     24642         1         0     24645         1         0     24648         1         0
     24651         1         0     24654         1         0     24657         1         0
     24660         1         0     24663         1         0     24666         1         0
     24669         1         0     24672         1         0     24675         1         0
     24678         1         0     24681         1         0     24684         1         0
     24687         1         0     24690         1         0     24693         1         0
     24696         1         0     24699         1         0     24702         1         0
     24705         1         0     24708         1         0     24711         1         0
     24714         1         0     24717         1         0     24720         1         0
     24723         1         0     24726         1         0     24729         1         0
     24732         1         0     24735         1         0     24738         1         0
     24741         1         0     24744         1         0     24747         1         0
     24750         1         0     24753         1         0     24756         1         0
     24759         1         0     24762         1         0     24765         1         0
     24768         1         0     24771         1         0     24774         1         0
     24777         1         0     24780         1         0     24783         1         0
     24786         1         0     24789         1         0     24792         1         0
     24795         1         0     24798         1         0     24801         1         0
     24804         1         0     24807         1         0     24810         1         0
     24813         1         0     24816         1         0     24819         1         0
     24822         1         0     24825         1         0     24828         1         0
     24831         1         0     24834         1         0     24837         1         0
     24840         1         0     24843         1         0     24846         1         0
     24849         1         0     24852         1         0     24855         1         0
     24858         1         0     24861         1         0     24864         1         0
     24867         1         0     24870         1         0     24873         1         0
     24876         1         0     24879         1         0     24882         1         0
     24885         1         0     24888         1         0     24891         1         0
     24894         1         0     24897         1         0     24900         1         0
     24903         1         0     24906         1         0     24909         1         0
     24912         1         0     24915         1         0     24918         1         0
     24921         1         0     24924         1         0     24927         1         0
     24930         1         0     24933         1         0     24936         1         0
     24939         1         0     24942         1         0     24945         1         0
     24948         1         0     24951         1         0     24954         1         0
     24957         1         0     24960         1         0     24963         1         0
     24966         1         0     24969         1         0     24972         1         0
     24975         1         0     24978         1         0     24981         1         0
     24984         1         0     24987         1         0     24990         1         0
     24993         1         0     24996         1         0     24999         1         0
     25002         1         0     25005         1         0     25008         1         0
     25011         1         0     25014         1         0     25017         1         0
     25020         1         0     25023         1         0     25026         1         0
     25029         1         0     25032         1         0     25035         1         0
     25038         1         0     25041         1         0     25044         1         0
     25047         1         0     25050         1         0     25053         1         0
     25056         1         0     25059         1         0     25062         1         0
     25065         1         0     25068         1         0     25071         1         0
     25074         1         0     25077         1         0     25080         1         0
     25083         1         0     25086         1         0     25089         1         0
     25092         1         0     25095         1         0     25098         1         0
     25101         1         0     25104         1         0     25107         1         0
     25110         1         0     25113         1         0     25116         1         0
     25119         1         0     25122         1         0     25125         1         0
     25128         1         0     25131         1         0     25134         1         0
     25137         1         0     25140         1         0     25143         1         0
     25146         1         0     25149         1         0     25152         1         0
     25155         1         0     25158         1         0     25161         1         0
     25164         1         0     25167         1         0     25170         1         0
     25173         1         0     25176         1         0     25179         1         0
     25182         1         0     25185         1         0     25188         1         0
     25191         1         0     25194         1         0     25197         1         0
     25200         1         0     25203         1         0     25206         1         0
     25209         1         0     25212         1         0     25215         1         0
     25218         1         0     25221         1         0     25224         1         0
     25227         1         0     25230         1         0     25233         1         0
     25236         1         0     25239         1         0     25242         1         0
     25245         1         0     25248         1         0     25251         1         0
     25254         1         0     25257         1         0     25260         1         0
     25263         1         0     25266         1         0     25269         1         0
     25272         1         0     25275         1         0     25278         1         0
     25281         1         0     25284         1         0     25287         1         0
     25290         1         0     25293         1         0     25296         1         0
     25299         1         0     25302         1         0     25305         1         0
     25308         1         0     25311         1         0     25314         1         0
     25317         1         0     25320         1         0     25323         1         0
     25326         1         0     25329         1         0     25332         1         0
     25335         1         0     25338         1         0     25341         1         0
     25344         1         0     25347         1         0     25350         1         0
     25353         1         0     25356         1         0     25359         1         0
     25362         1         0     25365         1         0     25368         1         0
     25371         1         0     25374         1         0     25377         1         0
     25380         1         0     25383         1         0     25386         1         0
     25389         1         0     25392         1         0     25395         1         0
     25398         1         0     25401         1         0     25404         1         0
     25407         1         0     25410         1         0     25413         1         0
     25416         1         0     25419         1         0     25422         1         0
     25425         1         0     25428         1         0     25431         1         0
     25434         1         0     25437         1         0     25440         1         0
     25443         1         0     25446         1         0     25449         1         0
     25452         1         0     25455         1         0     25458         1         0
     25461         1         0     25464         1         0     25467         1         0
     25470         1         0     25473         1         0     25476         1         0
     25479         1         0     25482         1         0     25485         1         0
     25488         1         0     25491         1         0     25494         1         0
     25497         1         0     25500         1         0     25503         1         0
     25506         1         0     25509         1         0     25512         1         0
     25515         1         0     25518         1         0     25521         1         0
     25524         1         0     25527         1         0     25530         1         0
     25533         1         0     25536         1         0     25539         1         0
     25542         1         0     25545         1         0     25548         1         0
     25551         1         0     25554         1         0     25557         1         0
     25560         1         0     25563         1         0     25566         1         0
     25569         1         0     25572         1         0     25575         1         0
     25578         1         0     25581         1         0     25584         1         0
     25587         1         0     25590         1         0     25593         1         0
     25596         1         0     25599         1         0     25602         1         0
     25605         1         0     25608         1         0     25611         1         0
     25614         1         0     25617         1         0     25620         1         0
     25623         1         0     25626         1         0     25629         1         0
     25632         1         0     25635         1         0     25638         1         0
     25641         1         0     25644         1         0     25647         1         0
     25650         1         0     25653         1         0     25656         1         0
     25659         1         0     25662         1         0     25665         1         0
     25668         1         0     25671         1         0     25674         1         0
     25677         1         0     25680         1         0     25683         1         0
     25686         1         0     25689         1         0     25692         1         0
     25695         1         0     25698         1         0     25701         1         0
     25704         1         0     25707         1         0     25710         1         0
     25713         1         0     25716         1         0     25719         1         0
     25722         1         0     25725         1         0     25728         1         0
     25731         1         0     25734         1         0     25737         1         0
     25740         1         0     25743         1         0     25746         1         0
     25749         1         0     25752         1         0     25755         1         0
     25758         1         0     25761         1         0     25764         1         0
     25767         1         0     25770         1         0     25773         1         0
     25776         1         0     25779         1         0     25782         1         0
     25785         1         0     25788         1         0     25791         1         0
     25794         1         0     25797         1         0     25800         1         0
     25803         1         0     25806         1         0     25809         1         0
     25812         1         0     25815         1         0     25818         1         0
     25821         1         0     25824         1         0     25827         1         0
     25830         1         0     25833         1         0     25836         1         0
     25839         1         0     25842         1         0     25845         1         0
     25848         1         0     25851         1         0     25854         1         0
     25857         1         0     25860         1         0     25863         1         0
     25866         1         0     25869         1         0     25872         1         0
     25875         1         0     25878         1         0     25881         1         0
     25884         1         0     25887         1         0     25890         1         0
     25893         1         0     25896         1         0     25899         1         0
     25902         1         0     25905         1         0     25908         1         0
     25911         1         0     25914         1         0     25917         1         0
     25920         1         0     25923         1         0     25926         1         0
     25929         1         0     25932         1         0     25935         1         0
     25938         1         0     25941         1         0     25944         1         0
     25947         1         0     25950         1         0     25953         1         0
     25956         1         0     25959         1         0     25962         1         0
     25965         1         0     25968         1         0     25971         1         0
     25974         1         0     25977         1         0     25980         1         0
     25983         1         0     25986         1         0     25989         1         0
     25992         1         0     25995         1         0     25998         1         0
     26001         1         0     26004         1         0     26007         1         0
     26010         1         0     26013         1         0     26016         1         0
     26019         1         0     26022         1         0     26025         1         0
     26028         1         0     26031         1         0     26034         1         0
     26037         1         0     26040         1         0     26043         1         0
     26046         1         0     26049         1         0     26052         1         0
     26055         1         0     26058         1         0     26061         1         0
     26064         1         0     26067         1         0     26070         1         0
     26073         1         0     26076         1         0     26079         1         0
     26082         1         0     26085         1         0     26088         1         0
     26091         1         0     26094         1         0     26097         1         0
     26100         1         0     26103         1         0     26106         1         0
     26109         1         0     26112         1         0     26115         1         0
     26118         1         0     26121         1         0     26124         1         0
     26127         1         0     26130         1         0     26133         1         0
     26136         1         0     26139         1         0     26142         1         0
     26145         1         0     26148         1         0     26151         1         0
     26154         1         0     26157         1         0     26160         1         0
     26163         1         0     26166         1         0     26169         1         0
     26172         1         0     26175         1         0     26178         1         0
     26181         1         0     26184         1         0     26187         1         0
     26190         1         0     26193         1         0     26196         1         0
     26199         1         0     26202         1         0     26205         1         0
     26208         1         0     26211         1         0     26214         1         0
     26217         1         0     26220         1         0     26223         1         0
     26226         1         0     26229         1         0     26232         1         0
     26235         1         0     26238         1         0     26241         1         0
     26244         1         0     26247         1         0     26250         1         0
     26253         1         0     26256         1         0     26259         1         0
     26262         1         0     26265         1         0     26268         1         0
     26271         1         0     26274         1         0     26277         1         0
     26280         1         0     26283         1         0     26286         1         0
     26289         1         0     26292         1         0     26295         1         0
     26298         1         0     26301         1         0     26304         1         0
     26307         1         0     26310         1         0     26313         1         0
     26316         1         0     26319         1         0     26322         1         0
     26325         1         0     26328         1         0     26331         1         0
     26334         1         0     26337         1         0     26340         1         0
     26343         1         0     26346         1         0     26349         1         0
     26352         1         0     26355         1         0     26358         1         0
     26361         1         0     26364         1         0     26367         1         0
     26370         1         0     26373         1         0     26376         1         0
     26379         1         0     26382         1         0     26385         1         0
     26388         1         0     26391         1         0     26394         1         0
     26397         1         0     26400         1         0     26403         1         0
     26406         1         0     26409         1         0     26412         1         0
     26415         1         0     26418         1         0     26421         1         0
     26424         1         0     26427         1         0     26430         1         0
     26433         1         0     26436         1         0     26439         1         0
     26442         1         0     26445         1         0     26448         1         0
     26451         1         0     26454         1         0     26457         1         0
     26460         1         0     26463         1         0     26466         1         0
     26469         1         0     26472         1         0     26475         1         0
     26478         1         0     26481         1         0     26484         1         0
     26487         1         0     26490         1         0     26493         1         0
     26496         1         0     26499         1         0     26502         1         0
     26505         1         0     26508         1         0     26511         1         0
     26514         1         0     26517         1         0     26520         1         0
     26523         1         0     26526         1         0     26529         1         0
     26532         1         0     26535         1         0     26538         1         0
     26541         1         0     26544         1         0     26547         1         0
     26550         1         0     26553         1         0     26556         1         0
     26559         1         0     26562         1         0     26565         1         0
     26568         1         0     26571         1         0     26574         1         0
     26577         1         0     26580         1         0     26583         1         0
     26586         1         0     26589         1         0     26592         1         0
     26595         1         0     26598         1         0     26601         1         0
     26604         1         0     26607         1         0     26610         1         0
     26613         1         0     26616         1         0     26619         1         0
     26622         1         0     26625         1         0     26628         1         0
     26631         1         0     26634         1         0     26637         1         0
     26640         1         0     26643         1         0     26646         1         0
     26649         1         0     26652         1         0     26655         1         0
     26658         1         0     26661         1         0     26664         1         0
     26667         1         0     26670         1         0     26673         1         0
     26676         1         0     26679         1         0     26682         1         0
     26685         1         0     26688         1         0     26691         1         0
     26694         1         0     26697         1         0     26700         1         0
     26703         1         0     26706         1         0     26709         1         0
     26712         1         0     26715         1         0     26718         1         0
     26721         1         0     26724         1         0     26727         1         0
     26730         1         0     26733         1         0     26736         1         0
     26739         1         0     26742         1         0     26745         1         0
     26748         1         0     26751         1         0     26754         1         0
     26757         1         0     26760         1         0     26763         1         0
     26766         1         0     26769         1         0     26772         1         0
     26775         1         0     26778         1         0     26781         1         0
     26784         1         0     26787         1         0     26790         1         0
     26793         1         0     26796         1         0     26799         1         0
     26802         1         0     26805         1         0     26808         1         0
     26811         1         0     26814         1         0     26817         1         0
     26820         1         0     26823         1         0     26826         1         0
     26829         1         0     26832         1         0     26835         1         0
     26838         1         0     26841         1         0     26844         1         0
     26847         1         0     26850         1         0     26853         1         0
     26856         1         0     26859         1         0     26862         1         0
     26865         1         0     26868         1         0     26871         1         0
     26874         1         0     26877         1         0     26880         1         0
     26883         1         0     26886         1         0     26889         1         0
     26892         1         0     26895         1         0     26898         1         0
     26901         1         0     26904         1         0     26907         1         0
     26910         1         0     26913         1         0     26916         1         0
     26919         1         0     26922         1         0     26925         1         0
     26928         1         0     26931         1         0     26934         1         0
     26937         1         0     26940         1         0     26943         1         0
     26946         1         0     26949         1         0     26952         1         0
     26955         1         0     26958         1         0     26961         1         0
     26964         1         0     26967         1         0     26970         1         0
     26973         1         0     26976         1         0     26979         1         0
     26982         1         0     26985         1         0     26988         1         0
     26991         1         0     26994         1         0     26997         1         0
     27000         1         0     27003         1         0     27006         1         0
     27009         1         0     27012         1         0     27015         1         0
     27018         1         0     27021         1         0     27024         1         0
     27027         1         0     27030         1         0     27033         1         0
     27036         1         0     27039         1         0     27042         1         0
     27045         1         0     27048         1         0     27051         1         0
     27054         1         0     27057         1         0     27060         1         0
     27063         1         0     27066         1         0     27069         1         0
     27072         1         0     27075         1         0     27078         1         0
     27081         1         0     27084         1         0     27087         1         0
     27090         1         0     27093         1         0     27096         1         0
     27099         1         0     27102         1         0     27105         1         0
     27108         1         0     27111         1         0     27114         1         0
     27117         1         0     27120         1         0     27123         1         0
     27126         1         0     27129         1         0     27132         1         0
     27135         1         0     27138         1         0     27141         1         0
     27144         1         0     27147         1         0     27150         1         0
     27153         1         0     27156         1         0     27159         1         0
     27162         1         0     27165         1         0     27168         1         0
     27171         1         0     27174         1         0     27177         1         0
     27180         1         0     27183         1         0     27186         1         0
     27189         1         0     27192         1         0     27195         1         0
     27198         1         0     27201         1         0     27204         1         0
     27207         1         0     27210         1         0     27213         1         0
     27216         1         0     27219         1         0     27222         1         0
     27225         1         0     27228         1         0     27231         1         0
     27234         1         0     27237         1         0     27240         1         0
     27243         1         0     27246         1         0     27249         1         0
     27252         1         0     27255         1         0     27258         1         0
     27261         1         0     27264         1         0     27267         1         0
     27270         1         0     27273         1         0     27276         1         0
     27279         1         0     27282         1         0     27285         1         0
     27288         1         0     27291         1         0     27294         1         0
     27297         1         0     27300         1         0     27303         1         0
     27306         1         0     27309         1         0     27312         1         0
     27315         1         0     27318         1         0     27321         1         0
     27324         1         0     27327         1         0     27330         1         0
     27333         1         0     27336         1         0     27339         1         0
     27342         1         0     27345         1         0     27348         1         0
     27351         1         0     27354         1         0     27357         1         0
     27360         1         0     27363         1         0     27366         1         0
     27369         1         0     27372         1         0     27375         1         0
     27378         1         0     27381         1         0     27384         1         0
     27387         1         0     27390         1         0     27393         1         0
     27396         1         0     27399         1         0     27402         1         0
     27405         1         0     27408         1         0     27411         1         0
     27414         1         0     27417         1         0     27420         1         0
     27423         1         0     27426         1         0     27429         1         0
     27432         1         0     27435         1         0     27438         1         0
     27441         1         0     27444         1         0     27447         1         0
     27450         1         0     27453         1         0     27456         1         0
     27459         1         0     27462         1         0     27465         1         0
     27468         1         0     27471         1         0     27474         1         0
     27477         1         0     27480         1         0     27483         1         0
     27486         1         0     27489         1         0     27492         1         0
     27495         1         0     27498         1         0     27501         1         0
     27504         1         0     27507         1         0     27510         1         0
     27513         1         0     27516         1         0     27519         1         0
     27522         1         0     27525         1         0     27528         1         0
     27531         1         0     27534         1         0     27537         1         0
     27540         1         0     27543         1         0     27546         1         0
     27549         1         0     27552         1         0     27555         1         0
     27558         1         0     27561         1         0     27564         1         0
     27567         1         0     27570         1         0     27573         1         0
     27576         1         0     27579         1         0     27582         1         0
     27585         1         0     27588         1         0     27591         1         0
     27594         1         0     27597         1         0     27600         1         0
     27603         1         0     27606         1         0     27609         1         0
     27612         1         0     27615         1         0     27618         1         0
     27621         1         0     27624         1         0     27627         1         0
     27630         1         0     27633         1         0     27636         1         0
     27639         1         0     27642         1         0     27645         1         0
     27648         1         0     27651         1         0     27654         1         0
     27657         1         0     27660         1         0     27663         1         0
     27666         1         0     27669         1         0     27672         1         0
     27675         1         0     27678         1         0     27681         1         0
     27684         1         0     27687         1         0     27690         1         0
     27693         1         0     27696         1         0     27699         1         0
     27702         1         0     27705         1         0     27708         1         0
     27711         1         0     27714         1         0     27717         1         0
     27720         1         0     27723         1         0     27726         1         0
     27729         1         0     27732         1         0     27735         1         0
     27738         1         0     27741         1         0     27744         1         0
     27747         1         0     27750         1         0     27753         1         0
     27756         1         0     27759         1         0     27762         1         0
     27765         1         0     27768         1         0     27771         1         0
     27774         1         0     27777         1         0     27780         1         0
     27783         1         0     27786         1         0     27789         1         0
     27792         1         0     27795         1         0     27798         1         0
     27801         1         0     27804         1         0     27807         1         0
     27810         1         0     27813         1         0     27816         1         0
     27819         1         0     27822         1         0     27825         1         0
     27828         1         0     27831         1         0     27834         1         0
     27837         1         0     27840         1         0     27843         1         0
     27846         1         0     27849         1         0     27852         1         0
     27855         1         0     27858         1         0     27861         1         0
     27864         1         0     27867         1         0     27870         1         0
     27873         1         0     27876         1         0     27879         1         0
     27882         1         0     27885         1         0     27888         1         0
     27891         1         0     27894         1         0     27897         1         0
     27900         1         0     27903         1         0     27906         1         0
     27909         1         0     27912         1         0     27915         1         0
     27918         1         0     27921         1         0     27924         1         0
     27927         1         0     27930         1         0     27933         1         0
     27936         1         0     27939         1         0     27942         1         0
     27945         1         0     27948         1         0     27951         1         0
     27954         1         0     27957         1         0     27960         1         0
     27963         1         0     27966         1         0     27969         1         0
     27972         1         0     27975         1         0     27978         1         0
     27981         1         0     27984         1         0     27987         1         0
     27990         1         0     27993         1         0     27996         1         0
     27999         1         0     28002         1         0     28005         1         0
     28008         1         0     28011         1         0     28014         1         0
     28017         1         0     28020         1         0     28023         1         0
     28026         1         0     28029         1         0     28032         1         0
     28035         1         0     28038         1         0     28041         1         0
     28044         1         0     28047         1         0     28050         1         0
     28053         1         0     28056         1         0     28059         1         0
     28062         1         0     28065         1         0     28068         1         0
     28071         1         0     28074         1         0     28077         1         0
     28080         1         0     28083         1         0     28086         1         0
     28089         1         0     28092         1         0     28095         1         0
     28098         1         0     28101         1         0     28104         1         0
     28107         1         0     28110         1         0     28113         1         0
     28116         1         0     28119         1         0     28122         1         0
     28125         1         0     28128         1         0     28131         1         0
     28134         1         0     28137         1         0     28140         1         0
     28143         1         0     28146         1         0     28149         1         0
     28152         1         0     28155         1         0     28158         1         0
     28161         1         0     28164         1         0     28167         1         0
     28170         1         0     28173         1         0     28176         1         0
     28179         1         0     28182         1         0     28185         1         0
     28188         1         0     28191         1         0     28194         1         0
     28197         1         0     28200         1         0     28203         1         0
     28206         1         0     28209         1         0     28212         1         0
     28215         1         0     28218         1         0     28221         1         0
     28224         1         0     28227         1         0     28230         1         0
     28233         1         0     28236         1         0     28239         1         0
     28242         1         0     28245         1         0     28248         1         0
     28251         1         0     28254         1         0     28257         1         0
     28260         1         0     28263         1         0     28266         1         0
     28269         1         0     28272         1         0     28275         1         0
     28278         1         0     28281         1         0     28284         1         0
     28287         1         0     28290         1         0     28293         1         0
     28296         1         0     28299         1         0     28302         1         0
     28305         1         0     28308         1         0     28311         1         0
     28314         1         0     28317         1         0     28320         1         0
     28323         1         0     28326         1         0     28329         1         0
     28332         1         0     28335         1         0     28338         1         0
     28341         1         0     28344         1         0     28347         1         0
     28350         1         0     28353         1         0     28356         1         0
     28359         1         0     28362         1         0     28365         1         0
     28368         1         0     28371         1         0     28374         1         0
     28377         1         0     28380         1         0     28383         1         0
     28386         1         0     28389         1         0     28392         1         0
     28395         1         0     28398         1         0     28401         1         0
     28404         1         0     28407         1         0     28410         1         0
     28413         1         0     28416         1         0     28419         1         0
     28422         1         0     28425         1         0     28428         1         0
     28431         1         0     28434         1         0     28437         1         0
     28440         1         0     28443         1         0     28446         1         0
     28449         1         0     28452         1         0     28455         1         0
     28458         1         0     28461         1         0     28464         1         0
     28467         1         0     28470         1         0     28473         1         0
     28476         1         0     28479         1         0     28482         1         0
     28485         1         0     28488         1         0     28491         1         0
     28494         1         0     28497         1         0     28500         1         0
     28503         1         0     28506         1         0     28509         1         0
     28512         1         0     28515         1         0     28518         1         0
     28521         1         0     28524         1         0     28527         1         0
     28530         1         0     28533         1         0     28536         1         0
     28539         1         0     28542         1         0     28545         1         0
     28548         1         0     28551         1         0     28554         1         0
     28557         1         0     28560         1         0     28563         1         0
     28566         1         0     28569         1         0     28572         1         0
     28575         1         0     28578         1         0     28581         1         0
     28584         1         0     28587         1         0     28590         1         0
     28593         1         0     28596         1         0     28599         1         0
     28602         1         0     28605         1         0     28608         1         0
     28611         1         0     28614         1         0     28617         1         0
     28620         1         0     28623         1         0     28626         1         0
     28629         1         0     28632         1         0     28635         1         0
     28638         1         0     28641         1         0     28644         1         0
     28647         1         0     28650         1         0     28653         1         0
     28656         1         0     28659         1         0     28662         1         0
     28665         1         0     28668         1         0     28671         1         0
     28674         1         0     28677         1         0     28680         1         0
     28683         1         0     28686         1         0     28689         1         0
     28692         1         0     28695         1         0     28698         1         0
     28701         1         0     28704         1         0     28707         1         0
     28710         1         0     28713         1         0     28716         1         0
     28719         1         0     28722         1         0     28725         1         0
     28728         1         0     28731         1         0     28734         1         0
     28737         1         0     28740         1         0     28743         1         0
     28746         1         0     28749         1         0     28752         1         0
     28755         1         0     28758         1         0     28761         1         0
     28764         1         0     28767         1         0     28770         1         0
     28773         1         0     28776         1         0     28779         1         0
     28782         1         0     28785         1         0     28788         1         0
     28791         1         0     28794         1         0     28797         1         0
     28800         1         0     28803         1         0     28806         1         0
     28809         1         0     28812         1         0     28815         1         0
     28818         1         0     28821         1         0     28824         1         0
     28827         1         0     28830         1         0     28833         1         0
     28836         1         0     28839         1         0     28842         1         0
     28845         1         0     28848         1         0     28851         1         0
     28854         1         0     28857         1         0     28860         1         0
     28863         1         0     28866         1         0     28869         1         0
     28872         1         0     28875         1         0     28878         1         0
     28881         1         0     28884         1         0     28887         1         0
     28890         1         0     28893         1         0     28896         1         0
     28899         1         0     28902         1         0     28905         1         0
     28908         1         0     28911         1         0     28914         1         0
     28917         1         0     28920         1         0     28923         1         0
     28926         1         0     28929         1         0     28932         1         0
     28935         1         0     28938         1         0     28941         1         0
     28944         1         0     28947         1         0     28950         1         0
     28953         1         0     28956         1         0     28959         1         0
     28962         1         0     28965         1         0     28968         1         0
     28971         1         0     28974         1         0     28977         1         0
     28980         1         0     28983         1         0     28986         1         0
     28989         1         0     28992         1         0     28995         1         0
     28998         1         0     29001         1         0     29004         1         0
     29007         1         0     29010         1         0     29013         1         0
     29016         1         0     29019         1         0     29022         1         0
     29025         1         0     29028         1         0     29031         1         0
     29034         1         0     29037         1         0     29040         1         0
     29043         1         0     29046         1         0     29049         1         0
     29052         1         0     29055         1         0     29058         1         0
     29061         1         0     29064         1         0     29067         1         0
     29070         1         0     29073         1         0     29076         1         0
     29079         1         0     29082         1         0     29085         1         0
     29088         1         0     29091         1         0     29094         1         0
     29097         1         0     29100         1         0     29103         1         0
     29106         1         0     29109         1         0     29112         1         0
     29115         1         0     29118         1         0     29121         1         0
     29124         1         0     29127         1         0     29130         1         0
     29133         1         0     29136         1         0     29139         1         0
     29142         1         0     29145         1         0     29148         1         0
     29151         1         0     29154         1         0     29157         1         0
     29160         1         0     29163         1         0     29166         1         0
     29169         1         0     29172         1         0     29175         1         0
     29178         1         0     29181         1         0     29184         1         0
     29187         1         0     29190         1         0     29193         1         0
     29196         1         0     29199         1         0     29202         1         0
     29205         1         0     29208         1         0     29211         1         0
     29214         1         0     29217         1         0     29220         1         0
     29223         1         0     29226         1         0     29229         1         0
     29232         1         0     29235         1         0     29238         1         0
     29241         1         0     29244         1         0     29247         1         0
     29250         1         0     29253         1         0     29256         1         0
     29259         1         0     29262         1         0     29265         1         0
     29268         1         0     29271         1         0     29274         1         0
     29277         1         0     29280         1         0     29283         1         0
     29286         1         0     29289         1         0     29292         1         0
     29295         1         0     29298         1         0     29301         1         0
     29304         1         0     29307         1         0     29310         1         0
     29313         1         0     29316         1         0     29319         1         0
     29322         1         0     29325         1         0     29328         1         0
     29331         1         0     29334         1         0     29337         1         0
     29340         1         0     29343         1         0     29346         1         0
     29349         1         0     29352         1         0     29355         1         0
     29358         1         0     29361         1         0     29364         1         0
     29367         1         0     29370         1         0     29373         1         0
     29376         1         0     29379         1         0     29382         1         0
     29385         1         0     29388         1         0     29391         1         0
     29394         1         0     29397         1         0     29400         1         0
     29403         1         0     29406         1         0     29409         1         0
     29412         1         0     29415         1         0     29418         1         0
     29421         1         0     29424         1         0     29427         1         0
     29430         1         0     29433         1         0     29436         1         0
     29439         1         0     29442         1         0     29445         1         0
     29448         1         0     29451         1         0     29454         1         0
     29457         1         0     29460         1         0     29463         1         0
     29466         1         0     29469         1         0     29472         1         0
     29475         1         0     29478         1         0     29481         1         0
     29484         1         0     29487         1         0     29490         1         0
     29493         1         0     29496         1         0     29499         1         0
     29502         1         0     29505         1         0     29508         1         0
     29511         1         0     29514         1         0     29517         1         0
     29520         1         0     29523         1         0     29526         1         0
     29529         1         0     29532         1         0     29535         1         0
     29538         1         0     29541         1         0     29544         1         0
     29547         1         0     29550         1         0     29553         1         0
     29556         1         0     29559         1         0     29562         1         0
     29565         1         0     29568         1         0     29571         1         0
     29574         1         0     29577         1         0     29580         1         0
     29583         1         0     29586         1         0     29589         1         0
     29592         1         0     29595         1         0     29598         1         0
     29601         1         0     29604         1         0     29607         1         0
     29610         1         0     29613         1         0     29616         1         0
     29619         1         0     29622         1         0     29625         1         0
     29628         1         0     29631         1         0     29634         1         0
     29637         1         0     29640         1         0     29643         1         0
     29646         1         0     29649         1         0     29652         1         0
     29655         1         0     29658         1         0     29661         1         0
     29664         1         0     29667         1         0     29670         1         0
     29673         1         0     29676         1         0     29679         1         0
     29682         1         0     29685         1         0     29688         1         0
     29691         1         0     29694         1         0     29697         1         0
     29700         1         0     29703         1         0     29706         1         0
     29709         1         0     29712         1         0     29715         1         0
     29718         1         0     29721         1         0     29724         1         0
     29727         1         0     29730         1         0     29733         1         0
     29736         1         0     29739         1         0     29742         1         0
     29745         1         0     29748         1         0     29751         1         0
     29754         1         0     29757         1         0     29760         1         0
     29763         1         0     29766         1         0     29769         1         0
     29772         1         0     29775         1         0     29778         1         0
     29781         1         0     29784         1         0     29787         1         0
     29790         1         0     29793         1         0     29796         1         0
     29799         1         0     29802         1         0     29805         1         0
     29808         1         0     29811         1         0     29814         1         0
     29817         1         0     29820         1         0     29823         1         0
     29826         1         0     29829         1         0     29832         1         0
     29835         1         0     29838         1         0     29841         1         0
     29844         1         0     29847         1         0     29850         1         0
     29853         1         0     29856         1         0     29859         1         0
     29862         1         0     29865         1         0     29868         1         0
     29871         1         0     29874         1         0     29877         1         0
     29880         1         0     29883         1         0     29886         1         0
     29889         1         0     29892         1         0     29895         1         0
     29898         1         0     29901         1         0     29904         1         0
     29907         1         0     29910         1         0     29913         1         0
     29916         1         0     29919         1         0     29922         1         0
     29925         1         0     29928         1         0     29931         1         0
     29934         1         0     29937         1         0     29940         1         0
     29943         1         0     29946         1         0     29949         1         0
     29952         1         0     29955         1         0     29958         1         0
     29961         1         0     29964         1         0     29967         1         0
     29970         1         0     29973         1         0     29976         1         0
     29979         1         0     29982         1         0     29985         1         0
     29988         1         0     29991         1         0     29994         1         0
     29997         1         0     30000         1         0     30003         1         0
     30006         1         0     30009         1         0     30012         1         0
     30015         1         0     30018         1         0     30021         1         0
     30024         1         0     30027         1         0     30030         1         0
     30033         1         0     30036         1         0     30039         1         0
     30042         1         0     30045         1         0     30048         1         0
     30051         1         0     30054         1         0     30057         1         0
     30060         1         0     30063         1         0     30066         1         0
     30069         1         0     30072         1         0     30075         1         0
     30078         1         0     30081         1         0     30084         1         0
     30087         1         0     30090         1         0     30093         1         0
     30096         1         0     30099         1         0     30102         1         0
     30105         1         0     30108         1         0     30111         1         0
     30114         1         0     30117         1         0     30120         1         0
     30123         1         0     30126         1         0     30129         1         0
     30132         1         0     30135         1         0     30138         1         0
     30141         1         0     30144         1         0     30147         1         0
     30150         1         0     30153         1         0     30156         1         0
     30159         1         0     30162         1         0     30165         1         0
     30168         1         0     30171         1         0     30174         1         0
     30177         1         0     30180         1         0     30183         1         0
     30186         1         0     30189         1         0     30192         1         0
     30195         1         0     30198         1         0     30201         1         0
     30204         1         0     30207         1         0     30210         1         0
     30213         1         0     30216         1         0     30219         1         0
     30222         1         0     30225         1         0     30228         1         0
     30231         1         0     30234         1         0     30237         1         0
     30240         1         0     30243         1         0     30246         1         0
     30249         1         0     30252         1         0     30255         1         0
     30258         1         0     30261         1         0     30264         1         0
     30267         1         0     30270         1         0     30273         1         0
     30276         1         0     30279         1         0     30282         1         0
     30285         1         0     30288         1         0     30291         1         0
     30294         1         0     30297         1         0     30300         1         0
     30303         1         0     30306         1         0     30309         1         0
     30312         1         0     30315         1         0     30318         1         0
     30321         1         0     30324         1         0     30327         1         0
     30330         1         0     30333         1         0     30336         1         0
     30339         1         0     30342         1         0     30345         1         0
     30348         1         0     30351         1         0     30354         1         0
     30357         1         0     30360         1         0     30363         1         0
     30366         1         0     30369         1         0     30372         1         0
     30375         1         0     30378         1         0     30381         1         0
     30384         1         0     30387         1         0     30390         1         0
     30393         1         0     30396         1         0     30399         1         0
     30402         1         0     30405         1         0     30408         1         0
     30411         1         0     30414         1         0     30417         1         0
     30420         1         0     30423         1         0     30426         1         0
     30429         1         0     30432         1         0     30435         1         0
     30438         1         0     30441         1         0     30444         1         0
     30447         1         0     30450         1         0     30453         1         0
     30456         1         0     30459         1         0     30462         1         0
     30465         1         0     30468         1         0     30471         1         0
     30474         1         0     30477         1         0     30480         1         0
     30483         1         0     30486         1         0     30489         1         0
     30492         1         0     30495         1         0     30498         1         0
     30501         1         0     30504         1         0     30507         1         0
     30510         1         0     30513         1         0     30516         1         0
     30519         1         0     30522         1         0     30525         1         0
     30528         1         0     30531         1         0     30534         1         0
     30537         1         0     30540         1         0     30543         1         0
     30546         1         0     30549         1         0     30552         1         0
     30555         1         0     30558         1         0     30561         1         0
     30564         1         0     30567         1         0     30570         1         0
     30573         1         0     30576         1         0     30579         1         0
     30582         1         0     30585         1         0     30588         1         0
     30591         1         0     30594         1         0     30597         1         0
     30600         1         0     30603         1         0     30606         1         0
     30609         1         0     30612         1         0     30615         1         0
     30618         1         0     30621         1         0     30624         1         0
     30627         1         0     30630         1         0     30633         1         0
     30636         1         0     30639         1         0     30642         1         0
     30645         1         0     30648         1         0     30651         1         0
     30654         1         0     30657         1         0     30660         1         0
     30663         1         0     30666         1         0     30669         1         0
     30672         1         0     30675         1         0     30678         1         0
     30681         1         0     30684         1         0     30687         1         0
     30690         1         0     30693         1         0     30696         1         0
     30699         1         0     30702         1         0     30705         1         0
     30708         1         0     30711         1         0     30714         1         0
     30717         1         0     30720         1         0     30723         1         0
     30726         1         0     30729         1         0     30732         1         0
     30735         1         0     30738         1         0     30741         1         0
     30744         1         0     30747         1         0     30750         1         0
     30753         1         0     30756         1         0     30759         1         0
     30762         1         0     30765         1         0     30768         1         0
     30771         1         0     30774         1         0     30777         1         0
     30780         1         0     30783         1         0     30786         1         0
     30789         1         0     30792         1         0     30795         1         0
     30798         1         0     30801         1         0     30804         1         0
     30807         1         0     30810         1         0     30813         1         0
     30816         1         0     30819         1         0     30822         1         0
     30825         1         0     30828         1         0     30831         1         0
     30834         1         0     30837         1         0     30840         1         0
     30843         1         0     30846         1         0     30849         1         0
     30852         1         0     30855         1         0     30858         1         0
     30861         1         0     30864         1         0     30867         1         0
     30870         1         0     30873         1         0     30876         1         0
     30879         1         0     30882         1         0     30885         1         0
     30888         1         0     30891         1         0     30894         1         0
     30897         1         0     30900         1         0     30903         1         0
     30906         1         0     30909         1         0     30912         1         0
     30915         1         0     30918         1         0     30921         1         0
     30924         1         0     30927         1         0     30930         1         0
     30933         1         0     30936         1         0     30939         1         0
     30942         1         0     30945         1         0     30948         1         0
     30951         1         0     30954         1         0     30957         1         0
     30960         1         0     30963         1         0     30966         1         0
     30969         1         0     30972         1         0     30975         1         0
     30978         1         0     30981         1         0     30984         1         0
     30987         1         0     30990         1         0     30993         1         0
     30996         1         0     30999         1         0     31002         1         0
     31005         1         0     31008         1         0     31011         1         0
     31014         1         0     31017         1         0     31020         1         0
     31023         1         0     31026         1         0     31029         1         0
     31032         1         0     31035         1         0     31038         1         0
     31041         1         0     31044         1         0     31047         1         0
     31050         1         0     31053         1         0     31056         1         0
     31059         1         0     31062         1         0     31065         1         0
     31068         1         0     31071         1         0     31074         1         0
     31077         1         0     31080         1         0     31083         1         0
     31086         1         0     31089         1         0     31092         1         0
     31095         1         0     31098         1         0     31101         1         0
     31104         1         0     31107         1         0     31110         1         0
     31113         1         0     31116         1         0     31119         1         0
     31122         1         0     31125         1         0     31128         1         0
     31131         1         0     31134         1         0     31137         1         0
     31140         1         0     31143         1         0     31146         1         0
     31149         1         0     31152         1         0     31155         1         0
     31158         1         0     31161         1         0     31164         1         0
     31167         1         0     31170         1         0     31173         1         0
     31176         1         0     31179         1         0     31182         1         0
     31185         1         0     31188         1         0     31191         1         0
     31194         1         0     31197         1         0     31200         1         0
     31203         1         0     31206         1         0     31209         1         0
     31212         1         0     31215         1         0     31218         1         0
     31221         1         0     31224         1         0     31227         1         0
     31230         1         0     31233         1         0     31236         1         0
     31239         1         0     31242         1         0     31245         1         0
     31248         1         0     31251         1         0     31254         1         0
     31257         1         0     31260         1         0     31263         1         0
     31266         1         0     31269         1         0     31272         1         0
     31275         1         0     31278         1         0     31281         1         0
     31284         1         0     31287         1         0     31290         1         0
     31293         1         0     31296         1         0     31299         1         0
     31302         1         0     31305         1         0     31308         1         0
     31311         1         0     31314         1         0     31317         1         0
     31320         1         0     31323         1         0     31326         1         0
     31329         1         0     31332         1         0     31335         1         0
     31338         1         0     31341         1         0     31344         1         0
     31347         1         0     31350         1         0     31353         1         0
     31356         1         0     31359         1         0     31362         1         0
     31365         1         0     31368         1         0     31371         1         0
     31374         1         0     31377         1         0     31380         1         0
     31383         1         0     31386         1         0     31389         1         0
     31392         1         0     31395         1         0     31398         1         0
     31401         1         0     31404         1         0     31407         1         0
     31410         1         0     31413         1         0     31416         1         0
     31419         1         0     31422         1         0     31425         1         0
     31428         1         0     31431         1         0     31434         1         0
     31437         1         0     31440         1         0     31443         1         0
     31446         1         0     31449         1         0     31452         1         0
     31455         1         0     31458         1         0     31461         1         0
     31464         1         0     31467         1         0     31470         1         0
     31473         1         0     31476         1         0     31479         1         0
     31482         1         0     31485         1         0     31488         1         0
     31491         1         0     31494         1         0     31497         1         0
     31500         1         0     31503         1         0     31506         1         0
     31509         1         0     31512         1         0     31515         1         0
     31518         1         0     31521         1         0     31524         1         0
     31527         1         0     31530         1         0     31533         1         0
     31536         1         0     31539         1         0     31542         1         0
     31545         1         0     31548         1         0     31551         1         0
     31554         1         0     31557         1         0     31560         1         0
     31563         1         0     31566         1         0     31569         1         0
     31572         1         0     31575         1         0     31578         1         0
     31581         1         0     31584         1         0     31587         1         0
     31590         1         0     31593         1         0     31596         1         0
     31599         1         0     31602         1         0     31605         1         0
     31608         1         0     31611         1         0     31614         1         0
     31617         1         0     31620         1         0     31623         1         0
     31626         1         0     31629         1         0     31632         1         0
     31635         1         0     31638         1         0     31641         1         0
     31644         1         0     31647         1         0     31650         1         0
     31653         1         0     31656         1         0     31659         1         0
     31662         1         0     31665         1         0     31668         1         0
     31671         1         0     31674         1         0     31677         1         0
     31680         1         0     31683         1         0     31686         1         0
     31689         1         0     31692         1         0     31695         1         0
     31698         1         0     31701         1         0     31704         1         0
     31707         1         0     31710         1         0     31713         1         0
     31716         1         0     31719         1         0     31722         1         0
     31725         1         0     31728         1         0     31731         1         0
     31734         1         0     31737         1         0     31740         1         0
     31743         1         0     31746         1         0     31749         1         0
     31752         1         0     31755         1         0     31758         1         0
     31761         1         0     31764         1         0     31767         1         0
     31770         1         0     31773         1         0     31776         1         0
     31779         1         0     31782         1         0     31785         1         0
     31788         1         0     31791         1         0     31794         1         0
     31797         1         0     31800         1         0     31803         1         0
     31806         1         0     31809         1         0     31812         1         0
     31815         1         0     31818         1         0     31821         1         0
     31824         1         0     31827         1         0     31830         1         0
     31833         1         0     31836         1         0     31839         1         0
     31842         1         0     31845         1         0     31848         1         0
     31851         1         0     31854         1         0     31857         1         0
     31860         1         0     31863         1         0     31866         1         0
     31869         1         0     31872         1         0     31875         1         0
     31878         1         0     31881         1         0     31884         1         0
     31887         1         0     31890         1         0     31893         1         0
     31896         1         0     31899         1         0     31902         1         0
     31905         1         0     31908         1         0     31911         1         0
     31914         1         0     31917         1         0     31920         1         0
     31923         1         0     31926         1         0     31929         1         0
     31932         1         0     31935         1         0     31938         1         0
     31941         1         0     31944         1         0     31947         1         0
     31950         1         0     31953         1         0     31956         1         0
     31959         1         0     31962         1         0     31965         1         0
     31968         1         0     31971         1         0     31974         1         0
     31977         1         0     31980         1         0     31983         1         0
     31986         1         0     31989         1         0     31992         1         0
     31995         1         0     31998         1         0     32001         1         0
     32004         1         0     32007         1         0     32010         1         0
     32013         1         0     32016         1         0     32019         1         0
     32022         1         0     32025         1         0     32028         1         0
     32031         1         0     32034         1         0     32037         1         0
     32040         1         0     32043         1         0     32046         1         0
     32049         1         0     32052         1         0     32055         1         0
     32058         1         0     32061         1         0     32064         1         0
     32067         1         0     32070         1         0     32073         1         0
     32076         1         0     32079         1         0     32082         1         0
     32085         1         0     32088         1         0     32091         1         0
     32094         1         0     32097         1         0     32100         1         0
     32103         1         0     32106         1         0     32109         1         0
     32112         1         0     32115         1         0     32118         1         0
     32121         1         0     32124         1         0     32127         1         0
     32130         1         0     32133         1         0     32136         1         0
     32139         1         0     32142         1         0     32145         1         0
     32148         1         0     32151         1         0     32154         1         0
     32157         1         0     32160         1         0     32163         1         0
     32166         1         0     32169         1         0     32172         1         0
     32175         1         0     32178         1         0     32181         1         0
     32184         1         0     32187         1         0     32190         1         0
     32193         1         0     32196         1         0     32199         1         0
     32202         1         0     32205         1         0     32208         1         0
     32211         1         0     32214         1         0     32217         1         0
     32220         1         0     32223         1         0     32226         1         0
     32229         1         0     32232         1         0     32235         1         0
     32238         1         0     32241         1         0     32244         1         0
     32247         1         0     32250         1         0     32253         1         0
     32256         1         0     32259         1         0     32262         1         0
     32265         1         0     32268         1         0     32271         1         0
     32274         1         0     32277         1         0     32280         1         0
     32283         1         0     32286         1         0     32289         1         0
     32292         1         0     32295         1         0     32298         1         0
     32301         1         0     32304         1         0     32307         1         0
     32310         1         0     32313         1         0     32316         1         0
     32319         1         0     32322         1         0     32325         1         0
     32328         1         0     32331         1         0     32334         1         0
     32337         1         0     32340         1         0     32343         1         0
     32346         1         0     32349         1         0     32352         1         0
     32355         1         0     32358         1         0     32361         1         0
     32364         1         0     32367         1         0     32370         1         0
     32373         1         0     32376         1         0     32379         1         0
     32382         1         0     32385         1         0     32388         1         0
     32391         1         0     32394         1         0     32397         1         0
     32400         1         0     32403         1         0     32406         1         0
     32409         1         0     32412         1         0     32415         1         0
     32418         1         0     32421         1         0     32424         1         0
     32427         1         0     32430         1         0     32433         1         0
     32436         1         0     32439         1         0     32442         1         0
     32445         1         0     32448         1         0     32451         1         0
     32454         1         0     32457         1         0     32460         1         0
     32463         1         0     32466         1         0     32469         1         0
     32472         1         0     32475         1         0     32478         1         0
     32481         1         0     32484         1         0     32487         1         0
     32490         1         0     32493         1         0     32496         1         0
     32499         1         0     32502         1         0     32505         1         0
     32508         1         0     32511         1         0     32514         1         0
     32517         1         0     32520         1         0     32523         1         0
     32526         1         0     32529         1         0     32532         1         0
     32535         1         0     32538         1         0     32541         1         0
     32544         1         0     32547         1         0     32550         1         0
     32553         1         0     32556         1         0     32559         1         0
     32562         1         0     32565         1         0     32568         1         0
     32571         1         0     32574         1         0     32577         1         0
     32580         1         0     32583         1         0     32586         1         0
     32589         1         0     32592         1         0     32595         1         0
     32598         1         0     32601         1         0     32604         1         0
     32607         1         0     32610         1         0     32613         1         0
     32616         1         0     32619         1         0     32622         1         0
     32625         1         0     32628         1         0     32631         1         0
     32634         1         0     32637         1         0     32640         1         0
     32643         1         0     32646         1         0     32649         1         0
     32652         1         0     32655         1         0     32658         1         0
     32661         1         0     32664         1         0     32667         1         0
     32670         1         0     32673         1         0     32676         1         0
     32679         1         0     32682         1         0     32685         1         0
     32688         1         0     32691         1         0     32694         1         0
     32697         1         0     32700         1         0     32703         1         0
     32706         1         0     32709         1         0     32712         1         0
     32715         1         0     32718         1         0     32721         1         0
     32724         1         0     32727         1         0     32730         1         0
     32733         1         0     32736         1         0     32739         1         0
     32742         1         0     32745         1         0     32748         1         0
     32751         1         0     32754         1         0     32757         1         0
     32760         1         0     32763         1         0     32766         1         0
     32769         1         0     32772         1         0     32775         1         0
     32778         1         0     32781         1         0     32784         1         0
     32787         1         0     32790         1         0     32793         1         0
     32796         1         0     32799         1         0     32802         1         0
     32805         1         0     32808         1         0     32811         1         0
     32814         1         0     32817         1         0     32820         1         0
     32823         1         0     32826         1         0     32829         1         0
     32832         1         0     32835         1         0     32838         1         0
     32841         1         0     32844         1         0     32847         1         0
     32850         1         0     32853         1         0     32856         1         0
     32859         1         0     32862         1         0     32865         1         0
     32868         1         0     32871         1         0     32874         1         0
     32877         1         0     32880         1         0     32883         1         0
     32886         1         0     32889         1         0     32892         1         0
     32895         1         0     32898         1         0     32901         1         0
     32904         1         0     32907         1         0     32910         1         0
     32913         1         0     32916         1         0     32919         1         0
     32922         1         0     32925         1         0     32928         1         0
     32931         1         0     32934         1         0     32937         1         0
     32940         1         0     32943         1         0     32946         1         0
     32949         1         0     32952         1         0     32955         1         0
     32958         1         0     32961         1         0     32964         1         0
     32967         1         0     32970         1         0     32973         1         0
     32976         1         0     32979         1         0     32982         1         0
     32985         1         0     32988         1         0     32991         1         0
     32994         1         0     32997         1         0     33000         1         0
     33003         1         0     33006         1         0     33009         1         0
     33012         1         0     33015         1         0     33018         1         0
     33021         1         0     33024         1         0     33027         1         0
     33030         1         0     33033         1         0     33036         1         0
     33039         1         0     33042         1         0     33045         1         0
     33048         1         0     33051         1         0     33054         1         0
     33057         1         0     33060         1         0     33063         1         0
     33066         1         0     33069         1         0     33072         1         0
     33075         1         0     33078         1         0     33081         1         0
     33084         1         0     33087         1         0     33090         1         0
     33093         1         0     33096         1         0     33099         1         0
     33102         1         0     33105         1         0     33108         1         0
     33111         1         0     33114         1         0     33117         1         0
     33120         1         0     33123         1         0     33126         1         0
     33129         1         0     33132         1         0     33135         1         0
     33138         1         0     33141         1         0     33144         1         0
     33147         1         0     33150         1         0     33153         1         0
     33156         1         0     33159         1         0     33162         1         0
     33165         1         0     33168         1         0     33171         1         0
     33174         1         0     33177         1         0     33180         1         0
     33183         1         0     33186         1         0     33189         1         0
     33192         1         0     33195         1         0     33198         1         0
     33201         1         0     33204         1         0     33207         1         0
     33210         1         0     33213         1         0     33216         1         0
     33219         1         0     33222         1         0     33225         1         0
     33228         1         0     33231         1         0     33234         1         0
     33237         1         0     33240         1         0     33243         1         0
     33246         1         0     33249         1         0     33252         1         0
     33255         1         0     33258         1         0     33261         1         0
     33264         1         0     33267         1         0     33270         1         0
     33273         1         0     33276         1         0     33279         1         0
     33282         1         0     33285         1         0     33288         1         0
     33291         1         0     33294         1         0     33297         1         0
     33300         1         0     33303         1         0     33306         1         0
     33309         1         0     33312         1         0     33315         1         0
     33318         1         0     33321         1         0     33324         1         0
     33327         1         0     33330         1         0     33333         1         0
     33336         1         0     33339         1         0     33342         1         0
     33345         1         0     33348         1         0     33351         1         0
     33354         1         0     33357         1         0     33360         1         0
     33363         1         0     33366         1         0     33369         1         0
     33372         1         0     33375         1         0     33378         1         0
     33381         1         0     33384         1         0     33387         1         0
     33390         1         0     33393         1         0     33396         1         0
     33399         1         0     33402         1         0     33405         1         0
     33408         1         0     33411         1         0     33414         1         0
     33417         1         0     33420         1         0     33423         1         0
     33426         1         0     33429         1         0     33432         1         0
     33435         1         0     33438         1         0     33441         1         0
     33444         1         0     33447         1         0     33450         1         0
     33453         1         0     33456         1         0     33459         1         0
     33462         1         0     33465         1         0     33468         1         0
     33471         1         0     33474         1         0     33477         1         0
     33480         1         0     33483         1         0     33486         1         0
     33489         1         0     33492         1         0     33495         1         0
     33498         1         0     33501         1         0     33504         1         0
     33507         1         0     33510         1         0     33513         1         0
     33516         1         0     33519         1         0     33522         1         0
     33525         1         0     33528         1         0     33531         1         0
     33534         1         0     33537         1         0     33540         1         0
     33543         1         0     33546         1         0     33549         1         0
     33552         1         0     33555         1         0     33558         1         0
     33561         1         0     33564         1         0     33567         1         0
     33570         1         0     33573         1         0     33576         1         0
     33579         1         0     33582         1         0     33585         1         0
     33588         1         0     33591         1         0     33594         1         0
     33597         1         0     33600         1         0     33603         1         0
     33606         1         0     33609         1         0     33612         1         0
     33615         1         0     33618         1         0     33621         1         0
     33624         1         0     33627         1         0     33630         1         0
     33633         1         0     33636         1         0     33639         1         0
     33642         1         0     33645         1         0     33648         1         0
     33651         1         0     33654         1         0     33657         1         0
     33660         1         0     33663         1         0     33666         1         0
     33669         1         0     33672         1         0     33675         1         0
     33678         1         0     33681         1         0     33684         1         0
     33687         1         0     33690         1         0     33693         1         0
     33696         1         0     33699         1         0     33702         1         0
     33705         1         0     33708         1         0     33711         1         0
     33714         1         0     33717         1         0     33720         1         0
     33723         1         0     33726         1         0     33729         1         0
     33732         1         0     33735         1         0     33738         1         0
     33741         1         0     33744         1         0     33747         1         0
     33750         1         0     33753         1         0     33756         1         0
     33759         1         0     33762         1         0     33765         1         0
     33768         1         0     33771         1         0     33774         1         0
     33777         1         0     33780         1         0     33783         1         0
     33786         1         0     33789         1         0     33792         1         0
     33795         1         0     33798         1         0     33801         1         0
     33804         1         0     33807         1         0     33810         1         0
     33813         1         0     33816         1         0     33819         1         0
     33822         1         0     33825         1         0     33828         1         0
     33831         1         0     33834         1         0     33837         1         0
     33840         1         0     33843         1         0     33846         1         0
     33849         1         0     33852         1         0     33855         1         0
     33858         1         0     33861         1         0     33864         1         0
     33867         1         0     33870         1         0     33873         1         0
     33876         1         0     33879         1         0     33882         1         0
     33885         1         0     33888         1         0     33891         1         0
     33894         1         0     33897         1         0     33900         1         0
     33903         1         0     33906         1         0     33909         1         0
     33912         1         0     33915         1         0     33918         1         0
     33921         1         0     33924         1         0     33927         1         0
     33930         1         0     33933         1         0     33936         1         0
     33939         1         0     33942         1         0     33945         1         0
     33948         1         0     33951         1         0     33954         1         0
     33957         1         0     33960         1         0     33963         1         0
     33966         1         0     33969         1         0     33972         1         0
     33975         1         0     33978         1         0     33981         1         0
     33984         1         0     33987         1         0     33990         1         0
     33993         1         0     33996         1         0     33999         1         0
     34002         1         0     34005         1         0     34008         1         0
     34011         1         0     34014         1         0     34017         1         0
     34020         1         0     34023         1         0     34026         1         0
     34029         1         0     34032         1         0     34035         1         0
     34038         1         0     34041         1         0     34044         1         0
     34047         1         0     34050         1         0     34053         1         0
     34056         1         0     34059         1         0     34062         1         0
     34065         1         0     34068         1         0     34071         1         0
     34074         1         0     34077         1         0     34080         1         0
     34083         1         0     34086         1         0     34089         1         0
     34092         1         0     34095         1         0     34098         1         0
     34101         1         0     34104         1         0     34107         1         0
     34110         1         0     34113         1         0     34116         1         0
     34119         1         0     34122         1         0     34125         1         0
     34128         1         0     34131         1         0     34134         1         0
     34137         1         0     34140         1         0     34143         1         0
     34146         1         0     34149         1         0     34152         1         0
     34155         1         0     34158         1         0     34161         1         0
     34164         1         0     34167         1         0     34170         1         0
     34173         1         0     34176         1         0     34179         1         0
     34182         1         0     34185         1         0     34188         1         0
     34191         1         0     34194         1         0     34197         1         0
     34200         1         0     34203         1         0     34206         1         0
     34209         1         0     34212         1         0     34215         1         0
     34218         1         0     34221         1         0     34224         1         0
     34227         1         0     34230         1         0     34233         1         0
     34236         1         0     34239         1         0     34242         1         0
     34245         1         0     34248         1         0     34251         1         0
     34254         1         0     34257         1         0     34260         1         0
     34263         1         0     34266         1         0     34269         1         0
     34272         1         0     34275         1         0     34278         1         0
     34281         1         0     34284         1         0     34287         1         0
     34290         1         0     34293         1         0     34296         1         0
     34299         1         0     34302         1         0     34305         1         0
     34308         1         0     34311         1         0     34314         1         0
     34317         1         0     34320         1         0     34323         1         0
     34326         1         0     34329         1         0     34332         1         0
     34335         1         0     34338         1         0     34341         1         0
     34344         1         0     34347         1         0     34350         1         0
     34353         1         0     34356         1         0     34359         1         0
     34362         1         0     34365         1         0     34368         1         0
     34371         1         0     34374         1         0     34377         1         0
     34380         1         0     34383         1         0     34386         1         0
     34389         1         0     34392         1         0     34395         1         0
     34398         1         0     34401         1         0     34404         1         0
     34407         1         0     34410         1         0     34413         1         0
     34416         1         0     34419         1         0     34422         1         0
     34425         1         0     34428         1         0     34431         1         0
     34434         1         0     34437         1         0     34440         1         0
     34443         1         0     34446         1         0     34449         1         0
     34452         1         0     34455         1         0     34458         1         0
     34461         1         0     34464         1         0     34467         1         0
     34470         1         0     34473         1         0     34476         1         0
     34479         1         0     34482         1         0     34485         1         0
     34488         1         0     34491         1         0     34494         1         0
     34497         1         0     34500         1         0     34503         1         0
     34506         1         0     34509         1         0     34512         1         0
     34515         1         0     34518         1         0     34521         1         0
     34524         1         0     34527         1         0     34530         1         0
     34533         1         0     34536         1         0     34539         1         0
     34542         1         0     34545         1         0     34548         1         0
     34551         1         0     34554         1         0     34557         1         0
     34560         1         0     34563         1         0     34566         1         0
     34569         1         0     34572         1         0     34575         1         0
     34578         1         0     34581         1         0     34584         1         0
     34587         1         0     34590         1         0     34593         1         0
     34596         1         0     34599         1         0     34602         1         0
     34605         1         0     34608         1         0     34611         1         0
     34614         1         0     34617         1         0     34620         1         0
     34623         1         0     34626         1         0     34629         1         0
     34632         1         0     34635         1         0     34638         1         0
     34641         1         0     34644         1         0     34647         1         0
     34650         1         0     34653         1         0     34656         1         0
     34659         1         0     34662         1         0     34665         1         0
     34668         1         0     34671         1         0     34674         1         0
     34677         1         0     34680         1         0     34683         1         0
     34686         1         0     34689         1         0     34692         1         0
     34695         1         0     34698         1         0     34701         1         0
     34704         1         0     34707         1         0     34710         1         0
     34713         1         0     34716         1         0     34719         1         0
     34722         1         0     34725         1         0     34728         1         0
     34731         1         0     34734         1         0     34737         1         0
     34740         1         0     34743         1         0     34746         1         0
     34749         1         0     34752         1         0     34755         1         0
     34758         1         0     34761         1         0     34764         1         0
     34767         1         0     34770         1         0     34773         1         0
     34776         1         0     34779         1         0     34782         1         0
     34785         1         0     34788         1         0     34791         1         0
     34794         1         0     34797         1         0     34800         1         0
     34803         1         0     34806         1         0     34809         1         0
     34812         1         0     34815         1         0     34818         1         0
     34821         1         0     34824         1         0     34827         1         0
     34830         1         0     34833         1         0     34836         1         0
     34839         1         0     34842         1         0     34845         1         0
     34848         1         0     34851         1         0     34854         1         0
     34857         1         0     34860         1         0     34863         1         0
     34866         1         0     34869         1         0     34872         1         0
     34875         1         0     34878         1         0     34881         1         0
     34884         1         0     34887         1         0     34890         1         0
     34893         1         0     34896         1         0     34899         1         0
     34902         1         0     34905         1         0     34908         1         0
     34911         1         0     34914         1         0     34917         1         0
     34920         1         0     34923         1         0     34926         1         0
     34929         1         0     34932         1         0     34935         1         0
     34938         1         0     34941         1         0     34944         1         0
     34947         1         0     34950         1         0     34953         1         0
     34956         1         0     34959         1         0     34962         1         0
     34965         1         0     34968         1         0     34971         1         0
     34974         1         0     34977         1         0     34980         1         0
     34983         1         0     34986         1         0     34989         1         0
     34992         1         0     34995         1         0     34998         1         0
     35001         1         0     35004         1         0     35007         1         0
     35010         1         0     35013         1         0     35016         1         0
     35019         1         0     35022         1         0     35025         1         0
     35028         1         0     35031         1         0     35034         1         0
     35037         1         0     35040         1         0     35043         1         0
     35046         1         0     35049         1         0     35052         1         0
     35055         1         0     35058         1         0     35061         1         0
     35064         1         0     35067         1         0     35070         1         0
     35073         1         0     35076         1         0     35079         1         0
     35082         1         0     35085         1         0     35088         1         0
     35091         1         0     35094         1         0     35097         1         0
     35100         1         0     35103         1         0     35106         1         0
     35109         1         0     35112         1         0     35115         1         0
     35118         1         0     35121         1         0     35124         1         0
     35127         1         0     35130         1         0     35133         1         0
     35136         1         0     35139         1         0     35142         1         0
     35145         1         0     35148         1         0     35151         1         0
     35154         1         0     35157         1         0     35160         1         0
     35163         1         0     35166         1         0     35169         1         0
     35172         1         0     35175         1         0     35178         1         0
     35181         1         0     35184         1         0     35187         1         0
     35190         1         0     35193         1         0     35196         1         0
     35199         1         0     35202         1         0     35205         1         0
     35208         1         0     35211         1         0     35214         1         0
     35217         1         0     35220         1         0     35223         1         0
     35226         1         0     35229         1         0     35232         1         0
     35235         1         0     35238         1         0     35241         1         0
     35244         1         0     35247         1         0     35250         1         0
     35253         1         0     35256         1         0     35259         1         0
     35262         1         0     35265         1         0     35268         1         0
     35271         1         0     35274         1         0     35277         1         0
     35280         1         0     35283         1         0     35286         1         0
     35289         1         0     35292         1         0     35295         1         0
     35298         1         0     35301         1         0     35304         1         0
     35307         1         0     35310         1         0     35313         1         0
     35316         1         0     35319         1         0     35322         1         0
     35325         1         0     35328         1         0     35331         1         0
     35334         1         0     35337         1         0     35340         1         0
     35343         1         0     35346         1         0     35349         1         0
     35352         1         0     35355         1         0     35358         1         0
     35361         1         0     35364         1         0     35367         1         0
     35370         1         0     35373         1         0     35376         1         0
     35379         1         0     35382         1         0     35385         1         0
     35388         1         0     35391         1         0     35394         1         0
     35397         1         0     35400         1         0     35403         1         0
     35406         1         0     35409         1         0     35412         1         0
     35415         1         0     35418         1         0     35421         1         0
     35424         1         0     35427         1         0     35430         1         0
     35433         1         0     35436         1         0     35439         1         0
     35442         1         0     35445         1         0     35448         1         0
     35451         1         0     35454         1         0     35457         1         0
     35460         1         0     35463         1         0     35466         1         0
     35469         1         0     35472         1         0     35475         1         0
     35478         1         0     35481         1         0     35484         1         0
     35487         1         0     35490         1         0     35493         1         0
     35496         1         0     35499         1         0     35502         1         0
     35505         1         0     35508         1         0     35511         1         0
     35514         1         0     35517         1         0     35520         1         0
     35523         1         0     35526         1         0     35529         1         0
     35532         1         0     35535         1         0     35538         1         0
     35541         1         0     35544         1         0     35547         1         0
     35550         1         0     35553         1         0     35556         1         0
     35559         1         0     35562         1         0     35565         1         0
     35568         1         0     35571         1         0     35574         1         0
     35577         1         0     35580         1         0     35583         1         0
     35586         1         0     35589         1         0     35592         1         0
     35595         1         0     35598         1         0     35601         1         0
     35604         1         0     35607         1         0     35610         1         0
     35613         1         0     35616         1         0     35619         1         0
     35622         1         0     35625         1         0     35628         1         0
     35631         1         0     35634         1         0     35637         1         0
     35640         1         0     35643         1         0     35646         1         0
     35649         1         0     35652         1         0     35655         1         0
     35658         1         0     35661         1         0     35664         1         0
     35667         1         0     35670         1         0     35673         1         0
     35676         1         0     35679         1         0     35682         1         0
     35685         1         0     35688         1         0     35691         1         0
     35694         1         0     35697         1         0     35700         1         0
     35703         1         0     35706         1         0     35709         1         0
     35712         1         0     35715         1         0     35718         1         0
     35721         1         0     35724         1         0     35727         1         0
     35730         1         0     35733         1         0     35736         1         0
     35739         1         0     35742         1         0     35745         1         0
     35748         1         0     35751         1         0     35754         1         0
     35757         1         0     35760         1         0     35763         1         0
     35766         1         0     35769         1         0     35772         1         0
     35775         1         0     35778         1         0     35781         1         0
     35784         1         0     35787         1         0     35790         1         0
     35793         1         0     35796         1         0     35799         1         0
     35802         1         0     35805         1         0     35808         1         0
     35811         1         0     35814         1         0     35817         1         0
     35820         1         0     35823         1         0     35826         1         0
     35829         1         0     35832         1         0     35835         1         0
     35838         1         0     35841         1         0     35844         1         0
     35847         1         0     35850         1         0     35853         1         0
     35856         1         0     35859         1         0     35862         1         0
     35865         1         0     35868         1         0     35871         1         0
     35874         1         0     35877         1         0     35880         1         0
     35883         1         0     35886         1         0     35889         1         0
     35892         1         0     35895         1         0     35898         1         0
     35901         1         0     35904         1         0     35907         1         0
     35910         1         0     35913         1         0     35916         1         0
     35919         1         0     35922         1         0     35925         1         0
     35928         1         0     35931         1         0     35934         1         0
     35937         1         0     35940         1         0     35943         1         0
     35946         1         0     35949         1         0     35952         1         0
     35955         1         0     35958         1         0     35961         1         0
     35964         1         0     35967         1         0     35970         1         0
     35973         1         0     35976         1         0     35979         1         0
     35982         1         0     35985         1         0     35988         1         0
     35991         1         0     35994         1         0     35997         1         0
     36000         1         0     36003         1         0     36006         1         0
     36009         1         0     36012         1         0     36015         1         0
     36018         1         0     36021         1         0     36024         1         0
     36027         1         0     36030         1         0     36033         1         0
     36036         1         0     36039         1         0     36042         1         0
     36045         1         0     36048         1         0     36051         1         0
     36054         1         0     36057         1         0     36060         1         0
     36063         1         0     36066         1         0     36069         1         0
     36072         1         0     36075         1         0     36078         1         0
     36081         1         0     36084         1         0     36087         1         0
     36090         1         0     36093         1         0     36096         1         0
     36099         1         0     36102         1         0     36105         1         0
     36108         1         0     36111         1         0     36114         1         0
     36117         1         0     36120         1         0     36123         1         0
     36126         1         0     36129         1         0     36132         1         0
     36135         1         0     36138         1         0     36141         1         0
     36144         1         0     36147         1         0     36150         1         0
     36153         1         0     36156         1         0     36159         1         0
     36162         1         0     36165         1         0     36168         1         0
     36171         1         0     36174         1         0     36177         1         0
     36180         1         0     36183         1         0     36186         1         0
     36189         1         0     36192         1         0     36195         1         0
     36198         1         0     36201         1         0     36204         1         0
     36207         1         0     36210         1         0     36213         1         0
     36216         1         0     36219         1         0     36222         1         0
     36225         1         0     36228         1         0     36231         1         0
     36234         1         0     36237         1         0     36240         1         0
     36243         1         0     36246         1         0     36249         1         0
     36252         1         0     36255         1         0     36258         1         0
     36261         1         0     36264         1         0     36267         1         0
     36270         1         0     36273         1         0     36276         1         0
     36279         1         0     36282         1         0     36285         1         0
     36288         1         0     36291         1         0     36294         1         0
     36297         1         0     36300         1         0     36303         1         0
     36306         1         0     36309         1         0     36312         1         0
     36315         1         0     36318         1         0     36321         1         0
     36324         1         0     36327         1         0     36330         1         0
     36333         1         0     36336         1         0     36339         1         0
     36342         1         0     36345         1         0     36348         1         0
     36351         1         0     36354         1         0     36357         1         0
     36360         1         0     36363         1         0     36366         1         0
     36369         1         0     36372         1         0     36375         1         0
     36378         1         0     36381         1         0     36384         1         0
     36387         1         0     36390         1         0     36393         1         0
     36396         1         0     36399         1         0     36402         1         0
     36405         1         0     36408         1         0     36411         1         0
     36414         1         0     36417         1         0     36420         1         0
     36423         1         0     36426         1         0     36429         1         0
     36432         1         0     36435         1         0     36438         1         0
     36441         1         0     36444         1         0     36447         1         0
     36450         1         0     36453         1         0     36456         1         0
     36459         1         0     36462         1         0     36465         1         0
     36468         1         0     36471         1         0     36474         1         0
     36477         1         0     36480         1         0     36483         1         0
     36486         1         0     36489         1         0     36492         1         0
     36495         1         0     36498         1         0     36501         1         0
     36504         1         0     36507         1         0     36510         1         0
     36513         1         0     36516         1         0     36519         1         0
     36522         1         0     36525         1         0     36528         1         0
     36531         1         0     36534         1         0     36537         1         0
     36540         1         0     36543         1         0     36546         1         0
     36549         1         0     36552         1         0     36555         1         0
     36558         1         0     36561         1         0     36564         1         0
     36567         1         0     36570         1         0     36573         1         0
     36576         1         0     36579         1         0     36582         1         0
     36585         1         0     36588         1         0     36591         1         0
     36594         1         0     36597         1         0     36600         1         0
     36603         1         0     36606         1         0     36609         1         0
     36612         1         0     36615         1         0     36618         1         0
     36621         1         0     36624         1         0     36627         1         0
     36630         1         0     36633         1         0     36636         1         0
     36639         1         0     36642         1         0     36645         1         0
     36648         1         0     36651         1         0     36654         1         0
     36657         1         0     36660         1         0     36663         1         0
     36666         1         0     36669         1         0     36672         1         0
     36675         1         0     36678         1         0     36681         1         0
     36684         1         0     36687         1         0     36690         1         0
     36693         1         0     36696         1         0     36699         1         0
     36702         1         0     36705         1         0     36708         1         0
     36711         1         0     36714         1         0     36717         1         0
     36720         1         0     36723         1         0     36726         1         0
     36729         1         0     36732         1         0     36735         1         0
     36738         1         0     36741         1         0     36744         1         0
     36747         1         0     36750         1         0     36753         1         0
     36756         1         0     36759         1         0     36762         1         0
     36765         1         0     36768         1         0     36771         1         0
     36774         1         0     36777         1         0     36780         1         0
     36783         1         0     36786         1         0     36789         1         0
     36792         1         0     36795         1         0     36798         1         0
     36801         1         0     36804         1         0     36807         1         0
     36810         1         0     36813         1         0     36816         1         0
     36819         1         0     36822         1         0     36825         1         0
     36828         1         0     36831         1         0     36834         1         0
     36837         1         0     36840         1         0     36843         1         0
     36846         1         0     36849         1         0     36852         1         0
     36855         1         0     36858         1         0     36861         1         0
     36864         1         0     36867         1         0     36870         1         0
     36873         1         0     36876         1         0     36879         1         0
     36882         1         0     36885         1         0     36888         1         0
     36891         1         0     36894         1         0     36897         1         0
     36900         1         0     36903         1         0     36906         1         0
     36909         1         0     36912         1         0     36915         1         0
     36918         1         0     36921         1         0     36924         1         0
     36927         1         0     36930         1         0     36933         1         0
     36936         1         0     36939         1         0     36942         1         0
     36945         1         0     36948         1         0     36951         1         0
     36954         1         0     36957         1         0     36960         1         0
     36963         1         0     36966         1         0     36969         1         0
     36972         1         0     36975         1         0     36978         1         0
     36981         1         0     36984         1         0     36987         1         0
     36990         1         0     36993         1         0     36996         1         0
     36999         1         0     37002         1         0     37005         1         0
     37008         1         0     37011         1         0     37014         1         0
     37017         1         0     37020         1         0     37023         1         0
     37026         1         0     37029         1         0     37032         1         0
     37035         1         0     37038         1         0     37041         1         0
     37044         1         0     37047         1         0     37050         1         0
     37053         1         0     37056         1         0     37059         1         0
     37062         1         0     37065         1         0     37068         1         0
     37071         1         0     37074         1         0     37077         1         0
     37080         1         0     37083         1         0     37086         1         0
     37089         1         0     37092         1         0     37095         1         0
     37098         1         0     37101         1         0     37104         1         0
     37107         1         0     37110         1         0     37113         1         0
     37116         1         0     37119         1         0     37122         1         0
     37125         1         0     37128         1         0     37131         1         0
     37134         1         0     37137         1         0     37140         1         0
     37143         1         0     37146         1         0     37149         1         0
     37152         1         0     37155         1         0     37158         1         0
     37161         1         0     37164         1         0     37167         1         0
     37170         1         0     37173         1         0     37176         1         0
     37179         1         0     37182         1         0     37185         1         0
     37188         1         0     37191         1         0     37194         1         0
     37197         1         0     37200         1         0     37203         1         0
     37206         1         0     37209         1         0     37212         1         0
     37215         1         0     37218         1         0     37221         1         0
     37224         1         0     37227         1         0     37230         1         0
     37233         1         0     37236         1         0     37239         1         0
     37242         1         0     37245         1         0     37248         1         0
     37251         1         0     37254         1         0     37257         1         0
     37260         1         0     37263         1         0     37266         1         0
     37269         1         0     37272         1         0     37275         1         0
     37278         1         0     37281         1         0     37284         1         0
     37287         1         0     37290         1         0     37293         1         0
     37296         1         0     37299         1         0     37302         1         0
     37305         1         0     37308         1         0     37311         1         0
     37314         1         0     37317         1         0     37320         1         0
     37323         1         0     37326         1         0     37329         1         0
     37332         1         0     37335         1         0     37338         1         0
     37341         1         0     37344         1         0     37347         1         0
     37350         1         0     37353         1         0     37356         1         0
     37359         1         0     37362         1         0     37365         1         0
     37368         1         0     37371         1         0     37374         1         0
     37377         1         0     37380         1         0     37383         1         0
     37386         1         0     37389         1         0     37392         1         0
     37395         1         0     37398         1         0     37401         1         0
     37404         1         0     37407         1         0     37410         1         0
     37413         1         0     37416         1         0     37419         1         0
     37422         1         0     37425         1         0     37428         1         0
     37431         1         0     37434         1         0     37437         1         0
     37440         1         0     37443         1         0     37446         1         0
     37449         1         0     37452         1         0     37455         1         0
     37458         1         0     37461         1         0     37464         1         0
     37467         1         0     37470         1         0     37473         1         0
     37476         1         0     37479         1         0     37482         1         0
     37485         1         0     37488         1         0     37491         1         0
     37494         1         0     37497         1         0     37500         1         0
     37503         1         0     37506         1         0     37509         1         0
     37512         1         0     37515         1         0     37518         1         0
     37521         1         0     37524         1         0     37527         1         0
     37530         1         0     37533         1         0     37536         1         0
     37539         1         0     37542         1         0     37545         1         0
     37548         1         0     37551         1         0     37554         1         0
     37557         1         0     37560         1         0     37563         1         0
     37566         1         0     37569         1         0     37572         1         0
     37575         1         0     37578         1         0     37581         1         0
     37584         1         0     37587         1         0     37590         1         0
     37593         1         0     37596         1         0     37599         1         0
     37602         1         0     37605         1         0     37608         1         0
     37611         1         0     37614         1         0     37617         1         0
     37620         1         0     37623         1         0     37626         1         0
     37629         1         0     37632         1         0     37635         1         0
     37638         1         0     37641         1         0     37644         1         0
     37647         1         0     37650         1         0     37653         1         0
     37656         1         0     37659         1         0     37662         1         0
     37665         1         0     37668         1         0     37671         1         0
     37674         1         0     37677         1         0     37680         1         0
     37683         1         0     37686         1         0     37689         1         0
     37692         1         0     37695         1         0     37698         1         0
     37701         1         0     37704         1         0     37707         1         0
     37710         1         0     37713         1         0     37716         1         0
     37719         1         0     37722         1         0     37725         1         0
     37728         1         0     37731         1         0     37734         1         0
     37737         1         0     37740         1         0     37743         1         0
     37746         1         0     37749         1         0     37752         1         0
     37755         1         0     37758         1         0     37761         1         0
     37764         1         0     37767         1         0     37770         1         0
     37773         1         0     37776         1         0     37779         1         0
     37782         1         0     37785         1         0     37788         1         0
     37791         1         0     37794         1         0     37797         1         0
     37800         1         0     37803         1         0     37806         1         0
     37809         1         0     37812         1         0     37815         1         0
     37818         1         0     37821         1         0     37824         1         0
     37827         1         0     37830         1         0     37833         1         0
     37836         1         0     37839         1         0     37842         1         0
     37845         1         0     37848         1         0     37851         1         0
     37854         1         0     37857         1         0     37860         1         0
     37863         1         0     37866         1         0     37869         1         0
     37872         1         0     37875         1         0     37878         1         0
     37881         1         0     37884         1         0     37887         1         0
     37890         1         0     37893         1         0     37896         1         0
     37899         1         0     37902         1         0     37905         1         0
     37908         1         0     37911         1         0     37914         1         0
     37917         1         0     37920         1         0     37923         1         0
     37926         1         0     37929         1         0     37932         1         0
     37935         1         0     37938         1         0     37941         1         0
     37944         1         0     37947         1         0     37950         1         0
     37953         1         0     37956         1         0     37959         1         0
     37962         1         0     37965         1         0     37968         1         0
     37971         1         0     37974         1         0     37977         1         0
     37980         1         0     37983         1         0     37986         1         0
     37989         1         0     37992         1         0     37995         1         0
     37998         1         0     38001         1         0     38004         1         0
     38007         1         0     38010         1         0     38013         1         0
     38016         1         0     38019         1         0     38022         1         0
     38025         1         0     38028         1         0     38031         1         0
     38034         1         0     38037         1         0     38040         1         0
     38043         1         0     38046         1         0     38049         1         0
     38052         1         0     38055         1         0     38058         1         0
     38061         1         0     38064         1         0     38067         1         0
     38070         1         0     38073         1         0     38076         1         0
     38079         1         0     38082         1         0     38085         1         0
     38088         1         0     38091         1         0     38094         1         0
     38097         1         0     38100         1         0     38103         1         0
     38106         1         0     38109         1         0     38112         1         0
     38115         1         0     38118         1         0     38121         1         0
     38124         1         0     38127         1         0     38130         1         0
     38133         1         0     38136         1         0     38139         1         0
     38142         1         0     38145         1         0     38148         1         0
     38151         1         0     38154         1         0     38157         1         0
     38160         1         0     38163         1         0     38166         1         0
     38169         1         0     38172         1         0     38175         1         0
     38178         1         0     38181         1         0     38184         1         0
     38187         1         0     38190         1         0     38193         1         0
     38196         1         0     38199         1         0     38202         1         0
     38205         1         0     38208         1         0     38211         1         0
     38214         1         0     38217         1         0     38220         1         0
     38223         1         0     38226         1         0     38229         1         0
     38232         1         0     38235         1         0     38238         1         0
     38241         1         0     38244         1         0     38247         1         0
     38250         1         0     38253         1         0     38256         1         0
     38259         1         0     38262         1         0     38265         1         0
     38268         1         0     38271         1         0     38274         1         0
     38277         1         0     38280         1         0     38283         1         0
     38286         1         0     38289         1         0     38292         1         0
     38295         1         0     38298         1         0     38301         1         0
     38304         1         0     38307         1         0     38310         1         0
     38313         1         0     38316         1         0     38319         1         0
     38322         1         0     38325         1         0     38328         1         0
     38331         1         0     38334         1         0     38337         1         0
     38340         1         0     38343         1         0     38346         1         0
     38349         1         0     38352         1         0     38355         1         0
     38358         1         0     38361         1         0     38364         1         0
     38367         1         0     38370         1         0     38373         1         0
     38376         1         0     38379         1         0     38382         1         0
     38385         1         0     38388         1         0     38391         1         0
     38394         1         0     38397         1         0     38400         1         0
     38403         1         0     38406         1         0     38409         1         0
     38412         1         0     38415         1         0     38418         1         0
     38421         1         0     38424         1         0     38427         1         0
     38430         1         0     38433         1         0     38436         1         0
     38439         1         0     38442         1         0     38445         1         0
     38448         1         0     38451         1         0     38454         1         0
     38457         1         0     38460         1         0     38463         1         0
     38466         1         0     38469         1         0     38472         1         0
     38475         1         0     38478         1         0     38481         1         0
     38484         1         0     38487         1         0     38490         1         0
     38493         1         0     38496         1         0     38499         1         0
     38502         1         0     38505         1         0     38508         1         0
     38511         1         0     38514         1         0     38517         1         0
     38520         1         0     38523         1         0     38526         1         0
     38529         1         0     38532         1         0     38535         1         0
     38538         1         0     38541         1         0     38544         1         0
     38547         1         0     38550         1         0     38553         1         0
     38556         1         0     38559         1         0     38562         1         0
     38565         1         0     38568         1         0     38571         1         0
     38574         1         0     38577         1         0     38580         1         0
     38583         1         0     38586         1         0     38589         1         0
     38592         1         0     38595         1         0     38598         1         0
     38601         1         0     38604         1         0     38607         1         0
     38610         1         0     38613         1         0     38616         1         0
     38619         1         0     38622         1         0     38625         1         0
     38628         1         0     38631         1         0     38634         1         0
     38637         1         0     38640         1         0     38643         1         0
     38646         1         0     38649         1         0     38652         1         0
     38655         1         0     38658         1         0     38661         1         0
     38664         1         0     38667         1         0     38670         1         0
     38673         1         0     38676         1         0     38679         1         0
     38682         1         0     38685         1         0     38688         1         0
     38691         1         0     38694         1         0     38697         1         0
     38700         1         0     38703         1         0     38706         1         0
     38709         1         0     38712         1         0     38715         1         0
     38718         1         0     38721         1         0     38724         1         0
     38727         1         0     38730         1         0     38733         1         0
     38736         1         0     38739         1         0     38742         1         0
     38745         1         0     38748         1         0     38751         1         0
     38754         1         0     38757         1         0     38760         1         0
     38763         1         0     38766         1         0     38769         1         0
     38772         1         0     38775         1         0     38778         1         0
     38781         1         0     38784         1         0     38787         1         0
     38790         1         0     38793         1         0     38796         1         0
     38799         1         0     38802         1         0     38805         1         0
     38808         1         0     38811         1         0     38814         1         0
     38817         1         0     38820         1         0     38823         1         0
     38826         1         0     38829         1         0     38832         1         0
     38835         1         0     38838         1         0     38841         1         0
     38844         1         0     38847         1         0     38850         1         0
     38853         1         0     38856         1         0     38859         1         0
     38862         1         0     38865         1         0     38868         1         0
     38871         1         0     38874         1         0     38877         1         0
     38880         1         0     38883         1         0     38886         1         0
     38889         1         0     38892         1         0     38895         1         0
     38898         1         0     38901         1         0     38904         1         0
     38907         1         0     38910         1         0     38913         1         0
     38916         1         0     38919         1         0     38922         1         0
     38925         1         0     38928         1         0     38931         1         0
     38934         1         0     38937         1         0     38940         1         0
     38943         1         0     38946         1         0     38949         1         0
     38952         1         0     38955         1         0     38958         1         0
     38961         1         0     38964         1         0     38967         1         0
     38970         1         0     38973         1         0     38976         1         0
     38979         1         0     38982         1         0     38985         1         0
     38988         1         0     38991         1         0     38994         1         0
     38997         1         0     39000         1         0     39003         1         0
     39006         1         0     39009         1         0     39012         1         0
     39015         1         0     39018         1         0     39021         1         0
     39024         1         0     39027         1         0     39030         1         0
     39033         1         0     39036         1         0     39039         1         0
     39042         1         0     39045         1         0     39048         1         0
     39051         1         0     39054         1         0     39057         1         0
     39060         1         0     39063         1         0     39066         1         0
     39069         1         0     39072         1         0     39075         1         0
     39078         1         0     39081         1         0     39084         1         0
     39087         1         0     39090         1         0     39093         1         0
     39096         1         0     39099         1         0     39102         1         0
     39105         1         0     39108         1         0     39111         1         0
     39114         1         0     39117         1         0     39120         1         0
     39123         1         0     39126         1         0     39129         1         0
     39132         1         0     39135         1         0     39138         1         0
     39141         1         0     39144         1         0     39147         1         0
     39150         1         0     39153         1         0     39156         1         0
     39159         1         0     39162         1         0     39165         1         0
     39168         1         0     39171         1         0     39174         1         0
     39177         1         0     39180         1         0     39183         1         0
     39186         1         0     39189         1         0     39192         1         0
     39195         1         0     39198         1         0     39201         1         0
     39204         1         0     39207         1         0     39210         1         0
     39213         1         0     39216         1         0     39219         1         0
     39222         1         0     39225         1         0     39228         1         0
     39231         1         0     39234         1         0     39237         1         0
     39240         1         0     39243         1         0     39246         1         0
     39249         1         0     39252         1         0     39255         1         0
     39258         1         0     39261         1         0     39264         1         0
     39267         1         0     39270         1         0     39273         1         0
     39276         1         0     39279         1         0     39282         1         0
     39285         1         0     39288         1         0     39291         1         0
     39294         1         0     39297         1         0     39300         1         0
     39303         1         0     39306         1         0     39309         1         0
     39312         1         0     39315         1         0     39318         1         0
     39321         1         0     39324         1         0     39327         1         0
     39330         1         0     39333         1         0     39336         1         0
     39339         1         0     39342         1         0     39345         1         0
     39348         1         0     39351         1         0     39354         1         0
     39357         1         0     39360         1         0     39363         1         0
     39366         1         0     39369         1         0     39372         1         0
     39375         1         0     39378         1         0     39381         1         0
     39384         1         0     39387         1         0     39390         1         0
     39393         1         0     39396         1         0     39399         1         0
     39402         1         0     39405         1         0     39408         1         0
     39411         1         0     39414         1         0     39417         1         0
     39420         1         0     39423         1         0     39426         1         0
     39429         1         0     39432         1         0     39435         1         0
     39438         1         0     39441         1         0     39444         1         0
     39447         1         0     39450         1         0     39453         1         0
     39456         1         0     39459         1         0     39462         1         0
     39465         1         0     39468         1         0     39471         1         0
     39474         1         0     39477         1         0     39480         1         0
     39483         1         0     39486         1         0     39489         1         0
     39492         1         0     39495         1         0     39498         1         0
     39501         1         0     39504         1         0     39507         1         0
     39510         1         0     39513         1         0     39516         1         0
     39519         1         0     39522         1         0     39525         1         0
     39528         1         0     39531         1         0     39534         1         0
     39537         1         0     39540         1         0     39543         1         0
     39546         1         0     39549         1         0     39552         1         0
     39555         1         0     39558         1         0     39561         1         0
     39564         1         0     39567         1         0     39570         1         0
     39573         1         0     39576         1         0     39579         1         0
     39582         1         0     39585         1         0     39588         1         0
     39591         1         0     39594         1         0     39597         1         0
     39600         1         0     39603         1         0     39606         1         0
     39609         1         0     39612         1         0     39615         1         0
     39618         1         0     39621         1         0     39624         1         0
     39627         1         0     39630         1         0     39633         1         0
     39636         1         0     39639         1         0     39642         1         0
     39645         1         0     39648         1         0     39651         1         0
     39654         1         0     39657         1         0     39660         1         0
     39663         1         0     39666         1         0     39669         1         0
     39672         1         0     39675         1         0     39678         1         0
     39681         1         0     39684         1         0     39687         1         0
     39690         1         0     39693         1         0     39696         1         0
     39699         1         0     39702         1         0     39705         1         0
     39708         1         0     39711         1         0     39714         1         0
     39717         1         0     39720         1         0     39723         1         0
     39726         1         0     39729         1         0     39732         1         0
     39735         1         0     39738         1         0     39741         1         0
     39744         1         0     39747         1         0     39750         1         0
     39753         1         0     39756         1         0     39759         1         0
     39762         1         0     39765         1         0     39768         1         0
     39771         1         0     39774         1         0     39777         1         0
     39780         1         0     39783         1         0     39786         1         0
     39789         1         0     39792         1         0     39795         1         0
     39798         1         0     39801         1         0     39804         1         0
     39807         1         0     39810         1         0     39813         1         0
     39816         1         0     39819         1         0     39822         1         0
     39825         1         0     39828         1         0     39831         1         0
     39834         1         0     39837         1         0     39840         1         0
     39843         1         0     39846         1         0     39849         1         0
     39852         1         0     39855         1         0     39858         1         0
     39861         1         0     39864         1         0     39867         1         0
     39870         1         0     39873         1         0     39876         1         0
     39879         1         0     39882         1         0     39885         1         0
     39888         1         0     39891         1         0     39894         1         0
     39897         1         0     39900         1         0     39903         1         0
     39906         1         0     39909         1         0     39912         1         0
     39915         1         0     39918         1         0     39921         1         0
     39924         1         0     39927         1         0     39930         1         0
     39933         1         0     39936         1         0     39939         1         0
     39942         1         0     39945         1         0     39948         1         0
     39951         1         0     39954         1         0     39957         1         0
     39960         1         0     39963         1         0     39966         1         0
     39969         1         0     39972         1         0     39975         1         0
     39978         1         0     39981         1         0     39984         1         0
     39987         1         0     39990         1         0     39993         1         0
     39996         1         0     39999         1         0     40002         1         0
     40005         1         0     40008         1         0     40011         1         0
     40014         1         0     40017         1         0     40020         1         0
     40023         1         0     40026         1         0     40029         1         0
     40032         1         0     40035         1         0     40038         1         0
     40041         1         0     40044         1         0     40047         1         0
     40050         1         0     40053         1         0     40056         1         0
     40059         1         0     40062         1         0     40065         1         0
     40068         1         0     40071         1         0     40074         1         0
     40077         1         0     40080         1         0     40083         1         0
     40086         1         0     40089         1         0     40092         1         0
     40095         1         0     40098         1         0     40101         1         0
     40104         1         0     40107         1         0     40110         1         0
     40113         1         0     40116         1         0     40119         1         0
     40122         1         0     40125         1         0     40128         1         0
     40131         1         0     40134         1         0     40137         1         0
     40140         1         0     40143         1         0     40146         1         0
     40149         1         0     40152         1         0     40155         1         0
     40158         1         0     40161         1         0     40164         1         0
     40167         1         0     40170         1         0     40173         1         0
     40176         1         0     40179         1         0     40182         1         0
     40185         1         0     40188         1         0     40191         1         0
     40194         1         0     40197         1         0     40200         1         0
     40203         1         0     40206         1         0     40209         1         0
     40212         1         0     40215         1         0     40218         1         0
     40221         1         0     40224         1         0     40227         1         0
     40230         1         0     40233         1         0     40236         1         0
     40239         1         0     40242         1         0     40245         1         0
     40248         1         0     40251         1         0     40254         1         0
     40257         1         0     40260         1         0     40263         1         0
     40266         1         0     40269         1         0     40272         1         0
     40275         1         0     40278         1         0     40281         1         0
     40284         1         0     40287         1         0     40290         1         0
     40293         1         0     40296         1         0     40299         1         0
     40302         1         0     40305         1         0     40308         1         0
     40311         1         0     40314         1         0     40317         1         0
     40320         1         0     40323         1         0     40326         1         0
     40329         1         0     40332         1         0     40335         1         0
     40338         1         0     40341         1         0     40344         1         0
     40347         1         0     40350         1         0     40353         1         0
     40356         1         0     40359         1         0     40362         1         0
     40365         1         0     40368         1         0     40371         1         0
     40374         1         0     40377         1         0     40380         1         0
     40383         1         0     40386         1         0     40389         1         0
     40392         1         0     40395         1         0     40398         1         0
     40401         1         0     40404         1         0     40407         1         0
     40410         1         0     40413         1         0     40416         1         0
     40419         1         0     40422         1         0     40425         1         0
     40428         1         0     40431         1         0     40434         1         0
     40437         1         0     40440         1         0     40443         1         0
     40446         1         0     40449         1         0     40452         1         0
     40455         1         0     40458         1         0     40461         1         0
     40464         1         0     40467         1         0     40470         1         0
     40473         1         0     40476         1         0     40479         1         0
     40482         1         0     40485         1         0     40488         1         0
     40491         1         0     40494         1         0     40497         1         0
     40500         1         0     40503         1         0     40506         1         0
     40509         1         0     40512         1         0     40515         1         0
     40518         1         0     40521         1         0     40524         1         0
     40527         1         0     40530         1         0     40533         1         0
     40536         1         0     40539         1         0     40542         1         0
     40545         1         0     40548         1         0     40551         1         0
     40554         1         0     40557         1         0     40560         1         0
     40563         1         0     40566         1         0     40569         1         0
     40572         1         0     40575         1         0     40578         1         0
     40581         1         0     40584         1         0     40587         1         0
     40590         1         0     40593         1         0     40596         1         0
     40599         1         0     40602         1         0     40605         1         0
     40608         1         0     40611         1         0     40614         1         0
     40617         1         0     40620         1         0     40623         1         0
     40626         1         0     40629         1         0     40632         1         0
     40635         1         0     40638         1         0     40641         1         0
     40644         1         0     40647         1         0     40650         1         0
     40653         1         0     40656         1         0     40659         1         0
     40662         1         0     40665         1         0     40668         1         0
     40671         1         0     40674         1         0     40677         1         0
     40680         1         0     40683         1         0     40686         1         0
     40689         1         0     40692         1         0     40695         1         0
     40698         1         0     40701         1         0     40704         1         0
     40707         1         0     40710         1         0     40713         1         0
     40716         1         0     40719         1         0     40722         1         0
     40725         1         0     40728         1         0     40731         1         0
     40734         1         0     40737         1         0     40740         1         0
     40743         1         0     40746         1         0     40749         1         0
     40752         1         0     40755         1         0     40758         1         0
     40761         1         0     40764         1         0     40767         1         0
     40770         1         0     40773         1         0     40776         1         0
     40779         1         0     40782         1         0     40785         1         0
     40788         1         0     40791         1         0     40794         1         0
     40797         1         0     40800         1         0     40803         1         0
     40806         1         0     40809         1         0     40812         1         0
     40815         1         0     40818         1         0     40821         1         0
     40824         1         0     40827         1         0     40830         1         0
     40833         1         0     40836         1         0     40839         1         0
     40842         1         0     40845         1         0     40848         1         0
     40851         1         0     40854         1         0     40857         1         0
     40860         1         0     40863         1         0     40866         1         0
     40869         1         0     40872         1         0     40875         1         0
     40878         1         0     40881         1         0     40884         1         0
     40887         1         0     40890         1         0     40893         1         0
     40896         1         0     40899         1         0     40902         1         0
     40905         1         0     40908         1         0     40911         1         0
     40914         1         0     40917         1         0     40920         1         0
     40923         1         0     40926         1         0     40929         1         0
     40932         1         0     40935         1         0     40938         1         0
     40941         1         0     40944         1         0     40947         1         0
     40950         1         0     40953         1         0     40956         1         0
     40959         1         0     40962         1         0     40965         1         0
     40968         1         0     40971         1         0     40974         1         0
     40977         1         0     40980         1         0     40983         1         0
     40986         1         0     40989         1         0     40992         1         0
     40995         1         0     40998         1         0     41001         1         0
     41004         1         0     41007         1         0     41010         1         0
     41013         1         0     41016         1         0     41019         1         0
     41022         1         0     41025         1         0     41028         1         0
     41031         1         0     41034         1         0     41037         1         0
     41040         1         0     41043         1         0     41046         1         0
     41049         1         0     41052         1         0     41055         1         0
     41058         1         0     41061         1         0     41064         1         0
     41067         1         0     41070         1         0     41073         1         0
     41076         1         0     41079         1         0     41082         1         0
     41085         1         0     41088         1         0     41091         1         0
     41094         1         0     41097         1         0     41100         1         0
     41103         1         0     41106         1         0     41109         1         0
     41112         1         0     41115         1         0     41118         1         0
     41121         1         0     41124         1         0     41127         1         0
     41130         1         0     41133         1         0     41136         1         0
     41139         1         0     41142         1         0     41145         1         0
     41148         1         0     41151         1         0     41154         1         0
     41157         1         0     41160         1         0     41163         1         0
     41166         1         0     41169         1         0     41172         1         0
     41175         1         0     41178         1         0     41181         1         0
     41184         1         0     41187         1         0     41190         1         0
     41193         1         0     41196         1         0     41199         1         0
     41202         1         0     41205         1         0     41208         1         0
     41211         1         0     41214         1         0     41217         1         0
     41220         1         0     41223         1         0     41226         1         0
     41229         1         0     41232         1         0     41235         1         0
     41238         1         0     41241         1         0     41244         1         0
     41247         1         0     41250         1         0     41253         1         0
     41256         1         0     41259         1         0     41262         1         0
     41265         1         0     41268         1         0     41271         1         0
     41274         1         0     41277         1         0     41280         1         0
     41283         1         0     41286         1         0     41289         1         0
     41292         1         0     41295         1         0     41298         1         0
     41301         1         0     41304         1         0     41307         1         0
     41310         1         0     41313         1         0     41316         1         0
     41319         1         0     41322         1         0     41325         1         0
     41328         1         0     41331         1         0     41334         1         0
     41337         1         0     41340         1         0     41343         1         0
     41346         1         0     41349         1         0     41352         1         0
     41355         1         0     41358         1         0     41361         1         0
     41364         1         0     41367         1         0     41370         1         0
     41373         1         0     41376         1         0     41379         1         0
     41382         1         0     41385         1         0     41388         1         0
     41391         1         0     41394         1         0     41397         1         0
     41400         1         0     41403         1         0     41406         1         0
     41409         1         0     41412         1         0     41415         1         0
     41418         1         0     41421         1         0     41424         1         0
     41427         1         0     41430         1         0     41433         1         0
     41436         1         0     41439         1         0     41442         1         0
     41445         1         0     41448         1         0     41451         1         0
     41454         1         0     41457         1         0     41460         1         0
     41463         1         0     41466         1         0     41469         1         0
     41472         1         0     41475         1         0     41478         1         0
     41481         1         0     41484         1         0     41487         1         0
     41490         1         0     41493         1         0     41496         1         0
     41499         1         0     41502         1         0     41505         1         0
     41508         1         0     41511         1         0     41514         1         0
     41517         1         0     41520         1         0     41523         1         0
     41526         1         0     41529         1         0     41532         1         0
     41535         1         0     41538         1         0     41541         1         0
     41544         1         0     41547         1         0     41550         1         0
     41553         1         0     41556         1         0     41559         1         0
     41562         1         0     41565         1         0     41568         1         0
     41571         1         0     41574         1         0     41577         1         0
     41580         1         0     41583         1         0     41586         1         0
     41589         1         0     41592         1         0     41595         1         0
     41598         1         0     41601         1         0     41604         1         0
     41607         1         0     41610         1         0     41613         1         0
     41616         1         0     41619         1         0     41622         1         0
     41625         1         0     41628         1         0     41631         1         0
     41634         1         0     41637         1         0     41640         1         0
     41643         1         0     41646         1         0     41649         1         0
     41652         1         0     41655         1         0     41658         1         0
     41661         1         0     41664         1         0     41667         1         0
     41670         1         0     41673         1         0     41676         1         0
     41679         1         0     41682         1         0     41685         1         0
     41688         1         0     41691         1         0     41694         1         0
     41697         1         0     41700         1         0     41703         1         0
     41706         1         0     41709         1         0     41712         1         0
     41715         1         0     41718         1         0     41721         1         0
     41724         1         0     41727         1         0     41730         1         0
     41733         1         0     41736         1         0     41739         1         0
     41742         1         0     41745         1         0     41748         1         0
     41751         1         0     41754         1         0     41757         1         0
     41760         1         0     41763         1         0     41766         1         0
     41769         1         0     41772         1         0     41775         1         0
     41778         1         0     41781         1         0     41784         1         0
     41787         1         0     41790         1         0     41793         1         0
     41796         1         0     41799         1         0     41802         1         0
     41805         1         0     41808         1         0     41811         1         0
     41814         1         0     41817         1         0     41820         1         0
     41823         1         0     41826         1         0     41829         1         0
     41832         1         0     41835         1         0     41838         1         0
     41841         1         0     41844         1         0     41847         1         0
     41850         1         0     41853         1         0     41856         1         0
     41859         1         0     41862         1         0     41865         1         0
     41868         1         0     41871         1         0     41874         1         0
     41877         1         0     41880         1         0     41883         1         0
     41886         1         0     41889         1         0     41892         1         0
     41895         1         0     41898         1         0     41901         1         0
     41904         1         0     41907         1         0     41910         1         0
     41913         1         0     41916         1         0     41919         1         0
     41922         1         0     41925         1         0     41928         1         0
     41931         1         0     41934         1         0     41937         1         0
     41940         1         0     41943         1         0     41946         1         0
     41949         1         0     41952         1         0     41955         1         0
     41958         1         0     41961         1         0     41964         1         0
     41967         1         0     41970         1         0     41973         1         0
     41976         1         0     41979         1         0     41982         1         0
     41985         1         0     41988         1         0     41991         1         0
     41994         1         0     41997         1         0     42000         1         0
     42003         1         0     42006         1         0     42009         1         0
     42012         1         0     42015         1         0     42018         1         0
     42021         1         0     42024         1         0     42027         1         0
     42030         1         0     42033         1         0     42036         1         0
     42039         1         0     42042         1         0     42045         1         0
     42048         1         0     42051         1         0     42054         1         0
     42057         1         0     42060         1         0     42063         1         0
     42066         1         0     42069         1         0     42072         1         0
     42075         1         0     42078         1         0     42081         1         0
     42084         1         0     42087         1         0     42090         1         0
     42093         1         0     42096         1         0     42099         1         0
     42102         1         0     42105         1         0     42108         1         0
     42111         1         0     42114         1         0     42117         1         0
     42120         1         0     42123         1         0     42126         1         0
     42129         1         0     42132         1         0     42135         1         0
     42138         1         0     42141         1         0     42144         1         0
     42147         1         0     42150         1         0     42153         1         0
     42156         1         0     42159         1         0     42162         1         0
     42165         1         0     42168         1         0     42171         1         0
     42174         1         0     42177         1         0     42180         1         0
     42183         1         0     42186         1         0     42189         1         0
     42192         1         0     42195         1         0     42198         1         0
     42201         1         0     42204         1         0     42207         1         0
     42210         1         0     42213         1         0     42216         1         0
     42219         1         0     42222         1         0     42225         1         0
     42228         1         0     42231         1         0     42234         1         0
     42237         1         0     42240         1         0     42243         1         0
     42246         1         0     42249         1         0     42252         1         0
     42255         1         0     42258         1         0     42261         1         0
     42264         1         0     42267         1         0     42270         1         0
     42273         1         0     42276         1         0     42279         1         0
     42282         1         0     42285         1         0     42288         1         0
     42291         1         0     42294         1         0     42297         1         0
     42300         1         0     42303         1         0     42306         1         0
     42309         1         0     42312         1         0     42315         1         0
     42318         1         0     42321         1         0     42324         1         0
     42327         1         0     42330         1         0     42333         1         0
     42336         1         0     42339         1         0     42342         1         0
     42345         1         0     42348         1         0     42351         1         0
     42354         1         0     42357         1         0     42360         1         0
     42363         1         0     42366         1         0     42369         1         0
     42372         1         0     42375         1         0     42378         1         0
     42381         1         0     42384         1         0     42387         1         0
     42390         1         0     42393         1         0     42396         1         0
     42399         1         0     42402         1         0     42405         1         0
     42408         1         0     42411         1         0     42414         1         0
     42417         1         0     42420         1         0     42423         1         0
     42426         1         0     42429         1         0     42432         1         0
     42435         1         0     42438         1         0     42441         1         0
     42444         1         0     42447         1         0     42450         1         0
     42453         1         0     42456         1         0     42459         1         0
     42462         1         0     42465         1         0     42468         1         0
     42471         1         0     42474         1         0     42477         1         0
     42480         1         0     42483         1         0     42486         1         0
     42489         1         0     42492         1         0     42495         1         0
     42498         1         0     42501         1         0     42504         1         0
     42507         1         0     42510         1         0     42513         1         0
     42516         1         0     42519         1         0     42522         1         0
     42525         1         0     42528         1         0     42531         1         0
     42534         1         0     42537         1         0     42540         1         0
     42543         1         0     42546         1         0     42549         1         0
     42552         1         0     42555         1         0     42558         1         0
     42561         1         0     42564         1         0     42567         1         0
     42570         1         0     42573         1         0     42576         1         0
     42579         1         0     42582         1         0     42585         1         0
     42588         1         0     42591         1         0     42594         1         0
     42597         1         0     42600         1         0     42603         1         0
     42606         1         0     42609         1         0     42612         1         0
     42615         1         0     42618         1         0     42621         1         0
     42624         1         0     42627         1         0     42630         1         0
     42633         1         0     42636         1         0     42639         1         0
     42642         1         0     42645         1         0     42648         1         0
     42651         1         0     42654         1         0     42657         1         0
     42660         1         0     42663         1         0     42666         1         0
     42669         1         0     42672         1         0     42675         1         0
     42678         1         0     42681         1         0     42684         1         0
     42687         1         0     42690         1         0     42693         1         0
     42696         1         0     42699         1         0     42702         1         0
     42705         1         0     42708         1         0     42711         1         0
     42714         1         0     42717         1         0     42720         1         0
     42723         1         0     42726         1         0     42729         1         0
     42732         1         0     42735         1         0     42738         1         0
     42741         1         0     42744         1         0     42747         1         0
     42750         1         0     42753         1         0     42756         1         0
     42759         1         0     42762         1         0     42765         1         0
     42768         1         0     42771         1         0     42774         1         0
     42777         1         0     42780         1         0     42783         1         0
     42786         1         0     42789         1         0     42792         1         0
     42795         1         0     42798         1         0     42801         1         0
     42804         1         0     42807         1         0     42810         1         0
     42813         1         0     42816         1         0     42819         1         0
     42822         1         0     42825         1         0     42828         1         0
     42831         1         0     42834         1         0     42837         1         0
     42840         1         0     42843         1         0     42846         1         0
     42849         1         0     42852         1         0     42855         1         0
     42858         1         0     42861         1         0     42864         1         0
     42867         1         0     42870         1         0     42873         1         0
     42876         1         0     42879         1         0     42882         1         0
     42885         1         0     42888         1         0     42891         1         0
     42894         1         0     42897         1         0     42900         1         0
     42903         1         0     42906         1         0     42909         1         0
     42912         1         0     42915         1         0     42918         1         0
     42921         1         0     42924         1         0     42927         1         0
     42930         1         0     42933         1         0     42936         1         0
     42939         1         0     42942         1         0     42945         1         0
     42948         1         0     42951         1         0     42954         1         0
     42957         1         0     42960         1         0     42963         1         0
     42966         1         0     42969         1         0     42972         1         0
     42975         1         0     42978         1         0     42981         1         0
     42984         1         0     42987         1         0     42990         1         0
     42993         1         0     42996         1         0     42999         1         0
     43002         1         0     43005         1         0     43008         1         0
     43011         1         0     43014         1         0     43017         1         0
     43020         1         0     43023         1         0     43026         1         0
     43029         1         0     43032         1         0     43035         1         0
     43038         1         0     43041         1         0     43044         1         0
     43047         1         0     43050         1         0     43053         1         0
     43056         1         0     43059         1         0     43062         1         0
     43065         1         0     43068         1         0     43071         1         0
     43074         1         0     43077         1         0     43080         1         0
     43083         1         0     43086         1         0     43089         1         0
     43092         1         0     43095         1         0     43098         1         0
     43101         1         0     43104         1         0     43107         1         0
     43110         1         0     43113         1         0     43116         1         0
     43119         1         0     43122         1         0     43125         1         0
     43128         1         0     43131         1         0     43134         1         0
     43137         1         0     43140         1         0     43143         1         0
     43146         1         0     43149         1         0     43152         1         0
     43155         1         0     43158         1         0     43161         1         0
     43164         1         0     43167         1         0     43170         1         0
     43173         1         0     43176         1         0     43179         1         0
     43182         1         0     43185         1         0     43188         1         0
     43191         1         0     43194         1         0     43197         1         0
     43200         1         0     43203         1         0     43206         1         0
     43209         1         0     43212         1         0     43215         1         0
     43218         1         0     43221         1         0     43224         1         0
     43227         1         0     43230         1         0     43233         1         0
     43236         1         0     43239         1         0     43242         1         0
     43245         1         0     43248         1         0     43251         1         0
     43254         1         0     43257         1         0     43260         1         0
     43263         1         0     43266         1         0     43269         1         0
     43272         1         0     43275         1         0     43278         1         0
     43281         1         0     43284         1         0     43287         1         0
     43290         1         0     43293         1         0     43296         1         0
     43299         1         0     43302         1         0     43305         1         0
     43308         1         0     43311         1         0     43314         1         0
     43317         1         0     43320         1         0     43323         1         0
     43326         1         0     43329         1         0     43332         1         0
     43335         1         0     43338         1         0     43341         1         0
     43344         1         0     43347         1         0     43350         1         0
     43353         1         0     43356         1         0     43359         1         0
     43362         1         0     43365         1         0     43368         1         0
     43371         1         0     43374         1         0     43377         1         0
     43380         1         0     43383         1         0     43386         1         0
     43389         1         0     43392         1         0     43395         1         0
     43398         1         0     43401         1         0     43404         1         0
     43407         1         0     43410         1         0     43413         1         0
     43416         1         0     43419         1         0     43422         1         0
     43425         1         0     43428         1         0     43431         1         0
     43434         1         0     43437         1         0     43440         1         0
     43443         1         0     43446         1         0     43449         1         0
     43452         1         0     43455         1         0     43458         1         0
     43461         1         0     43464         1         0     43467         1         0
     43470         1         0     43473         1         0     43476         1         0
     43479         1         0     43482         1         0     43485         1         0
     43488         1         0     43491         1         0     43494         1         0
     43497         1         0     43500         1         0     43503         1         0
     43506         1         0     43509         1         0     43512         1         0
     43515         1         0     43518         1         0     43521         1         0
     43524         1         0     43527         1         0     43530         1         0
     43533         1         0     43536         1         0     43539         1         0
     43542         1         0     43545         1         0     43548         1         0
     43551         1         0     43554         1         0     43557         1         0
     43560         1         0     43563         1         0     43566         1         0
     43569         1         0     43572         1         0     43575         1         0
     43578         1         0     43581         1         0     43584         1         0
     43587         1         0     43590         1         0     43593         1         0
     43596         1         0     43599         1         0     43602         1         0
     43605         1         0     43608         1         0     43611         1         0
     43614         1         0     43617         1         0     43620         1         0
     43623         1         0     43626         1         0     43629         1         0
     43632         1         0     43635         1         0     43638         1         0
     43641         1         0     43644         1         0     43647         1         0
     43650         1         0     43653         1         0     43656         1         0
     43659         1         0     43662         1         0     43665         1         0
     43668         1         0     43671         1         0     43674         1         0
     43677         1         0     43680         1         0     43683         1         0
     43686         1         0     43689         1         0     43692         1         0
     43695         1         0     43698         1         0     43701         1         0
     43704         1         0     43707         1         0     43710         1         0
     43713         1         0     43716         1         0     43719         1         0
     43722         1         0     43725         1         0     43728         1         0
     43731         1         0     43734         1         0     43737         1         0
     43740         1         0     43743         1         0     43746         1         0
     43749         1         0     43752         1         0     43755         1         0
     43758         1         0     43761         1         0     43764         1         0
     43767         1         0     43770         1         0     43773         1         0
     43776         1         0     43779         1         0     43782         1         0
     43785         1         0     43788         1         0     43791         1         0
     43794         1         0     43797         1         0     43800         1         0
     43803         1         0     43806         1         0     43809         1         0
     43812         1         0     43815         1         0     43818         1         0
     43821         1         0     43824         1         0     43827         1         0
     43830         1         0     43833         1         0     43836         1         0
     43839         1         0     43842         1         0     43845         1         0
     43848         1         0     43851         1         0     43854         1         0
     43857         1         0     43860         1         0     43863         1         0
     43866         1         0     43869         1         0     43872         1         0
     43875         1         0     43878         1         0     43881         1         0
     43884         1         0     43887         1         0     43890         1         0
     43893         1         0     43896         1         0     43899         1         0
     43902         1         0     43905         1         0     43908         1         0
     43911         1         0     43914         1         0     43917         1         0
     43920         1         0     43923         1         0     43926         1         0
     43929         1         0     43932         1         0     43935         1         0
     43938         1         0     43941         1         0     43944         1         0
     43947         1         0     43950         1         0     43953         1         0
     43956         1         0     43959         1         0     43962         1         0
     43965         1         0     43968         1         0     43971         1         0
     43974         1         0     43977         1         0     43980         1         0
     43983         1         0     43986         1         0     43989         1         0
     43992         1         0     43995         1         0     43998         1         0
     44001         1         0     44004         1         0     44007         1         0
     44010         1         0     44013         1         0     44016         1         0
     44019         1         0     44022         1         0     44025         1         0
     44028         1         0     44031         1         0     44034         1         0
     44037         1         0     44040         1         0     44043         1         0
     44046         1         0     44049         1         0     44052         1         0
     44055         1         0     44058         1         0     44061         1         0
     44064         1         0     44067         1         0     44070         1         0
     44073         1         0     44076         1         0     44079         1         0
     44082         1         0     44085         1         0     44088         1         0
     44091         1         0     44094         1         0     44097         1         0
     44100         1         0     44103         1         0     44106         1         0
     44109         1         0     44112         1         0     44115         1         0
     44118         1         0     44121         1         0     44124         1         0
     44127         1         0     44130         1         0     44133         1         0
     44136         1         0     44139         1         0     44142         1         0
     44145         1         0     44148         1         0     44151         1         0
     44154         1         0     44157         1         0     44160         1         0
     44163         1         0     44166         1         0     44169         1         0
     44172         1         0     44175         1         0     44178         1         0
     44181         1         0     44184         1         0     44187         1         0
     44190         1         0     44193         1         0     44196         1         0
     44199         1         0     44202         1         0     44205         1         0
     44208         1         0     44211         1         0     44214         1         0
     44217         1         0     44220         1         0     44223         1         0
     44226         1         0     44229         1         0     44232         1         0
     44235         1         0     44238         1         0     44241         1         0
     44244         1         0     44247         1         0     44250         1         0
     44253         1         0     44256         1         0     44259         1         0
     44262         1         0     44265         1         0     44268         1         0
     44271         1         0     44274         1         0     44277         1         0
     44280         1         0     44283         1         0     44286         1         0
     44289         1         0     44292         1         0     44295         1         0
     44298         1         0     44301         1         0     44304         1         0
     44307         1         0     44310         1         0     44313         1         0
     44316         1         0     44319         1         0     44322         1         0
     44325         1         0     44328         1         0     44331         1         0
     44334         1         0     44337         1         0     44340         1         0
     44343         1         0     44346         1         0     44349         1         0
     44352         1         0     44355         1         0     44358         1         0
     44361         1         0     44364         1         0     44367         1         0
     44370         1         0     44373         1         0     44376         1         0
     44379         1         0     44382         1         0     44385         1         0
     44388         1         0     44391         1         0     44394         1         0
     44397         1         0     44400         1         0     44403         1         0
     44406         1         0     44409         1         0     44412         1         0
     44415         1         0     44418         1         0     44421         1         0
     44424         1         0     44427         1         0     44430         1         0
     44433         1         0     44436         1         0     44439         1         0
     44442         1         0     44445         1         0     44448         1         0
     44451         1         0     44454         1         0     44457         1         0
     44460         1         0     44463         1         0     44466         1         0
     44469         1         0     44472         1         0     44475         1         0
     44478         1         0     44481         1         0     44484         1         0
     44487         1         0     44490         1         0     44493         1         0
     44496         1         0     44499         1         0     44502         1         0
     44505         1         0     44508         1         0     44511         1         0
     44514         1         0     44517         1         0     44520         1         0
     44523         1         0     44526         1         0     44529         1         0
     44532         1         0     44535         1         0     44538         1         0
     44541         1         0     44544         1         0     44547         1         0
     44550         1         0     44553         1         0     44556         1         0
     44559         1         0     44562         1         0     44565         1         0
     44568         1         0     44571         1         0     44574         1         0
     44577         1         0     44580         1         0     44583         1         0
     44586         1         0     44589         1         0     44592         1         0
     44595         1         0     44598         1         0     44601         1         0
     44604         1         0     44607         1         0     44610         1         0
     44613         1         0     44616         1         0     44619         1         0
     44622         1         0     44625         1         0     44628         1         0
     44631         1         0     44634         1         0     44637         1         0
     44640         1         0     44643         1         0     44646         1         0
     44649         1         0     44652         1         0     44655         1         0
     44658         1         0     44661         1         0     44664         1         0
     44667         1         0     44670         1         0     44673         1         0
     44676         1         0     44679         1         0     44682         1         0
     44685         1         0     44688         1         0     44691         1         0
     44694         1         0     44697         1         0     44700         1         0
     44703         1         0     44706         1         0     44709         1         0
     44712         1         0     44715         1         0     44718         1         0
     44721         1         0     44724         1         0     44727         1         0
     44730         1         0     44733         1         0     44736         1         0
     44739         1         0     44742         1         0     44745         1         0
     44748         1         0     44751         1         0     44754         1         0
     44757         1         0     44760         1         0     44763         1         0
     44766         1         0     44769         1         0     44772         1         0
     44775         1         0     44778         1         0     44781         1         0
     44784         1         0     44787         1         0     44790         1         0
     44793         1         0     44796         1         0     44799         1         0
     44802         1         0     44805         1         0     44808         1         0
     44811         1         0     44814         1         0     44817         1         0
     44820         1         0     44823         1         0     44826         1         0
     44829         1         0     44832         1         0     44835         1         0
     44838         1         0     44841         1         0     44844         1         0
     44847         1         0     44850         1         0     44853         1         0
     44856         1         0     44859         1         0     44862         1         0
     44865         1         0     44868         1         0     44871         1         0
     44874         1         0     44877         1         0     44880         1         0
     44883         1         0     44886         1         0     44889         1         0
     44892         1         0     44895         1         0     44898         1         0
     44901         1         0     44904         1         0     44907         1         0
     44910         1         0     44913         1         0     44916         1         0
     44919         1         0     44922         1         0     44925         1         0
     44928         1         0     44931         1         0     44934         1         0
     44937         1         0     44940         1         0     44943         1         0
     44946         1         0     44949         1         0     44952         1         0
     44955         1         0     44958         1         0     44961         1         0
     44964         1         0     44967         1         0     44970         1         0
     44973         1         0     44976         1         0     44979         1         0
     44982         1         0     44985         1         0     44988         1         0
     44991         1         0     44994         1         0     44997         1         0
     45000         1         0     45003         1         0     45006         1         0
     45009         1         0     45012         1         0     45015         1         0
     45018         1         0     45021         1         0     45024         1         0
     45027         1         0     45030         1         0     45033         1         0
     45036         1         0     45039         1         0     45042         1         0
     45045         1         0     45048         1         0     45051         1         0
     45054         1         0     45057         1         0     45060         1         0
     45063         1         0     45066         1         0     45069         1         0
     45072         1         0     45075         1         0     45078         1         0
     45081         1         0     45084         1         0     45087         1         0
     45090         1         0     45093         1         0     45096         1         0
     45099         1         0     45102         1         0     45105         1         0
     45108         1         0     45111         1         0     45114         1         0
     45117         1         0     45120         1         0     45123         1         0
     45126         1         0     45129         1         0     45132         1         0
     45135         1         0     45138         1         0     45141         1         0
     45144         1         0     45147         1         0     45150         1         0
     45153         1         0     45156         1         0     45159         1         0
     45162         1         0     45165         1         0     45168         1         0
     45171         1         0     45174         1         0     45177         1         0
     45180         1         0     45183         1         0     45186         1         0
     45189         1         0     45192         1         0     45195         1         0
     45198         1         0     45201         1         0     45204         1         0
     45207         1         0     45210         1         0     45213         1         0
     45216         1         0     45219         1         0     45222         1         0
     45225         1         0     45228         1         0     45231         1         0
     45234         1         0     45237         1         0     45240         1         0
     45243         1         0     45246         1         0     45249         1         0
     45252         1         0     45255         1         0     45258         1         0
     45261         1         0     45264         1         0     45267         1         0
     45270         1         0     45273         1         0     45276         1         0
     45279         1         0     45282         1         0     45285         1         0
     45288         1         0     45291         1         0     45294         1         0
     45297         1         0     45300         1         0     45303         1         0
     45306         1         0     45309         1         0     45312         1         0
     45315         1         0     45318         1         0     45321         1         0
     45324         1         0     45327         1         0     45330         1         0
     45333         1         0     45336         1         0     45339         1         0
     45342         1         0     45345         1         0     45348         1         0
     45351         1         0     45354         1         0     45357         1         0
     45360         1         0     45363         1         0     45366         1         0
     45369         1         0     45372         1         0     45375         1         0
     45378         1         0     45381         1         0     45384         1         0
     45387         1         0     45390         1         0     45393         1         0
     45396         1         0     45399         1         0     45402         1         0
     45405         1         0     45408         1         0     45411         1         0
     45414         1         0     45417         1         0     45420         1         0
     45423         1         0     45426         1         0     45429         1         0
     45432         1         0     45435         1         0     45438         1         0
     45441         1         0     45444         1         0     45447         1         0
     45450         1         0     45453         1         0     45456         1         0
     45459         1         0     45462         1         0     45465         1         0
     45468         1         0     45471         1         0     45474         1         0
     45477         1         0     45480         1         0     45483         1         0
     45486         1         0     45489         1         0     45492         1         0
     45495         1         0     45498         1         0     45501         1         0
     45504         1         0     45507         1         0     45510         1         0
     45513         1         0     45516         1         0     45519         1         0
     45522         1         0     45525         1         0     45528         1         0
     45531         1         0     45534         1         0     45537         1         0
     45540         1         0     45543         1         0     45546         1         0
     45549         1         0     45552         1         0     45555         1         0
     45558         1         0     45561         1         0     45564         1         0
     45567         1         0     45570         1         0     45573         1         0
     45576         1         0     45579         1         0     45582         1         0
     45585         1         0     45588         1         0     45591         1         0
     45594         1         0     45597         1         0     45600         1         0
     45603         1         0     45606         1         0     45609         1         0
     45612         1         0     45615         1         0     45618         1         0
     45621         1         0     45624         1         0     45627         1         0
     45630         1         0     45633         1         0     45636         1         0
     45639         1         0     45642         1         0     45645         1         0
     45648         1         0     45651         1         0     45654         1         0
     45657         1         0     45660         1         0     45663         1         0
     45666         1         0     45669         1         0     45672         1         0
     45675         1         0     45678         1         0     45681         1         0
     45684         1         0     45687         1         0     45690         1         0
     45693         1         0     45696         1         0     45699         1         0
     45702         1         0     45705         1         0     45708         1         0
     45711         1         0     45714         1         0     45717         1         0
     45720         1         0     45723         1         0     45726         1         0
     45729         1         0     45732         1         0     45735         1         0
     45738         1         0     45741         1         0     45744         1         0
     45747         1         0     45750         1         0     45753         1         0
     45756         1         0     45759         1         0     45762         1         0
     45765         1         0     45768         1         0     45771         1         0
     45774         1         0     45777         1         0     45780         1         0
     45783         1         0     45786         1         0     45789         1         0
     45792         1         0     45795         1         0     45798         1         0
     45801         1         0     45804         1         0     45807         1         0
     45810         1         0     45813         1         0     45816         1         0
     45819         1         0     45822         1         0     45825         1         0
     45828         1         0     45831         1         0     45834         1         0
     45837         1         0     45840         1         0     45843         1         0
     45846         1         0     45849         1         0     45852         1         0
     45855         1         0     45858         1         0     45861         1         0
     45864         1         0     45867         1         0     45870         1         0
     45873         1         0     45876         1         0     45879         1         0
     45882         1         0     45885         1         0     45888         1         0
     45891         1         0     45894         1         0     45897         1         0
     45900         1         0     45903         1         0     45906         1         0
     45909         1         0     45912         1         0     45915         1         0
     45918         1         0     45921         1         0     45924         1         0
     45927         1         0     45930         1         0     45933         1         0
     45936         1         0     45939         1         0     45942         1         0
     45945         1         0     45948         1         0     45951         1         0
     45954         1         0     45957         1         0     45960         1         0
     45963         1         0     45966         1         0     45969         1         0
     45972         1         0     45975         1         0     45978         1         0
     45981         1         0     45984         1         0     45987         1         0
     45990         1         0     45993         1         0     45996         1         0
     45999         1         0     46002         1         0     46005         1         0
     46008         1         0     46011         1         0     46014         1         0
     46017         1         0     46020         1         0     46023         1         0
     46026         1         0     46029         1         0     46032         1         0
     46035         1         0     46038         1         0     46041         1         0
     46044         1         0     46047         1         0     46050         1         0
     46053         1         0     46056         1         0     46059         1         0
     46062         1         0     46065         1         0     46068         1         0
     46071         1         0     46074         1         0     46077         1         0
     46080         1         0     46083         1         0     46086         1         0
     46089         1         0     46092         1         0     46095         1         0
     46098         1         0     46101         1         0     46104         1         0
     46107         1         0     46110         1         0     46113         1         0
     46116         1         0     46119         1         0     46122         1         0
     46125         1         0     46128         1         0     46131         1         0
     46134         1         0     46137         1         0     46140         1         0
     46143         1         0     46146         1         0     46149         1         0
     46152         1         0     46155         1         0     46158         1         0
     46161         1         0     46164         1         0     46167         1         0
     46170         1         0     46173         1         0     46176         1         0
     46179         1         0     46182         1         0     46185         1         0
     46188         1         0     46191         1         0     46194         1         0
     46197         1         0     46200         1         0     46203         1         0
     46206         1         0     46209         1         0     46212         1         0
     46215         1         0     46218         1         0     46221         1         0
     46224         1         0     46227         1         0     46230         1         0
     46233         1         0     46236         1         0     46239         1         0
     46242         1         0     46245         1         0     46248         1         0
     46251         1         0     46254         1         0     46257         1         0
     46260         1         0     46263         1         0     46266         1         0
     46269         1         0     46272         1         0     46275         1         0
     46278         1         0     46281         1         0     46284         1         0
     46287         1         0     46290         1         0     46293         1         0
     46296         1         0     46299         1         0     46302         1         0
     46305         1         0     46308         1         0     46311         1         0
     46314         1         0     46317         1         0     46320         1         0
     46323         1         0     46326         1         0     46329         1         0
     46332         1         0     46335         1         0     46338         1         0
     46341         1         0     46344         1         0     46347         1         0
     46350         1         0     46353         1         0     46356         1         0
     46359         1         0     46362         1         0     46365         1         0
     46368         1         0     46371         1         0     46374         1         0
     46377         1         0     46380         1         0     46383         1         0
     46386         1         0     46389         1         0     46392         1         0
     46395         1         0     46398         1         0     46401         1         0
     46404         1         0     46407         1         0     46410         1         0
     46413         1         0     46416         1         0     46419         1         0
     46422         1         0     46425         1         0     46428         1         0
     46431         1         0     46434         1         0     46437         1         0
     46440         1         0     46443         1         0     46446         1         0
     46449         1         0     46452         1         0     46455         1         0
     46458         1         0     46461         1         0     46464         1         0
     46467         1         0     46470         1         0     46473         1         0
     46476         1         0     46479         1         0     46482         1         0
     46485         1         0     46488         1         0     46491         1         0
     46494         1         0     46497         1         0     46500         1         0
     46503         1         0     46506         1         0     46509         1         0
     46512         1         0     46515         1         0     46518         1         0
     46521         1         0     46524         1         0     46527         1         0
     46530         1         0     46533         1         0     46536         1         0
     46539         1         0     46542         1         0     46545         1         0
     46548         1         0     46551         1         0     46554         1         0
     46557         1         0     46560         1         0     46563         1         0
     46566         1         0     46569         1         0     46572         1         0
     46575         1         0     46578         1         0     46581         1         0
     46584         1         0     46587         1         0     46590         1         0
     46593         1         0     46596         1         0     46599         1         0
     46602         1         0     46605         1         0     46608         1         0
     46611         1         0     46614         1         0     46617         1         0
     46620         1         0     46623         1         0     46626         1         0
     46629         1         0     46632         1         0     46635         1         0
     46638         1         0     46641         1         0     46644         1         0
     46647         1         0     46650         1         0     46653         1         0
     46656         1         0     46659         1         0     46662         1         0
     46665         1         0     46668         1         0     46671         1         0
     46674         1         0     46677         1         0     46680         1         0
     46683         1         0     46686         1         0     46689         1         0
     46692         1         0     46695         1         0     46698         1         0
     46701         1         0     46704         1         0     46707         1         0
     46710         1         0     46713         1         0     46716         1         0
     46719         1         0     46722         1         0     46725         1         0
     46728         1         0     46731         1         0     46734         1         0
     46737         1         0     46740         1         0     46743         1         0
     46746         1         0     46749         1         0     46752         1         0
     46755         1         0     46758         1         0     46761         1         0
     46764         1         0     46767         1         0     46770         1         0
     46773         1         0     46776         1         0     46779         1         0
     46782         1         0     46785         1         0     46788         1         0
     46791         1         0     46794         1         0     46797         1         0
     46800         1         0     46803         1         0     46806         1         0
     46809         1         0     46812         1         0     46815         1         0
     46818         1         0     46821         1         0     46824         1         0
     46827         1         0     46830         1         0     46833         1         0
     46836         1         0     46839         1         0     46842         1         0
     46845         1         0     46848         1         0     46851         1         0
     46854         1         0     46857         1         0     46860         1         0
     46863         1         0     46866         1         0     46869         1         0
     46872         1         0     46875         1         0     46878         1         0
     46881         1         0     46884         1         0     46887         1         0
     46890         1         0     46893         1         0     46896         1         0
     46899         1         0     46902         1         0     46905         1         0
     46908         1         0     46911         1         0     46914         1         0
     46917         1         0     46920         1         0     46923         1         0
     46926         1         0     46929         1         0     46932         1         0
     46935         1         0     46938         1         0     46941         1         0
     46944         1         0     46947         1         0     46950         1         0
     46953         1         0     46956         1         0     46959         1         0
     46962         1         0     46965         1         0     46968         1         0
     46971         1         0     46974         1         0     46977         1         0
     46980         1         0     46983         1         0     46986         1         0
     46989         1         0     46992         1         0     46995         1         0
     46998         1         0     47001         1         0     47004         1         0
     47007         1         0     47010         1         0     47013         1         0
     47016         1         0     47019         1         0     47022         1         0
     47025         1         0     47028         1         0     47031         1         0
     47034         1         0     47037         1         0     47040         1         0
     47043         1         0     47046         1         0     47049         1         0
     47052         1         0     47055         1         0     47058         1         0
     47061         1         0     47064         1         0     47067         1         0
     47070         1         0     47073         1         0     47076         1         0
     47079         1         0     47082         1         0     47085         1         0
     47088         1         0     47091         1         0     47094         1         0
     47097         1         0     47100         1         0     47103         1         0
     47106         1         0     47109         1         0     47112         1         0
     47115         1         0     47118         1         0     47121         1         0
     47124         1         0     47127         1         0     47130         1         0
     47133         1         0     47136         1         0     47139         1         0
     47142         1         0     47145         1         0     47148         1         0
     47151         1         0     47154         1         0     47157         1         0
     47160         1         0     47163         1         0     47166         1         0
     47169         1         0     47172         1         0     47175         1         0
     47178         1         0     47181         1         0     47184         1         0
     47187         1         0     47190         1         0     47193         1         0
     47196         1         0     47199         1         0     47202         1         0
     47205         1         0     47208         1         0     47211         1         0
     47214         1         0     47217         1         0     47220         1         0
     47223         1         0     47226         1         0     47229         1         0
     47232         1         0     47235         1         0     47238         1         0
     47241         1         0     47244         1         0     47247         1         0
     47250         1         0     47253         1         0     47256         1         0
     47259         1         0     47262         1         0     47265         1         0
     47268         1         0     47271         1         0     47274         1         0
     47277         1         0     47280         1         0     47283         1         0
     47286         1         0     47289         1         0     47292         1         0
     47295         1         0     47298         1         0     47301         1         0
     47304         1         0     47307         1         0     47310         1         0
     47313         1         0     47316         1         0     47319         1         0
     47322         1         0     47325         1         0     47328         1         0
     47331         1         0     47334         1         0     47337         1         0
     47340         1         0     47343         1         0     47346         1         0
     47349         1         0     47352         1         0     47355         1         0
     47358         1         0     47361         1         0     47364         1         0
     47367         1         0     47370         1         0     47373         1         0
     47376         1         0     47379         1         0     47382         1         0
     47385         1         0     47388         1         0     47391         1         0
     47394         1         0     47397         1         0     47400         1         0
     47403         1         0     47406         1         0     47409         1         0
     47412         1         0     47415         1         0     47418         1         0
     47421         1         0     47424         1         0     47427         1         0
     47430         1         0     47433         1         0     47436         1         0
     47439         1         0     47442         1         0     47445         1         0
     47448         1         0     47451         1         0     47454         1         0
     47457         1         0     47460         1         0     47463         1         0
     47466         1         0     47469         1         0     47472         1         0
     47475         1         0     47478         1         0     47481         1         0
     47484         1         0     47487         1         0     47490         1         0
     47493         1         0     47496         1         0     47499         1         0
     47502         1         0     47505         1         0     47508         1         0
     47511         1         0     47514         1         0     47517         1         0
     47520         1         0     47523         1         0     47526         1         0
     47529         1         0     47532         1         0     47535         1         0
     47538         1         0     47541         1         0     47544         1         0
     47547         1         0     47550         1         0     47553         1         0
     47556         1         0     47559         1         0     47562         1         0
     47565         1         0     47568         1         0     47571         1         0
     47574         1         0     47577         1         0     47580         1         0
     47583         1         0     47586         1         0     47589         1         0
     47592         1         0     47595         1         0     47598         1         0
     47601         1         0     47604         1         0     47607         1         0
     47610         1         0     47613         1         0     47616         1         0
     47619         1         0     47622         1         0     47625         1         0
     47628         1         0     47631         1         0     47634         1         0
     47637         1         0     47640         1         0     47643         1         0
     47646         1         0     47649         1         0     47652         1         0
     47655         1         0     47658         1         0     47661         1         0
     47664         1         0     47667         1         0     47670         1         0
     47673         1         0     47676         1         0     47679         1         0
     47682         1         0     47685         1         0     47688         1         0
     47691         1         0     47694         1         0     47697         1         0
     47700         1         0     47703         1         0     47706         1         0
     47709         1         0     47712         1         0     47715         1         0
     47718         1         0     47721         1         0     47724         1         0
     47727         1         0     47730         1         0     47733         1         0
     47736         1         0     47739         1         0     47742         1         0
     47745         1         0     47748         1         0     47751         1         0
     47754         1         0     47757         1         0     47760         1         0
     47763         1         0     47766         1         0     47769         1         0
     47772         1         0     47775         1         0     47778         1         0
     47781         1         0     47784         1         0     47787         1         0
     47790         1         0     47793         1         0     47796         1         0
     47799         1         0     47802         1         0     47805         1         0
     47808         1         0     47811         1         0     47814         1         0
     47817         1         0     47820         1         0     47823         1         0
     47826         1         0     47829         1         0     47832         1         0
     47835         1         0     47838         1         0     47841         1         0
     47844         1         0     47847         1         0     47850         1         0
     47853         1         0     47856         1         0     47859         1         0
     47862         1         0     47865         1         0     47868         1         0
     47871         1         0     47874         1         0     47877         1         0
     47880         1         0     47883         1         0     47886         1         0
     47889         1         0     47892         1         0     47895         1         0
     47898         1         0     47901         1         0     47904         1         0
     47907         1         0     47910         1         0     47913         1         0
     47916         1         0     47919         1         0     47922         1         0
     47925         1         0     47928         1         0     47931         1         0
     47934         1         0     47937         1         0     47940         1         0
     47943         1         0     47946         1         0     47949         1         0
     47952         1         0     47955         1         0     47958         1         0
     47961         1         0     47964         1         0     47967         1         0
     47970         1         0     47973         1         0     47976         1         0
     47979         1         0     47982         1         0     47985         1         0
     47988         1         0     47991         1         0     47994         1         0
     47997         1         0     48000         1         0     48003         1         0
     48006         1         0     48009         1         0     48012         1         0
     48015         1         0     48018         1         0     48021         1         0
     48024         1         0     48027         1         0     48030         1         0
     48033         1         0     48036         1         0     48039         1         0
     48042         1         0     48045         1         0     48048         1         0
     48051         1         0     48054         1         0     48057         1         0
     48060         1         0     48063         1         0     48066         1         0
     48069         1         0     48072         1         0     48075         1         0
     48078         1         0     48081         1         0     48084         1         0
     48087         1         0     48090         1         0     48093         1         0
     48096         1         0     48099         1         0     48102         1         0
     48105         1         0     48108         1         0     48111         1         0
     48114         1         0     48117         1         0     48120         1         0
     48123         1         0     48126         1         0     48129         1         0
     48132         1         0     48135         1         0     48138         1         0
     48141         1         0     48144         1         0     48147         1         0
     48150         1         0     48153         1         0     48156         1         0
     48159         1         0     48162         1         0     48165         1         0
     48168         1         0     48171         1         0     48174         1         0
     48177         1         0     48180         1         0     48183         1         0
     48186         1         0     48189         1         0     48192         1         0
     48195         1         0     48198         1         0     48201         1         0
     48204         1         0     48207         1         0     48210         1         0
     48213         1         0     48216         1         0     48219         1         0
     48222         1         0     48225         1         0     48228         1         0
     48231         1         0     48234         1         0     48237         1         0
     48240         1         0     48243         1         0     48246         1         0
     48249         1         0     48252         1         0     48255         1         0
     48258         1         0     48261         1         0     48264         1         0
     48267         1         0     48270         1         0     48273         1         0
     48276         1         0     48279         1         0     48282         1         0
     48285         1         0     48288         1         0     48291         1         0
     48294         1         0     48297         1         0     48300         1         0
     48303         1         0     48306         1         0     48309         1         0
     48312         1         0     48315         1         0     48318         1         0
     48321         1         0     48324         1         0     48327         1         0
     48330         1         0     48333         1         0     48336         1         0
     48339         1         0     48342         1         0     48345         1         0
     48348         1         0     48351         1         0     48354         1         0
     48357         1         0     48360         1         0     48363         1         0
     48366         1         0     48369         1         0     48372         1         0
     48375         1         0     48378         1         0     48381         1         0
     48384         1         0     48387         1         0     48390         1         0
     48393         1         0     48396         1         0     48399         1         0
     48402         1         0     48405         1         0     48408         1         0
     48411         1         0     48414         1         0     48417         1         0
     48420         1         0     48423         1         0     48426         1         0
     48429         1         0     48432         1         0     48435         1         0
     48438         1         0     48441         1         0     48444         1         0
     48447         1         0     48450         1         0     48453         1         0
     48456         1         0     48459         1         0     48462         1         0
     48465         1         0     48468         1         0     48471         1         0
     48474         1         0     48477         1         0     48480         1         0
     48483         1         0     48486         1         0     48489         1         0
     48492         1         0     48495         1         0     48498         1         0
     48501         1         0     48504         1         0     48507         1         0
     48510         1         0     48513         1         0     48516         1         0
     48519         1         0     48522         1         0     48525         1         0
     48528         1         0     48531         1         0     48534         1         0
     48537         1         0     48540         1         0     48543         1         0
     48546         1         0     48549         1         0     48552         1         0
     48555         1         0     48558         1         0     48561         1         0
     48564         1         0     48567         1         0     48570         1         0
     48573         1         0     48576         1         0     48579         1         0
     48582         1         0     48585         1         0     48588         1         0
     48591         1         0     48594         1         0     48597         1         0
     48600         1         0     48603         1         0     48606         1         0
     48609         1         0     48612         1         0     48615         1         0
     48618         1         0     48621         1         0     48624         1         0
     48627         1         0     48630         1         0     48633         1         0
     48636         1         0     48639         1         0     48642         1         0
     48645         1         0     48648         1         0     48651         1         0
     48654         1         0     48657         1         0     48660         1         0
     48663         1         0     48666         1         0     48669         1         0
     48672         1         0     48675         1         0     48678         1         0
     48681         1         0     48684         1         0     48687         1         0
     48690         1         0     48693         1         0     48696         1         0
     48699         1         0     48702         1         0     48705         1         0
     48708         1         0     48711         1         0     48714         1         0
     48717         1         0     48720         1         0     48723         1         0
     48726         1         0     48729         1         0     48732         1         0
     48735         1         0     48738         1         0     48741         1         0
     48744         1         0     48747         1         0     48750         1         0
     48753         1         0     48756         1         0     48759         1         0
     48762         1         0     48765         1         0     48768         1         0
     48771         1         0     48774         1         0     48777         1         0
     48780         1         0     48783         1         0     48786         1         0
     48789         1         0     48792         1         0     48795         1         0
     48798         1         0     48801         1         0     48804         1         0
     48807         1         0     48810         1         0     48813         1         0
     48816         1         0     48819         1         0     48822         1         0
     48825         1         0     48828         1         0     48831         1         0
     48834         1         0     48837         1         0     48840         1         0
     48843         1         0     48846         1         0     48849         1         0
     48852         1         0     48855         1         0     48858         1         0
     48861         1         0     48864         1         0     48867         1         0
     48870         1         0     48873         1         0     48876         1         0
     48879         1         0     48882         1         0     48885         1         0
     48888         1         0     48891         1         0     48894         1         0
     48897         1         0     48900         1         0     48903         1         0
     48906         1         0     48909         1         0     48912         1         0
     48915         1         0     48918         1         0     48921         1         0
     48924         1         0     48927         1         0     48930         1         0
     48933         1         0     48936         1         0     48939         1         0
     48942         1         0     48945         1         0     48948         1         0
     48951         1         0     48954         1         0     48957         1         0
     48960         1         0     48963         1         0     48966         1         0
     48969         1         0     48972         1         0     48975         1         0
     48978         1         0     48981         1         0     48984         1         0
     48987         1         0     48990         1         0     48993         1         0
     48996         1         0     48999         1         0     49002         1         0
     49005         1         0     49008         1         0     49011         1         0
     49014         1         0     49017         1         0     49020         1         0
     49023         1         0     49026         1         0     49029         1         0
     49032         1         0     49035         1         0     49038         1         0
     49041         1         0     49044         1         0     49047         1         0
     49050         1         0     49053         1         0     49056         1         0
     49059         1         0     49062         1         0     49065         1         0
     49068         1         0     49071         1         0     49074         1         0
     49077         1         0     49080         1         0     49083         1         0
     49086         1         0     49089         1         0     49092         1         0
     49095         1         0     49098         1         0     49101         1         0
     49104         1         0     49107         1         0     49110         1         0
     49113         1         0     49116         1         0     49119         1         0
     49122         1         0     49125         1         0     49128         1         0
     49131         1         0     49134         1         0     49137         1         0
     49140         1         0     49143         1         0     49146         1         0
     49149         1         0     49152         1         0     49155         1         0
     49158         1         0     49161         1         0     49164         1         0
     49167         1         0     49170         1         0     49173         1         0
     49176         1         0     49179         1         0     49182         1         0
     49185         1         0     49188         1         0     49191         1         0
     49194         1         0     49197         1         0     49200         1         0
     49203         1         0     49206         1         0     49209         1         0
     49212         1         0     49215         1         0     49218         1         0
     49221         1         0     49224         1         0     49227         1         0
     49230         1         0     49233         1         0     49236         1         0
     49239         1         0     49242         1         0     49245         1         0
     49248         1         0     49251         1         0     49254         1         0
     49257         1         0     49260         1         0     49263         1         0
     49266         1         0     49269         1         0     49272         1         0
     49275         1         0     49278         1         0     49281         1         0
     49284         1         0     49287         1         0     49290         1         0
     49293         1         0     49296         1         0     49299         1         0
     49302         1         0     49305         1         0     49308         1         0
     49311         1         0     49314         1         0     49317         1         0
     49320         1         0     49323         1         0     49326         1         0
     49329         1         0     49332         1         0     49335         1         0
     49338         1         0     49341         1         0     49344         1         0
     49347         1         0     49350         1         0     49353         1         0
     49356         1         0     49359         1         0     49362         1         0
     49365         1         0     49368         1         0     49371         1         0
     49374         1         0     49377         1         0     49380         1         0
     49383         1         0     49386         1         0     49389         1         0
     49392         1         0     49395         1         0     49398         1         0
     49401         1         0     49404         1         0     49407         1         0
     49410         1         0     49413         1         0     49416         1         0
     49419         1         0     49422         1         0     49425         1         0
     49428         1         0     49431         1         0     49434         1         0
     49437         1         0     49440         1         0     49443         1         0
     49446         1         0     49449         1         0     49452         1         0
     49455         1         0     49458         1         0     49461         1         0
     49464         1         0     49467         1         0     49470         1         0
     49473         1         0     49476         1         0     49479         1         0
     49482         1         0     49485         1         0     49488         1         0
     49491         1         0     49494         1         0     49497         1         0
     49500         1         0     49503         1         0     49506         1         0
     49509         1         0     49512         1         0     49515         1         0
     49518         1         0     49521         1         0     49524         1         0
     49527         1         0     49530         1         0     49533         1         0
     49536         1         0     49539         1         0     49542         1         0
     49545         1         0     49548         1         0     49551         1         0
     49554         1         0     49557         1         0     49560         1         0
     49563         1         0     49566         1         0     49569         1         0
     49572         1         0     49575         1         0     49578         1         0
     49581         1         0     49584         1         0     49587         1         0
     49590         1         0     49593         1         0     49596         1         0
     49599         1         0     49602         1         0     49605         1         0
     49608         1         0     49611         1         0     49614         1         0
     49617         1         0     49620         1         0     49623         1         0
     49626         1         0     49629         1         0     49632         1         0
     49635         1         0     49638         1         0     49641         1         0
     49644         1         0     49647         1         0     49650         1         0
     49653         1         0     49656         1         0     49659         1         0
     49662         1         0     49665         1         0     49668         1         0
     49671         1         0     49674         1         0     49677         1         0
     49680         1         0     49683         1         0     49686         1         0
     49689         1         0     49692         1         0     49695         1         0
     49698         1         0     49701         1         0     49704         1         0
     49707         1         0     49710         1         0     49713         1         0
     49716         1         0     49719         1         0     49722         1         0
     49725         1         0     49728         1         0     49731         1         0
     49734         1         0     49737         1         0     49740         1         0
     49743         1         0     49746         1         0     49749         1         0
     49752         1         0     49755         1         0     49758         1         0
     49761         1         0     49764         1         0     49767         1         0
     49770         1         0     49773         1         0     49776         1         0
     49779         1         0     49782         1         0     49785         1         0
     49788         1         0     49791         1         0     49794         1         0
     49797         1         0     49800         1         0     49803         1         0
     49806         1         0     49809         1         0     49812         1         0
     49815         1         0     49818         1         0     49821         1         0
     49824         1         0     49827         1         0     49830         1         0
     49833         1         0     49836         1         0     49839         1         0
     49842         1         0     49845         1         0     49848         1         0
     49851         1         0     49854         1         0     49857         1         0
     49860         1         0     49863         1         0     49866         1         0
     49869         1         0     49872         1         0     49875         1         0
     49878         1         0     49881         1         0     49884         1         0
     49887         1         0     49890         1         0     49893         1         0
     49896         1         0     49899         1         0     49902         1         0
     49905         1         0     49908         1         0     49911         1         0
     49914         1         0     49917         1         0     49920         1         0
     49923         1         0     49926         1         0     49929         1         0
     49932         1         0     49935         1         0     49938         1         0
     49941         1         0     49944         1         0     49947         1         0
     49950         1         0     49953         1         0     49956         1         0
     49959         1         0     49962         1         0     49965         1         0
     49968         1         0     49971         1         0     49974         1         0
     49977         1         0     49980         1         0     49983         1         0
     49986         1         0     49989         1         0     49992         1         0
     49995         1         0     49998         1         0     50001         1         0
     50004         1         0     50007         1         0     50010         1         0
     50013         1         0     50016         1         0     50019         1         0
     50022         1         0     50025         1         0     50028         1         0
     50031         1         0     50034         1         0     50037         1         0
     50040         1         0     50043         1         0     50046         1         0
     50049         1         0     50052         1         0     50055         1         0
     50058         1         0     50061         1         0     50064         1         0
     50067         1         0     50070         1         0     50073         1         0
     50076         1         0     50079         1         0     50082         1         0
     50085         1         0     50088         1         0     50091         1         0
     50094         1         0     50097         1         0     50100         1         0
     50103         1         0     50106         1         0     50109         1         0
     50112         1         0     50115         1         0     50118         1         0
     50121         1         0     50124         1         0     50127         1         0
     50130         1         0     50133         1         0     50136         1         0
     50139         1         0     50142         1         0     50145         1         0
     50148         1         0     50151         1         0     50154         1         0
     50157         1         0     50160         1         0     50163         1         0
     50166         1         0     50169         1         0     50172         1         0
     50175         1         0     50178         1         0     50181         1         0
     50184         1         0     50187         1         0     50190         1         0
     50193         1         0     50196         1         0     50199         1         0
     50202         1         0     50205         1         0     50208         1         0
     50211         1         0     50214         1         0     50217         1         0
     50220         1         0     50223         1         0     50226         1         0
     50229         1         0     50232         1         0     50235         1         0
     50238         1         0     50241         1         0     50244         1         0
     50247         1         0     50250         1         0     50253         1         0
     50256         1         0     50259         1         0     50262         1         0
     50265         1         0     50268         1         0     50271         1         0
     50274         1         0     50277         1         0     50280         1         0
     50283         1         0     50286         1         0     50289         1         0
     50292         1         0     50295         1         0     50298         1         0
     50301         1         0     50304         1         0     50307         1         0
     50310         1         0     50313         1         0     50316         1         0
     50319         1         0     50322         1         0     50325         1         0
     50328         1         0     50331         1         0     50334         1         0
     50337         1         0     50340         1         0     50343         1         0
     50346         1         0     50349         1         0     50352         1         0
     50355         1         0     50358         1         0     50361         1         0
     50364         1         0     50367         1         0     50370         1         0
     50373         1         0     50376         1         0     50379         1         0
     50382         1         0     50385         1         0     50388         1         0
     50391         1         0     50394         1         0     50397         1         0
     50400         1         0     50403         1         0     50406         1         0
     50409         1         0     50412         1         0     50415         1         0
     50418         1         0     50421         1         0     50424         1         0
     50427         1         0     50430         1         0     50433         1         0
     50436         1         0     50439         1         0     50442         1         0
     50445         1         0     50448         1         0     50451         1         0
     50454         1         0     50457         1         0     50460         1         0
     50463         1         0     50466         1         0     50469         1         0
     50472         1         0     50475         1         0     50478         1         0
     50481         1         0     50484         1         0     50487         1         0
     50490         1         0     50493         1         0     50496         1         0
     50499         1         0     50502         1         0     50505         1         0
     50508         1         0     50511         1         0     50514         1         0
     50517         1         0     50520         1         0     50523         1         0
     50526         1         0     50529         1         0     50532         1         0
     50535         1         0     50538         1         0     50541         1         0
     50544         1         0     50547         1         0     50550         1         0
     50553         1         0     50556         1         0     50559         1         0
     50562         1         0     50565         1         0     50568         1         0
     50571         1         0     50574         1         0     50577         1         0
     50580         1         0     50583         1         0     50586         1         0
     50589         1         0     50592         1         0     50595         1         0
     50598         1         0     50601         1         0     50604         1         0
     50607         1         0     50610         1         0     50613         1         0
     50616         1         0     50619         1         0     50622         1         0
     50625         1         0     50628         1         0     50631         1         0
     50634         1         0     50637         1         0     50640         1         0
     50643         1         0     50646         1         0     50649         1         0
     50652         1         0     50655         1         0     50658         1         0
     50661         1         0     50664         1         0     50667         1         0
     50670         1         0     50673         1         0     50676         1         0
     50679         1         0     50682         1         0     50685         1         0
     50688         1         0     50691         1         0     50694         1         0
     50697         1         0     50700         1         0     50703         1         0
     50706         1         0     50709         1         0     50712         1         0
     50715         1         0     50718         1         0     50721         1         0
     50724         1         0     50727         1         0     50730         1         0
     50733         1         0     50736         1         0     50739         1         0
     50742         1         0     50745         1         0     50748         1         0
     50751         1         0     50754         1         0     50757         1         0
     50760         1         0     50763         1         0     50766         1         0
     50769         1         0     50772         1         0     50775         1         0
     50778         1         0     50781         1         0     50784         1         0
     50787         1         0     50790         1         0     50793         1         0
     50796         1         0     50799         1         0     50802         1         0
     50805         1         0     50808         1         0     50811         1         0
     50814         1         0     50817         1         0     50820         1         0
     50823         1         0     50826         1         0     50829         1         0
     50832         1         0     50835         1         0     50838         1         0
     50841         1         0     50844         1         0     50847         1         0
     50850         1         0     50853         1         0     50856         1         0
     50859         1         0     50862         1         0     50865         1         0
     50868         1         0     50871         1         0     50874         1         0
     50877         1         0     50880         1         0     50883         1         0
     50886         1         0     50889         1         0     50892         1         0
     50895         1         0     50898         1         0     50901         1         0
     50904         1         0     50907         1         0     50910         1         0
     50913         1         0     50916         1         0     50919         1         0
     50922         1         0     50925         1         0     50928         1         0
     50931         1         0     50934         1         0     50937         1         0
     50940         1         0     50943         1         0     50946         1         0
     50949         1         0     50952         1         0     50955         1         0
     50958         1         0     50961         1         0     50964         1         0
     50967         1         0     50970         1         0     50973         1         0
     50976         1         0     50979         1         0     50982         1         0
     50985         1         0     50988         1         0     50991         1         0
     50994         1         0     50997         1         0     51000         1         0
     51003         1         0     51006         1         0     51009         1         0
     51012         1         0     51015         1         0     51018         1         0
     51021         1         0     51024         1         0     51027         1         0
     51030         1         0     51033         1         0     51036         1         0
     51039         1         0     51042         1         0     51045         1         0
     51048         1         0     51051         1         0     51054         1         0
     51057         1         0     51060         1         0     51063         1         0
     51066         1         0     51069         1         0     51072         1         0
     51075         1         0     51078         1         0     51081         1         0
     51084         1         0     51087         1         0     51090         1         0
     51093         1         0     51096         1         0     51099         1         0
     51102         1         0     51105         1         0     51108         1         0
     51111         1         0     51114         1         0     51117         1         0
     51120         1         0     51123         1         0     51126         1         0
     51129         1         0     51132         1         0     51135         1         0
     51138         1         0     51141         1         0     51144         1         0
     51147         1         0     51150         1         0     51153         1         0
     51156         1         0     51159         1         0     51162         1         0
     51165         1         0     51168         1         0     51171         1         0
     51174         1         0     51177         1         0     51180         1         0
     51183         1         0     51186         1         0     51189         1         0
     51192         1         0     51195         1         0     51198         1         0
     51201         1         0     51204         1         0     51207         1         0
     51210         1         0     51213         1         0     51216         1         0
     51219         1         0     51222         1         0     51225         1         0
     51228         1         0     51231         1         0     51234         1         0
     51237         1         0     51240         1         0     51243         1         0
     51246         1         0     51249         1         0     51252         1         0
     51255         1         0     51258         1         0     51261         1         0
     51264         1         0     51267         1         0     51270         1         0
     51273         1         0     51276         1         0     51279         1         0
     51282         1         0     51285         1         0     51288         1         0
     51291         1         0     51294         1         0     51297         1         0
     51300         1         0     51303         1         0     51306         1         0
     51309         1         0     51312         1         0     51315         1         0
     51318         1         0     51321         1         0     51324         1         0
     51327         1         0     51330         1         0     51333         1         0
     51336         1         0     51339         1         0     51342         1         0
     51345         1         0     51348         1         0     51351         1         0
     51354         1         0     51357         1         0     51360         1         0
     51363         1         0     51366         1         0     51369         1         0
     51372         1         0     51375         1         0     51378         1         0
     51381         1         0     51384         1         0     51387         1         0
     51390         1         0     51393         1         0     51396         1         0
     51399         1         0     51402         1         0     51405         1         0
     51408         1         0     51411         1         0     51414         1         0
     51417         1         0     51420         1         0     51423         1         0
     51426         1         0     51429         1         0     51432         1         0
     51435         1         0     51438         1         0     51441         1         0
     51444         1         0     51447         1         0     51450         1         0
     51453         1         0     51456         1         0     51459         1         0
     51462         1         0     51465         1         0     51468         1         0
     51471         1         0     51474         1         0     51477         1         0
     51480         1         0     51483         1         0     51486         1         0
     51489         1         0     51492         1         0     51495         1         0
     51498         1         0     51501         1         0     51504         1         0
     51507         1         0     51510         1         0     51513         1         0
     51516         1         0     51519         1         0     51522         1         0
     51525         1         0     51528         1         0     51531         1         0
     51534         1         0     51537         1         0     51540         1         0
     51543         1         0     51546         1         0     51549         1         0
     51552         1         0     51555         1         0     51558         1         0
     51561         1         0     51564         1         0     51567         1         0
     51570         1         0     51573         1         0     51576         1         0
     51579         1         0     51582         1         0     51585         1         0
     51588         1         0     51591         1         0     51594         1         0
     51597         1         0     51600         1         0     51603         1         0
     51606         1         0     51609         1         0     51612         1         0
     51615         1         0     51618         1         0     51621         1         0
     51624         1         0     51627         1         0     51630         1         0
     51633         1         0     51636         1         0     51639         1         0
     51642         1         0     51645         1         0     51648         1         0
     51651         1         0     51654         1         0     51657         1         0
     51660         1         0     51663         1         0     51666         1         0
     51669         1         0     51672         1         0     51675         1         0
     51678         1         0     51681         1         0     51684         1         0
     51687         1         0     51690         1         0     51693         1         0
     51696         1         0     51699         1         0     51702         1         0
     51705         1         0     51708         1         0     51711         1         0
     51714         1         0     51717         1         0     51720         1         0
     51723         1         0     51726         1         0     51729         1         0
     51732         1         0     51735         1         0     51738         1         0
     51741         1         0     51744         1         0     51747         1         0
     51750         1         0     51753         1         0     51756         1         0
     51759         1         0     51762         1         0     51765         1         0
     51768         1         0     51771         1         0     51774         1         0
     51777         1         0     51780         1         0     51783         1         0
     51786         1         0     51789         1         0     51792         1         0
     51795         1         0     51798         1         0     51801         1         0
     51804         1         0     51807         1         0     51810         1         0
     51813         1         0     51816         1         0     51819         1         0
     51822         1         0     51825         1         0     51828         1         0
     51831         1         0     51834         1         0     51837         1         0
     51840         1         0     51843         1         0     51846         1         0
     51849         1         0     51852         1         0     51855         1         0
     51858         1         0     51861         1         0     51864         1         0
     51867         1         0     51870         1         0     51873         1         0
     51876         1         0     51879         1         0     51882         1         0
     51885         1         0     51888         1         0     51891         1         0
     51894         1         0     51897         1         0     51900         1         0
     51903         1         0     51906         1         0     51909         1         0
     51912         1         0     51915         1         0     51918         1         0
     51921         1         0     51924         1         0     51927         1         0
     51930         1         0     51933         1         0     51936         1         0
     51939         1         0     51942         1         0     51945         1         0
     51948         1         0     51951         1         0     51954         1         0
     51957         1         0     51960         1         0     51963         1         0
     51966         1         0     51969         1         0     51972         1         0
     51975         1         0     51978         1         0     51981         1         0
     51984         1         0     51987         1         0     51990         1         0
     51993         1         0     51996         1         0     51999         1         0
     52002         1         0     52005         1         0     52008         1         0
     52011         1         0     52014         1         0     52017         1         0
     52020         1         0     52023         1         0     52026         1         0
     52029         1         0     52032         1         0     52035         1         0
     52038         1         0     52041         1         0     52044         1         0
     52047         1         0     52050         1         0     52053         1         0
     52056         1         0     52059         1         0     52062         1         0
     52065         1         0     52068         1         0     52071         1         0
     52074         1         0     52077         1         0     52080         1         0
     52083         1         0     52086         1         0     52089         1         0
     52092         1         0     52095         1         0     52098         1         0
     52101         1         0     52104         1         0     52107         1         0
     52110         1         0     52113         1         0     52116         1         0
     52119         1         0     52122         1         0     52125         1         0
     52128         1         0     52131         1         0     52134         1         0
     52137         1         0     52140         1         0     52143         1         0
     52146         1         0     52149         1         0     52152         1         0
     52155         1         0     52158         1         0     52161         1         0
     52164         1         0     52167         1         0     52170         1         0
     52173         1         0     52176         1         0     52179         1         0
     52182         1         0     52185         1         0     52188         1         0
     52191         1         0     52194         1         0     52197         1         0
     52200         1         0     52203         1         0     52206         1         0
     52209         1         0     52212         1         0     52215         1         0
     52218         1         0     52221         1         0     52224         1         0
     52227         1         0     52230         1         0     52233         1         0
     52236         1         0     52239         1         0     52242         1         0
     52245         1         0     52248         1         0     52251         1         0
     52254         1         0     52257         1         0     52260         1         0
     52263         1         0     52266         1         0     52269         1         0
     52272         1         0     52275         1         0     52278         1         0
     52281         1         0     52284         1         0     52287         1         0
     52290         1         0     52293         1         0     52296         1         0
     52299         1         0     52302         1         0     52305         1         0
     52308         1         0     52311         1         0     52314         1         0
     52317         1         0     52320         1         0     52323         1         0
     52326         1         0     52329         1         0     52332         1         0
     52335         1         0     52338         1         0     52341         1         0
     52344         1         0     52347         1         0     52350         1         0
     52353         1         0     52356         1         0     52359         1         0
     52362         1         0     52365         1         0     52368         1         0
     52371         1         0     52374         1         0     52377         1         0
     52380         1         0     52383         1         0     52386         1         0
     52389         1         0     52392         1         0     52395         1         0
     52398         1         0     52401         1         0     52404         1         0
     52407         1         0     52410         1         0     52413         1         0
     52416         1         0     52419         1         0     52422         1         0
     52425         1         0     52428         1         0     52431         1         0
     52434         1         0     52437         1         0     52440         1         0
     52443         1         0     52446         1         0     52449         1         0
     52452         1         0     52455         1         0     52458         1         0
     52461         1         0     52464         1         0     52467         1         0
     52470         1         0     52473         1         0     52476         1         0
     52479         1         0     52482         1         0     52485         1         0
     52488         1         0     52491         1         0     52494         1         0
     52497         1         0     52500         1         0     52503         1         0
     52506         1         0     52509         1         0     52512         1         0
     52515         1         0     52518         1         0     52521         1         0
     52524         1         0     52527         1         0     52530         1         0
     52533         1         0     52536         1         0     52539         1         0
     52542         1         0     52545         1         0     52548         1         0
     52551         1         0     52554         1         0     52557         1         0
     52560         1         0     52563         1         0     52566         1         0
     52569         1         0     52572         1         0     52575         1         0
     52578         1         0     52581         1         0     52584         1         0
     52587         1         0     52590         1         0     52593         1         0
     52596         1         0     52599         1         0     52602         1         0
     52605         1         0     52608         1         0     52611         1         0
     52614         1         0     52617         1         0     52620         1         0
     52623         1         0     52626         1         0     52629         1         0
     52632         1         0     52635         1         0     52638         1         0
     52641         1         0     52644         1         0     52647         1         0
     52650         1         0     52653         1         0     52656         1         0
     52659         1         0     52662         1         0     52665         1         0
     52668         1         0     52671         1         0     52674         1         0
     52677         1         0     52680         1         0     52683         1         0
     52686         1         0     52689         1         0     52692         1         0
     52695         1         0     52698         1         0     52701         1         0
     52704         1         0     52707         1         0     52710         1         0
     52713         1         0     52716         1         0     52719         1         0
     52722         1         0     52725         1         0     52728         1         0
     52731         1         0     52734         1         0     52737         1         0
     52740         1         0     52743         1         0     52746         1         0
     52749         1         0     52752         1         0     52755         1         0
     52758         1         0     52761         1         0     52764         1         0
     52767         1         0     52770         1         0     52773         1         0
     52776         1         0     52779         1         0     52782         1         0
     52785         1         0     52788         1         0     52791         1         0
     52794         1         0     52797         1         0     52800         1         0
     52803         1         0     52806         1         0     52809         1         0
     52812         1         0     52815         1         0     52818         1         0
     52821         1         0     52824         1         0     52827         1         0
     52830         1         0     52833         1         0     52836         1         0
     52839         1         0     52842         1         0     52845         1         0
     52848         1         0     52851         1         0     52854         1         0
     52857         1         0     52860         1         0     52863         1         0
     52866         1         0     52869         1         0     52872         1         0
     52875         1         0     52878         1         0     52881         1         0
     52884         1         0     52887         1         0     52890         1         0
     52893         1         0     52896         1         0     52899         1         0
     52902         1         0     52905         1         0     52908         1         0
     52911         1         0     52914         1         0     52917         1         0
     52920         1         0     52923         1         0     52926         1         0
     52929         1         0     52932         1         0     52935         1         0
     52938         1         0     52941         1         0     52944         1         0
     52947         1         0     52950         1         0     52953         1         0
     52956         1         0     52959         1         0     52962         1         0
     52965         1         0     52968         1         0     52971         1         0
     52974         1         0     52977         1         0     52980         1         0
     52983         1         0     52986         1         0     52989         1         0
     52992         1         0     52995         1         0     52998         1         0
     53001         1         0     53004         1         0     53007         1         0
     53010         1         0     53013         1         0     53016         1         0
     53019         1         0     53022         1         0     53025         1         0
     53028         1         0     53031         1         0     53034         1         0
     53037         1         0     53040         1         0     53043         1         0
     53046         1         0     53049         1         0     53052         1         0
     53055         1         0     53058         1         0     53061         1         0
     53064         1         0     53067         1         0     53070         1         0
     53073         1         0     53076         1         0     53079         1         0
     53082         1         0     53085         1         0     53088         1         0
     53091         1         0     53094         1         0     53097         1         0
     53100         1         0     53103         1         0     53106         1         0
     53109         1         0     53112         1         0     53115         1         0
     53118         1         0     53121         1         0     53124         1         0
     53127         1         0     53130         1         0     53133         1         0
     53136         1         0     53139         1         0     53142         1         0
     53145         1         0     53148         1         0     53151         1         0
     53154         1         0     53157         1         0     53160         1         0
     53163         1         0     53166         1         0     53169         1         0
     53172         1         0     53175         1         0     53178         1         0
     53181         1         0     53184         1         0     53187         1         0
     53190         1         0     53193         1         0     53196         1         0
     53199         1         0     53202         1         0     53205         1         0
     53208         1         0     53211         1         0     53214         1         0
     53217         1         0     53220         1         0     53223         1         0
     53226         1         0     53229         1         0     53232         1         0
     53235         1         0     53238         1         0     53241         1         0
     53244         1         0     53247         1         0     53250         1         0
     53253         1         0     53256         1         0     53259         1         0
     53262         1         0     53265         1         0     53268         1         0
     53271         1         0     53274         1         0     53277         1         0
     53280         1         0     53283         1         0     53286         1         0
     53289         1         0     53292         1         0     53295         1         0
     53298         1         0     53301         1         0     53304         1         0
     53307         1         0     53310         1         0     53313         1         0
     53316         1         0     53319         1         0     53322         1         0
     53325         1         0     53328         1         0     53331         1         0
     53334         1         0     53337         1         0     53340         1         0
     53343         1         0     53346         1         0     53349         1         0
     53352         1         0     53355         1         0     53358         1         0
     53361         1         0     53364         1         0     53367         1         0
     53370         1         0     53373         1         0     53376         1         0
     53379         1         0     53382         1         0     53385         1         0
     53388         1         0     53391         1         0     53394         1         0
     53397         1         0     53400         1         0     53403         1         0
     53406         1         0     53409         1         0     53412         1         0
     53415         1         0     53418         1         0     53421         1         0
     53424         1         0     53427         1         0     53430         1         0
     53433         1         0     53436         1         0     53439         1         0
     53442         1         0     53445         1         0     53448         1         0
     53451         1         0     53454         1         0     53457         1         0
     53460         1         0     53463         1         0     53466         1         0
     53469         1         0     53472         1         0     53475         1         0
     53478         1         0     53481         1         0     53484         1         0
     53487         1         0     53490         1         0     53493         1         0
     53496         1         0     53499         1         0     53502         1         0
     53505         1         0     53508         1         0     53511         1         0
     53514         1         0     53517         1         0     53520         1         0
     53523         1         0     53526         1         0     53529         1         0
     53532         1         0     53535         1         0     53538         1         0
     53541         1         0     53544         1         0     53547         1         0
     53550         1         0     53553         1         0     53556         1         0
     53559         1         0     53562         1         0     53565         1         0
     53568         1         0     53571         1         0     53574         1         0
     53577         1         0     53580         1         0     53583         1         0
     53586         1         0     53589         1         0     53592         1         0
     53595         1         0     53598         1         0     53601         1         0
     53604         1         0     53607         1         0     53610         1         0
     53613         1         0     53616         1         0     53619         1         0
     53622         1         0     53625         1         0     53628         1         0
     53631         1         0     53634         1         0     53637         1         0
     53640         1         0     53643         1         0     53646         1         0
     53649         1         0     53652         1         0     53655         1         0
     53658         1         0     53661         1         0     53664         1         0
     53667         1         0     53670         1         0     53673         1         0
     53676         1         0     53679         1         0     53682         1         0
     53685         1         0     53688         1         0     53691         1         0
     53694         1         0     53697         1         0     53700         1         0
     53703         1         0     53706         1         0     53709         1         0
     53712         1         0     53715         1         0     53718         1         0
     53721         1         0     53724         1         0     53727         1         0
     53730         1         0     53733         1         0     53736         1         0
     53739         1         0     53742         1         0     53745         1         0
     53748         1         0     53751         1         0     53754         1         0
     53757         1         0     53760         1         0     53763         1         0
     53766         1         0     53769         1         0     53772         1         0
     53775         1         0     53778         1         0     53781         1         0
     53784         1         0     53787         1         0     53790         1         0
     53793         1         0     53796         1         0     53799         1         0
     53802         1         0     53805         1         0     53808         1         0
     53811         1         0     53814         1         0     53817         1         0
     53820         1         0     53823         1         0     53826         1         0
     53829         1         0     53832         1         0     53835         1         0
     53838         1         0     53841         1         0     53844         1         0
     53847         1         0     53850         1         0     53853         1         0
     53856         1         0     53859         1         0     53862         1         0
     53865         1         0     53868         1         0     53871         1         0
     53874         1         0     53877         1         0     53880         1         0
     53883         1         0     53886         1         0     53889         1         0
     53892         1         0     53895         1         0     53898         1         0
     53901         1         0     53904         1         0     53907         1         0
     53910         1         0     53913         1         0     53916         1         0
     53919         1         0     53922         1         0     53925         1         0
     53928         1         0     53931         1         0     53934         1         0
     53937         1         0     53940         1         0     53943         1         0
     53946         1         0     53949         1         0     53952         1         0
     53955         1         0     53958         1         0     53961         1         0
     53964         1         0     53967         1         0     53970         1         0
     53973         1         0     53976         1         0     53979         1         0
     53982         1         0     53985         1         0     53988         1         0
     53991         1         0     53994         1         0     53997         1         0
     54000         1         0     54003         1         0     54006         1         0
     54009         1         0     54012         1         0     54015         1         0
     54018         1         0     54021         1         0     54024         1         0
     54027         1         0     54030         1         0     54033         1         0
     54036         1         0     54039         1         0     54042         1         0
     54045         1         0     54048         1         0     54051         1         0
     54054         1         0     54057         1         0     54060         1         0
     54063         1         0     54066         1         0     54069         1         0
     54072         1         0     54075         1         0     54078         1         0
     54081         1         0     54084         1         0     54087         1         0
     54090         1         0     54093         1         0     54096         1         0
     54099         1         0     54102         1         0     54105         1         0
     54108         1         0     54111         1         0     54114         1         0
     54117         1         0     54120         1         0     54123         1         0
     54126         1         0     54129         1         0     54132         1         0
     54135         1         0     54138         1         0     54141         1         0
     54144         1         0     54147         1         0     54150         1         0
     54153         1         0     54156         1         0     54159         1         0
     54162         1         0     54165         1         0     54168         1         0
     54171         1         0     54174         1         0     54177         1         0
     54180         1         0     54183         1         0     54186         1         0
     54189         1         0     54192         1         0     54195         1         0
     54198         1         0     54201         1         0     54204         1         0
     54207         1         0     54210         1         0     54213         1         0
     54216         1         0     54219         1         0     54222         1         0
     54225         1         0     54228         1         0     54231         1         0
     54234         1         0     54237         1         0     54240         1         0
     54243         1         0     54246         1         0     54249         1         0
     54252         1         0     54255         1         0     54258         1         0
     54261         1         0     54264         1         0     54267         1         0
     54270         1         0     54273         1         0     54276         1         0
     54279         1         0     54282         1         0     54285         1         0
     54288         1         0     54291         1         0     54294         1         0
     54297         1         0     54300         1         0     54303         1         0
     54306         1         0     54309         1         0     54312         1         0
     54315         1         0     54318         1         0     54321         1         0
     54324         1         0     54327         1         0     54330         1         0
     54333         1         0     54336         1         0     54339         1         0
     54342         1         0     54345         1         0     54348         1         0
     54351         1         0     54354         1         0     54357         1         0
     54360         1         0     54363         1         0     54366         1         0
     54369         1         0     54372         1         0     54375         1         0
     54378         1         0     54381         1         0     54384         1         0
     54387         1         0     54390         1         0     54393         1         0
     54396         1         0     54399         1         0     54402         1         0
     54405         1         0     54408         1         0     54411         1         0
     54414         1         0     54417         1         0     54420         1         0
     54423         1         0     54426         1         0     54429         1         0
     54432         1         0     54435         1         0     54438         1         0
     54441         1         0     54444         1         0     54447         1         0
     54450         1         0     54453         1         0     54456         1         0
     54459         1         0     54462         1         0     54465         1         0
     54468         1         0     54471         1         0     54474         1         0
     54477         1         0     54480         1         0     54483         1         0
     54486         1         0     54489         1         0     54492         1         0
     54495         1         0     54498         1         0     54501         1         0
     54504         1         0     54507         1         0     54510         1         0
     54513         1         0     54516         1         0     54519         1         0
     54522         1         0     54525         1         0     54528         1         0
     54531         1         0     54534         1         0     54537         1         0
     54540         1         0     54543         1         0     54546         1         0
     54549         1         0     54552         1         0     54555         1         0
     54558         1         0     54561         1         0     54564         1         0
     54567         1         0     54570         1         0     54573         1         0
     54576         1         0     54579         1         0     54582         1         0
     54585         1         0     54588         1         0     54591         1         0
     54594         1         0     54597         1         0     54600         1         0
     54603         1         0     54606         1         0     54609         1         0
     54612         1         0     54615         1         0     54618         1         0
     54621         1         0     54624         1         0     54627         1         0
     54630         1         0     54633         1         0     54636         1         0
     54639         1         0     54642         1         0     54645         1         0
     54648         1         0     54651         1         0     54654         1         0
     54657         1         0     54660         1         0     54663         1         0
     54666         1         0     54669         1         0     54672         1         0
     54675         1         0     54678         1         0     54681         1         0
     54684         1         0     54687         1         0     54690         1         0
     54693         1         0     54696         1         0     54699         1         0
     54702         1         0     54705         1         0     54708         1         0
     54711         1         0     54714         1         0     54717         1         0
     54720         1         0     54723         1         0     54726         1         0
     54729         1         0     54732         1         0     54735         1         0
     54738         1         0     54741         1         0     54744         1         0
     54747         1         0     54750         1         0     54753         1         0
     54756         1         0     54759         1         0     54762         1         0
     54765         1         0     54768         1         0     54771         1         0
     54774         1         0     54777         1         0     54780         1         0
     54783         1         0     54786         1         0     54789         1         0
     54792         1         0     54795         1         0     54798         1         0
     54801         1         0     54804         1         0     54807         1         0
     54810         1         0     54813         1         0     54816         1         0
     54819         1         0     54822         1         0     54825         1         0
     54828         1         0     54831         1         0     54834         1         0
     54837         1         0     54840         1         0     54843         1         0
     54846         1         0     54849         1         0     54852         1         0
     54855         1         0     54858         1         0     54861         1         0
     54864         1         0     54867         1         0     54870         1         0
     54873         1         0     54876         1         0     54879         1         0
     54882         1         0     54885         1         0     54888         1         0
     54891         1         0     54894         1         0     54897         1         0
     54900         1         0     54903         1         0     54906         1         0
     54909         1         0     54912         1         0     54915         1         0
     54918         1         0     54921         1         0     54924         1         0
     54927         1         0     54930         1         0     54933         1         0
     54936         1         0     54939         1         0     54942         1         0
     54945         1         0     54948         1         0     54951         1         0
     54954         1         0     54957         1         0     54960         1         0
     54963         1         0     54966         1         0     54969         1         0
     54972         1         0     54975         1         0     54978         1         0
     54981         1         0     54984         1         0     54987         1         0
     54990         1         0     54993         1         0     54996         1         0
     54999         1         0     55002         1         0     55005         1         0
     55008         1         0     55011         1         0     55014         1         0
     55017         1         0     55020         1         0     55023         1         0
     55026         1         0     55029         1         0     55032         1         0
     55035         1         0     55038         1         0     55041         1         0
     55044         1         0     55047         1         0     55050         1         0
     55053         1         0     55056         1         0     55059         1         0
     55062         1         0     55065         1         0     55068         1         0
     55071         1         0     55074         1         0     55077         1         0
     55080         1         0     55083         1         0     55086         1         0
     55089         1         0     55092         1         0     55095         1         0
     55098         1         0     55101         1         0     55104         1         0
     55107         1         0     55110         1         0     55113         1         0
     55116         1         0     55119         1         0     55122         1         0
     55125         1         0     55128         1         0     55131         1         0
     55134         1         0     55137         1         0     55140         1         0
     55143         1         0     55146         1         0     55149         1         0
     55152         1         0     55155         1         0     55158         1         0
     55161         1         0     55164         1         0     55167         1         0
     55170         1         0     55173         1         0     55176         1         0
     55179         1         0     55182         1         0     55185         1         0
     55188         1         0     55191         1         0     55194         1         0
     55197         1         0     55200         1         0     55203         1         0
     55206         1         0     55209         1         0     55212         1         0
     55215         1         0     55218         1         0     55221         1         0
     55224         1         0     55227         1         0     55230         1         0
     55233         1         0     55236         1         0     55239         1         0
     55242         1         0     55245         1         0     55248         1         0
     55251         1         0     55254         1         0     55257         1         0
     55260         1         0     55263         1         0     55266         1         0
     55269         1         0     55272         1         0     55275         1         0
     55278         1         0     55281         1         0     55284         1         0
     55287         1         0     55290         1         0     55293         1         0
     55296         1         0     55299         1         0     55302         1         0
     55305         1         0     55308         1         0     55311         1         0
     55314         1         0     55317         1         0     55320         1         0
     55323         1         0     55326         1         0     55329         1         0
     55332         1         0     55335         1         0     55338         1         0
     55341         1         0     55344         1         0     55347         1         0
     55350         1         0     55353         1         0     55356         1         0
     55359         1         0     55362         1         0     55365         1         0
     55368         1         0     55371         1         0     55374         1         0
     55377         1         0     55380         1         0     55383         1         0
     55386         1         0     55389         1         0     55392         1         0
     55395         1         0     55398         1         0     55401         1         0
     55404         1         0     55407         1         0     55410         1         0
     55413         1         0     55416         1         0     55419         1         0
     55422         1         0     55425         1         0     55428         1         0
     55431         1         0     55434         1         0     55437         1         0
     55440         1         0     55443         1         0     55446         1         0
     55449         1         0     55452         1         0     55455         1         0
     55458         1         0     55461         1         0     55464         1         0
     55467         1         0     55470         1         0     55473         1         0
     55476         1         0     55479         1         0     55482         1         0
     55485         1         0     55488         1         0     55491         1         0
     55494         1         0     55497         1         0     55500         1         0
     55503         1         0     55506         1         0     55509         1         0
     55512         1         0     55515         1         0     55518         1         0
     55521         1         0     55524         1         0     55527         1         0
     55530         1         0     55533         1         0     55536         1         0
     55539         1         0     55542         1         0     55545         1         0
     55548         1         0     55551         1         0     55554         1         0
     55557         1         0     55560         1         0     55563         1         0
     55566         1         0     55569         1         0     55572         1         0
     55575         1         0     55578         1         0     55581         1         0
     55584         1         0     55587         1         0     55590         1         0
     55593         1         0     55596         1         0     55599         1         0
     55602         1         0     55605         1         0     55608         1         0
     55611         1         0     55614         1         0     55617         1         0
     55620         1         0     55623         1         0     55626         1         0
     55629         1         0     55632         1         0     55635         1         0
     55638         1         0     55641         1         0     55644         1         0
     55647         1         0     55650         1         0     55653         1         0
     55656         1         0     55659         1         0     55662         1         0
     55665         1         0     55668         1         0     55671         1         0
     55674         1         0     55677         1         0     55680         1         0
     55683         1         0     55686         1         0     55689         1         0
     55692         1         0     55695         1         0     55698         1         0
     55701         1         0     55704         1         0     55707         1         0
     55710         1         0     55713         1         0     55716         1         0
     55719         1         0     55722         1         0     55725         1         0
     55728         1         0     55731         1         0     55734         1         0
     55737         1         0     55740         1         0     55743         1         0
     55746         1         0     55749         1         0     55752         1         0
     55755         1         0     55758         1         0     55761         1         0
     55764         1         0     55767         1         0     55770         1         0
     55773         1         0     55776         1         0     55779         1         0
     55782         1         0     55785         1         0     55788         1         0
     55791         1         0     55794         1         0     55797         1         0
     55800         1         0     55803         1         0     55806         1         0
     55809         1         0     55812         1         0     55815         1         0
     55818         1         0     55821         1         0     55824         1         0
     55827         1         0     55830         1         0     55833         1         0
     55836         1         0     55839         1         0     55842         1         0
     55845         1         0     55848         1         0     55851         1         0
     55854         1         0     55857         1         0     55860         1         0
     55863         1         0     55866         1         0     55869         1         0
     55872         1         0     55875         1         0     55878         1         0
     55881         1         0     55884         1         0     55887         1         0
     55890         1         0     55893         1         0     55896         1         0
     55899         1         0     55902         1         0     55905         1         0
     55908         1         0     55911         1         0     55914         1         0
     55917         1         0     55920         1         0     55923         1         0
     55926         1         0     55929         1         0     55932         1         0
     55935         1         0     55938         1         0     55941         1         0
     55944         1         0     55947         1         0     55950         1         0
     55953         1         0     55956         1         0     55959         1         0
     55962         1         0     55965         1         0     55968         1         0
     55971         1         0     55974         1         0     55977         1         0
     55980         1         0     55983         1         0     55986         1         0
     55989         1         0     55992         1         0     55995         1         0
     55998         1         0     56001         1         0     56004         1         0
     56007         1         0     56010         1         0     56013         1         0
     56016         1         0     56019         1         0     56022         1         0
     56025         1         0     56028         1         0     56031         1         0
     56034         1         0     56037         1         0     56040         1         0
     56043         1         0     56046         1         0     56049         1         0
     56052         1         0     56055         1         0     56058         1         0
     56061         1         0     56064         1         0     56067         1         0
     56070         1         0     56073         1         0     56076         1         0
     56079         1         0     56082         1         0     56085         1         0
     56088         1         0     56091         1         0     56094         1         0
     56097         1         0     56100         1         0     56103         1         0
     56106         1         0     56109         1         0     56112         1         0
     56115         1         0     56118         1         0     56121         1         0
     56124         1         0     56127         1         0     56130         1         0
     56133         1         0     56136         1         0     56139         1         0
     56142         1         0     56145         1         0     56148         1         0
     56151         1         0     56154         1         0     56157         1         0
     56160         1         0     56163         1         0     56166         1         0
     56169         1         0     56172         1         0     56175         1         0
     56178         1         0     56181         1         0     56184         1         0
     56187         1         0     56190         1         0     56193         1         0
     56196         1         0     56199         1         0     56202         1         0
     56205         1         0     56208         1         0     56211         1         0
     56214         1         0     56217         1         0     56220         1         0
     56223         1         0     56226         1         0     56229         1         0
     56232         1         0     56235         1         0     56238         1         0
     56241         1         0     56244         1         0     56247         1         0
     56250         1         0     56253         1         0     56256         1         0
     56259         1         0     56262         1         0     56265         1         0
     56268         1         0     56271         1         0     56274         1         0
     56277         1         0     56280         1         0     56283         1         0
     56286         1         0     56289         1         0     56292         1         0
     56295         1         0     56298         1         0     56301         1         0
     56304         1         0     56307         1         0     56310         1         0
     56313         1         0     56316         1         0     56319         1         0
     56322         1         0     56325         1         0     56328         1         0
     56331         1         0     56334         1         0     56337         1         0
     56340         1         0     56343         1         0     56346         1         0
     56349         1         0     56352         1         0     56355         1         0
     56358         1         0     56361         1         0     56364         1         0
     56367         1         0     56370         1         0     56373         1         0
     56376         1         0     56379         1         0     56382         1         0
     56385         1         0     56388         1         0     56391         1         0
     56394         1         0     56397         1         0     56400         1         0
     56403         1         0     56406         1         0     56409         1         0
     56412         1         0     56415         1         0     56418         1         0
     56421         1         0     56424         1         0     56427         1         0
     56430         1         0     56433         1         0     56436         1         0
     56439         1         0     56442         1         0     56445         1         0
     56448         1         0     56451         1         0     56454         1         0
     56457         1         0     56460         1         0     56463         1         0
     56466         1         0     56469         1         0     56472         1         0
     56475         1         0     56478         1         0     56481         1         0
     56484         1         0     56487         1         0     56490         1         0
     56493         1         0     56496         1         0     56499         1         0
     56502         1         0     56505         1         0     56508         1         0
     56511         1         0     56514         1         0     56517         1         0
     56520         1         0     56523         1         0     56526         1         0
     56529         1         0     56532         1         0     56535         1         0
     56538         1         0     56541         1         0     56544         1         0
     56547         1         0     56550         1         0     56553         1         0
     56556         1         0     56559         1         0     56562         1         0
     56565         1         0     56568         1         0     56571         1         0
     56574         1         0     56577         1         0     56580         1         0
     56583         1         0     56586         1         0     56589         1         0
     56592         1         0     56595         1         0     56598         1         0
     56601         1         0     56604         1         0     56607         1         0
     56610         1         0     56613         1         0     56616         1         0
     56619         1         0     56622         1         0     56625         1         0
     56628         1         0     56631         1         0     56634         1         0
     56637         1         0     56640         1         0     56643         1         0
     56646         1         0     56649         1         0     56652         1         0
     56655         1         0     56658         1         0     56661         1         0
     56664         1         0     56667         1         0     56670         1         0
     56673         1         0     56676         1         0     56679         1         0
     56682         1         0     56685         1         0     56688         1         0
     56691         1         0     56694         1         0     56697         1         0
     56700         1         0     56703         1         0     56706         1         0
     56709         1         0     56712         1         0     56715         1         0
     56718         1         0     56721         1         0     56724         1         0
     56727         1         0     56730         1         0     56733         1         0
     56736         1         0     56739         1         0     56742         1         0
     56745         1         0     56748         1         0     56751         1         0
     56754         1         0     56757         1         0     56760         1         0
     56763         1         0     56766         1         0     56769         1         0
     56772         1         0     56775         1         0     56778         1         0
     56781         1         0     56784         1         0     56787         1         0
     56790         1         0     56793         1         0     56796         1         0
     56799         1         0     56802         1         0     56805         1         0
     56808         1         0     56811         1         0     56814         1         0
     56817         1         0     56820         1         0     56823         1         0
     56826         1         0     56829         1         0     56832         1         0
     56835         1         0     56838         1         0     56841         1         0
     56844         1         0     56847         1         0     56850         1         0
     56853         1         0     56856         1         0     56859         1         0
     56862         1         0     56865         1         0     56868         1         0
     56871         1         0     56874         1         0     56877         1         0
     56880         1         0     56883         1         0     56886         1         0
     56889         1         0     56892         1         0     56895         1         0
     56898         1         0     56901         1         0     56904         1         0
     56907         1         0     56910         1         0     56913         1         0
     56916         1         0     56919         1         0     56922         1         0
     56925         1         0     56928         1         0     56931         1         0
     56934         1         0     56937         1         0     56940         1         0
     56943         1         0     56946         1         0     56949         1         0
     56952         1         0     56955         1         0     56958         1         0
     56961         1         0     56964         1         0     56967         1         0
     56970         1         0     56973         1         0     56976         1         0
     56979         1         0     56982         1         0     56985         1         0
     56988         1         0     56991         1         0     56994         1         0
     56997         1         0     57000         1         0     57003         1         0
     57006         1         0     57009         1         0     57012         1         0
     57015         1         0     57018         1         0     57021         1         0
     57024         1         0     57027         1         0     57030         1         0
     57033         1         0     57036         1         0     57039         1         0
     57042         1         0     57045         1         0     57048         1         0
     57051         1         0     57054         1         0     57057         1         0
     57060         1         0     57063         1         0     57066         1         0
     57069         1         0     57072         1         0     57075         1         0
     57078         1         0     57081         1         0     57084         1         0
     57087         1         0     57090         1         0     57093         1         0
     57096         1         0     57099         1         0     57102         1         0
     57105         1         0     57108         1         0     57111         1         0
     57114         1         0     57117         1         0     57120         1         0
     57123         1         0     57126         1         0     57129         1         0
     57132         1         0     57135         1         0     57138         1         0
     57141         1         0     57144         1         0     57147         1         0
     57150         1         0     57153         1         0     57156         1         0
     57159         1         0     57162         1         0     57165         1         0
     57168         1         0     57171         1         0     57174         1         0
     57177         1         0     57180         1         0     57183         1         0
     57186         1         0     57189         1         0     57192         1         0
     57195         1         0     57198         1         0     57201         1         0
     57204         1         0     57207         1         0     57210         1         0
     57213         1         0     57216         1         0     57219         1         0
     57222         1         0     57225         1         0     57228         1         0
     57231         1         0     57234         1         0     57237         1         0
     57240         1         0     57243         1         0     57246         1         0
     57249         1         0     57252         1         0     57255         1         0
     57258         1         0     57261         1         0     57264         1         0
     57267         1         0     57270         1         0     57273         1         0
     57276         1         0     57279         1         0     57282         1         0
     57285         1         0     57288         1         0     57291         1         0
     57294         1         0     57297         1         0     57300         1         0
     57303         1         0     57306         1         0     57309         1         0
     57312         1         0     57315         1         0     57318         1         0
     57321         1         0     57324         1         0     57327         1         0
     57330         1         0     57333         1         0     57336         1         0
     57339         1         0     57342         1         0     57345         1         0
     57348         1         0     57351         1         0     57354         1         0
     57357         1         0     57360         1         0     57363         1         0
     57366         1         0     57369         1         0     57372         1         0
     57375         1         0     57378         1         0     57381         1         0
     57384         1         0     57387         1         0     57390         1         0
     57393         1         0     57396         1         0     57399         1         0
     57402         1         0     57405         1         0     57408         1         0
     57411         1         0     57414         1         0     57417         1         0
     57420         1         0     57423         1         0     57426         1         0
     57429         1         0     57432         1         0     57435         1         0
     57438         1         0     57441         1         0     57444         1         0
     57447         1         0     57450         1         0     57453         1         0
     57456         1         0     57459         1         0     57462         1         0
     57465         1         0     57468         1         0     57471         1         0
     57474         1         0     57477         1         0     57480         1         0
     57483         1         0     57486         1         0     57489         1         0
     57492         1         0     57495         1         0     57498         1         0
     57501         1         0     57504         1         0     57507         1         0
     57510         1         0     57513         1         0     57516         1         0
     57519         1         0     57522         1         0     57525         1         0
     57528         1         0     57531         1         0     57534         1         0
     57537         1         0     57540         1         0     57543         1         0
     57546         1         0     57549         1         0     57552         1         0
     57555         1         0     57558         1         0     57561         1         0
     57564         1         0     57567         1         0     57570         1         0
     57573         1         0     57576         1         0     57579         1         0
     57582         1         0     57585         1         0     57588         1         0
     57591         1         0     57594         1         0     57597         1         0
     57600         1         0     57603         1         0     57606         1         0
     57609         1         0     57612         1         0     57615         1         0
     57618         1         0     57621         1         0     57624         1         0
     57627         1         0     57630         1         0     57633         1         0
     57636         1         0     57639         1         0     57642         1         0
     57645         1         0     57648         1         0     57651         1         0
     57654         1         0     57657         1         0     57660         1         0
     57663         1         0     57666         1         0     57669         1         0
     57672         1         0     57675         1         0     57678         1         0
     57681         1         0     57684         1         0     57687         1         0
     57690         1         0     57693         1         0     57696         1         0
     57699         1         0     57702         1         0     57705         1         0
     57708         1         0     57711         1         0     57714         1         0
     57717         1         0     57720         1         0     57723         1         0
     57726         1         0     57729         1         0     57732         1         0
     57735         1         0     57738         1         0     57741         1         0
     57744         1         0     57747         1         0     57750         1         0
     57753         1         0     57756         1         0     57759         1         0
     57762         1         0     57765         1         0     57768         1         0
     57771         1         0     57774         1         0     57777         1         0
     57780         1         0     57783         1         0     57786         1         0
     57789         1         0     57792         1         0     57795         1         0
     57798         1         0     57801         1         0     57804         1         0
     57807         1         0     57810         1         0     57813         1         0
     57816         1         0     57819         1         0     57822         1         0
     57825         1         0     57828         1         0     57831         1         0
     57834         1         0     57837         1         0     57840         1         0
     57843         1         0     57846         1         0     57849         1         0
     57852         1         0     57855         1         0     57858         1         0
     57861         1         0     57864         1         0     57867         1         0
     57870         1         0     57873         1         0     57876         1         0
     57879         1         0     57882         1         0     57885         1         0
     57888         1         0     57891         1         0     57894         1         0
     57897         1         0     57900         1         0     57903         1         0
     57906         1         0     57909         1         0     57912         1         0
     57915         1         0     57918         1         0     57921         1         0
     57924         1         0     57927         1         0     57930         1         0
     57933         1         0     57936         1         0     57939         1         0
     57942         1         0     57945         1         0     57948         1         0
     57951         1         0     57954         1         0     57957         1         0
     57960         1         0     57963         1         0     57966         1         0
     57969         1         0     57972         1         0     57975         1         0
     57978         1         0     57981         1         0     57984         1         0
     57987         1         0     57990         1         0     57993         1         0
     57996         1         0     57999         1         0     58002         1         0
     58005         1         0     58008         1         0     58011         1         0
     58014         1         0     58017         1         0     58020         1         0
     58023         1         0     58026         1         0     58029         1         0
     58032         1         0     58035         1         0     58038         1         0
     58041         1         0     58044         1         0     58047         1         0
     58050         1         0     58053         1         0     58056         1         0
     58059         1         0     58062         1         0     58065         1         0
     58068         1         0     58071         1         0     58074         1         0
     58077         1         0     58080         1         0     58083         1         0
     58086         1         0     58089         1         0     58092         1         0
     58095         1         0     58098         1         0     58101         1         0
     58104         1         0     58107         1         0     58110         1         0
     58113         1         0     58116         1         0     58119         1         0
     58122         1         0     58125         1         0     58128         1         0
     58131         1         0     58134         1         0     58137         1         0
     58140         1         0     58143         1         0     58146         1         0
     58149         1         0     58152         1         0     58155         1         0
     58158         1         0     58161         1         0     58164         1         0
     58167         1         0     58170         1         0     58173         1         0
     58176         1         0     58179         1         0     58182         1         0
     58185         1         0     58188         1         0     58191         1         0
     58194         1         0     58197         1         0     58200         1         0
     58203         1         0     58206         1         0     58209         1         0
     58212         1         0     58215         1         0     58218         1         0
     58221         1         0     58224         1         0     58227         1         0
     58230         1         0     58233         1         0     58236         1         0
     58239         1         0     58242         1         0     58245         1         0
     58248         1         0     58251         1         0     58254         1         0
     58257         1         0     58260         1         0     58263         1         0
     58266         1         0     58269         1         0     58272         1         0
     58275         1         0     58278         1         0     58281         1         0
     58284         1         0     58287         1         0     58290         1         0
     58293         1         0     58296         1         0     58299         1         0
     58302         1         0     58305         1         0     58308         1         0
     58311         1         0     58314         1         0     58317         1         0
     58320         1         0     58323         1         0     58326         1         0
     58329         1         0     58332         1         0     58335         1         0
     58338         1         0     58341         1         0     58344         1         0
     58347         1         0     58350         1         0     58353         1         0
     58356         1         0     58359         1         0     58362         1         0
     58365         1         0     58368         1         0     58371         1         0
     58374         1         0     58377         1         0     58380         1         0
     58383         1         0     58386         1         0     58389         1         0
     58392         1         0     58395         1         0     58398         1         0
     58401         1         0     58404         1         0     58407         1         0
     58410         1         0     58413         1         0     58416         1         0
     58419         1         0     58422         1         0     58425         1         0
     58428         1         0     58431         1         0     58434         1         0
     58437         1         0     58440         1         0     58443         1         0
     58446         1         0     58449         1         0     58452         1         0
     58455         1         0     58458         1         0     58461         1         0
     58464         1         0     58467         1         0     58470         1         0
     58473         1         0     58476         1         0     58479         1         0
     58482         1         0     58485         1         0     58488         1         0
     58491         1         0     58494         1         0     58497         1         0
     58500         1         0     58503         1         0     58506         1         0
     58509         1         0     58512         1         0     58515         1         0
     58518         1         0     58521         1         0     58524         1         0
     58527         1         0     58530         1         0     58533         1         0
     58536         1         0     58539         1         0     58542         1         0
     58545         1         0     58548         1         0     58551         1         0
     58554         1         0     58557         1         0     58560         1         0
     58563         1         0     58566         1         0     58569         1         0
     58572         1         0     58575         1         0     58578         1         0
     58581         1         0     58584         1         0     58587         1         0
     58590         1         0     58593         1         0     58596         1         0
     58599         1         0     58602         1         0     58605         1         0
     58608         1         0     58611         1         0     58614         1         0
     58617         1         0     58620         1         0     58623         1         0
     58626         1         0     58629         1         0     58632         1         0
     58635         1         0     58638         1         0     58641         1         0
     58644         1         0     58647         1         0     58650         1         0
     58653         1         0     58656         1         0     58659         1         0
     58662         1         0     58665         1         0     58668         1         0
     58671         1         0     58674         1         0     58677         1         0
     58680         1         0     58683         1         0     58686         1         0
     58689         1         0     58692         1         0     58695         1         0
     58698         1         0     58701         1         0     58704         1         0
     58707         1         0     58710         1         0     58713         1         0
     58716         1         0     58719         1         0     58722         1         0
     58725         1         0     58728         1         0     58731         1         0
     58734         1         0     58737         1         0     58740         1         0
     58743         1         0     58746         1         0     58749         1         0
     58752         1         0     58755         1         0     58758         1         0
     58761         1         0     58764         1         0     58767         1         0
     58770         1         0     58773         1         0     58776         1         0
     58779         1         0     58782         1         0     58785         1         0
     58788         1         0     58791         1         0     58794         1         0
     58797         1         0     58800         1         0     58803         1         0
     58806         1         0     58809         1         0     58812         1         0
     58815         1         0     58818         1         0     58821         1         0
     58824         1         0     58827         1         0     58830         1         0
     58833         1         0     58836         1         0     58839         1         0
     58842         1         0     58845         1         0     58848         1         0
     58851         1         0     58854         1         0     58857         1         0
     58860         1         0     58863         1         0     58866         1         0
     58869         1         0     58872         1         0     58875         1         0
     58878         1         0     58881         1         0     58884         1         0
     58887         1         0     58890         1         0     58893         1         0
     58896         1         0     58899         1         0     58902         1         0
     58905         1         0     58908         1         0     58911         1         0
     58914         1         0     58917         1         0     58920         1         0
     58923         1         0     58926         1         0     58929         1         0
     58932         1         0     58935         1         0     58938         1         0
     58941         1         0     58944         1         0     58947         1         0
     58950         1         0     58953         1         0     58956         1         0
     58959         1         0     58962         1         0     58965         1         0
     58968         1         0     58971         1         0     58974         1         0
     58977         1         0     58980         1         0     58983         1         0
     58986         1         0     58989         1         0     58992         1         0
     58995         1         0     58998         1         0     59001         1         0
     59004         1         0     59007         1         0     59010         1         0
     59013         1         0     59016         1         0     59019         1         0
     59022         1         0     59025         1         0     59028         1         0
     59031         1         0     59034         1         0     59037         1         0
     59040         1         0     59043         1         0     59046         1         0
     59049         1         0     59052         1         0     59055         1         0
     59058         1         0     59061         1         0     59064         1         0
     59067         1         0     59070         1         0     59073         1         0
     59076         1         0     59079         1         0     59082         1         0
     59085         1         0     59088         1         0     59091         1         0
     59094         1         0     59097         1         0     59100         1         0
     59103         1         0     59106         1         0     59109         1         0
     59112         1         0     59115         1         0     59118         1         0
     59121         1         0     59124         1         0     59127         1         0
     59130         1         0     59133         1         0     59136         1         0
     59139         1         0     59142         1         0     59145         1         0
     59148         1         0     59151         1         0     59154         1         0
     59157         1         0     59160         1         0     59163         1         0
     59166         1         0     59169         1         0     59172         1         0
     59175         1         0     59178         1         0     59181         1         0
     59184         1         0     59187         1         0     59190         1         0
     59193         1         0     59196         1         0     59199         1         0
     59202         1         0     59205         1         0     59208         1         0
     59211         1         0     59214         1         0     59217         1         0
     59220         1         0     59223         1         0     59226         1         0
     59229         1         0     59232         1         0     59235         1         0
     59238         1         0     59241         1         0     59244         1         0
     59247         1         0     59250         1         0     59253         1         0
     59256         1         0     59259         1         0     59262         1         0
     59265         1         0     59268         1         0     59271         1         0
     59274         1         0     59277         1         0     59280         1         0
     59283         1         0     59286         1         0     59289         1         0
     59292         1         0     59295         1         0     59298         1         0
     59301         1         0     59304         1         0     59307         1         0
     59310         1         0     59313         1         0     59316         1         0
     59319         1         0     59322         1         0     59325         1         0
     59328         1         0     59331         1         0     59334         1         0
     59337         1         0     59340         1         0     59343         1         0
     59346         1         0     59349         1         0     59352         1         0
     59355         1         0     59358         1         0     59361         1         0
     59364         1         0     59367         1         0     59370         1         0
     59373         1         0     59376         1         0     59379         1         0
     59382         1         0     59385         1         0     59388         1         0
     59391         1         0     59394         1         0     59397         1         0
     59400         1         0     59403         1         0     59406         1         0
     59409         1         0     59412         1         0     59415         1         0
     59418         1         0     59421         1         0     59424         1         0
     59427         1         0     59430         1         0     59433         1         0
     59436         1         0     59439         1         0     59442         1         0
     59445         1         0     59448         1         0     59451         1         0
     59454         1         0     59457         1         0     59460         1         0
     59463         1         0     59466         1         0     59469         1         0
     59472         1         0     59475         1         0     59478         1         0
     59481         1         0     59484         1         0     59487         1         0
     59490         1         0     59493         1         0     59496         1         0
     59499         1         0     59502         1         0     59505         1         0
     59508         1         0     59511         1         0     59514         1         0
     59517         1         0     59520         1         0     59523         1         0
     59526         1         0     59529         1         0     59532         1         0
     59535         1         0     59538         1         0     59541         1         0
     59544         1         0     59547         1         0     59550         1         0
     59553         1         0     59556         1         0     59559         1         0
     59562         1         0     59565         1         0     59568         1         0
     59571         1         0     59574         1         0     59577         1         0
     59580         1         0     59583         1         0     59586         1         0
     59589         1         0     59592         1         0     59595         1         0
     59598         1         0     59601         1         0     59604         1         0
     59607         1         0     59610         1         0     59613         1         0
     59616         1         0     59619         1         0     59622         1         0
     59625         1         0     59628         1         0     59631         1         0
     59634         1         0     59637         1         0     59640         1         0
     59643         1         0     59646         1         0     59649         1         0
     59652         1         0     59655         1         0     59658         1         0
     59661         1         0     59664         1         0     59667         1         0
     59670         1         0     59673         1         0     59676         1         0
     59679         1         0     59682         1         0     59685         1         0
     59688         1         0     59691         1         0     59694         1         0
     59697         1         0     59700         1         0     59703         1         0
     59706         1         0     59709         1         0     59712         1         0
     59715         1         0     59718         1         0     59721         1         0
     59724         1         0     59727         1         0     59730         1         0
     59733         1         0     59736         1         0     59739         1         0
     59742         1         0     59745         1         0     59748         1         0
     59751         1         0     59754         1         0     59757         1         0
     59760         1         0     59763         1         0     59766         1         0
     59769         1         0     59772         1         0     59775         1         0
     59778         1         0     59781         1         0     59784         1         0
     59787         1         0     59790         1         0     59793         1         0
     59796         1         0     59799         1         0     59802         1         0
     59805         1         0     59808         1         0     59811         1         0
     59814         1         0     59817         1         0     59820         1         0
     59823         1         0     59826         1         0     59829         1         0
     59832         1         0     59835         1         0     59838         1         0
     59841         1         0     59844         1         0     59847         1         0
     59850         1         0     59853         1         0     59856         1         0
     59859         1         0     59862         1         0     59865         1         0
     59868         1         0     59871         1         0     59874         1         0
     59877         1         0     59880         1         0     59883         1         0
     59886         1         0     59889         1         0     59892         1         0
     59895         1         0     59898         1         0     59901         1         0
     59904         1         0     59907         1         0     59910         1         0
     59913         1         0     59916         1         0     59919         1         0
     59922         1         0     59925         1         0     59928         1         0
     59931         1         0     59934         1         0     59937         1         0
     59940         1         0     59943         1         0     59946         1         0
     59949         1         0     59952         1         0     59955         1         0
     59958         1         0     59961         1         0     59964         1         0
     59967         1         0     59970         1         0     59973         1         0
     59976         1         0     59979         1         0     59982         1         0
     59985         1         0     59988         1         0     59991         1         0
     59994         1         0     59997         1         0     60000         1         0
     60003         1         0     60006         1         0     60009         1         0
     60012         1         0     60015         1         0     60018         1         0
     60021         1         0     60024         1         0     60027         1         0
     60030         1         0     60033         1         0     60036         1         0
     60039         1         0     60042         1         0     60045         1         0
     60048         1         0     60051         1         0     60054         1         0
     60057         1         0     60060         1         0     60063         1         0
     60066         1         0     60069         1         0     60072         1         0
     60075         1         0     60078         1         0     60081         1         0
     60084         1         0     60087         1         0     60090         1         0
     60093         1         0     60096         1         0     60099         1         0
     60102         1         0     60105         1         0     60108         1         0
     60111         1         0     60114         1         0     60117         1         0
     60120         1         0     60123         1         0     60126         1         0
     60129         1         0     60132         1         0     60135         1         0
     60138         1         0     60141         1         0     60144         1         0
     60147         1         0     60150         1         0     60153         1         0
     60156         1         0     60159         1         0     60162         1         0
     60165         1         0     60168         1         0     60171         1         0
     60174         1         0     60177         1         0     60180         1         0
     60183         1         0     60186         1         0     60189         1         0
     60192         1         0     60195         1         0     60198         1         0
     60201         1         0     60204         1         0     60207         1         0
     60210         1         0     60213         1         0     60216         1         0
     60219         1         0     60222         1         0     60225         1         0
     60228         1         0     60231         1         0     60234         1         0
     60237         1         0     60240         1         0     60243         1         0
     60246         1         0     60249         1         0     60252         1         0
     60255         1         0     60258         1         0     60261         1         0
     60264         1         0     60267         1         0     60270         1         0
     60273         1         0     60276         1         0     60279         1         0
     60282         1         0     60285         1         0     60288         1         0
     60291         1         0     60294         1         0     60297         1         0
     60300         1         0     60303         1         0     60306         1         0
     60309         1         0     60312         1         0     60315         1         0
     60318         1         0     60321         1         0     60324         1         0
     60327         1         0     60330         1         0     60333         1         0
     60336         1         0     60339         1         0     60342         1         0
     60345         1         0     60348         1         0     60351         1         0
     60354         1         0     60357         1         0     60360         1         0
     60363         1         0     60366         1         0     60369         1         0
     60372         1         0     60375         1         0     60378         1         0
     60381         1         0     60384         1         0     60387         1         0
     60390         1         0     60393         1         0     60396         1         0
     60399         1         0     60402         1         0     60405         1         0
     60408         1         0     60411         1         0     60414         1         0
     60417         1         0     60420         1         0     60423         1         0
     60426         1         0     60429         1         0     60432         1         0
     60435         1         0     60438         1         0     60441         1         0
     60444         1         0     60447         1         0     60450         1         0
     60453         1         0     60456         1         0     60459         1         0
     60462         1         0     60465         1         0     60468         1         0
     60471         1         0     60474         1         0     60477         1         0
     60480         1         0     60483         1         0     60486         1         0
     60489         1         0     60492         1         0     60495         1         0
     60498         1         0     60501         1         0     60504         1         0
     60507         1         0     60510         1         0     60513         1         0
     60516         1         0     60519         1         0     60522         1         0
     60525         1         0     60528         1         0     60531         1         0
     60534         1         0     60537         1         0     60540         1         0
     60543         1         0     60546         1         0     60549         1         0
     60552         1         0     60555         1         0     60558         1         0
     60561         1         0     60564         1         0     60567         1         0
     60570         1         0     60573         1         0     60576         1         0
     60579         1         0     60582         1         0     60585         1         0
     60588         1         0     60591         1         0     60594         1         0
     60597         1         0     60600         1         0     60603         1         0
     60606         1         0     60609         1         0     60612         1         0
     60615         1         0     60618         1         0     60621         1         0
     60624         1         0     60627         1         0     60630         1         0
     60633         1         0     60636         1         0     60639         1         0
     60642         1         0     60645         1         0     60648         1         0
     60651         1         0     60654         1         0     60657         1         0
     60660         1         0     60663         1         0     60666         1         0
     60669         1         0     60672         1         0     60675         1         0
     60678         1         0     60681         1         0     60684         1         0
     60687         1         0     60690         1         0     60693         1         0
     60696         1         0     60699         1         0     60702         1         0
     60705         1         0     60708         1         0     60711         1         0
     60714         1         0     60717         1         0     60720         1         0
     60723         1         0     60726         1         0     60729         1         0
     60732         1         0     60735         1         0     60738         1         0
     60741         1         0     60744         1         0     60747         1         0
     60750         1         0     60753         1         0     60756         1         0
     60759         1         0     60762         1         0     60765         1         0
     60768         1         0     60771         1         0     60774         1         0
     60777         1         0     60780         1         0     60783         1         0
     60786         1         0     60789         1         0     60792         1         0
     60795         1         0     60798         1         0     60801         1         0
     60804         1         0     60807         1         0     60810         1         0
     60813         1         0     60816         1         0     60819         1         0
     60822         1         0     60825         1         0     60828         1         0
     60831         1         0     60834         1         0     60837         1         0
     60840         1         0     60843         1         0     60846         1         0
     60849         1         0     60852         1         0     60855         1         0
     60858         1         0     60861         1         0     60864         1         0
     60867         1         0     60870         1         0     60873         1         0
     60876         1         0     60879         1         0     60882         1         0
     60885         1         0     60888         1         0     60891         1         0
     60894         1         0     60897         1         0     60900         1         0
     60903         1         0     60906         1         0     60909         1         0
     60912         1         0     60915         1         0     60918         1         0
     60921         1         0     60924         1         0     60927         1         0
     60930         1         0     60933         1         0     60936         1         0
     60939         1         0     60942         1         0     60945         1         0
     60948         1         0     60951         1         0     60954         1         0
     60957         1         0     60960         1         0     60963         1         0
     60966         1         0     60969         1         0     60972         1         0
     60975         1         0     60978         1         0     60981         1         0
     60984         1         0     60987         1         0     60990         1         0
     60993         1         0     60996         1         0     60999         1         0
     61002         1         0     61005         1         0     61008         1         0
     61011         1         0     61014         1         0     61017         1         0
     61020         1         0     61023         1         0     61026         1         0
     61029         1         0     61032         1         0     61035         1         0
     61038         1         0     61041         1         0     61044         1         0
     61047         1         0     61050         1         0     61053         1         0
     61056         1         0     61059         1         0     61062         1         0
     61065         1         0     61068         1         0     61071         1         0
     61074         1         0     61077         1         0     61080         1         0
     61083         1         0     61086         1         0     61089         1         0
     61092         1         0     61095         1         0     61098         1         0
     61101         1         0     61104         1         0     61107         1         0
     61110         1         0     61113         1         0     61116         1         0
     61119         1         0     61122         1         0     61125         1         0
     61128         1         0     61131         1         0     61134         1         0
     61137         1         0     61140         1         0     61143         1         0
     61146         1         0     61149         1         0     61152         1         0
     61155         1         0     61158         1         0     61161         1         0
     61164         1         0     61167         1         0     61170         1         0
     61173         1         0     61176         1         0     61179         1         0
     61182         1         0     61185         1         0     61188         1         0
     61191         1         0     61194         1         0     61197         1         0
     61200         1         0     61203         1         0     61206         1         0
     61209         1         0     61212         1         0     61215         1         0
     61218         1         0     61221         1         0     61224         1         0
     61227         1         0     61230         1         0     61233         1         0
     61236         1         0     61239         1         0     61242         1         0
     61245         1         0     61248         1         0     61251         1         0
     61254         1         0     61257         1         0     61260         1         0
     61263         1         0     61266         1         0     61269         1         0
     61272         1         0     61275         1         0     61278         1         0
     61281         1         0     61284         1         0     61287         1         0
     61290         1         0     61293         1         0     61296         1         0
     61299         1         0     61302         1         0     61305         1         0
     61308         1         0     61311         1         0     61314         1         0
     61317         1         0     61320         1         0     61323         1         0
     61326         1         0     61329         1         0     61332         1         0
     61335         1         0     61338         1         0     61341         1         0
     61344         1         0     61347         1         0     61350         1         0
     61353         1         0     61356         1         0     61359         1         0
     61362         1         0     61365         1         0     61368         1         0
     61371         1         0     61374         1         0     61377         1         0
     61380         1         0     61383         1         0     61386         1         0
     61389         1         0     61392         1         0     61395         1         0
     61398         1         0     61401         1         0     61404         1         0
     61407         1         0     61410         1         0     61413         1         0
     61416         1         0     61419         1         0     61422         1         0
     61425         1         0     61428         1         0     61431         1         0
     61434         1         0     61437         1         0     61440         1         0
     61443         1         0     61446         1         0     61449         1         0
     61452         1         0     61455         1         0     61458         1         0
     61461         1         0     61464         1         0     61467         1         0
     61470         1         0     61473         1         0     61476         1         0
     61479         1         0     61482         1         0     61485         1         0
     61488         1         0     61491         1         0     61494         1         0
     61497         1         0     61500         1         0     61503         1         0
     61506         1         0     61509         1         0     61512         1         0
     61515         1         0     61518         1         0     61521         1         0
     61524         1         0     61527         1         0     61530         1         0
     61533         1         0     61536         1         0     61539         1         0
     61542         1         0     61545         1         0     61548         1         0
     61551         1         0     61554         1         0     61557         1         0
     61560         1         0     61563         1         0     61566         1         0
     61569         1         0     61572         1         0     61575         1         0
     61578         1         0     61581         1         0     61584         1         0
     61587         1         0     61590         1         0     61593         1         0
     61596         1         0     61599         1         0     61602         1         0
     61605         1         0     61608         1         0     61611         1         0
     61614         1         0     61617         1         0     61620         1         0
     61623         1         0     61626         1         0     61629         1         0
     61632         1         0     61635         1         0     61638         1         0
     61641         1         0     61644         1         0     61647         1         0
     61650         1         0     61653         1         0     61656         1         0
     61659         1         0     61662         1         0     61665         1         0
     61668         1         0     61671         1         0     61674         1         0
     61677         1         0     61680         1         0     61683         1         0
     61686         1         0     61689         1         0     61692         1         0
     61695         1         0     61698         1         0     61701         1         0
     61704         1         0     61707         1         0     61710         1         0
     61713         1         0     61716         1         0     61719         1         0
     61722         1         0     61725         1         0     61728         1         0
     61731         1         0     61734         1         0     61737         1         0
     61740         1         0     61743         1         0     61746         1         0
     61749         1         0     61752         1         0     61755         1         0
     61758         1         0     61761         1         0     61764         1         0
     61767         1         0     61770         1         0     61773         1         0
     61776         1         0     61779         1         0     61782         1         0
     61785         1         0     61788         1         0     61791         1         0
     61794         1         0     61797         1         0     61800         1         0
     61803         1         0     61806         1         0     61809         1         0
     61812         1         0     61815         1         0     61818         1         0
     61821         1         0     61824         1         0     61827         1         0
     61830         1         0     61833         1         0     61836         1         0
     61839         1         0     61842         1         0     61845         1         0
     61848         1         0     61851         1         0     61854         1         0
     61857         1         0     61860         1         0     61863         1         0
     61866         1         0     61869         1         0     61872         1         0
     61875         1         0     61878         1         0     61881         1         0
     61884         1         0     61887         1         0     61890         1         0
     61893         1         0     61896         1         0     61899         1         0
     61902         1         0     61905         1         0     61908         1         0
     61911         1         0     61914         1         0     61917         1         0
     61920         1         0     61923         1         0     61926         1         0
     61929         1         0     61932         1         0     61935         1         0
     61938         1         0     61941         1         0     61944         1         0
     61947         1         0     61950         1         0     61953         1         0
     61956         1         0     61959         1         0     61962         1         0
     61965         1         0     61968         1         0     61971         1         0
     61974         1         0     61977         1         0     61980         1         0
     61983         1         0     61986         1         0     61989         1         0
     61992         1         0     61995         1         0     61998         1         0
     62001         1         0     62004         1         0     62007         1         0
     62010         1         0     62013         1         0     62016         1         0
     62019         1         0     62022         1         0     62025         1         0
     62028         1         0     62031         1         0     62034         1         0
     62037         1         0     62040         1         0     62043         1         0
     62046         1         0     62049         1         0     62052         1         0
     62055         1         0     62058         1         0     62061         1         0
     62064         1         0     62067         1         0     62070         1         0
     62073         1         0     62076         1         0     62079         1         0
     62082         1         0     62085         1         0     62088         1         0
     62091         1         0     62094         1         0     62097         1         0
     62100         1         0     62103         1         0     62106         1         0
     62109         1         0     62112         1         0     62115         1         0
     62118         1         0     62121         1         0     62124         1         0
     62127         1         0     62130         1         0     62133         1         0
     62136         1         0     62139         1         0     62142         1         0
     62145         1         0     62148         1         0     62151         1         0
     62154         1         0     62157         1         0     62160         1         0
     62163         1         0     62166         1         0     62169         1         0
     62172         1         0     62175         1         0     62178         1         0
     62181         1         0     62184         1         0     62187         1         0
     62190         1         0     62193         1         0     62196         1         0
     62199         1         0     62202         1         0     62205         1         0
     62208         1         0     62211         1         0     62214         1         0
     62217         1         0     62220         1         0     62223         1         0
     62226         1         0     62229         1         0     62232         1         0
     62235         1         0     62238         1         0     62241         1         0
     62244         1         0     62247         1         0     62250         1         0
     62253         1         0     62256         1         0     62259         1         0
     62262         1         0     62265         1         0     62268         1         0
     62271         1         0     62274         1         0     62277         1         0
     62280         1         0     62283         1         0     62286         1         0
     62289         1         0     62292         1         0     62295         1         0
     62298         1         0     62301         1         0     62304         1         0
     62307         1         0     62310         1         0     62313         1         0
     62316         1         0     62319         1         0     62322         1         0
     62325         1         0     62328         1         0     62331         1         0
     62334         1         0     62337         1         0     62340         1         0
     62343         1         0     62346         1         0     62349         1         0
     62352         1         0     62355         1         0     62358         1         0
     62361         1         0     62364         1         0     62367         1         0
     62370         1         0     62373         1         0     62376         1         0
     62379         1         0     62382         1         0     62385         1         0
     62388         1         0     62391         1         0     62394         1         0
     62397         1         0     62400         1         0     62403         1         0
     62406         1         0     62409         1         0     62412         1         0
     62415         1         0     62418         1         0     62421         1         0
     62424         1         0     62427         1         0     62430         1         0
     62433         1         0     62436         1         0     62439         1         0
     62442         1         0     62445         1         0     62448         1         0
     62451         1         0     62454         1         0     62457         1         0
     62460         1         0     62463         1         0     62466         1         0
     62469         1         0     62472         1         0     62475         1         0
     62478         1         0     62481         1         0     62484         1         0
     62487         1         0     62490         1         0     62493         1         0
     62496         1         0     62499         1         0     62502         1         0
     62505         1         0     62508         1         0     62511         1         0
     62514         1         0     62517         1         0     62520         1         0
     62523         1         0     62526         1         0     62529         1         0
     62532         1         0     62535         1         0     62538         1         0
     62541         1         0     62544         1         0     62547         1         0
     62550         1         0     62553         1         0     62556         1         0
     62559         1         0     62562         1         0     62565         1         0
     62568         1         0     62571         1         0     62574         1         0
     62577         1         0     62580         1         0     62583         1         0
     62586         1         0     62589         1         0     62592         1         0
     62595         1         0     62598         1         0     62601         1         0
     62604         1         0     62607         1         0     62610         1         0
     62613         1         0     62616         1         0     62619         1         0
     62622         1         0     62625         1         0     62628         1         0
     62631         1         0     62634         1         0     62637         1         0
     62640         1         0     62643         1         0     62646         1         0
     62649         1         0     62652         1         0     62655         1         0
     62658         1         0     62661         1         0     62664         1         0
     62667         1         0     62670         1         0     62673         1         0
     62676         1         0     62679         1         0     62682         1         0
     62685         1         0     62688         1         0     62691         1         0
     62694         1         0     62697         1         0     62700         1         0
     62703         1         0     62706         1         0     62709         1         0
     62712         1         0     62715         1         0     62718         1         0
     62721         1         0     62724         1         0     62727         1         0
     62730         1         0     62733         1         0     62736         1         0
     62739         1         0     62742         1         0     62745         1         0
     62748         1         0     62751         1         0     62754         1         0
     62757         1         0     62760         1         0     62763         1         0
     62766         1         0     62769         1         0     62772         1         0
     62775         1         0     62778         1         0     62781         1         0
     62784         1         0     62787         1         0     62790         1         0
     62793         1         0     62796         1         0     62799         1         0
     62802         1         0     62805         1         0     62808         1         0
     62811         1         0     62814         1         0     62817         1         0
     62820         1         0     62823         1         0     62826         1         0
     62829         1         0     62832         1         0     62835         1         0
     62838         1         0     62841         1         0     62844         1         0
     62847         1         0     62850         1         0     62853         1         0
     62856         1         0     62859         1         0     62862         1         0
     62865         1         0     62868         1         0     62871         1         0
     62874         1         0     62877         1         0     62880         1         0
     62883         1         0     62886         1         0     62889         1         0
     62892         1         0     62895         1         0     62898         1         0
     62901         1         0     62904         1         0     62907         1         0
     62910         1         0     62913         1         0     62916         1         0
     62919         1         0     62922         1         0     62925         1         0
     62928         1         0     62931         1         0     62934         1         0
     62937         1         0     62940         1         0     62943         1         0
     62946         1         0     62949         1         0     62952         1         0
     62955         1         0     62958         1         0     62961         1         0
     62964         1         0     62967         1         0     62970         1         0
     62973         1         0     62976         1         0     62979         1         0
     62982         1         0     62985         1         0     62988         1         0
     62991         1         0     62994         1         0     62997         1         0
     63000         1         0     63003         1         0     63006         1         0
     63009         1         0     63012         1         0     63015         1         0
     63018         1         0     63021         1         0     63024         1         0
     63027         1         0     63030         1         0     63033         1         0
     63036         1         0     63039         1         0     63042         1         0
     63045         1         0     63048         1         0     63051         1         0
     63054         1         0     63057         1         0     63060         1         0
     63063         1         0     63066         1         0     63069         1         0
     63072         1         0     63075         1         0     63078         1         0
     63081         1         0     63084         1         0     63087         1         0
     63090         1         0     63093         1         0     63096         1         0
     63099         1         0     63102         1         0     63105         1         0
     63108         1         0     63111         1         0     63114         1         0
     63117         1         0     63120         1         0     63123         1         0
     63126         1         0     63129         1         0     63132         1         0
     63135         1         0     63138         1         0     63141         1         0
     63144         1         0     63147         1         0     63150         1         0
     63153         1         0     63156         1         0     63159         1         0
     63162         1         0     63165         1         0     63168         1         0
     63171         1         0     63174         1         0     63177         1         0
     63180         1         0     63183         1         0     63186         1         0
     63189         1         0     63192         1         0     63195         1         0
     63198         1         0     63201         1         0     63204         1         0
     63207         1         0     63210         1         0     63213         1         0
     63216         1         0     63219         1         0     63222         1         0
     63225         1         0     63228         1         0     63231         1         0
     63234         1         0     63237         1         0     63240         1         0
     63243         1         0     63246         1         0     63249         1         0
     63252         1         0     63255         1         0     63258         1         0
     63261         1         0     63264         1         0     63267         1         0
     63270         1         0     63273         1         0     63276         1         0
     63279         1         0     63282         1         0     63285         1         0
     63288         1         0     63291         1         0     63294         1         0
     63297         1         0     63300         1         0     63303         1         0
     63306         1         0     63309         1         0     63312         1         0
     63315         1         0     63318         1         0     63321         1         0
     63324         1         0     63327         1         0     63330         1         0
     63333         1         0     63336         1         0     63339         1         0
     63342         1         0     63345         1         0     63348         1         0
     63351         1         0     63354         1         0     63357         1         0
     63360         1         0     63363         1         0     63366         1         0
     63369         1         0     63372         1         0     63375         1         0
     63378         1         0     63381         1         0     63384         1         0
     63387         1         0     63390         1         0     63393         1         0
     63396         1         0     63399         1         0     63402         1         0
     63405         1         0     63408         1         0     63411         1         0
     63414         1         0     63417         1         0     63420         1         0
     63423         1         0     63426         1         0     63429         1         0
     63432         1         0     63435         1         0     63438         1         0
     63441         1         0     63444         1         0     63447         1         0
     63450         1         0     63453         1         0     63456         1         0
     63459         1         0     63462         1         0     63465         1         0
     63468         1         0     63471         1         0     63474         1         0
     63477         1         0     63480         1         0     63483         1         0
     63486         1         0     63489         1         0     63492         1         0
     63495         1         0     63498         1         0     63501         1         0
     63504         1         0     63507         1         0     63510         1         0
     63513         1         0     63516         1         0     63519         1         0
     63522         1         0     63525         1         0     63528         1         0
     63531         1         0     63534         1         0     63537         1         0
     63540         1         0     63543         1         0     63546         1         0
     63549         1         0     63552         1         0     63555         1         0
     63558         1         0     63561         1         0     63564         1         0
     63567         1         0     63570         1         0     63573         1         0
     63576         1         0     63579         1         0     63582         1         0
     63585         1         0     63588         1         0     63591         1         0
     63594         1         0     63597         1         0     63600         1         0
     63603         1         0     63606         1         0     63609         1         0
     63612         1         0     63615         1         0     63618         1         0
     63621         1         0     63624         1         0     63627         1         0
     63630         1         0     63633         1         0     63636         1         0
     63639         1         0     63642         1         0     63645         1         0
     63648         1         0     63651         1         0     63654         1         0
     63657         1         0     63660         1         0     63663         1         0
     63666         1         0     63669         1         0     63672         1         0
     63675         1         0     63678         1         0     63681         1         0
     63684         1         0     63687         1         0     63690         1         0
     63693         1         0     63696         1         0     63699         1         0
     63702         1         0     63705         1         0     63708         1         0
     63711         1         0     63714         1         0     63717         1         0
     63720         1         0     63723         1         0     63726         1         0
     63729         1         0     63732         1         0     63735         1         0
     63738         1         0     63741         1         0     63744         1         0
     63747         1         0     63750         1         0     63753         1         0
     63756         1         0     63759         1         0     63762         1         0
     63765         1         0     63768         1         0     63771         1         0
     63774         1         0     63777         1         0     63780         1         0
     63783         1         0     63786         1         0     63789         1         0
     63792         1         0     63795         1         0     63798         1         0
     63801         1         0     63804         1         0     63807         1         0
     63810         1         0     63813         1         0     63816         1         0
     63819         1         0     63822         1         0     63825         1         0
     63828         1         0     63831         1         0     63834         1         0
     63837         1         0     63840         1         0     63843         1         0
     63846         1         0     63849         1         0     63852         1         0
     63855         1         0     63858         1         0     63861         1         0
     63864         1         0     63867         1         0     63870         1         0
     63873         1         0     63876         1         0     63879         1         0
     63882         1         0     63885         1         0     63888         1         0
     63891         1         0     63894         1         0     63897         1         0
     63900         1         0     63903         1         0     63906         1         0
     63909         1         0     63912         1         0     63915         1         0
     63918         1         0     63921         1         0     63924         1         0
     63927         1         0     63930         1         0     63933         1         0
     63936         1         0     63939         1         0     63942         1         0
     63945         1         0     63948         1         0     63951         1         0
     63954         1         0     63957         1         0     63960         1         0
     63963         1         0     63966         1         0     63969         1         0
     63972         1         0     63975         1         0     63978         1         0
     63981         1         0     63984         1         0     63987         1         0
     63990         1         0     63993         1         0     63996         1         0
     63999         1         0     64002         1         0     64005         1         0
     64008         1         0     64011         1         0     64014         1         0
     64017         1         0     64020         1         0     64023         1         0
     64026         1         0     64029         1         0     64032         1         0
     64035         1         0     64038         1         0     64041         1         0
     64044         1         0     64047         1         0     64050         1         0
     64053         1         0     64056         1         0     64059         1         0
     64062         1         0     64065         1         0     64068         1         0
     64071         1         0     64074         1         0     64077         1         0
     64080         1         0     64083         1         0     64086         1         0
     64089         1         0     64092         1         0     64095         1         0
     64098         1         0     64101         1         0     64104         1         0
     64107         1         0     64110         1         0     64113         1         0
     64116         1         0     64119         1         0     64122         1         0
     64125         1         0     64128         1         0     64131         1         0
     64134         1         0     64137         1         0     64140         1         0
     64143         1         0     64146         1         0     64149         1         0
     64152         1         0     64155         1         0     64158         1         0
     64161         1         0     64164         1         0     64167         1         0
     64170         1         0     64173         1         0     64176         1         0
     64179         1         0     64182         1         0     64185         1         0
     64188         1         0     64191         1         0     64194         1         0
     64197         1         0     64200         1         0     64203         1         0
     64206         1         0     64209         1         0     64212         1         0
     64215         1         0     64218         1         0     64221         1         0
     64224         1         0     64227         1         0     64230         1         0
     64233         1         0     64236         1         0     64239         1         0
     64242         1         0     64245         1         0     64248         1         0
     64251         1         0     64254         1         0     64257         1         0
     64260         1         0     64263         1         0     64266         1         0
     64269         1         0     64272         1         0     64275         1         0
     64278         1         0     64281         1         0     64284         1         0
     64287         1         0     64290         1         0     64293         1         0
     64296         1         0     64299         1         0     64302         1         0
     64305         1         0     64308         1         0     64311         1         0
     64314         1         0     64317         1         0     64320         1         0
     64323         1         0     64326         1         0     64329         1         0
     64332         1         0     64335         1         0     64338         1         0
     64341         1         0     64344         1         0     64347         1         0
     64350         1         0     64353         1         0     64356         1         0
     64359         1         0     64362         1         0     64365         1         0
     64368         1         0     64371         1         0     64374         1         0
     64377         1         0     64380         1         0     64383         1         0
     64386         1         0     64389         1         0     64392         1         0
     64395         1         0     64398         1         0     64401         1         0
     64404         1         0     64407         1         0     64410         1         0
     64413         1         0     64416         1         0     64419         1         0
     64422         1         0     64425         1         0     64428         1         0
     64431         1         0     64434         1         0     64437         1         0
     64440         1         0     64443         1         0     64446         1         0
     64449         1         0     64452         1         0     64455         1         0
     64458         1         0     64461         1         0     64464         1         0
     64467         1         0     64470         1         0     64473         1         0
     64476         1         0     64479         1         0     64482         1         0
     64485         1         0     64488         1         0     64491         1         0
     64494         1         0     64497         1         0     64500         1         0
     64503         1         0     64506         1         0     64509         1         0
     64512         1         0     64515         1         0     64518         1         0
     64521         1         0     64524         1         0     64527         1         0
     64530         1         0     64533         1         0     64536         1         0
     64539         1         0     64542         1         0     64545         1         0
     64548         1         0     64551         1         0     64554         1         0
     64557         1         0     64560         1         0     64563         1         0
     64566         1         0     64569         1         0     64572         1         0
     64575         1         0     64578         1         0     64581         1         0
     64584         1         0     64587         1         0     64590         1         0
     64593         1         0     64596         1         0     64599         1         0
     64602         1         0     64605         1         0     64608         1         0
     64611         1         0     64614         1         0     64617         1         0
     64620         1         0     64623         1         0     64626         1         0
     64629         1         0     64632         1         0     64635         1         0
     64638         1         0     64641         1         0     64644         1         0
     64647         1         0     64650         1         0     64653         1         0
     64656         1         0     64659         1         0     64662         1         0
     64665         1         0     64668         1         0     64671         1         0
     64674         1         0     64677         1         0     64680         1         0
     64683         1         0     64686         1         0     64689         1         0
     64692         1         0     64695         1         0     64698         1         0
     64701         1         0     64704         1         0     64707         1         0
     64710         1         0     64713         1         0     64716         1         0
     64719         1         0     64722         1         0     64725         1         0
     64728         1         0     64731         1         0     64734         1         0
     64737         1         0     64740         1         0     64743         1         0
     64746         1         0     64749         1         0     64752         1         0
     64755         1         0     64758         1         0     64761         1         0
     64764         1         0     64767         1         0     64770         1         0
     64773         1         0     64776         1         0     64779         1         0
     64782         1         0     64785         1         0     64788         1         0
     64791         1         0     64794         1         0     64797         1         0
     64800         1         0     64803         1         0     64806         1         0
     64809         1         0     64812         1         0     64815         1         0
     64818         1         0     64821         1         0     64824         1         0
     64827         1         0     64830         1         0     64833         1         0
     64836         1         0     64839         1         0     64842         1         0
     64845         1         0     64848         1         0     64851         1         0
     64854         1         0     64857         1         0     64860         1         0
     64863         1         0     64866         1         0     64869         1         0
     64872         1         0     64875         1         0     64878         1         0
     64881         1         0     64884         1         0     64887         1         0
     64890         1         0     64893         1         0     64896         1         0
     64899         1         0     64902         1         0     64905         1         0
     64908         1         0     64911         1         0     64914         1         0
     64917         1         0     64920         1         0     64923         1         0
     64926         1         0     64929         1         0     64932         1         0
     64935         1         0     64938         1         0     64941         1         0
     64944         1         0     64947         1         0     64950         1         0
     64953         1         0     64956         1         0     64959         1         0
     64962         1         0     64965         1         0     64968         1         0
     64971         1         0     64974         1         0     64977         1         0
     64980         1         0     64983         1         0     64986         1         0
     64989         1         0     64992         1         0     64995         1         0
     64998         1         0     65001         1         0     65004         1         0
     65007         1         0     65010         1         0     65013         1         0
     65016         1         0     65019         1         0     65022         1         0
     65025         1         0     65028         1         0     65031         1         0
     65034         1         0     65037         1         0     65040         1         0
     65043         1         0     65046         1         0     65049         1         0
     65052         1         0     65055         1         0     65058         1         0
     65061         1         0     65064         1         0     65067         1         0
     65070         1         0     65073         1         0     65076         1         0
     65079         1         0     65082         1         0     65085         1         0
     65088         1         0     65091         1         0     65094         1         0
     65097         1         0     65100         1         0     65103         1         0
     65106         1         0     65109         1         0     65112         1         0
     65115         1         0     65118         1         0     65121         1         0
     65124         1         0     65127         1         0     65130         1         0
     65133         1         0     65136         1         0     65139         1         0
     65142         1         0     65145         1         0     65148         1         0
     65151         1         0     65154         1         0     65157         1         0
     65160         1         0     65163         1         0     65166         1         0
     65169         1         0     65172         1         0     65175         1         0
     65178         1         0     65181         1         0     65184         1         0
     65187         1         0     65190         1         0     65193         1         0
     65196         1         0     65199         1         0     65202         1         0
     65205         1         0     65208         1         0     65211         1         0
     65214         1         0     65217         1         0     65220         1         0
     65223         1         0     65226         1         0     65229         1         0
     65232         1         0     65235         1         0     65238         1         0
     65241         1         0     65244         1         0     65247         1         0
     65250         1         0     65253         1         0     65256         1         0
     65259         1         0     65262         1         0     65265         1         0
     65268         1         0     65271         1         0     65274         1         0
     65277         1         0     65280         1         0     65283         1         0
     65286         1         0     65289         1         0     65292         1         0
     65295         1         0     65298         1         0     65301         1         0
     65304         1         0     65307         1         0     65310         1         0
     65313         1         0     65316         1         0     65319         1         0
     65322         1         0     65325         1         0     65328         1         0
     65331         1         0     65334         1         0     65337         1         0
     65340         1         0     65343         1         0     65346         1         0
     65349         1         0     65352         1         0     65355         1         0
     65358         1         0     65361         1         0     65364         1         0
     65367         1         0     65370         1         0     65373         1         0
     65376         1         0     65379         1         0     65382         1         0
     65385         1         0     65388         1         0     65391         1         0
     65394         1         0     65397         1         0     65400         1         0
     65403         1         0     65406         1         0     65409         1         0
     65412         1         0     65415         1         0     65418         1         0
     65421         1         0     65424         1         0     65427         1         0
     65430         1         0     65433         1         0     65436         1         0
     65439         1         0     65442         1         0     65445         1         0
     65448         1         0     65451         1         0     65454         1         0
     65457         1         0     65460         1         0     65463         1         0
     65466         1         0     65469         1         0     65472         1         0
     65475         1         0     65478         1         0     65481         1         0
     65484         1         0     65487         1         0     65490         1         0
     65493         1         0     65496         1         0     65499         1         0
     65502         1         0     65505         1         0     65508         1         0
     65511         1         0     65514         1         0     65517         1         0
     65520         1         0     65523         1         0     65526         1         0
     65529         1         0     65532         1         0     65535         1         0
     65538         1         0     65541         1         0     65544         1         0
     65547         1         0     65550         1         0     65553         1         0
     65556         1         0     65559         1         0     65562         1         0
     65565         1         0     65568         1         0     65571         1         0
     65574         1         0     65577         1         0     65580         1         0
     65583         1         0     65586         1         0     65589         1         0
     65592         1         0     65595         1         0     65598         1         0
     65601         1         0     65604         1         0     65607         1         0
     65610         1         0     65613         1         0     65616         1         0
     65619         1         0     65622         1         0     65625         1         0
     65628         1         0     65631         1         0     65634         1         0
     65637         1         0     65640         1         0     65643         1         0
     65646         1         0     65649         1         0     65652         1         0
     65655         1         0     65658         1         0     65661         1         0
     65664         1         0     65667         1         0     65670         1         0
     65673         1         0     65676         1         0     65679         1         0
     65682         1         0     65685         1         0     65688         1         0
     65691         1         0     65694         1         0     65697         1         0
     65700         1         0     65703         1         0     65706         1         0
     65709         1         0     65712         1         0     65715         1         0
     65718         1         0     65721         1         0     65724         1         0
     65727         1         0     65730         1         0     65733         1         0
     65736         1         0     65739         1         0     65742         1         0
     65745         1         0     65748         1         0     65751         1         0
     65754         1         0     65757         1         0     65760         1         0
     65763         1         0     65766         1         0     65769         1         0
     65772         1         0     65775         1         0     65778         1         0
     65781         1         0     65784         1         0     65787         1         0
     65790         1         0     65793         1         0     65796         1         0
     65799         1         0     65802         1         0     65805         1         0
     65808         1         0     65811         1         0     65814         1         0
     65817         1         0     65820         1         0     65823         1         0
     65826         1         0     65829         1         0     65832         1         0
     65835         1         0     65838         1         0     65841         1         0
     65844         1         0     65847         1         0     65850         1         0
     65853         1         0     65856         1         0     65859         1         0
     65862         1         0     65865         1         0     65868         1         0
     65871         1         0     65874         1         0     65877         1         0
     65880         1         0     65883         1         0     65886         1         0
     65889         1         0     65892         1         0     65895         1         0
     65898         1         0     65901         1         0     65904         1         0
     65907         1         0     65910         1         0     65913         1         0
     65916         1         0     65919         1         0     65922         1         0
     65925         1         0     65928         1         0     65931         1         0
     65934         1         0     65937         1         0     65940         1         0
     65943         1         0     65946         1         0     65949         1         0
     65952         1         0     65955         1         0     65958         1         0
     65961         1         0     65964         1         0     65967         1         0
     65970         1         0     65973         1         0     65976         1         0
     65979         1         0     65982         1         0     65985         1         0
     65988         1         0     65991         1         0     65994         1         0
     65997         1         0     66000         1         0     66003         1         0
     66006         1         0     66009         1         0     66012         1         0
     66015         1         0     66018         1         0     66021         1         0
     66024         1         0     66027         1         0     66030         1         0
     66033         1         0     66036         1         0     66039         1         0
     66042         1         0     66045         1         0     66048         1         0
     66051         1         0     66054         1         0     66057         1         0
     66060         1         0     66063         1         0     66066         1         0
     66069         1         0     66072         1         0     66075         1         0
     66078         1         0     66081         1         0     66084         1         0
     66087         1         0     66090         1         0     66093         1         0
     66096         1         0     66099         1         0     66102         1         0
     66105         1         0     66108         1         0     66111         1         0
     66114         1         0     66117         1         0     66120         1         0
     66123         1         0     66126         1         0     66129         1         0
     66132         1         0     66135         1         0     66138         1         0
     66141         1         0     66144         1         0     66147         1         0
     66150         1         0     66153         1         0     66156         1         0
     66159         1         0     66162         1         0     66165         1         0
     66168         1         0     66171         1         0     66174         1         0
     66177         1         0     66180         1         0     66183         1         0
     66186         1         0     66189         1         0     66192         1         0
     66195         1         0     66198         1         0     66201         1         0
     66204         1         0     66207         1         0     66210         1         0
     66213         1         0     66216         1         0     66219         1         0
     66222         1         0     66225         1         0     66228         1         0
     66231         1         0     66234         1         0     66237         1         0
     66240         1         0     66243         1         0     66246         1         0
     66249         1         0     66252         1         0     66255         1         0
     66258         1         0     66261         1         0     66264         1         0
     66267         1         0     66270         1         0     66273         1         0
     66276         1         0     66279         1         0     66282         1         0
     66285         1         0     66288         1         0     66291         1         0
     66294         1         0     66297         1         0     66300         1         0
     66303         1         0     66306         1         0     66309         1         0
     66312         1         0     66315         1         0     66318         1         0
     66321         1         0     66324         1         0     66327         1         0
     66330         1         0     66333         1         0     66336         1         0
     66339         1         0     66342         1         0     66345         1         0
     66348         1         0     66351         1         0     66354         1         0
     66357         1         0     66360         1         0     66363         1         0
     66366         1         0     66369         1         0     66372         1         0
     66375         1         0     66378         1         0     66381         1         0
     66384         1         0     66387         1         0     66390         1         0
     66393         1         0     66396         1         0     66399         1         0
     66402         1         0     66405         1         0     66408         1         0
     66411         1         0     66414         1         0     66417         1         0
     66420         1         0     66423         1         0     66426         1         0
     66429         1         0     66432         1         0     66435         1         0
     66438         1         0     66441         1         0     66444         1         0
     66447         1         0     66450         1         0     66453         1         0
     66456         1         0     66459         1         0     66462         1         0
     66465         1         0     66468         1         0     66471         1         0
     66474         1         0     66477         1         0     66480         1         0
     66483         1         0     66486         1         0     66489         1         0
     66492         1         0     66495         1         0     66498         1         0
     66501         1         0     66504         1         0     66507         1         0
     66510         1         0     66513         1         0     66516         1         0
     66519         1         0     66522         1         0     66525         1         0
     66528         1         0     66531         1         0     66534         1         0
     66537         1         0     66540         1         0     66543         1         0
     66546         1         0     66549         1         0     66552         1         0
     66555         1         0     66558         1         0     66561         1         0
     66564         1         0     66567         1         0     66570         1         0
     66573         1         0     66576         1         0     66579         1         0
     66582         1         0     66585         1         0     66588         1         0
     66591         1         0     66594         1         0     66597         1         0
     66600         1         0     66603         1         0     66606         1         0
     66609         1         0     66612         1         0     66615         1         0
     66618         1         0     66621         1         0     66624         1         0
     66627         1         0     66630         1         0     66633         1         0
     66636         1         0     66639         1         0     66642         1         0
     66645         1         0     66648         1         0     66651         1         0
     66654         1         0     66657         1         0     66660         1         0
     66663         1         0     66666         1         0     66669         1         0
     66672         1         0     66675         1         0     66678         1         0
     66681         1         0     66684         1         0     66687         1         0
     66690         1         0     66693         1         0     66696         1         0
     66699         1         0     66702         1         0     66705         1         0
     66708         1         0     66711         1         0     66714         1         0
     66717         1         0     66720         1         0     66723         1         0
     66726         1         0     66729         1         0     66732         1         0
     66735         1         0     66738         1         0     66741         1         0
     66744         1         0     66747         1         0     66750         1         0
     66753         1         0     66756         1         0     66759         1         0
     66762         1         0     66765         1         0     66768         1         0
     66771         1         0     66774         1         0     66777         1         0
     66780         1         0     66783         1         0     66786         1         0
     66789         1         0     66792         1         0     66795         1         0
     66798         1         0     66801         1         0     66804         1         0
     66807         1         0     66810         1         0     66813         1         0
     66816         1         0     66819         1         0     66822         1         0
     66825         1         0     66828         1         0     66831         1         0
     66834         1         0     66837         1         0     66840         1         0
     66843         1         0     66846         1         0     66849         1         0
     66852         1         0     66855         1         0     66858         1         0
     66861         1         0     66864         1         0     66867         1         0
     66870         1         0     66873         1         0     66876         1         0
     66879         1         0     66882         1         0     66885         1         0
     66888         1         0     66891         1         0     66894         1         0
     66897         1         0     66900         1         0     66903         1         0
     66906         1         0     66909         1         0     66912         1         0
     66915         1         0     66918         1         0     66921         1         0
     66924         1         0     66927         1         0     66930         1         0
     66933         1         0     66936         1         0     66939         1         0
     66942         1         0     66945         1         0     66948         1         0
     66951         1         0     66954         1         0     66957         1         0
     66960         1         0     66963         1         0     66966         1         0
     66969         1         0     66972         1         0     66975         1         0
     66978         1         0     66981         1         0     66984         1         0
     66987         1         0     66990         1         0     66993         1         0
     66996         1         0     66999         1         0     67002         1         0
     67005         1         0     67008         1         0     67011         1         0
     67014         1         0     67017         1         0     67020         1         0
     67023         1         0     67026         1         0     67029         1         0
     67032         1         0     67035         1         0     67038         1         0
     67041         1         0     67044         1         0     67047         1         0
     67050         1         0     67053         1         0     67056         1         0
     67059         1         0     67062         1         0     67065         1         0
     67068         1         0     67071         1         0     67074         1         0
     67077         1         0     67080         1         0     67083         1         0
     67086         1         0     67089         1         0     67092         1         0
     67095         1         0     67098         1         0     67101         1         0
     67104         1         0     67107         1         0     67110         1         0
     67113         1         0     67116         1         0     67119         1         0
     67122         1         0     67125         1         0     67128         1         0
     67131         1         0     67134         1         0     67137         1         0
     67140         1         0     67143         1         0     67146         1         0
     67149         1         0     67152         1         0     67155         1         0
     67158         1         0     67161         1         0     67164         1         0
     67167         1         0     67170         1         0     67173         1         0
     67176         1         0     67179         1         0     67182         1         0
     67185         1         0     67188         1         0     67191         1         0
     67194         1         0     67197         1         0     67200         1         0
     67203         1         0     67206         1         0     67209         1         0
     67212         1         0     67215         1         0     67218         1         0
     67221         1         0     67224         1         0     67227         1         0
     67230         1         0     67233         1         0     67236         1         0
     67239         1         0     67242         1         0     67245         1         0
     67248         1         0     67251         1         0     67254         1         0
     67257         1         0     67260         1         0     67263         1         0
     67266         1         0     67269         1         0     67272         1         0
     67275         1         0     67278         1         0     67281         1         0
     67284         1         0     67287         1         0     67290         1         0
     67293         1         0     67296         1         0     67299         1         0
     67302         1         0     67305         1         0     67308         1         0
     67311         1         0     67314         1         0     67317         1         0
     67320         1         0     67323         1         0     67326         1         0
     67329         1         0     67332         1         0     67335         1         0
     67338         1         0     67341         1         0     67344         1         0
     67347         1         0     67350         1         0     67353         1         0
     67356         1         0     67359         1         0     67362         1         0
     67365         1         0     67368         1         0     67371         1         0
     67374         1         0     67377         1         0     67380         1         0
     67383         1         0     67386         1         0     67389         1         0
     67392         1         0     67395         1         0     67398         1         0
     67401         1         0     67404         1         0     67407         1         0
     67410         1         0     67413         1         0     67416         1         0
     67419         1         0     67422         1         0     67425         1         0
     67428         1         0     67431         1         0     67434         1         0
     67437         1         0     67440         1         0     67443         1         0
     67446         1         0     67449         1         0     67452         1         0
     67455         1         0     67458         1         0     67461         1         0
     67464         1         0     67467         1         0     67470         1         0
     67473         1         0     67476         1         0     67479         1         0
     67482         1         0     67485         1         0     67488         1         0
     67491         1         0     67494         1         0     67497         1         0
     67500         1         0     67503         1         0     67506         1         0
     67509         1         0     67512         1         0     67515         1         0
     67518         1         0     67521         1         0     67524         1         0
     67527         1         0     67530         1         0     67533         1         0
     67536         1         0     67539         1         0     67542         1         0
     67545         1         0     67548         1         0     67551         1         0
     67554         1         0     67557         1         0     67560         1         0
     67563         1         0     67566         1         0     67569         1         0
     67572         1         0     67575         1         0     67578         1         0
     67581         1         0     67584         1         0     67587         1         0
     67590         1         0     67593         1         0     67596         1         0
     67599         1         0     67602         1         0     67605         1         0
     67608         1         0     67611         1         0     67614         1         0
     67617         1         0     67620         1         0     67623         1         0
     67626         1         0     67629         1         0     67632         1         0
     67635         1         0     67638         1         0     67641         1         0
     67644         1         0     67647         1         0     67650         1         0
     67653         1         0     67656         1         0     67659         1         0
     67662         1         0     67665         1         0     67668         1         0
     67671         1         0     67674         1         0     67677         1         0
     67680         1         0     67683         1         0     67686         1         0
     67689         1         0     67692         1         0     67695         1         0
     67698         1         0     67701         1         0     67704         1         0
     67707         1         0     67710         1         0     67713         1         0
     67716         1         0     67719         1         0     67722         1         0
     67725         1         0     67728         1         0     67731         1         0
     67734         1         0     67737         1         0     67740         1         0
     67743         1         0     67746         1         0     67749         1         0
     67752         1         0     67755         1         0     67758         1         0
     67761         1         0     67764         1         0     67767         1         0
     67770         1         0     67773         1         0     67776         1         0
     67779         1         0     67782         1         0     67785         1         0
     67788         1         0     67791         1         0     67794         1         0
     67797         1         0     67800         1         0     67803         1         0
     67806         1         0     67809         1         0     67812         1         0
     67815         1         0     67818         1         0     67821         1         0
     67824         1         0     67827         1         0     67830         1         0
     67833         1         0     67836         1         0     67839         1         0
     67842         1         0     67845         1         0     67848         1         0
     67851         1         0     67854         1         0     67857         1         0
     67860         1         0     67863         1         0     67866         1         0
     67869         1         0     67872         1         0     67875         1         0
     67878         1         0     67881         1         0     67884         1         0
     67887         1         0     67890         1         0     67893         1         0
     67896         1         0     67899         1         0     67902         1         0
     67905         1         0     67908         1         0     67911         1         0
     67914         1         0     67917         1         0     67920         1         0
     67923         1         0     67926         1         0     67929         1         0
     67932         1         0     67935         1         0     67938         1         0
     67941         1         0     67944         1         0     67947         1         0
     67950         1         0     67953         1         0     67956         1         0
     67959         1         0     67962         1         0     67965         1         0
     67968         1         0     67971         1         0     67974         1         0
     67977         1         0     67980         1         0     67983         1         0
     67986         1         0     67989         1         0     67992         1         0
     67995         1         0     67998         1         0     68001         1         0
     68004         1         0     68007         1         0     68010         1         0
     68013         1         0     68016         1         0     68019         1         0
     68022         1         0     68025         1         0     68028         1         0
     68031         1         0     68034         1         0     68037         1         0
     68040         1         0     68043         1         0     68046         1         0
     68049         1         0     68052         1         0     68055         1         0
     68058         1         0     68061         1         0     68064         1         0
     68067         1         0     68070         1         0     68073         1         0
     68076         1         0     68079         1         0     68082         1         0
     68085         1         0     68088         1         0     68091         1         0
     68094         1         0     68097         1         0     68100         1         0
     68103         1         0     68106         1         0     68109         1         0
     68112         1         0     68115         1         0     68118         1         0
     68121         1         0     68124         1         0     68127         1         0
     68130         1         0     68133         1         0     68136         1         0
     68139         1         0     68142         1         0     68145         1         0
     68148         1         0     68151         1         0     68154         1         0
     68157         1         0     68160         1         0     68163         1         0
     68166         1         0     68169         1         0     68172         1         0
     68175         1         0     68178         1         0     68181         1         0
     68184         1         0     68187         1         0     68190         1         0
     68193         1         0     68196         1         0     68199         1         0
     68202         1         0     68205         1         0     68208         1         0
     68211         1         0     68214         1         0     68217         1         0
     68220         1         0     68223         1         0     68226         1         0
     68229         1         0     68232         1         0     68235         1         0
     68238         1         0     68241         1         0     68244         1         0
     68247         1         0     68250         1         0     68253         1         0
     68256         1         0     68259         1         0     68262         1         0
     68265         1         0     68268         1         0     68271         1         0
     68274         1         0     68277         1         0     68280         1         0
     68283         1         0     68286         1         0     68289         1         0
     68292         1         0     68295         1         0     68298         1         0
     68301         1         0     68304         1         0     68307         1         0
     68310         1         0     68313         1         0     68316         1         0
     68319         1         0     68322         1         0     68325         1         0
     68328         1         0     68331         1         0     68334         1         0
     68337         1         0     68340         1         0     68343         1         0
     68346         1         0     68349         1         0     68352         1         0
     68355         1         0     68358         1         0     68361         1         0
     68364         1         0     68367         1         0     68370         1         0
     68373         1         0     68376         1         0     68379         1         0
     68382         1         0     68385         1         0     68388         1         0
     68391         1         0     68394         1         0     68397         1         0
     68400         1         0     68403         1         0     68406         1         0
     68409         1         0     68412         1         0     68415         1         0
     68418         1         0     68421         1         0     68424         1         0
     68427         1         0     68430         1         0     68433         1         0
     68436         1         0     68439         1         0     68442         1         0
     68445         1         0     68448         1         0     68451         1         0
     68454         1         0     68457         1         0     68460         1         0
     68463         1         0     68466         1         0     68469         1         0
     68472         1         0     68475         1         0     68478         1         0
     68481         1         0     68484         1         0     68487         1         0
     68490         1         0     68493         1         0     68496         1         0
     68499         1         0     68502         1         0     68505         1         0
     68508         1         0     68511         1         0     68514         1         0
     68517         1         0     68520         1         0     68523         1         0
     68526         1         0     68529         1         0     68532         1         0
     68535         1         0     68538         1         0     68541         1         0
     68544         1         0     68547         1         0     68550         1         0
     68553         1         0     68556         1         0     68559         1         0
     68562         1         0     68565         1         0     68568         1         0
     68571         1         0     68574         1         0     68577         1         0
     68580         1         0     68583         1         0     68586         1         0
     68589         1         0     68592         1         0     68595         1         0
     68598         1         0     68601         1         0     68604         1         0
     68607         1         0     68610         1         0     68613         1         0
     68616         1         0     68619         1         0     68622         1         0
     68625         1         0     68628         1         0     68631         1         0
     68634         1         0     68637         1         0     68640         1         0
     68643         1         0     68646         1         0     68649         1         0
     68652         1         0     68655         1         0     68658         1         0
     68661         1         0     68664         1         0     68667         1         0
     68670         1         0     68673         1         0     68676         1         0
     68679         1         0     68682         1         0     68685         1         0
     68688         1         0     68691         1         0     68694         1         0
     68697         1         0     68700         1         0     68703         1         0
     68706         1         0     68709         1         0     68712         1         0
     68715         1         0     68718         1         0     68721         1         0
     68724         1         0     68727         1         0     68730         1         0
     68733         1         0     68736         1         0     68739         1         0
     68742         1         0     68745         1         0     68748         1         0
     68751         1         0     68754         1         0     68757         1         0
     68760         1         0     68763         1         0     68766         1         0
     68769         1         0     68772         1         0     68775         1         0
     68778         1         0     68781         1         0     68784         1         0
     68787         1         0     68790         1         0     68793         1         0
     68796         1         0     68799         1         0     68802         1         0
     68805         1         0     68808         1         0     68811         1         0
     68814         1         0     68817         1         0     68820         1         0
     68823         1         0     68826         1         0     68829         1         0
     68832         1         0     68835         1         0     68838         1         0
     68841         1         0     68844         1         0     68847         1         0
     68850         1         0     68853         1         0     68856         1         0
     68859         1         0     68862         1         0     68865         1         0
     68868         1         0     68871         1         0     68874         1         0
     68877         1         0     68880         1         0     68883         1         0
     68886         1         0     68889         1         0     68892         1         0
     68895         1         0     68898         1         0     68901         1         0
     68904         1         0     68907         1         0     68910         1         0
     68913         1         0     68916         1         0     68919         1         0
     68922         1         0     68925         1         0     68928         1         0
     68931         1         0     68934         1         0     68937         1         0
     68940         1         0     68943         1         0     68946         1         0
     68949         1         0     68952         1         0     68955         1         0
     68958         1         0     68961         1         0     68964         1         0
     68967         1         0     68970         1         0     68973         1         0
     68976         1         0     68979         1         0     68982         1         0
     68985         1         0     68988         1         0     68991         1         0
     68994         1         0     68997         1         0     69000         1         0
     69003         1         0     69006         1         0     69009         1         0
     69012         1         0     69015         1         0     69018         1         0
     69021         1         0     69024         1         0     69027         1         0
     69030         1         0     69033         1         0     69036         1         0
     69039         1         0     69042         1         0     69045         1         0
     69048         1         0     69051         1         0     69054         1         0
     69057         1         0     69060         1         0     69063         1         0
     69066         1         0     69069         1         0     69072         1         0
     69075         1         0     69078         1         0     69081         1         0
     69084         1         0     69087         1         0     69090         1         0
     69093         1         0     69096         1         0     69099         1         0
     69102         1         0     69105         1         0     69108         1         0
     69111         1         0     69114         1         0     69117         1         0
     69120         1         0     69123         1         0     69126         1         0
     69129         1         0     69132         1         0     69135         1         0
     69138         1         0     69141         1         0     69144         1         0
     69147         1         0     69150         1         0     69153         1         0
     69156         1         0     69159         1         0     69162         1         0
     69165         1         0     69168         1         0     69171         1         0
     69174         1         0     69177         1         0     69180         1         0
     69183         1         0     69186         1         0     69189         1         0
     69192         1         0     69195         1         0     69198         1         0
     69201         1         0     69204         1         0     69207         1         0
     69210         1         0     69213         1         0     69216         1         0
     69219         1         0     69222         1         0     69225         1         0
     69228         1         0     69231         1         0     69234         1         0
     69237         1         0     69240         1         0     69243         1         0
     69246         1         0     69249         1         0     69252         1         0
     69255         1         0     69258         1         0     69261         1         0
     69264         1         0     69267         1         0     69270         1         0
     69273         1         0     69276         1         0     69279         1         0
     69282         1         0     69285         1         0     69288         1         0
     69291         1         0     69294         1         0     69297         1         0
     69300         1         0     69303         1         0     69306         1         0
     69309         1         0     69312         1         0     69315         1         0
     69318         1         0     69321         1         0     69324         1         0
     69327         1         0     69330         1         0     69333         1         0
     69336         1         0     69339         1         0     69342         1         0
     69345         1         0     69348         1         0     69351         1         0
     69354         1         0     69357         1         0     69360         1         0
     69363         1         0     69366         1         0     69369         1         0
     69372         1         0     69375         1         0     69378         1         0
     69381         1         0     69384         1         0     69387         1         0
     69390         1         0     69393         1         0     69396         1         0
     69399         1         0     69402         1         0     69405         1         0
     69408         1         0     69411         1         0     69414         1         0
     69417         1         0     69420         1         0     69423         1         0
     69426         1         0     69429         1         0     69432         1         0
     69435         1         0     69438         1         0     69441         1         0
     69444         1         0     69447         1         0     69450         1         0
     69453         1         0     69456         1         0     69459         1         0
     69462         1         0     69465         1         0     69468         1         0
     69471         1         0     69474         1         0     69477         1         0
     69480         1         0     69483         1         0     69486         1         0
     69489         1         0     69492         1         0     69495         1         0
     69498         1         0     69501         1         0     69504         1         0
     69507         1         0     69510         1         0     69513         1         0
     69516         1         0     69519         1         0     69522         1         0
     69525         1         0     69528         1         0     69531         1         0
     69534         1         0     69537         1         0     69540         1         0
     69543         1         0     69546         1         0     69549         1         0
     69552         1         0     69555         1         0     69558         1         0
     69561         1         0     69564         1         0     69567         1         0
     69570         1         0     69573         1         0     69576         1         0
     69579         1         0     69582         1         0     69585         1         0
     69588         1         0     69591         1         0     69594         1         0
     69597         1         0     69600         1         0     69603         1         0
     69606         1         0     69609         1         0     69612         1         0
     69615         1         0     69618         1         0     69621         1         0
     69624         1         0     69627         1         0     69630         1         0
     69633         1         0     69636         1         0     69639         1         0
     69642         1         0     69645         1         0     69648         1         0
     69651         1         0     69654         1         0     69657         1         0
     69660         1         0     69663         1         0     69666         1         0
     69669         1         0     69672         1         0     69675         1         0
     69678         1         0     69681         1         0     69684         1         0
     69687         1         0     69690         1         0     69693         1         0
     69696         1         0     69699         1         0     69702         1         0
     69705         1         0     69708         1         0     69711         1         0
     69714         1         0     69717         1         0     69720         1         0
     69723         1         0     69726         1         0     69729         1         0
     69732         1         0     69735         1         0     69738         1         0
     69741         1         0     69744         1         0     69747         1         0
     69750         1         0     69753         1         0     69756         1         0
     69759         1         0     69762         1         0     69765         1         0
     69768         1         0     69771         1         0     69774         1         0
     69777         1         0     69780         1         0     69783         1         0
     69786         1         0     69789         1         0     69792         1         0
     69795         1         0     69798         1         0     69801         1         0
     69804         1         0     69807         1         0     69810         1         0
     69813         1         0     69816         1         0     69819         1         0
     69822         1         0     69825         1         0     69828         1         0
     69831         1         0     69834         1         0     69837         1         0
     69840         1         0     69843         1         0     69846         1         0
     69849         1         0     69852         1         0     69855         1         0
     69858         1         0     69861         1         0     69864         1         0
     69867         1         0     69870         1         0     69873         1         0
     69876         1         0     69879         1         0     69882         1         0
     69885         1         0     69888         1         0     69891         1         0
     69894         1         0     69897         1         0     69900         1         0
     69903         1         0     69906         1         0     69909         1         0
     69912         1         0     69915         1         0     69918         1         0
     69921         1         0     69924         1         0     69927         1         0
     69930         1         0     69933         1         0     69936         1         0
     69939         1         0     69942         1         0     69945         1         0
     69948         1         0     69951         1         0     69954         1         0
     69957         1         0     69960         1         0     69963         1         0
     69966         1         0     69969         1         0     69972         1         0
     69975         1         0     69978         1         0     69981         1         0
     69984         1         0     69987         1         0     69990         1         0
     69993         1         0     69996         1         0     69999         1         0
     70002         1         0     70005         1         0     70008         1         0
     70011         1         0     70014         1         0     70017         1         0
     70020         1         0     70023         1         0     70026         1         0
     70029         1         0     70032         1         0     70035         1         0
     70038         1         0     70041         1         0     70044         1         0
     70047         1         0     70050         1         0     70053         1         0
     70056         1         0     70059         1         0     70062         1         0
     70065         1         0     70068         1         0     70071         1         0
     70074         1         0     70077         1         0     70080         1         0
     70083         1         0     70086         1         0     70089         1         0
     70092         1         0     70095         1         0     70098         1         0
     70101         1         0     70104         1         0     70107         1         0
     70110         1         0     70113         1         0     70116         1         0
     70119         1         0     70122         1         0     70125         1         0
     70128         1         0     70131         1         0     70134         1         0
     70137         1         0     70140         1         0     70143         1         0
     70146         1         0     70149         1         0     70152         1         0
     70155         1         0     70158         1         0     70161         1         0
     70164         1         0     70167         1         0     70170         1         0
     70173         1         0     70176         1         0     70179         1         0
     70182         1         0     70185         1         0     70188         1         0
     70191         1         0     70194         1         0     70197         1         0
     70200         1         0     70203         1         0     70206         1         0
     70209         1         0     70212         1         0     70215         1         0
     70218         1         0     70221         1         0     70224         1         0
     70227         1         0     70230         1         0     70233         1         0
     70236         1         0     70239         1         0     70242         1         0
     70245         1         0     70248         1         0     70251         1         0
     70254         1         0     70257         1         0     70260         1         0
     70263         1         0     70266         1         0     70269         1         0
     70272         1         0     70275         1         0     70278         1         0
     70281         1         0     70284         1         0     70287         1         0
     70290         1         0     70293         1         0     70296         1         0
     70299         1         0     70302         1         0     70305         1         0
     70308         1         0     70311         1         0     70314         1         0
     70317         1         0     70320         1         0     70323         1         0
     70326         1         0     70329         1         0     70332         1         0
     70335         1         0     70338         1         0     70341         1         0
     70344         1         0     70347         1         0     70350         1         0
     70353         1         0     70356         1         0     70359         1         0
     70362         1         0     70365         1         0     70368         1         0
     70371         1         0     70374         1         0     70377         1         0
     70380         1         0     70383         1         0     70386         1         0
     70389         1         0     70392         1         0     70395         1         0
     70398         1         0     70401         1         0     70404         1         0
     70407         1         0     70410         1         0     70413         1         0
     70416         1         0     70419         1         0     70422         1         0
     70425         1         0     70428         1         0     70431         1         0
     70434         1         0     70437         1         0     70440         1         0
     70443         1         0     70446         1         0     70449         1         0
     70452         1         0     70455         1         0     70458         1         0
     70461         1         0     70464         1         0     70467         1         0
     70470         1         0     70473         1         0     70476         1         0
     70479         1         0     70482         1         0     70485         1         0
     70488         1         0     70491         1         0     70494         1         0
     70497         1         0     70500         1         0     70503         1         0
     70506         1         0     70509         1         0     70512         1         0
     70515         1         0     70518         1         0     70521         1         0
     70524         1         0     70527         1         0     70530         1         0
     70533         1         0     70536         1         0     70539         1         0
     70542         1         0     70545         1         0     70548         1         0
     70551         1         0     70554         1         0     70557         1         0
     70560         1         0     70563         1         0     70566         1         0
     70569         1         0     70572         1         0     70575         1         0
     70578         1         0     70581         1         0     70584         1         0
     70587         1         0     70590         1         0     70593         1         0
     70596         1         0     70599         1         0     70602         1         0
     70605         1         0     70608         1         0     70611         1         0
     70614         1         0     70617         1         0     70620         1         0
     70623         1         0     70626         1         0     70629         1         0
     70632         1         0     70635         1         0     70638         1         0
     70641         1         0     70644         1         0     70647         1         0
     70650         1         0     70653         1         0     70656         1         0
     70659         1         0     70662         1         0     70665         1         0
     70668         1         0     70671         1         0     70674         1         0
     70677         1         0     70680         1         0     70683         1         0
     70686         1         0     70689         1         0     70692         1         0
     70695         1         0     70698         1         0     70701         1         0
     70704         1         0     70707         1         0     70710         1         0
     70713         1         0     70716         1         0     70719         1         0
     70722         1         0     70725         1         0     70728         1         0
     70731         1         0     70734         1         0     70737         1         0
     70740         1         0     70743         1         0     70746         1         0
     70749         1         0     70752         1         0     70755         1         0
     70758         1         0     70761         1         0     70764         1         0
     70767         1         0     70770         1         0     70773         1         0
     70776         1         0     70779         1         0     70782         1         0
     70785         1         0     70788         1         0     70791         1         0
     70794         1         0     70797         1         0     70800         1         0
     70803         1         0     70806         1         0     70809         1         0
     70812         1         0     70815         1         0     70818         1         0
     70821         1         0     70824         1         0     70827         1         0
     70830         1         0     70833         1         0     70836         1         0
     70839         1         0     70842         1         0     70845         1         0
     70848         1         0     70851         1         0     70854         1         0
     70857         1         0     70860         1         0     70863         1         0
     70866         1         0     70869         1         0     70872         1         0
     70875         1         0     70878         1         0     70881         1         0
     70884         1         0     70887         1         0     70890         1         0
     70893         1         0     70896         1         0     70899         1         0
     70902         1         0     70905         1         0     70908         1         0
     70911         1         0     70914         1         0     70917         1         0
     70920         1         0     70923         1         0     70926         1         0
     70929         1         0     70932         1         0     70935         1         0
     70938         1         0     70941         1         0     70944         1         0
     70947         1         0     70950         1         0     70953         1         0
     70956         1         0     70959         1         0     70962         1         0
     70965         1         0     70968         1         0     70971         1         0
     70974         1         0     70977         1         0     70980         1         0
     70983         1         0     70986         1         0     70989         1         0
     70992         1         0     70995         1         0     70998         1         0
     71001         1         0     71004         1         0     71007         1         0
     71010         1         0     71013         1         0     71016         1         0
     71019         1         0     71022         1         0     71025         1         0
     71028         1         0     71031         1         0     71034         1         0
     71037         1         0     71040         1         0     71043         1         0
     71046         1         0     71049         1         0     71052         1         0
     71055         1         0     71058         1         0     71061         1         0
     71064         1         0     71067         1         0     71070         1         0
     71073         1         0     71076         1         0     71079         1         0
     71082         1         0     71085         1         0     71088         1         0
     71091         1         0     71094         1         0     71097         1         0
     71100         1         0     71103         1         0     71106         1         0
     71109         1         0     71112         1         0     71115         1         0
     71118         1         0     71121         1         0     71124         1         0
     71127         1         0     71130         1         0     71133         1         0
     71136         1         0     71139         1         0     71142         1         0
     71145         1         0     71148         1         0     71151         1         0
     71154         1         0     71157         1         0     71160         1         0
     71163         1         0     71166         1         0     71169         1         0
     71172         1         0     71175         1         0     71178         1         0
     71181         1         0     71184         1         0     71187         1         0
     71190         1         0     71193         1         0     71196         1         0
     71199         1         0     71202         1         0     71205         1         0
     71208         1         0     71211         1         0     71214         1         0
     71217         1         0     71220         1         0     71223         1         0
     71226         1         0     71229         1         0     71232         1         0
     71235         1         0     71238         1         0     71241         1         0
     71244         1         0     71247         1         0     71250         1         0
     71253         1         0     71256         1         0     71259         1         0
     71262         1         0     71265         1         0     71268         1         0
     71271         1         0     71274         1         0     71277         1         0
     71280         1         0     71283         1         0     71286         1         0
     71289         1         0     71292         1         0     71295         1         0
     71298         1         0     71301         1         0     71304         1         0
     71307         1         0     71310         1         0     71313         1         0
     71316         1         0     71319         1         0     71322         1         0
     71325         1         0     71328         1         0     71331         1         0
     71334         1         0     71337         1         0     71340         1         0
     71343         1         0     71346         1         0     71349         1         0
     71352         1         0     71355         1         0     71358         1         0
     71361         1         0     71364         1         0     71367         1         0
     71370         1         0     71373         1         0     71376         1         0
     71379         1         0     71382         1         0     71385         1         0
     71388         1         0     71391         1         0     71394         1         0
     71397         1         0     71400         1         0     71403         1         0
     71406         1         0     71409         1         0     71412         1         0
     71415         1         0     71418         1         0     71421         1         0
     71424         1         0     71427         1         0     71430         1         0
     71433         1         0     71436         1         0     71439         1         0
     71442         1         0     71445         1         0     71448         1         0
     71451         1         0     71454         1         0     71457         1         0
     71460         1         0     71463         1         0     71466         1         0
     71469         1         0     71472         1         0     71475         1         0
     71478         1         0     71481         1         0     71484         1         0
     71487         1         0     71490         1         0     71493         1         0
     71496         1         0     71499         1         0     71502         1         0
     71505         1         0     71508         1         0     71511         1         0
     71514         1         0     71517         1         0     71520         1         0
     71523         1         0     71526         1         0     71529         1         0
     71532         1         0     71535         1         0     71538         1         0
     71541         1         0     71544         1         0     71547         1         0
     71550         1         0     71553         1         0     71556         1         0
     71559         1         0     71562         1         0     71565         1         0
     71568         1         0     71571         1         0     71574         1         0
     71577         1         0     71580         1         0     71583         1         0
     71586         1         0     71589         1         0     71592         1         0
     71595         1         0     71598         1         0     71601         1         0
     71604         1         0     71607         1         0     71610         1         0
     71613         1         0     71616         1         0     71619         1         0
     71622         1         0     71625         1         0     71628         1         0
     71631         1         0     71634         1         0     71637         1         0
     71640         1         0     71643         1         0     71646         1         0
     71649         1         0     71652         1         0     71655         1         0
     71658         1         0     71661         1         0     71664         1         0
     71667         1         0     71670         1         0     71673         1         0
     71676         1         0     71679         1         0     71682         1         0
     71685         1         0     71688         1         0     71691         1         0
     71694         1         0     71697         1         0     71700         1         0
     71703         1         0     71706         1         0     71709         1         0
     71712         1         0     71715         1         0     71718         1         0
     71721         1         0     71724         1         0     71727         1         0
     71730         1         0     71733         1         0     71736         1         0
     71739         1         0     71742         1         0     71745         1         0
     71748         1         0     71751         1         0     71754         1         0
     71757         1         0     71760         1         0     71763         1         0
     71766         1         0     71769         1         0     71772         1         0
     71775         1         0     71778         1         0     71781         1         0
     71784         1         0     71787         1         0     71790         1         0
     71793         1         0     71796         1         0     71799         1         0
     71802         1         0     71805         1         0     71808         1         0
     71811         1         0     71814         1         0     71817         1         0
     71820         1         0     71823         1         0     71826         1         0
     71829         1         0     71832         1         0     71835         1         0
     71838         1         0     71841         1         0     71844         1         0
     71847         1         0     71850         1         0     71853         1         0
     71856         1         0     71859         1         0     71862         1         0
     71865         1         0     71868         1         0     71871         1         0
     71874         1         0     71877         1         0     71880         1         0
     71883         1         0     71886         1         0     71889         1         0
     71892         1         0     71895         1         0     71898         1         0
     71901         1         0     71904         1         0     71907         1         0
     71910         1         0     71913         1         0     71916         1         0
     71919         1         0     71922         1         0     71925         1         0
     71928         1         0     71931         1         0     71934         1         0
     71937         1         0     71940         1         0     71943         1         0
     71946         1         0     71949         1         0     71952         1         0
     71955         1         0     71958         1         0     71961         1         0
     71964         1         0     71967         1         0     71970         1         0
     71973         1         0     71976         1         0     71979         1         0
     71982         1         0     71985         1         0     71988         1         0
     71991         1         0     71994         1         0     71997         1         0
     72000         1         0     72003         1         0     72006         1         0
     72009         1         0     72012         1         0     72015         1         0
     72018         1         0     72021         1         0     72024         1         0
     72027         1         0     72030         1         0     72033         1         0
     72036         1         0     72039         1         0     72042         1         0
     72045         1         0     72048         1         0     72051         1         0
     72054         1         0     72057         1         0     72060         1         0
     72063         1         0     72066         1         0     72069         1         0
     72072         1         0     72075         1         0     72078         1         0
     72081         1         0     72084         1         0     72087         1         0
     72090         1         0     72093         1         0     72096         1         0
     72099         1         0     72102         1         0     72105         1         0
     72108         1         0     72111         1         0     72114         1         0
     72117         1         0     72120         1         0     72123         1         0
     72126         1         0     72129         1         0     72132         1         0
     72135         1         0     72138         1         0     72141         1         0
     72144         1         0     72147         1         0     72150         1         0
     72153         1         0     72156         1         0     72159         1         0
     72162         1         0     72165         1         0     72168         1         0
     72171         1         0     72174         1         0     72177         1         0
     72180         1         0     72183         1         0     72186         1         0
     72189         1         0     72192         1         0     72195         1         0
     72198         1         0     72201         1         0     72204         1         0
     72207         1         0     72210         1         0     72213         1         0
     72216         1         0     72219         1         0     72222         1         0
     72225         1         0     72228         1         0     72231         1         0
     72234         1         0     72237         1         0     72240         1         0
     72243         1         0     72246         1         0     72249         1         0
     72252         1         0     72255         1         0     72258         1         0
     72261         1         0     72264         1         0     72267         1         0
     72270         1         0     72273         1         0     72276         1         0
     72279         1         0     72282         1         0     72285         1         0
     72288         1         0     72291         1         0     72294         1         0
     72297         1         0     72300         1         0     72303         1         0
     72306         1         0     72309         1         0     72312         1         0
     72315         1         0     72318         1         0     72321         1         0
     72324         1         0     72327         1         0     72330         1         0
     72333         1         0     72336         1         0     72339         1         0
     72342         1         0     72345         1         0     72348         1         0
     72351         1         0     72354         1         0     72357         1         0
     72360         1         0     72363         1         0     72366         1         0
     72369         1         0     72372         1         0     72375         1         0
     72378         1         0     72381         1         0     72384         1         0
     72387         1         0     72390         1         0     72393         1         0
     72396         1         0     72399         1         0     72402         1         0
     72405         1         0     72408         1         0     72411         1         0
     72414         1         0     72417         1         0     72420         1         0
     72423         1         0     72426         1         0     72429         1         0
     72432         1         0     72435         1         0     72438         1         0
     72441         1         0     72444         1         0     72447         1         0
     72450         1         0     72453         1         0     72456         1         0
     72459         1         0     72462         1         0     72465         1         0
     72468         1         0     72471         1         0     72474         1         0
     72477         1         0     72480         1         0     72483         1         0
     72486         1         0     72489         1         0     72492         1         0
     72495         1         0     72498         1         0     72501         1         0
     72504         1         0     72507         1         0     72510         1         0
     72513         1         0     72516         1         0     72519         1         0
     72522         1         0     72525         1         0     72528         1         0
     72531         1         0     72534         1         0     72537         1         0
     72540         1         0     72543         1         0     72546         1         0
     72549         1         0     72552         1         0     72555         1         0
     72558         1         0     72561         1         0     72564         1         0
     72567         1         0     72570         1         0     72573         1         0
     72576         1         0     72579         1         0     72582         1         0
     72585         1         0     72588         1         0     72591         1         0
     72594         1         0     72597         1         0     72600         1         0
     72603         1         0     72606         1         0     72609         1         0
     72612         1         0     72615         1         0     72618         1         0
     72621         1         0     72624         1         0     72627         1         0
     72630         1         0     72633         1         0     72636         1         0
     72639         1         0     72642         1         0     72645         1         0
     72648         1         0     72651         1         0     72654         1         0
     72657         1         0     72660         1         0     72663         1         0
     72666         1         0     72669         1         0     72672         1         0
     72675         1         0     72678         1         0     72681         1         0
     72684         1         0     72687         1         0     72690         1         0
     72693         1         0     72696         1         0     72699         1         0
     72702         1         0     72705         1         0     72708         1         0
     72711         1         0     72714         1         0     72717         1         0
     72720         1         0     72723         1         0     72726         1         0
     72729         1         0     72732         1         0     72735         1         0
     72738         1         0     72741         1         0     72744         1         0
     72747         1         0     72750         1         0     72753         1         0
     72756         1         0     72759         1         0     72762         1         0
     72765         1         0     72768         1         0     72771         1         0
     72774         1         0     72777         1         0     72780         1         0
     72783         1         0     72786         1         0     72789         1         0
     72792         1         0     72795         1         0     72798         1         0
     72801         1         0     72804         1         0     72807         1         0
     72810         1         0     72813         1         0     72816         1         0
     72819         1         0     72822         1         0     72825         1         0
     72828         1         0     72831         1         0     72834         1         0
     72837         1         0     72840         1         0     72843         1         0
     72846         1         0     72849         1         0     72852         1         0
     72855         1         0     72858         1         0     72861         1         0
     72864         1         0     72867         1         0     72870         1         0
     72873         1         0     72876         1         0     72879         1         0
     72882         1         0     72885         1         0     72888         1         0
     72891         1         0     72894         1         0     72897         1         0
     72900         1         0     72903         1         0     72906         1         0
     72909         1         0     72912         1         0     72915         1         0
     72918         1         0     72921         1         0     72924         1         0
     72927         1         0     72930         1         0     72933         1         0
     72936         1         0     72939         1         0     72942         1         0
     72945         1         0     72948         1         0     72951         1         0
     72954         1         0     72957         1         0     72960         1         0
     72963         1         0     72966         1         0     72969         1         0
     72972         1         0     72975         1         0     72978         1         0
     72981         1         0     72984         1         0     72987         1         0
     72990         1         0     72993         1         0     72996         1         0
     72999         1         0     73002         1         0     73005         1         0
     73008         1         0     73011         1         0     73014         1         0
     73017         1         0     73020         1         0     73023         1         0
     73026         1         0     73029         1         0     73032         1         0
     73035         1         0     73038         1         0     73041         1         0
     73044         1         0     73047         1         0     73050         1         0
     73053         1         0     73056         1         0     73059         1         0
     73062         1         0     73065         1         0     73068         1         0
     73071         1         0     73074         1         0     73077         1         0
     73080         1         0     73083         1         0     73086         1         0
     73089         1         0     73092         1         0     73095         1         0
     73098         1         0     73101         1         0     73104         1         0
     73107         1         0     73110         1         0     73113         1         0
     73116         1         0     73119         1         0     73122         1         0
     73125         1         0     73128         1         0     73131         1         0
     73134         1         0     73137         1         0     73140         1         0
     73143         1         0     73146         1         0     73149         1         0
     73152         1         0     73155         1         0     73158         1         0
     73161         1         0     73164         1         0     73167         1         0
     73170         1         0     73173         1         0     73176         1         0
     73179         1         0     73182         1         0     73185         1         0
     73188         1         0     73191         1         0     73194         1         0
     73197         1         0     73200         1         0     73203         1         0
     73206         1         0     73209         1         0     73212         1         0
     73215         1         0     73218         1         0     73221         1         0
     73224         1         0     73227         1         0     73230         1         0
     73233         1         0     73236         1         0     73239         1         0
     73242         1         0     73245         1         0     73248         1         0
     73251         1         0     73254         1         0     73257         1         0
     73260         1         0     73263         1         0     73266         1         0
     73269         1         0     73272         1         0     73275         1         0
     73278         1         0     73281         1         0     73284         1         0
     73287         1         0     73290         1         0     73293         1         0
     73296         1         0     73299         1         0     73302         1         0
     73305         1         0     73308         1         0     73311         1         0
     73314         1         0     73317         1         0     73320         1         0
     73323         1         0     73326         1         0     73329         1         0
     73332         1         0     73335         1         0     73338         1         0
     73341         1         0     73344         1         0     73347         1         0
     73350         1         0     73353         1         0     73356         1         0
     73359         1         0     73362         1         0     73365         1         0
     73368         1         0     73371         1         0     73374         1         0
     73377         1         0     73380         1         0     73383         1         0
     73386         1         0     73389         1         0     73392         1         0
     73395         1         0     73398         1         0     73401         1         0
     73404         1         0     73407         1         0     73410         1         0
     73413         1         0     73416         1         0     73419         1         0
     73422         1         0     73425         1         0     73428         1         0
     73431         1         0     73434         1         0     73437         1         0
     73440         1         0     73443         1         0     73446         1         0
     73449         1         0     73452         1         0     73455         1         0
     73458         1         0     73461         1         0     73464         1         0
     73467         1         0     73470         1         0     73473         1         0
     73476         1         0     73479         1         0     73482         1         0
     73485         1         0     73488         1         0     73491         1         0
     73494         1         0     73497         1         0     73500         1         0
     73503         1         0     73506         1         0     73509         1         0
     73512         1         0     73515         1         0     73518         1         0
     73521         1         0     73524         1         0     73527         1         0
     73530         1         0     73533         1         0     73536         1         0
     73539         1         0     73542         1         0     73545         1         0
     73548         1         0     73551         1         0     73554         1         0
     73557         1         0     73560         1         0     73563         1         0
     73566         1         0     73569         1         0     73572         1         0
     73575         1         0     73578         1         0     73581         1         0
     73584         1         0     73587         1         0     73590         1         0
     73593         1         0     73596         1         0     73599         1         0
     73602         1         0     73605         1         0     73608         1         0
     73611         1         0     73614         1         0     73617         1         0
     73620         1         0     73623         1         0     73626         1         0
     73629         1         0     73632         1         0     73635         1         0
     73638         1         0     73641         1         0     73644         1         0
     73647         1         0     73650         1         0     73653         1         0
     73656         1         0     73659         1         0     73662         1         0
     73665         1         0     73668         1         0     73671         1         0
     73674         1         0     73677         1         0     73680         1         0
     73683         1         0     73686         1         0     73689         1         0
     73692         1         0     73695         1         0     73698         1         0
     73701         1         0     73704         1         0     73707         1         0
     73710         1         0     73713         1         0     73716         1         0
     73719         1         0     73722         1         0     73725         1         0
     73728         1         0     73731         1         0     73734         1         0
     73737         1         0     73740         1         0     73743         1         0
     73746         1         0     73749         1         0     73752         1         0
     73755         1         0     73758         1         0     73761         1         0
     73764         1         0     73767         1         0     73770         1         0
     73773         1         0     73776         1         0     73779         1         0
     73782         1         0     73785         1         0     73788         1         0
     73791         1         0     73794         1         0     73797         1         0
     73800         1         0     73803         1         0     73806         1         0
     73809         1         0     73812         1         0     73815         1         0
     73818         1         0     73821         1         0     73824         1         0
     73827         1         0     73830         1         0     73833         1         0
     73836         1         0     73839         1         0     73842         1         0
     73845         1         0     73848         1         0     73851         1         0
     73854         1         0     73857         1         0     73860         1         0
     73863         1         0     73866         1         0     73869         1         0
     73872         1         0     73875         1         0     73878         1         0
     73881         1         0     73884         1         0     73887         1         0
     73890         1         0     73893         1         0     73896         1         0
     73899         1         0     73902         1         0     73905         1         0
     73908         1         0     73911         1         0     73914         1         0
     73917         1         0     73920         1         0     73923         1         0
     73926         1         0     73929         1         0     73932         1         0
     73935         1         0     73938         1         0     73941         1         0
     73944         1         0     73947         1         0     73950         1         0
     73953         1         0     73956         1         0     73959         1         0
     73962         1         0     73965         1         0     73968         1         0
     73971         1         0     73974         1         0     73977         1         0
     73980         1         0     73983         1         0     73986         1         0
     73989         1         0     73992         1         0     73995         1         0
     73998         1         0     74001         1         0     74004         1         0
     74007         1         0     74010         1         0     74013         1         0
     74016         1         0     74019         1         0     74022         1         0
     74025         1         0     74028         1         0     74031         1         0
     74034         1         0     74037         1         0     74040         1         0
     74043         1         0     74046         1         0     74049         1         0
     74052         1         0     74055         1         0     74058         1         0
     74061         1         0     74064         1         0     74067         1         0
     74070         1         0     74073         1         0     74076         1         0
     74079         1         0     74082         1         0     74085         1         0
     74088         1         0     74091         1         0     74094         1         0
     74097         1         0     74100         1         0     74103         1         0
     74106         1         0     74109         1         0     74112         1         0
     74115         1         0     74118         1         0     74121         1         0
     74124         1         0     74127         1         0     74130         1         0
     74133         1         0     74136         1         0     74139         1         0
     74142         1         0     74145         1         0     74148         1         0
     74151         1         0     74154         1         0     74157         1         0
     74160         1         0     74163         1         0     74166         1         0
     74169         1         0     74172         1         0     74175         1         0
     74178         1         0     74181         1         0     74184         1         0
     74187         1         0     74190         1         0     74193         1         0
     74196         1         0     74199         1         0     74202         1         0
     74205         1         0     74208         1         0     74211         1         0
     74214         1         0     74217         1         0     74220         1         0
     74223         1         0     74226         1         0     74229         1         0
     74232         1         0     74235         1         0     74238         1         0
     74241         1         0     74244         1         0     74247         1         0
     74250         1         0     74253         1         0     74256         1         0
     74259         1         0     74262         1         0     74265         1         0
     74268         1         0     74271         1         0     74274         1         0
     74277         1         0     74280         1         0     74283         1         0
     74286         1         0     74289         1         0     74292         1         0
     74295         1         0     74298         1         0     74301         1         0
     74304         1         0     74307         1         0     74310         1         0
     74313         1         0     74316         1         0     74319         1         0
     74322         1         0     74325         1         0     74328         1         0
     74331         1         0     74334         1         0     74337         1         0
     74340         1         0     74343         1         0     74346         1         0
     74349         1         0     74352         1         0     74355         1         0
     74358         1         0     74361         1         0     74364         1         0
     74367         1         0     74370         1         0     74373         1         0
     74376         1         0     74379         1         0     74382         1         0
     74385         1         0     74388         1         0     74391         1         0
     74394         1         0     74397         1         0     74400         1         0
     74403         1         0     74406         1         0     74409         1         0
     74412         1         0     74415         1         0     74418         1         0
     74421         1         0     74424         1         0     74427         1         0
     74430         1         0     74433         1         0     74436         1         0
     74439         1         0     74442         1         0     74445         1         0
     74448         1         0     74451         1         0     74454         1         0
     74457         1         0     74460         1         0     74463         1         0
     74466         1         0     74469         1         0     74472         1         0
     74475         1         0     74478         1         0     74481         1         0
     74484         1         0     74487         1         0     74490         1         0
     74493         1         0     74496         1         0     74499         1         0
     74502         1         0     74505         1         0     74508         1         0
     74511         1         0     74514         1         0     74517         1         0
     74520         1         0     74523         1         0     74526         1         0
     74529         1         0     74532         1         0     74535         1         0
     74538         1         0     74541         1         0     74544         1         0
     74547         1         0     74550         1         0     74553         1         0
     74556         1         0     74559         1         0     74562         1         0
     74565         1         0     74568         1         0     74571         1         0
     74574         1         0     74577         1         0     74580         1         0
     74583         1         0     74586         1         0     74589         1         0
     74592         1         0     74595         1         0     74598         1         0
     74601         1         0     74604         1         0     74607         1         0
     74610         1         0     74613         1         0     74616         1         0
     74619         1         0     74622         1         0     74625         1         0
     74628         1         0     74631         1         0     74634         1         0
     74637         1         0     74640         1         0     74643         1         0
     74646         1         0     74649         1         0     74652         1         0
     74655         1         0     74658         1         0     74661         1         0
     74664         1         0     74667         1         0     74670         1         0
     74673         1         0     74676         1         0     74679         1         0
     74682         1         0     74685         1         0     74688         1         0
     74691         1         0     74694         1         0     74697         1         0
     74700         1         0     74703         1         0     74706         1         0
     74709         1         0     74712         1         0     74715         1         0
     74718         1         0     74721         1         0     74724         1         0
     74727         1         0     74730         1         0     74733         1         0
     74736         1         0     74739         1         0     74742         1         0
     74745         1         0     74748         1         0     74751         1         0
     74754         1         0     74757         1         0     74760         1         0
     74763         1         0     74766         1         0     74769         1         0
     74772         1         0     74775         1         0     74778         1         0
     74781         1         0     74784         1         0     74787         1         0
     74790         1         0     74793         1         0     74796         1         0
     74799         1         0     74802         1         0     74805         1         0
     74808         1         0     74811         1         0     74814         1         0
     74817         1         0     74820         1         0     74823         1         0
     74826         1         0     74829         1         0     74832         1         0
     74835         1         0     74838         1         0     74841         1         0
     74844         1         0     74847         1         0     74850         1         0
     74853         1         0     74856         1         0     74859         1         0
     74862         1         0     74865         1         0     74868         1         0
     74871         1         0     74874         1         0     74877         1         0
     74880         1         0     74883         1         0     74886         1         0
     74889         1         0     74892         1         0     74895         1         0
     74898         1         0     74901         1         0     74904         1         0
     74907         1         0     74910         1         0     74913         1         0
     74916         1         0     74919         1         0     74922         1         0
     74925         1         0     74928         1         0     74931         1         0
     74934         1         0     74937         1         0     74940         1         0
     74943         1         0     74946         1         0     74949         1         0
     74952         1         0     74955         1         0     74958         1         0
     74961         1         0     74964         1         0     74967         1         0
     74970         1         0     74973         1         0     74976         1         0
     74979         1         0     74982         1         0     74985         1         0
     74988         1         0     74991         1         0     74994         1         0
     74997         1         0     75000         1         0     75003         1         0
     75006         1         0     75009         1         0     75012         1         0
     75015         1         0     75018         1         0     75021         1         0
     75024         1         0     75027         1         0     75030         1         0
     75033         1         0     75036         1         0     75039         1         0
     75042         1         0     75045         1         0     75048         1         0
     75051         1         0     75054         1         0     75057         1         0
     75060         1         0     75063         1         0     75066         1         0
     75069         1         0     75072         1         0     75075         1         0
     75078         1         0     75081         1         0     75084         1         0
     75087         1         0     75090         1         0     75093         1         0
     75096         1         0     75099         1         0     75102         1         0
     75105         1         0     75108         1         0     75111         1         0
     75114         1         0     75117         1         0     75120         1         0
     75123         1         0     75126         1         0     75129         1         0
     75132         1         0     75135         1         0     75138         1         0
     75141         1         0     75144         1         0     75147         1         0
     75150         1         0     75153         1         0     75156         1         0
     75159         1         0     75162         1         0     75165         1         0
     75168         1         0     75171         1         0     75174         1         0
     75177         1         0     75180         1         0     75183         1         0
     75186         1         0     75189         1         0     75192         1         0
     75195         1         0     75198         1         0     75201         1         0
     75204         1         0     75207         1         0     75210         1         0
     75213         1         0     75216         1         0     75219         1         0
     75222         1         0     75225         1         0     75228         1         0
     75231         1         0     75234         1         0     75237         1         0
     75240         1         0     75243         1         0     75246         1         0
     75249         1         0     75252         1         0     75255         1         0
     75258         1         0     75261         1         0     75264         1         0
     75267         1         0     75270         1         0     75273         1         0
     75276         1         0     75279         1         0     75282         1         0
     75285         1         0     75288         1         0     75291         1         0
     75294         1         0     75297         1         0     75300         1         0
     75303         1         0     75306         1         0     75309         1         0
     75312         1         0     75315         1         0     75318         1         0
     75321         1         0     75324         1         0     75327         1         0
     75330         1         0     75333         1         0     75336         1         0
     75339         1         0     75342         1         0     75345         1         0
     75348         1         0     75351         1         0     75354         1         0
     75357         1         0     75360         1         0     75363         1         0
     75366         1         0     75369         1         0     75372         1         0
     75375         1         0     75378         1         0     75381         1         0
     75384         1         0     75387         1         0     75390         1         0
     75393         1         0     75396         1         0     75399         1         0
     75402         1         0     75405         1         0     75408         1         0
     75411         1         0     75414         1         0     75417         1         0
     75420         1         0     75423         1         0     75426         1         0
     75429         1         0     75432         1         0     75435         1         0
     75438         1         0     75441         1         0     75444         1         0
     75447         1         0     75450         1         0     75453         1         0
     75456         1         0     75459         1         0     75462         1         0
     75465         1         0     75468         1         0     75471         1         0
     75474         1         0     75477         1         0     75480         1         0
     75483         1         0     75486         1         0     75489         1         0
     75492         1         0     75495         1         0     75498         1         0
     75501         1         0     75504         1         0     75507         1         0
     75510         1         0     75513         1         0     75516         1         0
     75519         1         0     75522         1         0     75525         1         0
     75528         1         0     75531         1         0     75534         1         0
     75537         1         0     75540         1         0     75543         1         0
     75546         1         0     75549         1         0     75552         1         0
     75555         1         0     75558         1         0     75561         1         0
     75564         1         0     75567         1         0     75570         1         0
     75573         1         0     75576         1         0     75579         1         0
     75582         1         0     75585         1         0     75588         1         0
     75591         1         0     75594         1         0     75597         1         0
     75600         1         0     75603         1         0     75606         1         0
     75609         1         0     75612         1         0     75615         1         0
     75618         1         0     75621         1         0     75624         1         0
     75627         1         0     75630         1         0     75633         1         0
     75636         1         0     75639         1         0     75642         1         0
     75645         1         0     75648         1         0     75651         1         0
     75654         1         0     75657         1         0     75660         1         0
     75663         1         0     75666         1         0     75669         1         0
     75672         1         0     75675         1         0     75678         1         0
     75681         1         0     75684         1         0     75687         1         0
     75690         1         0     75693         1         0     75696         1         0
     75699         1         0     75702         1         0     75705         1         0
     75708         1         0     75711         1         0     75714         1         0
     75717         1         0     75720         1         0     75723         1         0
     75726         1         0     75729         1         0     75732         1         0
     75735         1         0     75738         1         0     75741         1         0
     75744         1         0     75747         1         0     75750         1         0
     75753         1         0     75756         1         0     75759         1         0
     75762         1         0     75765         1         0     75768         1         0
     75771         1         0     75774         1         0     75777         1         0
     75780         1         0     75783         1         0     75786         1         0
     75789         1         0     75792         1         0     75795         1         0
     75798         1         0     75801         1         0     75804         1         0
     75807         1         0     75810         1         0     75813         1         0
     75816         1         0     75819         1         0     75822         1         0
     75825         1         0     75828         1         0     75831         1         0
     75834         1         0     75837         1         0     75840         1         0
     75843         1         0     75846         1         0     75849         1         0
     75852         1         0     75855         1         0     75858         1         0
     75861         1         0     75864         1         0     75867         1         0
     75870         1         0     75873         1         0     75876         1         0
     75879         1         0     75882         1         0     75885         1         0
     75888         1         0     75891         1         0     75894         1         0
     75897         1         0     75900         1         0     75903         1         0
     75906         1         0     75909         1         0     75912         1         0
     75915         1         0     75918         1         0     75921         1         0
     75924         1         0     75927         1         0     75930         1         0
     75933         1         0     75936         1         0     75939         1         0
     75942         1         0     75945         1         0     75948         1         0
     75951         1         0     75954         1         0     75957         1         0
     75960         1         0     75963         1         0     75966         1         0
     75969         1         0     75972         1         0     75975         1         0
     75978         1         0     75981         1         0     75984         1         0
     75987         1         0     75990         1         0     75993         1         0
     75996         1         0     75999         1         0     76002         1         0
     76005         1         0     76008         1         0     76011         1         0
     76014         1         0     76017         1         0     76020         1         0
     76023         1         0     76026         1         0     76029         1         0
     76032         1         0     76035         1         0     76038         1         0
     76041         1         0     76044         1         0     76047         1         0
     76050         1         0     76053         1         0     76056         1         0
     76059         1         0     76062         1         0     76065         1         0
     76068         1         0     76071         1         0     76074         1         0
     76077         1         0     76080         1         0     76083         1         0
     76086         1         0     76089         1         0     76092         1         0
     76095         1         0     76098         1         0     76101         1         0
     76104         1         0     76107         1         0     76110         1         0
     76113         1         0     76116         1         0     76119         1         0
     76122         1         0     76125         1         0     76128         1         0
     76131         1         0     76134         1         0     76137         1         0
     76140         1         0     76143         1         0     76146         1         0
     76149         1         0     76152         1         0     76155         1         0
     76158         1         0     76161         1         0     76164         1         0
     76167         1         0     76170         1         0     76173         1         0
     76176         1         0     76179         1         0     76182         1         0
     76185         1         0     76188         1         0     76191         1         0
     76194         1         0     76197         1         0     76200         1         0
     76203         1         0     76206         1         0     76209         1         0
     76212         1         0     76215         1         0     76218         1         0
     76221         1         0     76224         1         0     76227         1         0
     76230         1         0     76233         1         0     76236         1         0
     76239         1         0     76242         1         0     76245         1         0
     76248         1         0     76251         1         0     76254         1         0
     76257         1         0     76260         1         0     76263         1         0
     76266         1         0     76269         1         0     76272         1         0
     76275         1         0     76278         1         0     76281         1         0
     76284         1         0     76287         1         0     76290         1         0
     76293         1         0     76296         1         0     76299         1         0
     76302         1         0     76305         1         0     76308         1         0
     76311         1         0     76314         1         0     76317         1         0
     76320         1         0     76323         1         0     76326         1         0
     76329         1         0     76332         1         0     76335         1         0
     76338         1         0     76341         1         0     76344         1         0
     76347         1         0     76350         1         0     76353         1         0
     76356         1         0     76359         1         0     76362         1         0
     76365         1         0     76368         1         0     76371         1         0
     76374         1         0     76377         1         0     76380         1         0
     76383         1         0     76386         1         0     76389         1         0
     76392         1         0     76395         1         0     76398         1         0
     76401         1         0     76404         1         0     76407         1         0
     76410         1         0     76413         1         0     76416         1         0
     76419         1         0     76422         1         0     76425         1         0
     76428         1         0     76431         1         0     76434         1         0
     76437         1         0     76440         1         0     76443         1         0
     76446         1         0     76449         1         0     76452         1         0
     76455         1         0     76458         1         0     76461         1         0
     76464         1         0     76467         1         0     76470         1         0
     76473         1         0     76476         1         0     76479         1         0
     76482         1         0     76485         1         0     76488         1         0
     76491         1         0     76494         1         0     76497         1         0
     76500         1         0     76503         1         0     76506         1         0
     76509         1         0     76512         1         0     76515         1         0
     76518         1         0     76521         1         0     76524         1         0
     76527         1         0     76530         1         0     76533         1         0
     76536         1         0     76539         1         0     76542         1         0
     76545         1         0     76548         1         0     76551         1         0
     76554         1         0     76557         1         0     76560         1         0
     76563         1         0     76566         1         0     76569         1         0
     76572         1         0     76575         1         0     76578         1         0
     76581         1         0     76584         1         0     76587         1         0
     76590         1         0     76593         1         0     76596         1         0
     76599         1         0     76602         1         0     76605         1         0
     76608         1         0     76611         1         0     76614         1         0
     76617         1         0     76620         1         0     76623         1         0
     76626         1         0     76629         1         0     76632         1         0
     76635         1         0     76638         1         0     76641         1         0
     76644         1         0     76647         1         0     76650         1         0
     76653         1         0     76656         1         0     76659         1         0
     76662         1         0     76665         1         0     76668         1         0
     76671         1         0     76674         1         0     76677         1         0
     76680         1         0     76683         1         0     76686         1         0
     76689         1         0     76692         1         0     76695         1         0
     76698         1         0     76701         1         0     76704         1         0
     76707         1         0     76710         1         0     76713         1         0
     76716         1         0     76719         1         0     76722         1         0
     76725         1         0     76728         1         0     76731         1         0
     76734         1         0     76737         1         0     76740         1         0
     76743         1         0     76746         1         0     76749         1         0
     76752         1         0     76755         1         0     76758         1         0
     76761         1         0     76764         1         0     76767         1         0
     76770         1         0     76773         1         0     76776         1         0
     76779         1         0     76782         1         0     76785         1         0
     76788         1         0     76791         1         0     76794         1         0
     76797         1         0     76800         1         0     76803         1         0
     76806         1         0     76809         1         0     76812         1         0
     76815         1         0     76818         1         0     76821         1         0
     76824         1         0     76827         1         0     76830         1         0
     76833         1         0     76836         1         0     76839         1         0
     76842         1         0     76845         1         0     76848         1         0
     76851         1         0     76854         1         0     76857         1         0
     76860         1         0     76863         1         0     76866         1         0
     76869         1         0     76872         1         0     76875         1         0
     76878         1         0     76881         1         0     76884         1         0
     76887         1         0     76890         1         0     76893         1         0
     76896         1         0     76899         1         0     76902         1         0
     76905         1         0     76908         1         0     76911         1         0
     76914         1         0     76917         1         0     76920         1         0
     76923         1         0     76926         1         0     76929         1         0
     76932         1         0     76935         1         0     76938         1         0
     76941         1         0     76944         1         0     76947         1         0
     76950         1         0     76953         1         0     76956         1         0
     76959         1         0     76962         1         0     76965         1         0
     76968         1         0     76971         1         0     76974         1         0
     76977         1         0     76980         1         0     76983         1         0
     76986         1         0     76989         1         0     76992         1         0
     76995         1         0     76998         1         0     77001         1         0
     77004         1         0     77007         1         0     77010         1         0
     77013         1         0     77016         1         0     77019         1         0
     77022         1         0     77025         1         0     77028         1         0
     77031         1         0     77034         1         0     77037         1         0
     77040         1         0     77043         1         0     77046         1         0
     77049         1         0     77052         1         0     77055         1         0
     77058         1         0     77061         1         0     77064         1         0
     77067         1         0     77070         1         0     77073         1         0
     77076         1         0     77079         1         0     77082         1         0
     77085         1         0     77088         1         0     77091         1         0
     77094         1         0     77097         1         0     77100         1         0
     77103         1         0     77106         1         0     77109         1         0
     77112         1         0     77115         1         0     77118         1         0
     77121         1         0     77124         1         0     77127         1         0
     77130         1         0     77133         1         0     77136         1         0
     77139         1         0     77142         1         0     77145         1         0
     77148         1         0     77151         1         0     77154         1         0
     77157         1         0     77160         1         0     77163         1         0
     77166         1         0     77169         1         0     77172         1         0
     77175         1         0     77178         1         0     77181         1         0
     77184         1         0     77187         1         0     77190         1         0
     77193         1         0     77196         1         0     77199         1         0
     77202         1         0     77205         1         0     77208         1         0
     77211         1         0     77214         1         0     77217         1         0
     77220         1         0     77223         1         0     77226         1         0
     77229         1         0     77232         1         0     77235         1         0
     77238         1         0     77241         1         0     77244         1         0
     77247         1         0     77250         1         0     77253         1         0
     77256         1         0     77259         1         0     77262         1         0
     77265         1         0     77268         1         0     77271         1         0
     77274         1         0     77277         1         0     77280         1         0
     77283         1         0     77286         1         0     77289         1         0
     77292         1         0     77295         1         0     77298         1         0
     77301         1         0     77304         1         0     77307         1         0
     77310         1         0     77313         1         0     77316         1         0
     77319         1         0     77322         1         0     77325         1         0
     77328         1         0     77331         1         0     77334         1         0
     77337         1         0     77340         1         0     77343         1         0
     77346         1         0     77349         1         0     77352         1         0
     77355         1         0     77358         1         0     77361         1         0
     77364         1         0     77367         1         0     77370         1         0
     77373         1         0     77376         1         0     77379         1         0
     77382         1         0     77385         1         0     77388         1         0
     77391         1         0     77394         1         0     77397         1         0
     77400         1         0     77403         1         0     77406         1         0
     77409         1         0     77412         1         0     77415         1         0
     77418         1         0     77421         1         0     77424         1         0
     77427         1         0     77430         1         0     77433         1         0
     77436         1         0     77439         1         0     77442         1         0
     77445         1         0     77448         1         0     77451         1         0
     77454         1         0     77457         1         0     77460         1         0
     77463         1         0     77466         1         0     77469         1         0
     77472         1         0     77475         1         0     77478         1         0
     77481         1         0     77484         1         0     77487         1         0
     77490         1         0     77493         1         0     77496         1         0
     77499         1         0     77502         1         0     77505         1         0
     77508         1         0     77511         1         0     77514         1         0
     77517         1         0     77520         1         0     77523         1         0
     77526         1         0     77529         1         0     77532         1         0
     77535         1         0     77538         1         0     77541         1         0
     77544         1         0     77547         1         0     77550         1         0
     77553         1         0     77556         1         0     77559         1         0
     77562         1         0     77565         1         0     77568         1         0
     77571         1         0     77574         1         0     77577         1         0
     77580         1         0     77583         1         0     77586         1         0
     77589         1         0     77592         1         0     77595         1         0
     77598         1         0     77601         1         0     77604         1         0
     77607         1         0     77610         1         0     77613         1         0
     77616         1         0     77619         1         0     77622         1         0
     77625         1         0     77628         1         0     77631         1         0
     77634         1         0     77637         1         0     77640         1         0
     77643         1         0     77646         1         0     77649         1         0
     77652         1         0     77655         1         0     77658         1         0
     77661         1         0     77664         1         0     77667         1         0
     77670         1         0     77673         1         0     77676         1         0
     77679         1         0     77682         1         0     77685         1         0
     77688         1         0     77691         1         0     77694         1         0
     77697         1         0     77700         1         0     77703         1         0
     77706         1         0     77709         1         0     77712         1         0
     77715         1         0     77718         1         0     77721         1         0
     77724         1         0     77727         1         0     77730         1         0
     77733         1         0     77736         1         0     77739         1         0
     77742         1         0     77745         1         0     77748         1         0
     77751         1         0     77754         1         0     77757         1         0
     77760         1         0     77763         1         0     77766         1         0
     77769         1         0     77772         1         0     77775         1         0
     77778         1         0     77781         1         0     77784         1         0
     77787         1         0     77790         1         0     77793         1         0
     77796         1         0     77799         1         0     77802         1         0
     77805         1         0     77808         1         0     77811         1         0
     77814         1         0     77817         1         0     77820         1         0
     77823         1         0     77826         1         0     77829         1         0
     77832         1         0     77835         1         0     77838         1         0
     77841         1         0     77844         1         0     77847         1         0
     77850         1         0     77853         1         0     77856         1         0
     77859         1         0     77862         1         0     77865         1         0
     77868         1         0     77871         1         0     77874         1         0
     77877         1         0     77880         1         0     77883         1         0
     77886         1         0     77889         1         0     77892         1         0
     77895         1         0     77898         1         0     77901         1         0
     77904         1         0     77907         1         0     77910         1         0
     77913         1         0     77916         1         0     77919         1         0
     77922         1         0     77925         1         0     77928         1         0
     77931         1         0     77934         1         0     77937         1         0
     77940         1         0     77943         1         0     77946         1         0
     77949         1         0     77952         1         0     77955         1         0
     77958         1         0     77961         1         0     77964         1         0
     77967         1         0     77970         1         0     77973         1         0
     77976         1         0     77979         1         0     77982         1         0
     77985         1         0     77988         1         0     77991         1         0
     77994         1         0     77997         1         0     78000         1         0
     78003         1         0     78006         1         0     78009         1         0
     78012         1         0     78015         1         0     78018         1         0
     78021         1         0     78024         1         0     78027         1         0
     78030         1         0     78033         1         0     78036         1         0
     78039         1         0     78042         1         0     78045         1         0
     78048         1         0     78051         1         0     78054         1         0
     78057         1         0     78060         1         0     78063         1         0
     78066         1         0     78069         1         0     78072         1         0
     78075         1         0     78078         1         0     78081         1         0
     78084         1         0     78087         1         0     78090         1         0
     78093         1         0     78096         1         0     78099         1         0
     78102         1         0     78105         1         0     78108         1         0
     78111         1         0     78114         1         0     78117         1         0
     78120         1         0     78123         1         0     78126         1         0
     78129         1         0     78132         1         0     78135         1         0
     78138         1         0     78141         1         0     78144         1         0
     78147         1         0     78150         1         0     78153         1         0
     78156         1         0     78159         1         0     78162         1         0
     78165         1         0     78168         1         0     78171         1         0
     78174         1         0     78177         1         0     78180         1         0
     78183         1         0     78186         1         0     78189         1         0
     78192         1         0     78195         1         0     78198         1         0
     78201         1         0     78204         1         0     78207         1         0
     78210         1         0     78213         1         0     78216         1         0
     78219         1         0     78222         1         0     78225         1         0
     78228         1         0     78231         1         0     78234         1         0
     78237         1         0     78240         1         0     78243         1         0
     78246         1         0     78249         1         0     78252         1         0
     78255         1         0     78258         1         0     78261         1         0
     78264         1         0     78267         1         0     78270         1         0
     78273         1         0     78276         1         0     78279         1         0
     78282         1         0     78285         1         0     78288         1         0
     78291         1         0     78294         1         0     78297         1         0
     78300         1         0     78303         1         0     78306         1         0
     78309         1         0     78312         1         0     78315         1         0
     78318         1         0     78321         1         0     78324         1         0
     78327         1         0     78330         1         0     78333         1         0
     78336         1         0     78339         1         0     78342         1         0
     78345         1         0     78348         1         0     78351         1         0
     78354         1         0     78357         1         0     78360         1         0
     78363         1         0     78366         1         0     78369         1         0
     78372         1         0     78375         1         0     78378         1         0
     78381         1         0     78384         1         0     78387         1         0
     78390         1         0     78393         1         0     78396         1         0
     78399         1         0     78402         1         0     78405         1         0
     78408         1         0     78411         1         0     78414         1         0
     78417         1         0     78420         1         0     78423         1         0
     78426         1         0     78429         1         0     78432         1         0
     78435         1         0     78438         1         0     78441         1         0
     78444         1         0     78447         1         0     78450         1         0
     78453         1         0     78456         1         0     78459         1         0
     78462         1         0     78465         1         0     78468         1         0
     78471         1         0     78474         1         0     78477         1         0
     78480         1         0     78483         1         0     78486         1         0
     78489         1         0     78492         1         0     78495         1         0
     78498         1         0     78501         1         0     78504         1         0
     78507         1         0     78510         1         0     78513         1         0
     78516         1         0     78519         1         0     78522         1         0
     78525         1         0     78528         1         0     78531         1         0
     78534         1         0     78537         1         0     78540         1         0
     78543         1         0     78546         1         0     78549         1         0
     78552         1         0     78555         1         0     78558         1         0
     78561         1         0     78564         1         0     78567         1         0
     78570         1         0     78573         1         0     78576         1         0
     78579         1         0     78582         1         0     78585         1         0
     78588         1         0     78591         1         0     78594         1         0
     78597         1         0     78600         1         0     78603         1         0
     78606         1         0     78609         1         0     78612         1         0
     78615         1         0     78618         1         0     78621         1         0
     78624         1         0     78627         1         0     78630         1         0
     78633         1         0     78636         1         0     78639         1         0
     78642         1         0     78645         1         0     78648         1         0
     78651         1         0     78654         1         0     78657         1         0
     78660         1         0     78663         1         0     78666         1         0
     78669         1         0     78672         1         0     78675         1         0
     78678         1         0     78681         1         0     78684         1         0
     78687         1         0     78690         1         0     78693         1         0
     78696         1         0     78699         1         0     78702         1         0
     78705         1         0     78708         1         0     78711         1         0
     78714         1         0     78717         1         0     78720         1         0
     78723         1         0     78726         1         0     78729         1         0
     78732         1         0     78735         1         0     78738         1         0
     78741         1         0     78744         1         0     78747         1         0
     78750         1         0     78753         1         0     78756         1         0
     78759         1         0     78762         1         0     78765         1         0
     78768         1         0     78771         1         0     78774         1         0
     78777         1         0     78780         1         0     78783         1         0
     78786         1         0     78789         1         0     78792         1         0
     78795         1         0     78798         1         0     78801         1         0
     78804         1         0     78807         1         0     78810         1         0
     78813         1         0     78816         1         0     78819         1         0
     78822         1         0     78825         1         0     78828         1         0
     78831         1         0     78834         1         0     78837         1         0
     78840         1         0     78843         1         0     78846         1         0
     78849         1         0     78852         1         0     78855         1         0
     78858         1         0     78861         1         0     78864         1         0
     78867         1         0     78870         1         0     78873         1         0
     78876         1         0     78879         1         0     78882         1         0
     78885         1         0     78888         1         0     78891         1         0
     78894         1         0     78897         1         0     78900         1         0
     78903         1         0     78906         1         0     78909         1         0
     78912         1         0     78915         1         0     78918         1         0
     78921         1         0     78924         1         0     78927         1         0
     78930         1         0     78933         1         0     78936         1         0
     78939         1         0     78942         1         0     78945         1         0
     78948         1         0     78951         1         0     78954         1         0
     78957         1         0     78960         1         0     78963         1         0
     78966         1         0     78969         1         0     78972         1         0
     78975         1         0     78978         1         0     78981         1         0
     78984         1         0     78987         1         0     78990         1         0
     78993         1         0     78996         1         0     78999         1         0
     79002         1         0     79005         1         0     79008         1         0
     79011         1         0     79014         1         0     79017         1         0
     79020         1         0     79023         1         0     79026         1         0
     79029         1         0     79032         1         0     79035         1         0
     79038         1         0     79041         1         0     79044         1         0
     79047         1         0     79050         1         0     79053         1         0
     79056         1         0     79059         1         0     79062         1         0
     79065         1         0     79068         1         0     79071         1         0
     79074         1         0     79077         1         0     79080         1         0
     79083         1         0     79086         1         0     79089         1         0
     79092         1         0     79095         1         0     79098         1         0
     79101         1         0     79104         1         0     79107         1         0
     79110         1         0     79113         1         0     79116         1         0
     79119         1         0     79122         1         0     79125         1         0
     79128         1         0     79131         1         0     79134         1         0
     79137         1         0     79140         1         0     79143         1         0
     79146         1         0     79149         1         0     79152         1         0
     79155         1         0     79158         1         0     79161         1         0
     79164         1         0     79167         1         0     79170         1         0
     79173         1         0     79176         1         0     79179         1         0
     79182         1         0     79185         1         0     79188         1         0
     79191         1         0     79194         1         0     79197         1         0
     79200         1         0     79203         1         0     79206         1         0
     79209         1         0     79212         1         0     79215         1         0
     79218         1         0     79221         1         0     79224         1         0
     79227         1         0     79230         1         0     79233         1         0
     79236         1         0     79239         1         0     79242         1         0
     79245         1         0     79248         1         0     79251         1         0
     79254         1         0     79257         1         0     79260         1         0
     79263         1         0     79266         1         0     79269         1         0
     79272         1         0     79275         1         0     79278         1         0
     79281         1         0     79284         1         0     79287         1         0
     79290         1         0     79293         1         0     79296         1         0
     79299         1         0     79302         1         0     79305         1         0
     79308         1         0     79311         1         0     79314         1         0
     79317         1         0     79320         1         0     79323         1         0
     79326         1         0     79329         1         0     79332         1         0
     79335         1         0     79338         1         0     79341         1         0
     79344         1         0     79347         1         0     79350         1         0
     79353         1         0     79356         1         0     79359         1         0
     79362         1         0     79365         1         0     79368         1         0
     79371         1         0     79374         1         0     79377         1         0
     79380         1         0     79383         1         0     79386         1         0
     79389         1         0     79392         1         0     79395         1         0
     79398         1         0     79401         1         0     79404         1         0
     79407         1         0     79410         1         0     79413         1         0
     79416         1         0     79419         1         0     79422         1         0
     79425         1         0     79428         1         0     79431         1         0
     79434         1         0     79437         1         0     79440         1         0
     79443         1         0     79446         1         0     79449         1         0
     79452         1         0     79455         1         0     79458         1         0
     79461         1         0     79464         1         0     79467         1         0
     79470         1         0     79473         1         0     79476         1         0
     79479         1         0     79482         1         0     79485         1         0
     79488         1         0     79491         1         0     79494         1         0
     79497         1         0     79500         1         0     79503         1         0
     79506         1         0     79509         1         0     79512         1         0
     79515         1         0     79518         1         0     79521         1         0
     79524         1         0     79527         1         0     79530         1         0
     79533         1         0     79536         1         0     79539         1         0
     79542         1         0     79545         1         0     79548         1         0
     79551         1         0     79554         1         0     79557         1         0
     79560         1         0     79563         1         0     79566         1         0
     79569         1         0     79572         1         0     79575         1         0
     79578         1         0     79581         1         0     79584         1         0
     79587         1         0     79590         1         0     79593         1         0
     79596         1         0     79599         1         0     79602         1         0
     79605         1         0     79608         1         0     79611         1         0
     79614         1         0     79617         1         0     79620         1         0
     79623         1         0     79626         1         0     79629         1         0
     79632         1         0     79635         1         0     79638         1         0
     79641         1         0     79644         1         0     79647         1         0
     79650         1         0     79653         1         0     79656         1         0
     79659         1         0     79662         1         0     79665         1         0
     79668         1         0     79671         1         0     79674         1         0
     79677         1         0     79680         1         0     79683         1         0
     79686         1         0     79689         1         0     79692         1         0
     79695         1         0     79698         1         0     79701         1         0
     79704         1         0     79707         1         0     79710         1         0
     79713         1         0     79716         1         0     79719         1         0
     79722         1         0     79725         1         0     79728         1         0
     79731         1         0     79734         1         0     79737         1         0
     79740         1         0     79743         1         0     79746         1         0
     79749         1         0     79752         1         0     79755         1         0
     79758         1         0     79761         1         0     79764         1         0
     79767         1         0     79770         1         0     79773         1         0
     79776         1         0     79779         1         0     79782         1         0
     79785         1         0     79788         1         0     79791         1         0
     79794         1         0     79797         1         0     79800         1         0
     79803         1         0     79806         1         0     79809         1         0
     79812         1         0     79815         1         0     79818         1         0
     79821         1         0     79824         1         0     79827         1         0
     79830         1         0     79833         1         0     79836         1         0
     79839         1         0     79842         1         0     79845         1         0
     79848         1         0     79851         1         0     79854         1         0
     79857         1         0     79860         1         0     79863         1         0
     79866         1         0     79869         1         0     79872         1         0
     79875         1         0     79878         1         0     79881         1         0
     79884         1         0     79887         1         0     79890         1         0
     79893         1         0     79896         1         0     79899         1         0
     79902         1         0     79905         1         0     79908         1         0
     79911         1         0     79914         1         0     79917         1         0
     79920         1         0     79923         1         0     79926         1         0
     79929         1         0     79932         1         0     79935         1         0
     79938         1         0     79941         1         0     79944         1         0
     79947         1         0     79950         1         0     79953         1         0
     79956         1         0     79959         1         0     79962         1         0
     79965         1         0     79968         1         0     79971         1         0
     79974         1         0     79977         1         0     79980         1         0
     79983         1         0     79986         1         0     79989         1         0
     79992         1         0     79995         1         0     79998         1         0
     80001         1         0     80004         1         0     80007         1         0
     80010         1         0     80013         1         0     80016         1         0
     80019         1         0     80022         1         0     80025         1         0
     80028         1         0     80031         1         0     80034         1         0
     80037         1         0     80040         1         0     80043         1         0
     80046         1         0     80049         1         0     80052         1         0
     80055         1         0     80058         1         0     80061         1         0
     80064         1         0     80067         1         0     80070         1         0
     80073         1         0     80076         1         0     80079         1         0
     80082         1         0     80085         1         0     80088         1         0
     80091         1         0     80094         1         0     80097         1         0
     80100         1         0     80103         1         0     80106         1         0
     80109         1         0     80112         1         0     80115         1         0
     80118         1         0     80121         1         0     80124         1         0
     80127         1         0     80130         1         0     80133         1         0
     80136         1         0     80139         1         0     80142         1         0
     80145         1         0     80148         1         0     80151         1         0
     80154         1         0     80157         1         0     80160         1         0
     80163         1         0     80166         1         0     80169         1         0
     80172         1         0     80175         1         0     80178         1         0
     80181         1         0     80184         1         0     80187         1         0
     80190         1         0     80193         1         0     80196         1         0
     80199         1         0     80202         1         0     80205         1         0
     80208         1         0     80211         1         0     80214         1         0
     80217         1         0     80220         1         0     80223         1         0
     80226         1         0     80229         1         0     80232         1         0
     80235         1         0     80238         1         0     80241         1         0
     80244         1         0     80247         1         0     80250         1         0
     80253         1         0     80256         1         0     80259         1         0
     80262         1         0     80265         1         0     80268         1         0
     80271         1         0     80274         1         0     80277         1         0
     80280         1         0     80283         1         0     80286         1         0
     80289         1         0     80292         1         0     80295         1         0
     80298         1         0     80301         1         0     80304         1         0
     80307         1         0     80310         1         0     80313         1         0
     80316         1         0     80319         1         0     80322         1         0
     80325         1         0     80328         1         0     80331         1         0
     80334         1         0     80337         1         0     80340         1         0
     80343         1         0     80346         1         0     80349         1         0
     80352         1         0     80355         1         0     80358         1         0
     80361         1         0     80364         1         0     80367         1         0
     80370         1         0     80373         1         0     80376         1         0
     80379         1         0     80382         1         0     80385         1         0
     80388         1         0     80391         1         0     80394         1         0
     80397         1         0     80400         1         0     80403         1         0
     80406         1         0     80409         1         0     80412         1         0
     80415         1         0     80418         1         0     80421         1         0
     80424         1         0     80427         1         0     80430         1         0
     80433         1         0     80436         1         0     80439         1         0
     80442         1         0     80445         1         0     80448         1         0
     80451         1         0     80454         1         0     80457         1         0
     80460         1         0     80463         1         0     80466         1         0
     80469         1         0     80472         1         0     80475         1         0
     80478         1         0     80481         1         0     80484         1         0
     80487         1         0     80490         1         0     80493         1         0
     80496         1         0     80499         1         0     80502         1         0
     80505         1         0     80508         1         0     80511         1         0
     80514         1         0     80517         1         0     80520         1         0
     80523         1         0     80526         1         0     80529         1         0
     80532         1         0     80535         1         0     80538         1         0
     80541         1         0     80544         1         0     80547         1         0
     80550         1         0     80553         1         0     80556         1         0
     80559         1         0     80562         1         0     80565         1         0
     80568         1         0     80571         1         0     80574         1         0
     80577         1         0     80580         1         0     80583         1         0
     80586         1         0     80589         1         0     80592         1         0
     80595         1         0     80598         1         0     80601         1         0
     80604         1         0     80607         1         0     80610         1         0
     80613         1         0     80616         1         0     80619         1         0
     80622         1         0     80625         1         0     80628         1         0
     80631         1         0     80634         1         0     80637         1         0
     80640         1         0     80643         1         0     80646         1         0
     80649         1         0     80652         1         0     80655         1         0
     80658         1         0     80661         1         0     80664         1         0
     80667         1         0     80670         1         0     80673         1         0
     80676         1         0     80679         1         0     80682         1         0
     80685         1         0     80688         1         0     80691         1         0
     80694         1         0     80697         1         0     80700         1         0
     80703         1         0     80706         1         0     80709         1         0
     80712         1         0     80715         1         0     80718         1         0
     80721         1         0     80724         1         0     80727         1         0
     80730         1         0     80733         1         0     80736         1         0
     80739         1         0     80742         1         0     80745         1         0
     80748         1         0     80751         1         0     80754         1         0
     80757         1         0     80760         1         0     80763         1         0
     80766         1         0     80769         1         0     80772         1         0
     80775         1         0     80778         1         0     80781         1         0
     80784         1         0     80787         1         0     80790         1         0
     80793         1         0     80796         1         0     80799         1         0
     80802         1         0     80805         1         0     80808         1         0
     80811         1         0     80814         1         0     80817         1         0
     80820         1         0     80823         1         0     80826         1         0
     80829         1         0     80832         1         0     80835         1         0
     80838         1         0     80841         1         0     80844         1         0
     80847         1         0     80850         1         0     80853         1         0
     80856         1         0     80859         1         0     80862         1         0
     80865         1         0     80868         1         0     80871         1         0
     80874         1         0     80877         1         0     80880         1         0

         0         0 !NUMLP NUMLPH

         0 !NCRTERM: cross-terms


     26961 !AUTOGEN
         0         0         0         0         0         0         0         0
         0         0         0         0         0         0         0         0
         0         0         0         0         0         0         0         0
         0         0         0         0         0         0         0         0
         0         0         0         0         0         0         0         0
         0         0         0         0         0         0         0         0
         0         0         0         0         0         0         0         0
         0         0         0         0         0         0         0         0
         0         0         0         0         0         0         0         0
         0         0         0         0         0         0         0         0
         0         0         0         0         0         0         0         0
         0         0         0         0         0         0         0         0
         0         0         0         0         0         0         0         0
         0         0         0         0         0         0         0         0
         0         0         0         0         0         0         0         0
         0         0         0         0         0         0         0         0
         0         0         0         0         0         0         0         0
         0         0         0         0         0         0         0         0
         0         0         0         0         0         0         0         0
         0         0         0         0         0         0         0         0
         0         0         0         0         0         0         0         0
         0         0         0         0         0         0         0         0
         0         0         0         0         0         0         0         0
         0         0         0         0         0         0         0         0
         0         0         0         0         0         0         0         0
         0         0         0         0         0         0         0         0
         0         0         0         0         0         0         0         0
         0         0         0         0         0         0         0         0
         0         0         0         0         0         0         0         0
         0         0         0         0         0         0         0         0
         0         0         0         0         0         0         0         0
         0         0         0         0         0         0         0         0
         0         0         0         0         0         0         0         0
         0         0         0         0         0         0         0         0
         0         0         0         0         0         0         0         0
         0         0         0         0         0         0         0         0
         0         0         0         0         0         0         0         0
         0         0         0         0         0         0         0         0
         0         0         0         0         0         0         0         0
         0         0         0         0         0         0         0         0
         0         0         0         0         0         0         0         0
         0         0         0         0         0         0         0         0
         0         0         0         0         0         0         0         0
         0         0         0         0         0         0         0         0
         0         0         0         0         0         0         0         0
         0         0         0         0         0         0         0         0
         0         0         0         0         0         0         0         0
         0         0         0         0         0         0         0         0
         0         0         0         0         0         0         0         0
         0         0         0         0         0         0         0         0
         0         0         0         0         0         0         0         0
         0         0         0         0         0         0         0         0
         0         0         0         0         0         0         0         0
         0         0         0         0         0         0         0         0
         0         0         0         0         0         0         0         0
         0         0         0         0         0         0         0         0
         0         0         0         0         0         0         0         0
         0         0         0         0         0         0         0         0
         0         0         0         0         0         0         0         0
         0         0         0         0         0         0         0         0
         0         0         0         0         0         0         0         0
         0         0         0         0         0         0         0         0
         0         0         0         0         0         0         0         0
         0         0         0         0         0         0         0         0
         0         0         0         0         0         0         0         0
         0         0         0         0         0         0         0         0
         0         0         0         0         0         0         0         0
         0         0         0         0         0         0         0         0
         0         0         0         0         0         0         0         0
         0         0         0         0         0         0         0         0
         0         0         0         0         0         0         0         0
         0         0         0         0         0         0         0         0
         0         0         0         0         0         0         0         0
         0         0         0         0         0         0         0         0
         0         0         0         0         0         0         0         0
         0         0         0         0         0         0         0         0
         0         0         0         0         0         0         0         0
         0         0         0         0         0         0         0         0
         0         0         0         0         0         0         0         0
         0         0         0         0         0         0         0         0
         0         0         0         0         0         0         0         0
         0         0         0         0         0         0         0         0
         0         0         0         0         0         0         0         0
         0         0         0         0         0         0         0         0
         0         0         0         0         0         0         0         0
         0         0         0         0         0         0         0         0
         0         0         0         0         0         0         0         0
         0         0         0         0         0         0         0         0
         0         0         0         0         0         0         0         0
         0         0         0         0         0         0         0         0
         0         0         0         0         0         0         0         0
         0         0         0         0         0         0         0         0
         0         0         0         0         0         0         0         0
         0         0         0         0         0         0         0         0
         0         0         0         0         0         0         0         0
         0         0         0         0         0         0         0         0
         0         0         0         0         0         0         0         0
         0         0         0         0         0         0         0         0
         0         0         0         0         0         0         0         0
         0         0         0         0         0         0         0         0
         0         0         0         0         0         0         0         0
         0         0         0         0         0         0         0         0
         0         0         0         0         0         0         0         0
         0         0         0         0         0         0         0         0
         0         0         0         0         0         0         0         0
         0         0         0         0         0         0         0         0
         0         0         0         0         0         0         0         0
         0         0         0         0         0         0         0         0
         0         0         0         0         0         0         0         0
         0         0         0         0         0         0         0         0
         0         0         0         0         0         0         0         0
         0         0         0         0         0         0         0         0
         0         0         0         0         0         0         0         0
         0         0         0         0         0         0         0         0
         0         0         0         0         0         0         0         0
         0         0         0         0         0         0         0         0
         0         0         0         0         0         0         0         0
         0         0         0         0         0         0         0         0
         0         0         0         0         0         0         0         0
         0         0         0         0         0         0         0         0
         0         0         0         0         0         0         0         0
         0         0         0         0         0         0         0         0
         0         0         0         0         0         0         0         0
         0         0         0         0         0         0         0         0
         0         0         0         0         0         0         0         0
         0         0         0         0         0         0         0         0
         0         0         0         0         0         0         0         0
         0         0         0         0         0         0         0         0
         0         0         0         0         0         0         0         0
         0         0         0         0         0         0         0         0
         0         0         0         0         0         0         0         0
         0         0         0         0         0         0         0         0
         0         0         0         0         0         0         0         0
         0         0         0         0         0         0         0         0
         0         0         0         0         0         0         0         0
         0         0         0         0         0         0         0         0
         0         0         0         0         0         0         0         0
         0         0         0         0         0         0         0         0
         0         0         0         0         0         0         0         0
         0         0         0         0         0         0         0         0
         0         0         0         0         0         0         0         0
         0         0         0         0         0         0         0         0
         0         0         0         0         0         0         0         0
         0         0         0         0         0         0         0         0
         0         0         0         0         0         0         0         0
         0         0         0         0         0         0         0         0
         0         0         0         0         0         0         0         0
         0         0         0         0         0         0         0         0
         0         0         0         0         0         0         0         0
         0         0         0         0         0         0         0         0
         0         0         0         0         0         0         0         0
         0         0         0         0         0         0         0         0
         0         0         0         0         0         0         0         0
         0         0         0         0         0         0         0         0
         0         0         0         0         0         0         0         0
         0         0         0         0         0         0         0         0
         0         0         0         0         0         0         0         0
         0         0         0         0         0         0         0         0
         0         0         0         0         0         0         0         0
         0         0         0         0         0         0         0         0
         0         0         0         0         0         0         0         0
         0         0         0         0         0         0         0         0
         0         0         0         0         0         0         0         0
         0         0         0         0         0         0         0         0
         0         0         0         0         0         0         0         0
         0         0         0         0         0         0         0         0
         0         0         0         0         0         0         0         0
         0         0         0         0         0         0         0         0
         0         0         0         0         0         0         0         0
         0         0         0         0         0         0         0         0
         0         0         0         0         0         0         0         0
         0         0         0         0         0         0         0         0
         0         0         0         0         0         0         0         0
         0         0         0         0         0         0         0         0
         0         0         0         0         0         0         0         0
         0         0         0         0         0         0         0         0
         0         0         0         0         0         0         0         0
         0         0         0         0         0         0         0         0
         0         0         0         0         0         0         0         0
         0         0         0         0         0         0         0         0
         0         0         0         0         0         0         0         0
         0         0         0         0         0         0         0         0
         0         0         0         0         0         0         0         0
         0         0         0         0         0         0         0         0
         0         0         0         0         0         0         0         0
         0         0         0         0         0         0         0         0
         0         0         0         0         0         0         0         0
         0         0         0         0         0         0         0         0
         0         0         0         0         0         0         0         0
         0         0         0         0         0         0         0         0
         0         0         0         0         0         0         0         0
         0         0         0         0         0         0         0         0
         0         0         0         0         0         0         0         0
         0         0         0         0         0         0         0         0
         0         0         0         0         0         0         0         0
         0         0         0         0         0         0         0         0
         0         0         0         0         0         0         0         0
         0         0         0         0         0         0         0         0
         0         0         0         0         0         0         0         0
         0         0         0         0         0         0         0         0
         0         0         0         0         0         0         0         0
         0         0         0         0         0         0         0         0
         0         0         0         0         0         0         0         0
         0         0         0         0         0         0         0         0
         0         0         0         0         0         0         0         0
         0         0         0         0         0         0         0         0
         0         0         0         0         0         0         0         0
         0         0         0         0         0         0         0         0
         0         0         0         0         0         0         0         0
         0         0         0         0         0         0         0         0
         0         0         0         0         0         0         0         0
         0         0         0         0         0         0         0         0
         0         0         0         0         0         0         0         0
         0         0         0         0         0         0         0         0
         0         0         0         0         0         0         0         0
         0         0         0         0         0         0         0         0
         0         0         0         0         0         0         0         0
         0         0         0         0         0         0         0         0
         0         0         0         0         0         0         0         0
         0         0         0         0         0         0         0         0
         0         0         0         0         0         0         0         0
         0         0         0         0         0         0         0         0
         0         0         0         0         0         0         0         0
         0         0         0         0         0         0         0         0
         0         0         0         0         0         0         0         0
         0         0         0         0         0         0         0         0
         0         0         0         0         0         0         0         0
         0         0         0         0         0         0         0         0
         0         0         0         0         0         0         0         0
         0         0         0         0         0         0         0         0
         0         0         0         0         0         0         0         0
         0         0         0         0         0         0         0         0
         0         0         0         0         0         0         0         0
         0         0         0         0         0         0         0         0
         0         0         0         0         0         0         0         0
         0         0         0         0         0         0         0         0
         0         0         0         0         0         0         0         0
         0         0         0         0         0         0         0         0
         0         0         0         0         0         0         0         0
         0         0         0         0         0         0         0         0
         0         0         0         0         0         0         0         0
         0         0         0         0         0         0         0         0
         0         0         0         0         0         0         0         0
         0         0         0         0         0         0         0         0
         0         0         0         0         0         0         0         0
         0         0         0         0         0         0         0         0
         0         0         0         0         0         0         0         0
         0         0         0         0         0         0         0         0
         0         0         0         0         0         0         0         0
         0         0         0         0         0         0         0         0
         0         0         0         0         0         0         0         0
         0         0         0         0         0         0         0         0
         0         0         0         0         0         0         0         0
         0         0         0         0         0         0         0         0
         0         0         0         0         0         0         0         0
         0         0         0         0         0         0         0         0
         0         0         0         0         0         0         0         0
         0         0         0         0         0         0         0         0
         0         0         0         0         0         0         0         0
         0         0         0         0         0         0         0         0
         0         0         0         0         0         0         0         0
         0         0         0         0         0         0         0         0
         0         0         0         0         0         0         0         0
         0         0         0         0         0         0         0         0
         0         0         0         0         0         0         0         0
         0         0         0         0         0         0         0         0
         0         0         0         0         0         0         0         0
         0         0         0         0         0         0         0         0
         0         0         0         0         0         0         0         0
         0         0         0         0         0         0         0         0
         0         0         0         0         0         0         0         0
         0         0         0         0         0         0         0         0
         0         0         0         0         0         0         0         0
         0         0         0         0         0         0         0         0
         0         0         0         0         0         0         0         0
         0         0         0         0         0         0         0         0
         0         0         0         0         0         0         0         0
         0         0         0         0         0         0         0         0
         0         0         0         0         0         0         0         0
         0         0         0         0         0         0         0         0
         0         0         0         0         0         0         0         0
         0         0         0         0         0         0         0         0
         0         0         0         0         0         0         0         0
         0         0         0         0         0         0         0         0
         0         0         0         0         0         0         0         0
         0         0         0         0         0         0         0         0
         0         0         0         0         0         0         0         0
         0         0         0         0         0         0         0         0
         0         0         0         0         0         0         0         0
         0         0         0         0         0         0         0         0
         0         0         0         0         0         0         0         0
         0         0         0         0         0         0         0         0
         0         0         0         0         0         0         0         0
         0         0         0         0         0         0         0         0
         0         0         0         0         0         0         0         0
         0         0         0         0         0         0         0         0
         0         0         0         0         0         0         0         0
         0         0         0         0         0         0         0         0
         0         0         0         0         0         0         0         0
         0         0         0         0         0         0         0         0
         0         0         0         0         0         0         0         0
         0         0         0         0         0         0         0         0
         0         0         0         0         0         0         0         0
         0         0         0         0         0         0         0         0
         0         0         0         0         0         0         0         0
         0         0         0         0         0         0         0         0
         0         0         0         0         0         0         0         0
         0         0         0         0         0         0         0         0
         0         0         0         0         0         0         0         0
         0         0         0         0         0         0         0         0
         0         0         0         0         0         0         0         0
         0         0         0         0         0         0         0         0
         0         0         0         0         0         0         0         0
         0         0         0         0         0         0         0         0
         0         0         0         0         0         0         0         0
         0         0         0         0         0         0         0         0
         0         0         0         0         0         0         0         0
         0         0         0         0         0         0         0         0
         0         0         0         0         0         0         0         0
         0         0         0         0         0         0         0         0
         0         0         0         0         0         0         0         0
         0         0         0         0         0         0         0         0
         0         0         0         0         0         0         0         0
         0         0         0         0         0         0         0         0
         0         0         0         0         0         0         0         0
         0         0         0         0         0         0         0         0
         0         0         0         0         0         0         0         0
         0         0         0         0         0         0         0         0
         0         0         0         0         0         0         0         0
         0         0         0         0         0         0         0         0
         0         0         0         0         0         0         0         0
         0         0         0         0         0         0         0         0
         0         0         0         0         0         0         0         0
         0         0         0         0         0         0         0         0
         0         0         0         0         0         0         0         0
         0         0         0         0         0         0         0         0
         0         0         0         0         0         0         0         0
         0         0         0         0         0         0         0         0
         0         0         0         0         0         0         0         0
         0         0         0         0         0         0         0         0
         0         0         0         0         0         0         0         0
         0         0         0         0         0         0         0         0
         0         0         0         0         0         0         0         0
         0         0         0         0         0         0         0         0
         0         0         0         0         0         0         0         0
         0         0         0         0         0         0         0         0
         0         0         0         0         0         0         0         0
         0         0         0         0         0         0         0         0
         0         0         0         0         0         0         0         0
         0         0         0         0         0         0         0         0
         0         0         0         0         0         0         0         0
         0         0         0         0         0         0         0         0
         0         0         0         0         0         0         0         0
         0         0         0         0         0         0         0         0
         0         0         0         0         0         0         0         0
         0         0         0         0         0         0         0         0
         0         0         0         0         0         0         0         0
         0         0         0         0         0         0         0         0
         0         0         0         0         0         0         0         0
         0         0         0         0         0         0         0         0
         0         0         0         0         0         0         0         0
         0         0         0         0         0         0         0         0
         0         0         0         0         0         0         0         0
         0         0         0         0         0         0         0         0
         0         0         0         0         0         0         0         0
         0         0         0         0         0         0         0         0
         0         0         0         0         0         0         0         0
         0         0         0         0         0         0         0         0
         0         0         0         0         0         0         0         0
         0         0         0         0         0         0         0         0
         0         0         0         0         0         0         0         0
         0         0         0         0         0         0         0         0
         0         0         0         0         0         0         0         0
         0         0         0         0         0         0         0         0
         0         0         0         0         0         0         0         0
         0         0         0         0         0         0         0         0
         0         0         0         0         0         0         0         0
         0         0         0         0         0         0         0         0
         0         0         0         0         0         0         0         0
         0         0         0         0         0         0         0         0
         0         0         0         0         0         0         0         0
         0         0         0         0         0         0         0         0
         0         0         0         0         0         0         0         0
         0         0         0         0         0         0         0         0
         0         0         0         0         0         0         0         0
         0         0         0         0         0         0         0         0
         0         0         0         0         0         0         0         0
         0         0         0         0         0         0         0         0
         0         0         0         0         0         0         0         0
         0         0         0         0         0         0         0         0
         0         0         0         0         0         0         0         0
         0         0         0         0         0         0         0         0
         0         0         0         0         0         0         0         0
         0         0         0         0         0         0         0         0
         0         0         0         0         0         0         0         0
         0         0         0         0         0         0         0         0
         0         0         0         0         0         0         0         0
         0         0         0         0         0         0         0         0
         0         0         0         0         0         0         0         0
         0         0         0         0         0         0         0         0
         0         0         0         0         0         0         0         0
         0         0         0         0         0         0         0         0
         0         0         0         0         0         0         0         0
         0         0         0         0         0         0         0         0
         0         0         0         0         0         0         0         0
         0         0         0         0         0         0         0         0
         0         0         0         0         0         0         0         0
         0         0         0         0         0         0         0         0
         0         0         0         0         0         0         0         0
         0         0         0         0         0         0         0         0
         0         0         0         0         0         0         0         0
         0         0         0         0         0         0         0         0
         0         0         0         0         0         0         0         0
         0         0         0         0         0         0         0         0
         0         0         0         0         0         0         0         0
         0         0         0         0         0         0         0         0
         0         0         0         0         0         0         0         0
         0         0         0         0         0         0         0         0
         0         0         0         0         0         0         0         0
         0         0         0         0         0         0         0         0
         0         0         0         0         0         0         0         0
         0         0         0         0         0         0         0         0
         0         0         0         0         0         0         0         0
         0         0         0         0         0         0         0         0
         0         0         0         0         0         0         0         0
         0         0         0         0         0         0         0         0
         0         0         0         0         0         0         0         0
         0         0         0         0         0         0         0         0
         0         0         0         0         0         0         0         0
         0         0         0         0         0         0         0         0
         0         0         0         0         0         0         0         0
         0         0         0         0         0         0         0         0
         0         0         0         0         0         0         0         0
         0         0         0         0         0         0         0         0
         0         0         0         0         0         0         0         0
         0         0         0         0         0         0         0         0
         0         0         0         0         0         0         0         0
         0         0         0         0         0         0         0         0
         0         0         0         0         0         0         0         0
         0         0         0         0         0         0         0         0
         0         0         0         0         0         0         0         0
         0         0         0         0         0         0         0         0
         0         0         0         0         0         0         0         0
         0         0         0         0         0         0         0         0
         0         0         0         0         0         0         0         0
         0         0         0         0         0         0         0         0
         0         0         0         0         0         0         0         0
         0         0         0         0         0         0         0         0
         0         0         0         0         0         0         0         0
         0         0         0         0         0         0         0         0
         0         0         0         0         0         0         0         0
         0         0         0         0         0         0         0         0
         0         0         0         0         0         0         0         0
         0         0         0         0         0         0         0         0
         0         0         0         0         0         0         0         0
         0         0         0         0         0         0         0         0
         0         0         0         0         0         0         0         0
         0         0         0         0         0         0         0         0
         0         0         0         0         0         0         0         0
         0         0         0         0         0         0         0         0
         0         0         0         0         0         0         0         0
         0         0         0         0         0         0         0         0
         0         0         0         0         0         0         0         0
         0         0         0         0         0         0         0         0
         0         0         0         0         0         0         0         0
         0         0         0         0         0         0         0         0
         0         0         0         0         0         0         0         0
         0         0         0         0         0         0         0         0
         0         0         0         0         0         0         0         0
         0         0         0         0         0         0         0         0
         0         0         0         0         0         0         0         0
         0         0         0         0         0         0         0         0
         0         0         0         0         0         0         0         0
         0         0         0         0         0         0         0         0
         0         0         0         0         0         0         0         0
         0         0         0         0         0         0         0         0
         0         0         0         0         0         0         0         0
         0         0         0         0         0         0         0         0
         0         0         0         0         0         0         0         0
         0         0         0         0         0         0         0         0
         0         0         0         0         0         0         0         0
         0         0         0         0         0         0         0         0
         0         0         0         0         0         0         0         0
         0         0         0         0         0         0         0         0
         0         0         0         0         0         0         0         0
         0         0         0         0         0         0         0         0
         0         0         0         0         0         0         0         0
         0         0         0         0         0         0         0         0
         0         0         0         0         0         0         0         0
         0         0         0         0         0         0         0         0
         0         0         0         0         0         0         0         0
         0         0         0         0         0         0         0         0
         0         0         0         0         0         0         0         0
         0         0         0         0         0         0         0         0
         0         0         0         0         0         0         0         0
         0         0         0         0         0         0         0         0
         0         0         0         0         0         0         0         0
         0         0         0         0         0         0         0         0
         0         0         0         0         0         0         0         0
         0         0         0         0         0         0         0         0
         0         0         0         0         0         0         0         0
         0         0         0         0         0         0         0         0
         0         0         0         0         0         0         0         0
         0         0         0         0         0         0         0         0
         0         0         0         0         0         0         0         0
         0         0         0         0         0         0         0         0
         0         0         0         0         0         0         0         0
         0         0         0         0         0         0         0         0
         0         0         0         0         0         0         0         0
         0         0         0         0         0         0         0         0
         0         0         0         0         0         0         0         0
         0         0         0         0         0         0         0         0
         0         0         0         0         0         0         0         0
         0         0         0         0         0         0         0         0
         0         0         0         0         0         0         0         0
         0         0         0         0         0         0         0         0
         0         0         0         0         0         0         0         0
         0         0         0         0         0         0         0         0
         0         0         0         0         0         0         0         0
         0         0         0         0         0         0         0         0
         0         0         0         0         0         0         0         0
         0         0         0         0         0         0         0         0
         0         0         0         0         0         0         0         0
         0         0         0         0         0         0         0         0
         0         0         0         0         0         0         0         0
         0         0         0         0         0         0         0         0
         0         0         0         0         0         0         0         0
         0         0         0         0         0         0         0         0
         0         0         0         0         0         0         0         0
         0         0         0         0         0         0         0         0
         0         0         0         0         0         0         0         0
         0         0         0         0         0         0         0         0
         0         0         0         0         0         0         0         0
         0         0         0         0         0         0         0         0
         0         0         0         0         0         0         0         0
         0         0         0         0         0         0         0         0
         0         0         0         0         0         0         0         0
         0         0         0         0         0         0         0         0
         0         0         0         0         0         0         0         0
         0         0         0         0         0         0         0         0
         0         0         0         0         0         0         0         0
         0         0         0         0         0         0         0         0
         0         0         0         0         0         0         0         0
         0         0         0         0         0         0         0         0
         0         0         0         0         0         0         0         0
         0         0         0         0         0         0         0         0
         0         0         0         0         0         0         0         0
         0         0         0         0         0         0         0         0
         0         0         0         0         0         0         0         0
         0         0         0         0         0         0         0         0
         0         0         0         0         0         0         0         0
         0         0         0         0         0         0         0         0
         0         0         0         0         0         0         0         0
         0         0         0         0         0         0         0         0
         0         0         0         0         0         0         0         0
         0         0         0         0         0         0         0         0
         0         0         0         0         0         0         0         0
         0         0         0         0         0         0         0         0
         0         0         0         0         0         0         0         0
         0         0         0         0         0         0         0         0
         0         0         0         0         0         0         0         0
         0         0         0         0         0         0         0         0
         0         0         0         0         0         0         0         0
         0         0         0         0         0         0         0         0
         0         0         0         0         0         0         0         0
         0         0         0         0         0         0         0         0
         0         0         0         0         0         0         0         0
         0         0         0         0         0         0         0         0
         0         0         0         0         0         0         0         0
         0         0         0         0         0         0         0         0
         0         0         0         0         0         0         0         0
         0         0         0         0         0         0         0         0
         0         0         0         0         0         0         0         0
         0         0         0         0         0         0         0         0
         0         0         0         0         0         0         0         0
         0         0         0         0         0         0         0         0
         0         0         0         0         0         0         0         0
         0         0         0         0         0         0         0         0
         0         0         0         0         0         0         0         0
         0         0         0         0         0         0         0         0
         0         0         0         0         0         0         0         0
         0         0         0         0         0         0         0         0
         0         0         0         0         0         0         0         0
         0         0         0         0         0         0         0         0
         0         0         0         0         0         0         0         0
         0         0         0         0         0         0         0         0
         0         0         0         0         0         0         0         0
         0         0         0         0         0         0         0         0
         0         0         0         0         0         0         0         0
         0         0         0         0         0         0         0         0
         0         0         0         0         0         0         0         0
         0         0         0         0         0         0         0         0
         0         0         0         0         0         0         0         0
         0         0         0         0         0         0         0         0
         0         0         0         0         0         0         0         0
         0         0         0         0         0         0         0         0
         0         0         0         0         0         0         0         0
         0         0         0         0         0         0         0         0
         0         0         0         0         0         0         0         0
         0         0         0         0         0         0         0         0
         0         0         0         0         0         0         0         0
         0         0         0         0         0         0         0         0
         0         0         0         0         0         0         0         0
         0         0         0         0         0         0         0         0
         0         0         0         0         0         0         0         0
         0         0         0         0         0         0         0         0
         0         0         0         0         0         0         0         0
         0         0         0         0         0         0         0         0
         0         0         0         0         0         0         0         0
         0         0         0         0         0         0         0         0
         0         0         0         0         0         0         0         0
         0         0         0         0         0         0         0         0
         0         0         0         0         0         0         0         0
         0         0         0         0         0         0         0         0
         0         0         0         0         0         0         0         0
         0         0         0         0         0         0         0         0
         0         0         0         0         0         0         0         0
         0         0         0         0         0         0         0         0
         0         0         0         0         0         0         0         0
         0         0         0         0         0         0         0         0
         0         0         0         0         0         0         0         0
         0         0         0         0         0         0         0         0
         0         0         0         0         0         0         0         0
         0         0         0         0         0         0         0         0
         0         0         0         0         0         0         0         0
         0         0         0         0         0         0         0         0
         0         0         0         0         0         0         0         0
         0         0         0         0         0         0         0         0
         0         0         0         0         0         0         0         0
         0         0         0         0         0         0         0         0
         0         0         0         0         0         0         0         0
         0         0         0         0         0         0         0         0
         0         0         0         0         0         0         0         0
         0         0         0         0         0         0         0         0
         0         0         0         0         0         0         0         0
         0         0         0         0         0         0         0         0
         0         0         0         0         0         0         0         0
         0         0         0         0         0         0         0         0
         0         0         0         0         0         0         0         0
         0         0         0         0         0         0         0         0
         0         0         0         0         0         0         0         0
         0         0         0         0         0         0         0         0
         0         0         0         0         0         0         0         0
         0         0         0         0         0         0         0         0
         0         0         0         0         0         0         0         0
         0         0         0         0         0         0         0         0
         0         0         0         0         0         0         0         0
         0         0         0         0         0         0         0         0
         0         0         0         0         0         0         0         0
         0         0         0         0         0         0         0         0
         0         0         0         0         0         0         0         0
         0         0         0         0         0         0         0         0
         0         0         0         0         0         0         0         0
         0         0         0         0         0         0         0         0
         0         0         0         0         0         0         0         0
         0         0         0         0         0         0         0         0
         0         0         0         0         0         0         0         0
         0         0         0         0         0         0         0         0
         0         0         0         0         0         0         0         0
         0         0         0         0         0         0         0         0
         0         0         0         0         0         0         0         0
         0         0         0         0         0         0         0         0
         0         0         0         0         0         0         0         0
         0         0         0         0         0         0         0         0
         0         0         0         0         0         0         0         0
         0         0         0         0         0         0         0         0
         0         0         0         0         0         0         0         0
         0         0         0         0         0         0         0         0
         0         0         0         0         0         0         0         0
         0         0         0         0         0         0         0         0
         0         0         0         0         0         0         0         0
         0         0         0         0         0         0         0         0
         0         0         0         0         0         0         0         0
         0         0         0         0         0         0         0         0
         0         0         0         0         0         0         0         0
         0         0         0         0         0         0         0         0
         0         0         0         0         0         0         0         0
         0         0         0         0         0         0         0         0
         0         0         0         0         0         0         0         0
         0         0         0         0         0         0         0         0
         0         0         0         0         0         0         0         0
         0         0         0         0         0         0         0         0
         0         0         0         0         0         0         0         0
         0         0         0         0         0         0         0         0
         0         0         0         0         0         0         0         0
         0         0         0         0         0         0         0         0
         0         0         0         0         0         0         0         0
         0         0         0         0         0         0         0         0
         0         0         0         0         0         0         0         0
         0         0         0         0         0         0         0         0
         0         0         0         0         0         0         0         0
         0         0         0         0         0         0         0         0
         0         0         0         0         0         0         0         0
         0         0         0         0         0         0         0         0
         0         0         0         0         0         0         0         0
         0         0         0         0         0         0         0         0
         0         0         0         0         0         0         0         0
         0         0         0         0         0         0         0         0
         0         0         0         0         0         0         0         0
         0         0         0         0         0         0         0         0
         0         0         0         0         0         0         0         0
         0         0         0         0         0         0         0         0
         0         0         0         0         0         0         0         0
         0         0         0         0         0         0         0         0
         0         0         0         0         0         0         0         0
         0         0         0         0         0         0         0         0
         0         0         0         0         0         0         0         0
         0         0         0         0         0         0         0         0
         0         0         0         0         0         0         0         0
         0         0         0         0         0         0         0         0
         0         0         0         0         0         0         0         0
         0         0         0         0         0         0         0         0
         0         0         0         0         0         0         0         0
         0         0         0         0         0         0         0         0
         0         0         0         0         0         0         0         0
         0         0         0         0         0         0         0         0
         0         0         0         0         0         0         0         0
         0         0         0         0         0         0         0         0
         0         0         0         0         0         0         0         0
         0         0         0         0         0         0         0         0
         0         0         0         0         0         0         0         0
         0         0         0         0         0         0         0         0
         0         0         0         0         0         0         0         0
         0         0         0         0         0         0         0         0
         0         0         0         0         0         0         0         0
         0         0         0         0         0         0         0         0
         0         0         0         0         0         0         0         0
         0         0         0         0         0         0         0         0
         0         0         0         0         0         0         0         0
         0         0         0         0         0         0         0         0
         0         0         0         0         0         0         0         0
         0         0         0         0         0         0         0         0
         0         0         0         0         0         0         0         0
         0         0         0         0         0         0         0         0
         0         0         0         0         0         0         0         0
         0         0         0         0         0         0         0         0
         0         0         0         0         0         0         0         0
         0         0         0         0         0         0         0         0
         0         0         0         0         0         0         0         0
         0         0         0         0         0         0         0         0
         0         0         0         0         0         0         0         0
         0         0         0         0         0         0         0         0
         0         0         0         0         0         0         0         0
         0         0         0         0         0         0         0         0
         0         0         0         0         0         0         0         0
         0         0         0         0         0         0         0         0
         0         0         0         0         0         0         0         0
         0         0         0         0         0         0         0         0
         0         0         0         0         0         0         0         0
         0         0         0         0         0         0         0         0
         0         0         0         0         0         0         0         0
         0         0         0         0         0         0         0         0
         0         0         0         0         0         0         0         0
         0         0         0         0         0         0         0         0
         0         0         0         0         0         0         0         0
         0         0         0         0         0         0         0         0
         0         0         0         0         0         0         0         0
         0         0         0         0         0         0         0         0
         0         0         0         0         0         0         0         0
         0         0         0         0         0         0         0         0
         0         0         0         0         0         0         0         0
         0         0         0         0         0         0         0         0
         0         0         0         0         0         0         0         0
         0         0         0         0         0         0         0         0
         0         0         0         0         0         0         0         0
         0         0         0         0         0         0         0         0
         0         0         0         0         0         0         0         0
         0         0         0         0         0         0         0         0
         0         0         0         0         0         0         0         0
         0         0         0         0         0         0         0         0
         0         0         0         0         0         0         0         0
         0         0         0         0         0         0         0         0
         0         0         0         0         0         0         0         0
         0         0         0         0         0         0         0         0
         0         0         0         0         0         0         0         0
         0         0         0         0         0         0         0         0
         0         0         0         0         0         0         0         0
         0         0         0         0         0         0         0         0
         0         0         0         0         0         0         0         0
         0         0         0         0         0         0         0         0
         0         0         0         0         0         0         0         0
         0         0         0         0         0         0         0         0
         0         0         0         0         0         0         0         0
         0         0         0         0         0         0         0         0
         0         0         0         0         0         0         0         0
         0         0         0         0         0         0         0         0
         0         0         0         0         0         0         0         0
         0         0         0         0         0         0         0         0
         0         0         0         0         0         0         0         0
         0         0         0         0         0         0         0         0
         0         0         0         0         0         0         0         0
         0         0         0         0         0         0         0         0
         0         0         0         0         0         0         0         0
         0         0         0         0         0         0         0         0
         0         0         0         0         0         0         0         0
         0         0         0         0         0         0         0         0
         0         0         0         0         0         0         0         0
         0         0         0         0         0         0         0         0
         0         0         0         0         0         0         0         0
         0         0         0         0         0         0         0         0
         0         0         0         0         0         0         0         0
         0         0         0         0         0         0         0         0
         0         0         0         0         0         0         0         0
         0         0         0         0         0         0         0         0
         0         0         0         0         0         0         0         0
         0         0         0         0         0         0         0         0
         0         0         0         0         0         0         0         0
         0         0         0         0         0         0         0         0
         0         0         0         0         0         0         0         0
         0         0         0         0         0         0         0         0
         0         0         0         0         0         0         0         0
         0         0         0         0         0         0         0         0
         0         0         0         0         0         0         0         0
         0         0         0         0         0         0         0         0
         0         0         0         0         0         0         0         0
         0         0         0         0         0         0         0         0
         0         0         0         0         0         0         0         0
         0         0         0         0         0         0         0         0
         0         0         0         0         0         0         0         0
         0         0         0         0         0         0         0         0
         0         0         0         0         0         0         0         0
         0         0         0         0         0         0         0         0
         0         0         0         0         0         0         0         0
         0         0         0         0         0         0         0         0
         0         0         0         0         0         0         0         0
         0         0         0         0         0         0         0         0
         0         0         0         0         0         0         0         0
         0         0         0         0         0         0         0         0
         0         0         0         0         0         0         0         0
         0         0         0         0         0         0         0         0
         0         0         0         0         0         0         0         0
         0         0         0         0         0         0         0         0
         0         0         0         0         0         0         0         0
         0         0         0         0         0         0         0         0
         0         0         0         0         0         0         0         0
         0         0         0         0         0         0         0         0
         0         0         0         0         0         0         0         0
         0         0         0         0         0         0         0         0
         0         0         0         0         0         0         0         0
         0         0         0         0         0         0         0         0
         0         0         0         0         0         0         0         0
         0         0         0         0         0         0         0         0
         0         0         0         0         0         0         0         0
         0         0         0         0         0         0         0         0
         0         0         0         0         0         0         0         0
         0         0         0         0         0         0         0         0
         0         0         0         0         0         0         0         0
         0         0         0         0         0         0         0         0
         0         0         0         0         0         0         0         0
         0         0         0         0         0         0         0         0
         0         0         0         0         0         0         0         0
         0         0         0         0         0         0         0         0
         0         0         0         0         0         0         0         0
         0         0         0         0         0         0         0         0
         0         0         0         0         0         0         0         0
         0         0         0         0         0         0         0         0
         0         0         0         0         0         0         0         0
         0         0         0         0         0         0         0         0
         0         0         0         0         0         0         0         0
         0         0         0         0         0         0         0         0
         0         0         0         0         0         0         0         0
         0         0         0         0         0         0         0         0
         0         0         0         0         0         0         0         0
         0         0         0         0         0         0         0         0
         0         0         0         0         0         0         0         0
         0         0         0         0         0         0         0         0
         0         0         0         0         0         0         0         0
         0         0         0         0         0         0         0         0
         0         0         0         0         0         0         0         0
         0         0         0         0         0         0         0         0
         0         0         0         0         0         0         0         0
         0         0         0         0         0         0         0         0
         0         0         0         0         0         0         0         0
         0         0         0         0         0         0         0         0
         0         0         0         0         0         0         0         0
         0         0         0         0         0         0         0         0
         0         0         0         0         0         0         0         0
         0         0         0         0         0         0         0         0
         0         0         0         0         0         0         0         0
         0         0         0         0         0         0         0         0
         0         0         0         0         0         0         0         0
         0         0         0         0         0         0         0         0
         0         0         0         0         0         0         0         0
         0         0         0         0         0         0         0         0
         0         0         0         0         0         0         0         0
         0         0         0         0         0         0         0         0
         0         0         0         0         0         0         0         0
         0         0         0         0         0         0         0         0
         0         0         0         0         0         0         0         0
         0         0         0         0         0         0         0         0
         0         0         0         0         0         0         0         0
         0         0         0         0         0         0         0         0
         0         0         0         0         0         0         0         0
         0         0         0         0         0         0         0         0
         0         0         0         0         0         0         0         0
         0         0         0         0         0         0         0         0
         0         0         0         0         0         0         0         0
         0         0         0         0         0         0         0         0
         0         0         0         0         0         0         0         0
         0         0         0         0         0         0         0         0
         0         0         0         0         0         0         0         0
         0         0         0         0         0         0         0         0
         0         0         0         0         0         0         0         0
         0         0         0         0         0         0         0         0
         0         0         0         0         0         0         0         0
         0         0         0         0         0         0         0         0
         0         0         0         0         0         0         0         0
         0         0         0         0         0         0         0         0
         0         0         0         0         0         0         0         0
         0         0         0         0         0         0         0         0
         0         0         0         0         0         0         0         0
         0         0         0         0         0         0         0         0
         0         0         0         0         0         0         0         0
         0         0         0         0         0         0         0         0
         0         0         0         0         0         0         0         0
         0         0         0         0         0         0         0         0
         0         0         0         0         0         0         0         0
         0         0         0         0         0         0         0         0
         0         0         0         0         0         0         0         0
         0         0         0         0         0         0         0         0
         0         0         0         0         0         0         0         0
         0         0         0         0         0         0         0         0
         0         0         0         0         0         0         0         0
         0         0         0         0         0         0         0         0
         0         0         0         0         0         0         0         0
         0         0         0         0         0         0         0         0
         0         0         0         0         0         0         0         0
         0         0         0         0         0         0         0         0
         0         0         0         0         0         0         0         0
         0         0         0         0         0         0         0         0
         0         0         0         0         0         0         0         0
         0         0         0         0         0         0         0         0
         0         0         0         0         0         0         0         0
         0         0         0         0         0         0         0         0
         0         0         0         0         0         0         0         0
         0         0         0         0         0         0         0         0
         0         0         0         0         0         0         0         0
         0         0         0         0         0         0         0         0
         0         0         0         0         0         0         0         0
         0         0         0         0         0         0         0         0
         0         0         0         0         0         0         0         0
         0         0         0         0         0         0         0         0
         0         0         0         0         0         0         0         0
         0         0         0         0         0         0         0         0
         0         0         0         0         0         0         0         0
         0         0         0         0         0         0         0         0
         0         0         0         0         0         0         0         0
         0         0         0         0         0         0         0         0
         0         0         0         0         0         0         0         0
         0         0         0         0         0         0         0         0
         0         0         0         0         0         0         0         0
         0         0         0         0         0         0         0         0
         0         0         0         0         0         0         0         0
         0         0         0         0         0         0         0         0
         0         0         0         0         0         0         0         0
         0         0         0         0         0         0         0         0
         0         0         0         0         0         0         0         0
         0         0         0         0         0         0         0         0
         0         0         0         0         0         0         0         0
         0         0         0         0         0         0         0         0
         0         0         0         0         0         0         0         0
         0         0         0         0         0         0         0         0
         0         0         0         0         0         0         0         0
         0         0         0         0         0         0         0         0
         0         0         0         0         0         0         0         0
         0         0         0         0         0         0         0         0
         0         0         0         0         0         0         0         0
         0         0         0         0         0         0         0         0
         0         0         0         0         0         0         0         0
         0         0         0         0         0         0         0         0
         0         0         0         0         0         0         0         0
         0         0         0         0         0         0         0         0
         0         0         0         0         0         0         0         0
         0         0         0         0         0         0         0         0
         0         0         0         0         0         0         0         0
         0         0         0         0         0         0         0         0
         0         0         0         0         0         0         0         0
         0         0         0         0         0         0         0         0
         0         0         0         0         0         0         0         0
         0         0         0         0         0         0         0         0
         0         0         0         0         0         0         0         0
         0         0         0         0         0         0         0         0
         0         0         0         0         0         0         0         0
         0         0         0         0         0         0         0         0
         0         0         0         0         0         0         0         0
         0         0         0         0         0         0         0         0
         0         0         0         0         0         0         0         0
         0         0         0         0         0         0         0         0
         0         0         0         0         0         0         0         0
         0         0         0         0         0         0         0         0
         0         0         0         0         0         0         0         0
         0         0         0         0         0         0         0         0
         0         0         0         0         0         0         0         0
         0         0         0         0         0         0         0         0
         0         0         0         0         0         0         0         0
         0         0         0         0         0         0         0         0
         0         0         0         0         0         0         0         0
         0         0         0         0         0         0         0         0
         0         0         0         0         0         0         0         0
         0         0         0         0         0         0         0         0
         0         0         0         0         0         0         0         0
         0         0         0         0         0         0         0         0
         0         0         0         0         0         0         0         0
         0         0         0         0         0         0         0         0
         0         0         0         0         0         0         0         0
         0         0         0         0         0         0         0         0
         0         0         0         0         0         0         0         0
         0         0         0         0         0         0         0         0
         0         0         0         0         0         0         0         0
         0         0         0         0         0         0         0         0
         0         0         0         0         0         0         0         0
         0         0         0         0         0         0         0         0
         0         0         0         0         0         0         0         0
         0         0         0         0         0         0         0         0
         0         0         0         0         0         0         0         0
         0         0         0         0         0         0         0         0
         0         0         0         0         0         0         0         0
         0         0         0         0         0         0         0         0
         0         0         0         0         0         0         0         0
         0         0         0         0         0         0         0         0
         0         0         0         0         0         0         0         0
         0         0         0         0         0         0         0         0
         0         0         0         0         0         0         0         0
         0         0         0         0         0         0         0         0
         0         0         0         0         0         0         0         0
         0         0         0         0         0         0         0         0
         0         0         0         0         0         0         0         0
         0         0         0         0         0         0         0         0
         0         0         0         0         0         0         0         0
         0         0         0         0         0         0         0         0
         0         0         0         0         0         0         0         0
         0         0         0         0         0         0         0         0
         0         0         0         0         0         0         0         0
         0         0         0         0         0         0         0         0
         0         0         0         0         0         0         0         0
         0         0         0         0         0         0         0         0
         0         0         0         0         0         0         0         0
         0         0         0         0         0         0         0         0
         0         0         0         0         0         0         0         0
         0         0         0         0         0         0         0         0
         0         0         0         0         0         0         0         0
         0         0         0         0         0         0         0         0
         0         0         0         0         0         0         0         0
         0         0         0         0         0         0         0         0
         0         0         0         0         0         0         0         0
         0         0         0         0         0         0         0         0
         0         0         0         0         0         0         0         0
         0         0         0         0         0         0         0         0
         0         0         0         0         0         0         0         0
         0         0         0         0         0         0         0         0
         0         0         0         0         0         0         0         0
         0         0         0         0         0         0         0         0
         0         0         0         0         0         0         0         0
         0         0         0         0         0         0         0         0
         0         0         0         0         0         0         0         0
         0         0         0         0         0         0         0         0
         0         0         0         0         0         0         0         0
         0         0         0         0         0         0         0         0
         0         0         0         0         0         0         0         0
         0         0         0         0         0         0         0         0
         0         0         0         0         0         0         0         0
         0         0         0         0         0         0         0         0
         0         0         0         0         0         0         0         0
         0         0         0         0         0         0         0         0
         0         0         0         0         0         0         0         0
         0         0         0         0         0         0         0         0
         0         0         0         0         0         0         0         0
         0         0         0         0         0         0         0         0
         0         0         0         0         0         0         0         0
         0         0         0         0         0         0         0         0
         0         0         0         0         0         0         0         0
         0         0         0         0         0         0         0         0
         0         0         0         0         0         0         0         0
         0         0         0         0         0         0         0         0
         0         0         0         0         0         0         0         0
         0         0         0         0         0         0         0         0
         0         0         0         0         0         0         0         0
         0         0         0         0         0         0         0         0
         0         0         0         0         0         0         0         0
         0         0         0         0         0         0         0         0
         0         0         0         0         0         0         0         0
         0         0         0         0         0         0         0         0
         0         0         0         0         0         0         0         0
         0         0         0         0         0         0         0         0
         0         0         0         0         0         0         0         0
         0         0         0         0         0         0         0         0
         0         0         0         0         0         0         0         0
         0         0         0         0         0         0         0         0
         0         0         0         0         0         0         0         0
         0         0         0         0         0         0         0         0
         0         0         0         0         0         0         0         0
         0         0         0         0         0         0         0         0
         0         0         0         0         0         0         0         0
         0         0         0         0         0         0         0         0
         0         0         0         0         0         0         0         0
         0         0         0         0         0         0         0         0
         0         0         0         0         0         0         0         0
         0         0         0         0         0         0         0         0
         0         0         0         0         0         0         0         0
         0         0         0         0         0         0         0         0
         0         0         0         0         0         0         0         0
         0         0         0         0         0         0         0         0
         0         0         0         0         0         0         0         0
         0         0         0         0         0         0         0         0
         0         0         0         0         0         0         0         0
         0         0         0         0         0         0         0         0
         0         0         0         0         0         0         0         0
         0         0         0         0         0         0         0         0
         0         0         0         0         0         0         0         0
         0         0         0         0         0         0         0         0
         0         0         0         0         0         0         0         0
         0         0         0         0         0         0         0         0
         0         0         0         0         0         0         0         0
         0         0         0         0         0         0         0         0
         0         0         0         0         0         0         0         0
         0         0         0         0         0         0         0         0
         0         0         0         0         0         0         0         0
         0         0         0         0         0         0         0         0
         0         0         0         0         0         0         0         0
         0         0         0         0         0         0         0         0
         0         0         0         0         0         0         0         0
         0         0         0         0         0         0         0         0
         0         0         0         0         0         0         0         0
         0         0         0         0         0         0         0         0
         0         0         0         0         0         0         0         0
         0         0         0         0         0         0         0         0
         0         0         0         0         0         0         0         0
         0         0         0         0         0         0         0         0
         0         0         0         0         0         0         0         0
         0         0         0         0         0         0         0         0
         0         0         0         0         0         0         0         0
         0         0         0         0         0         0         0         0
         0         0         0         0         0         0         0         0
         0         0         0         0         0         0         0         0
         0         0         0         0         0         0         0         0
         0         0         0         0         0         0         0         0
         0         0         0         0         0         0         0         0
         0         0         0         0         0         0         0         0
         0         0         0         0         0         0         0         0
         0         0         0         0         0         0         0         0
         0         0         0         0         0         0         0         0
         0         0         0         0         0         0         0         0
         0         0         0         0         0         0         0         0
         0         0         0         0         0         0         0         0
         0         0         0         0         0         0         0         0
         0         0         0         0         0         0         0         0
         0         0         0         0         0         0         0         0
         0         0         0         0         0         0         0         0
         0         0         0         0         0         0         0         0
         0         0         0         0         0         0         0         0
         0         0         0         0         0         0         0         0
         0         0         0         0         0         0         0         0
         0         0         0         0         0         0         0         0
         0         0         0         0         0         0         0         0
         0         0         0         0         0         0         0         0
         0         0         0         0         0         0         0         0
         0         0         0         0         0         0         0         0
         0         0         0         0         0         0         0         0
         0         0         0         0         0         0         0         0
         0         0         0         0         0         0         0         0
         0         0         0         0         0         0         0         0
         0         0         0         0         0         0         0         0
         0         0         0         0         0         0         0         0
         0         0         0         0         0         0         0         0
         0         0         0         0         0         0         0         0
         0         0         0         0         0         0         0         0
         0         0         0         0         0         0         0         0
         0         0         0         0         0         0         0         0
         0         0         0         0         0         0         0         0
         0         0         0         0         0         0         0         0
         0         0         0         0         0         0         0         0
         0         0         0         0         0         0         0         0
         0         0         0         0         0         0         0         0
         0         0         0         0         0         0         0         0
         0         0         0         0         0         0         0         0
         0         0         0         0         0         0         0         0
         0         0         0         0         0         0         0         0
         0         0         0         0         0         0         0         0
         0         0         0         0         0         0         0         0
         0         0         0         0         0         0         0         0
         0         0         0         0         0         0         0         0
         0         0         0         0         0         0         0         0
         0         0         0         0         0         0         0         0
         0         0         0         0         0         0         0         0
         0         0         0         0         0         0         0         0
         0         0         0         0         0         0         0         0
         0         0         0         0         0         0         0         0
         0         0         0         0         0         0         0         0
         0         0         0         0         0         0         0         0
         0         0         0         0         0         0         0         0
         0         0         0         0         0         0         0         0
         0         0         0         0         0         0         0         0
         0         0         0         0         0         0         0         0
         0         0         0         0         0         0         0         0
         0         0         0         0         0         0         0         0
         0         0         0         0         0         0         0         0
         0         0         0         0         0         0         0         0
         0         0         0         0         0         0         0         0
         0         0         0         0         0         0         0         0
         0         0         0         0         0         0         0         0
         0         0         0         0         0         0         0         0
         0         0         0         0         0         0         0         0
         0         0         0         0         0         0         0         0
         0         0         0         0         0         0         0         0
         0         0         0         0         0         0         0         0
         0         0         0         0         0         0         0         0
         0         0         0         0         0         0         0         0
         0         0         0         0         0         0         0         0
         0         0         0         0         0         0         0         0
         0         0         0         0         0         0         0         0
         0         0         0         0         0         0         0         0
         0         0         0         0         0         0         0         0
         0         0         0         0         0         0         0         0
         0         0         0         0         0         0         0         0
         0         0         0         0         0         0         0         0
         0         0         0         0         0         0         0         0
         0         0         0         0         0         0         0         0
         0         0         0         0         0         0         0         0
         0         0         0         0         0         0         0         0
         0         0         0         0         0         0         0         0
         0         0         0         0         0         0         0         0
         0         0         0         0         0         0         0         0
         0         0         0         0         0         0         0         0
         0         0         0         0         0         0         0         0
         0         0         0         0         0         0         0         0
         0         0         0         0         0         0         0         0
         0         0         0         0         0         0         0         0
         0         0         0         0         0         0         0         0
         0         0         0         0         0         0         0         0
         0         0         0         0         0         0         0         0
         0         0         0         0         0         0         0         0
         0         0         0         0         0         0         0         0
         0         0         0         0         0         0         0         0
         0         0         0         0         0         0         0         0
         0         0         0         0         0         0         0         0
         0         0         0         0         0         0         0         0
         0         0         0         0         0         0         0         0
         0         0         0         0         0         0         0         0
         0         0         0         0         0         0         0         0
         0         0         0         0         0         0         0         0
         0         0         0         0         0         0         0         0
         0         0         0         0         0         0         0         0
         0         0         0         0         0         0         0         0
         0         0         0         0         0         0         0         0
         0         0         0         0         0         0         0         0
         0         0         0         0         0         0         0         0
         0         0         0         0         0         0         0         0
         0         0         0         0         0         0         0         0
         0         0         0         0         0         0         0         0
         0         0         0         0         0         0         0         0
         0         0         0         0         0         0         0         0
         0         0         0         0         0         0         0         0
         0         0         0         0         0         0         0         0
         0         0         0         0         0         0         0         0
         0         0         0         0         0         0         0         0
         0         0         0         0         0         0         0         0
         0         0         0         0         0         0         0         0
         0         0         0         0         0         0         0         0
         0         0         0         0         0         0         0         0
         0         0         0         0         0         0         0         0
         0         0         0         0         0         0         0         0
         0         0         0         0         0         0         0         0
         0         0         0         0         0         0         0         0
         0         0         0         0         0         0         0         0
         0         0         0         0         0         0         0         0
         0         0         0         0         0         0         0         0
         0         0         0         0         0         0         0         0
         0         0         0         0         0         0         0         0
         0         0         0         0         0         0         0         0
         0         0         0         0         0         0         0         0
         0         0         0         0         0         0         0         0
         0         0         0         0         0         0         0         0
         0         0         0         0         0         0         0         0
         0         0         0         0         0         0         0         0
         0         0         0         0         0         0         0         0
         0         0         0         0         0         0         0         0
         0         0         0         0         0         0         0         0
         0         0         0         0         0         0         0         0
         0         0         0         0         0         0         0         0
         0         0         0         0         0         0         0         0
         0         0         0         0         0         0         0         0
         0         0         0         0         0         0         0         0
         0         0         0         0         0         0         0         0
         0         0         0         0         0         0         0         0
         0         0         0         0         0         0         0         0
         0         0         0         0         0         0         0         0
         0         0         0         0         0         0         0         0
         0         0         0         0         0         0         0         0
         0         0         0         0         0         0         0         0
         0         0         0         0         0         0         0         0
         0         0         0         0         0         0         0         0
         0         0         0         0         0         0         0         0
         0         0         0         0         0         0         0         0
         0         0         0         0         0         0         0         0
         0         0         0         0         0         0         0         0
         0         0         0         0         0         0         0         0
         0         0         0         0         0         0         0         0
         0         0         0         0         0         0         0         0
         0         0         0         0         0         0         0         0
         0         0         0         0         0         0         0         0
         0         0         0         0         0         0         0         0
         0         0         0         0         0         0         0         0
         0         0         0         0         0         0         0         0
         0         0         0         0         0         0         0         0
         0         0         0         0         0         0         0         0
         0         0         0         0         0         0         0         0
         0         0         0         0         0         0         0         0
         0         0         0         0         0         0         0         0
         0         0         0         0         0         0         0         0
         0         0         0         0         0         0         0         0
         0         0         0         0         0         0         0         0
         0         0         0         0         0         0         0         0
         0         0         0         0         0         0         0         0
         0         0         0         0         0         0         0         0
         0         0         0         0         0         0         0         0
         0         0         0         0         0         0         0         0
         0         0         0         0         0         0         0         0
         0         0         0         0         0         0         0         0
         0         0         0         0         0         0         0         0
         0         0         0         0         0         0         0         0
         0         0         0         0         0         0         0         0
         0         0         0         0         0         0         0         0
         0         0         0         0         0         0         0         0
         0         0         0         0         0         0         0         0
         0         0         0         0         0         0         0         0
         0         0         0         0         0         0         0         0
         0         0         0         0         0         0         0         0
         0         0         0         0         0         0         0         0
         0         0         0         0         0         0         0         0
         0         0         0         0         0         0         0         0
         0         0         0         0         0         0         0         0
         0         0         0         0         0         0         0         0
         0         0         0         0         0         0         0         0
         0         0         0         0         0         0         0         0
         0         0         0         0         0         0         0         0
         0         0         0         0         0         0         0         0
         0         0         0         0         0         0         0         0
         0         0         0         0         0         0         0         0
         0         0         0         0         0         0         0         0
         0         0         0         0         0         0         0         0
         0         0         0         0         0         0         0         0
         0         0         0         0         0         0         0         0
         0         0         0         0         0         0         0         0
         0         0         0         0         0         0         0         0
         0         0         0         0         0         0         0         0
         0         0         0         0         0         0         0         0
         0         0         0         0         0         0         0         0
         0         0         0         0         0         0         0         0
         0         0         0         0         0         0         0         0
         0         0         0         0         0         0         0         0
         0         0         0         0         0         0         0         0
         0         0         0         0         0         0         0         0
         0         0         0         0         0         0         0         0
         0         0         0         0         0         0         0         0
         0         0         0         0         0         0         0         0
         0         0         0         0         0         0         0         0
         0         0         0         0         0         0         0         0
         0         0         0         0         0         0         0         0
         0         0         0         0         0         0         0         0
         0         0         0         0         0         0         0         0
         0         0         0         0         0         0         0         0
         0         0         0         0         0         0         0         0
         0         0         0         0         0         0         0         0
         0         0         0         0         0         0         0         0
         0         0         0         0         0         0         0         0
         0         0         0         0         0         0         0         0
         0         0         0         0         0         0         0         0
         0         0         0         0         0         0         0         0
         0         0         0         0         0         0         0         0
         0         0         0         0         0         0         0         0
         0         0         0         0         0         0         0         0
         0         0         0         0         0         0         0         0
         0         0         0         0         0         0         0         0
         0         0         0         0         0         0         0         0
         0         0         0         0         0         0         0         0
         0         0         0         0         0         0         0         0
         0         0         0         0         0         0         0         0
         0         0         0         0         0         0         0         0
         0         0         0         0         0         0         0         0
         0         0         0         0         0         0         0         0
         0         0         0         0         0         0         0         0
         0         0         0         0         0         0         0         0
         0         0         0         0         0         0         0         0
         0         0         0         0         0         0         0         0
         0         0         0         0         0         0         0         0
         0         0         0         0         0         0         0         0
         0         0         0         0         0         0         0         0
         0         0         0         0         0         0         0         0
         0         0         0         0         0         0         0         0
         0         0         0         0         0         0         0         0
         0         0         0         0         0         0         0         0
         0         0         0         0         0         0         0         0
         0         0         0         0         0         0         0         0
         0         0         0         0         0         0         0         0
         0         0         0         0         0         0         0         0
         0         0         0         0         0         0         0         0
         0         0         0         0         0         0         0         0
         0         0         0         0         0         0         0         0
         0         0         0         0         0         0         0         0
         0         0         0         0         0         0         0         0
         0         0         0         0         0         0         0         0
         0         0         0         0         0         0         0         0
         0         0         0         0         0         0         0         0
         0         0         0         0         0         0         0         0
         0         0         0         0         0         0         0         0
         0         0         0         0         0         0         0         0
         0         0         0         0         0         0         0         0
         0         0         0         0         0         0         0         0
         0         0         0         0         0         0         0         0
         0         0         0         0         0         0         0         0
         0         0         0         0         0         0         0         0
         0         0         0         0         0         0         0         0
         0         0         0         0         0         0         0         0
         0         0         0         0         0         0         0         0
         0         0         0         0         0         0         0         0
         0         0         0         0         0         0         0         0
         0         0         0         0         0         0         0         0
         0         0         0         0         0         0         0         0
         0         0         0         0         0         0         0         0
         0         0         0         0         0         0         0         0
         0         0         0         0         0         0         0         0
         0         0         0         0         0         0         0         0
         0         0         0         0         0         0         0         0
         0         0         0         0         0         0         0         0
         0         0         0         0         0         0         0         0
         0         0         0         0         0         0         0         0
         0         0         0         0         0         0         0         0
         0         0         0         0         0         0         0         0
         0         0         0         0         0         0         0         0
         0         0         0         0         0         0         0         0
         0         0         0         0         0         0         0         0
         0         0         0         0         0         0         0         0
         0         0         0         0         0         0         0         0
         0         0         0         0         0         0         0         0
         0         0         0         0         0         0         0         0
         0         0         0         0         0         0         0         0
         0         0         0         0         0         0         0         0
         0         0         0         0         0         0         0         0
         0         0         0         0         0         0         0         0
         0         0         0         0         0         0         0         0
         0         0         0         0         0         0         0         0
         0         0         0         0         0         0         0         0
         0         0         0         0         0         0         0         0
         0         0         0         0         0         0         0         0
         0         0         0         0         0         0         0         0
         0         0         0         0         0         0         0         0
         0         0         0         0         0         0         0         0
         0         0         0         0         0         0         0         0
         0         0         0         0         0         0         0         0
         0         0         0         0         0         0         0         0
         0         0         0         0         0         0         0         0
         0         0         0         0         0         0         0         0
         0         0         0         0         0         0         0         0
         0         0         0         0         0         0         0         0
         0         0         0         0         0         0         0         0
         0         0         0         0         0         0         0         0
         0         0         0         0         0         0         0         0
         0         0         0         0         0         0         0         0
         0         0         0         0         0         0         0         0
         0         0         0         0         0         0         0         0
         0         0         0         0         0         0         0         0
         0         0         0         0         0         0         0         0
         0         0         0         0         0         0         0         0
         0         0         0         0         0         0         0         0
         0         0         0         0         0         0         0         0
         0         0         0         0         0         0         0         0
         0         0         0         0         0         0         0         0
         0         0         0         0         0         0         0         0
         0         0         0         0         0         0         0         0
         0         0         0         0         0         0         0         0
         0         0         0         0         0         0         0         0
         0         0         0         0         0         0         0         0
         0         0         0         0         0         0         0         0
         0         0         0         0         0         0         0         0
         0         0         0         0         0         0         0         0
         0         0         0         0         0         0         0         0
         0         0         0         0         0         0         0         0
         0         0         0         0         0         0         0         0
         0         0         0         0         0         0         0         0
         0         0         0         0         0         0         0         0
         0         0         0         0         0         0         0         0
         0         0         0         0         0         0         0         0
         0         0         0         0         0         0         0         0
         0         0         0         0         0         0         0         0
         0         0         0         0         0         0         0         0
         0         0         0         0         0         0         0         0
         0         0         0         0         0         0         0         0
         0         0         0         0         0         0         0         0
         0         0         0         0         0         0         0         0
         0         0         0         0         0         0         0         0
         0         0         0         0         0         0         0         0
         0         0         0         0         0         0         0         0
         0         0         0         0         0         0         0         0
         0         0         0         0         0         0         0         0
         0         0         0         0         0         0         0         0
         0         0         0         0         0         0         0         0
         0         0         0         0         0         0         0         0
         0         0         0         0         0         0         0         0
         0         0         0         0         0         0         0         0
         0         0         0         0         0         0         0         0
         0         0         0         0         0         0         0         0
         0         0         0         0         0         0         0         0
         0         0         0         0         0         0         0         0
         0         0         0         0         0         0         0         0
         0         0         0         0         0         0         0         0
         0         0         0         0         0         0         0         0
         0         0         0         0         0         0         0         0
         0         0         0         0         0         0         0         0
         0         0         0         0         0         0         0         0
         0         0         0         0         0         0         0         0
         0         0         0         0         0         0         0         0
         0         0         0         0         0         0         0         0
         0         0         0         0         0         0         0         0
         0         0         0         0         0         0         0         0
         0         0         0         0         0         0         0         0
         0         0         0         0         0         0         0         0
         0         0         0         0         0         0         0         0
         0         0         0         0         0         0         0         0
         0         0         0         0         0         0         0         0
         0         0         0         0         0         0         0         0
         0         0         0         0         0         0         0         0
         0         0         0         0         0         0         0         0
         0         0         0         0         0         0         0         0
         0         0         0         0         0         0         0         0
         0         0         0         0         0         0         0         0
         0         0         0         0         0         0         0         0
         0         0         0         0         0         0         0         0
         0         0         0         0         0         0         0         0
         0         0         0         0         0         0         0         0
         0         0         0         0         0         0         0         0
         0         0         0         0         0         0         0         0
         0         0         0         0         0         0         0         0
         0         0         0         0         0         0         0         0
         0         0         0         0         0         0         0         0
         0         0         0         0         0         0         0         0
         0         0         0         0         0         0         0         0
         0         0         0         0         0         0         0         0
         0         0         0         0         0         0         0         0
         0         0         0         0         0         0         0         0
         0         0         0         0         0         0         0         0
         0         0         0         0         0         0         0         0
         0         0         0         0         0         0         0         0
         0         0         0         0         0         0         0         0
         0         0         0         0         0         0         0         0
         0         0         0         0         0         0         0         0
         0         0         0         0         0         0         0         0
         0         0         0         0         0         0         0         0
         0         0         0         0         0         0         0         0
         0         0         0         0         0         0         0         0
         0         0         0         0         0         0         0         0
         0         0         0         0         0         0         0         0
         0         0         0         0         0         0         0         0
         0         0         0         0         0         0         0         0
         0         0         0         0         0         0         0         0
         0         0         0         0         0         0         0         0
         0         0         0         0         0         0         0         0
         0         0         0         0         0         0         0         0
         0         0         0         0         0         0         0         0
         0         0         0         0         0         0         0         0
         0         0         0         0         0         0         0         0
         0         0         0         0         0         0         0         0
         0         0         0         0         0         0         0         0
         0         0         0         0         0         0         0         0
         0         0         0         0         0         0         0         0
         0         0         0         0         0         0         0         0
         0         0         0         0         0         0         0         0
         0         0         0         0         0         0         0         0
         0         0         0         0         0         0         0         0
         0         0         0         0         0         0         0         0
         0         0         0         0         0         0         0         0
         0         0         0         0         0         0         0         0
         0         0         0         0         0         0         0         0
         0         0         0         0         0         0         0         0
         0         0         0         0         0         0         0         0
         0         0         0         0         0         0         0         0
         0         0         0         0         0         0         0         0
         0         0         0         0         0         0         0         0
         0         0         0         0         0         0         0         0
         0         0         0         0         0         0         0         0
         0         0         0         0         0         0         0         0
         0         0         0         0         0         0         0         0
         0         0         0         0         0         0         0         0
         0         0         0         0         0         0         0         0
         0         0         0         0         0         0         0         0
         0         0         0         0         0         0         0         0
         0         0         0         0         0         0         0         0
         0         0         0         0         0         0         0         0
         0         0         0         0         0         0         0         0
         0         0         0         0         0         0         0         0
         0         0         0         0         0         0         0         0
         0         0         0         0         0         0         0         0
         0         0         0         0         0         0         0         0
         0         0         0         0         0         0         0         0
         0         0         0         0         0         0         0         0
         0         0         0         0         0         0         0         0
         0         0         0         0         0         0         0         0
         0         0         0         0         0         0         0         0
         0         0         0         0         0         0         0         0
         0         0         0         0         0         0         0         0
         0         0         0         0         0         0         0         0
         0         0         0         0         0         0         0         0
         0         0         0         0         0         0         0         0
         0         0         0         0         0         0         0         0
         0         0         0         0         0         0         0         0
         0         0         0         0         0         0         0         0
         0         0         0         0         0         0         0         0
         0         0         0         0         0         0         0         0
         0         0         0         0         0         0         0         0
         0         0         0         0         0         0         0         0
         0         0         0         0         0         0         0         0
         0         0         0         0         0         0         0         0
         0         0         0         0         0         0         0         0
         0         0         0         0         0         0         0         0
         0         0         0         0         0         0         0         0
         0         0         0         0         0         0         0         0
         0         0         0         0         0         0         0         0
         0         0         0         0         0         0         0         0
         0         0         0         0         0         0         0         0
         0         0         0         0         0         0         0         0
         0         0         0         0         0         0         0         0
         0         0         0         0         0         0         0         0
         0         0         0         0         0         0         0         0
         0         0         0         0         0         0         0         0
         0         0         0         0         0         0         0         0
         0         0         0         0         0         0         0         0
         0         0         0         0         0         0         0         0
         0         0         0         0         0         0         0         0
         0         0         0         0         0         0         0         0
         0         0         0         0         0         0         0         0
         0         0         0         0         0         0         0         0
         0         0         0         0         0         0         0         0
         0         0         0         0         0         0         0         0
         0         0         0         0         0         0         0         0
         0         0         0         0         0         0         0         0
         0         0         0         0         0         0         0         0
         0         0         0         0         0         0         0         0
         0         0         0         0         0         0         0         0
         0         0         0         0         0         0         0         0
         0         0         0         0         0         0         0         0
         0         0         0         0         0         0         0         0
         0         0         0         0         0         0         0         0
         0         0         0         0         0         0         0         0
         0         0         0         0         0         0         0         0
         0         0         0         0         0         0         0         0
         0         0         0         0         0         0         0         0
         0         0         0         0         0         0         0         0
         0         0         0         0         0         0         0         0
         0         0         0         0         0         0         0         0
         0         0         0         0         0         0         0         0
         0         0         0         0         0         0         0         0
         0         0         0         0         0         0         0         0
         0         0         0         0         0         0         0         0
         0         0         0         0         0         0         0         0
         0         0         0         0         0         0         0         0
         0         0         0         0         0         0         0         0
         0         0         0         0         0         0         0         0
         0         0         0         0         0         0         0         0
         0         0         0         0         0         0         0         0
         0         0         0         0         0         0         0         0
         0         0         0         0         0         0         0         0
         0         0         0         0         0         0         0         0
         0         0         0         0         0         0         0         0
         0         0         0         0         0         0         0         0
         0         0         0         0         0         0         0         0
         0         0         0         0         0         0         0         0
         0         0         0         0         0         0         0         0
         0         0         0         0         0         0         0         0
         0         0         0         0         0         0         0         0
         0         0         0         0         0         0         0         0
         0         0         0         0         0         0         0         0
         0         0         0         0         0         0         0         0
         0         0         0         0         0         0         0         0
         0         0         0         0         0         0         0         0
         0         0         0         0         0         0         0         0
         0         0         0         0         0         0         0         0
         0         0         0         0         0         0         0         0
         0         0         0         0         0         0         0         0
         0         0         0         0         0         0         0         0
         0         0         0         0         0         0         0         0
         0         0         0         0         0         0         0         0
         0         0         0         0         0         0         0         0
         0         0         0         0         0         0         0         0
         0         0         0         0         0         0         0         0
         0         0         0         0         0         0         0         0
         0         0         0         0         0         0         0         0
         0         0         0         0         0         0         0         0
         0         0         0         0         0         0         0         0
         0         0         0         0         0         0         0         0
         0         0         0         0         0         0         0         0
         0         0         0         0         0         0         0         0
         0         0         0         0         0         0         0         0
         0         0         0         0         0         0         0         0
         0         0         0         0         0         0         0         0
         0         0         0         0         0         0         0         0
         0         0         0         0         0         0         0         0
         0         0         0         0         0         0         0         0
         0         0         0         0         0         0         0         0
         0         0         0         0         0         0         0         0
         0         0         0         0         0         0         0         0
         0         0         0         0         0         0         0         0
         0         0         0         0         0         0         0         0
         0         0         0         0         0         0         0         0
         0         0         0         0         0         0         0         0
         0         0         0         0         0         0         0         0
         0         0         0         0         0         0         0         0
         0         0         0         0         0         0         0         0
         0         0         0         0         0         0         0         0
         0         0         0         0         0         0         0         0
         0         0         0         0         0         0         0         0
         0         0         0         0         0         0         0         0
         0         0         0         0         0         0         0         0
         0         0         0         0         0         0         0         0
         0         0         0         0         0         0         0         0
         0         0         0         0         0         0         0         0
         0         0         0         0         0         0         0         0
         0         0         0         0         0         0         0         0
         0         0         0         0         0         0         0         0
         0         0         0         0         0         0         0         0
         0         0         0         0         0         0         0         0
         0         0         0         0         0         0         0         0
         0         0         0         0         0         0         0         0
         0         0         0         0         0         0         0         0
         0         0         0         0         0         0         0         0
         0         0         0         0         0         0         0         0
         0         0         0         0         0         0         0         0
         0         0         0         0         0         0         0         0
         0         0         0         0         0         0         0         0
         0         0         0         0         0         0         0         0
         0         0         0         0         0         0         0         0
         0         0         0         0         0         0         0         0
         0         0         0         0         0         0         0         0
         0         0         0         0         0         0         0         0
         0         0         0         0         0         0         0         0
         0         0         0         0         0         0         0         0
         0         0         0         0         0         0         0         0
         0         0         0         0         0         0         0         0
         0         0         0         0         0         0         0         0
         0         0         0         0         0         0         0         0
         0         0         0         0         0         0         0         0
         0         0         0         0         0         0         0         0
         0         0         0         0         0         0         0         0
         0         0         0         0         0         0         0         0
         0         0         0         0         0         0         0         0
         0         0         0         0         0         0         0         0
         0         0         0         0         0         0         0         0
         0         0         0         0         0         0         0         0
         0         0         0         0         0         0         0         0
         0         0         0         0         0         0         0         0
         0         0         0         0         0         0         0         0
         0         0         0         0         0         0         0         0
         0         0         0         0         0         0         0         0
         0         0         0         0         0         0         0         0
         0         0         0         0         0         0         0         0
         0         0         0         0         0         0         0         0
         0         0         0         0         0         0         0         0
         0         0         0         0         0         0         0         0
         0         0         0         0         0         0         0         0
         0         0         0         0         0         0         0         0
         0         0         0         0         0         0         0         0
         0         0         0         0         0         0         0         0
         0         0         0         0         0         0         0         0
         0         0         0         0         0         0         0         0
         0         0         0         0         0         0         0         0
         0         0         0         0         0         0         0         0
         0         0         0         0         0         0         0         0
         0         0         0         0         0         0         0         0
         0         0         0         0         0         0         0         0
         0         0         0         0         0         0         0         0
         0         0         0         0         0         0         0         0
         0         0         0         0         0         0         0         0
         0         0         0         0         0         0         0         0
         0         0         0         0         0         0         0         0
         0         0         0         0         0         0         0         0
         0         0         0         0         0         0         0         0
         0         0         0         0         0         0         0         0
         0         0         0         0         0         0         0         0
         0         0         0         0         0         0         0         0
         0         0         0         0         0         0         0         0
         0         0         0         0         0         0         0         0
         0         0         0         0         0         0         0         0
         0         0         0         0         0         0         0         0
         0         0         0         0         0         0         0         0
         0         0         0         0         0         0         0         0
         0         0         0         0         0         0         0         0
         0         0         0         0         0         0         0         0
         0         0         0         0         0         0         0         0
         0         0         0         0         0         0         0         0
         0         0         0         0         0         0         0         0
         0         0         0         0         0         0         0         0
         0         0         0         0         0         0         0         0
         0         0         0         0         0         0         0         0
         0         0         0         0         0         0         0         0
         0         0         0         0         0         0         0         0
         0         0         0         0         0         0         0         0
         0         0         0         0         0         0         0         0
         0         0         0         0         0         0         0         0
         0         0         0         0         0         0         0         0
         0         0         0         0         0         0         0         0
         0         0         0         0         0         0         0         0
         0         0         0         0         0         0         0         0
         0         0         0         0         0         0         0         0
         0         0         0         0         0         0         0         0
         0         0         0         0         0         0         0         0
         0         0         0         0         0         0         0         0
         0         0         0         0         0         0         0         0
         0         0         0         0         0         0         0         0
         0         0         0         0         0         0         0         0
         0         0         0         0         0         0         0         0
         0         0         0         0         0         0         0         0
         0         0         0         0         0         0         0         0
         0         0         0         0         0         0         0         0
         0         0         0         0         0         0         0         0
         0         0         0         0         0         0         0         0
         0         0         0         0         0         0         0         0
         0         0         0         0         0         0         0         0
         0         0         0         0         0         0         0         0
         0         0         0         0         0         0         0         0
         0         0         0         0         0         0         0         0
         0         0         0         0         0         0         0         0
         0         0         0         0         0         0         0         0
         0         0         0         0         0         0         0         0
         0         0         0         0         0         0         0         0
         0         0         0         0         0         0         0         0
         0         0         0         0         0         0         0         0
         0         0         0         0         0         0         0         0
         0         0         0         0         0         0         0         0
         0         0         0         0         0         0         0         0
         0         0         0         0         0         0         0         0
         0         0         0         0         0         0         0         0
         0         0         0         0         0         0         0         0
         0         0         0         0         0         0         0         0
         0         0         0         0         0         0         0         0
         0         0         0         0         0         0         0         0
         0         0         0         0         0         0         0         0
         0         0         0         0         0         0         0         0
         0         0         0         0         0         0         0         0
         0         0         0         0         0         0         0         0
         0         0         0         0         0         0         0         0
         0         0         0         0         0         0         0         0
         0         0         0         0         0         0         0         0
         0         0         0         0         0         0         0         0
         0         0         0         0         0         0         0         0
         0         0         0         0         0         0         0         0
         0         0         0         0         0         0         0         0
         0         0         0         0         0         0         0         0
         0         0         0         0         0         0         0         0
         0         0         0         0         0         0         0         0
         0         0         0         0         0         0         0         0
         0         0         0         0         0         0         0         0
         0         0         0         0         0         0         0         0
         0         0         0         0         0         0         0         0
         0         0         0         0         0         0         0         0
         0         0         0         0         0         0         0         0
         0         0         0         0         0         0         0         0
         0         0         0         0         0         0         0         0
         0         0         0         0         0         0         0         0
         0         0         0         0         0         0         0         0
         0         0         0         0         0         0         0         0
         0         0         0         0         0         0         0         0
         0         0         0         0         0         0         0         0
         0         0         0         0         0         0         0         0
         0         0         0         0         0         0         0         0
         0         0         0         0         0         0         0         0
         0         0         0         0         0         0         0         0
         0         0         0         0         0         0         0         0
         0         0         0         0         0         0         0         0
         0         0         0         0         0         0         0         0
         0         0         0         0         0         0         0         0
         0         0         0         0         0         0         0         0
         0         0         0         0         0         0         0         0
         0         0         0         0         0         0         0         0
         0         0         0         0         0         0         0         0
         0         0         0         0         0         0         0         0
         0         0         0         0         0         0         0         0
         0         0         0         0         0         0         0         0
         0         0         0         0         0         0         0         0
         0         0         0         0         0         0         0         0
         0         0         0         0         0         0         0         0
         0         0         0         0         0         0         0         0
         0         0         0         0         0         0         0         0
         0         0         0         0         0         0         0         0
         0         0         0         0         0         0         0         0
         0         0         0         0         0         0         0         0
         0         0         0         0         0         0         0         0
         0         0         0         0         0         0         0         0
         0         0         0         0         0         0         0         0
         0         0         0         0         0         0         0         0
         0         0         0         0         0         0         0         0
         0         0         0         0         0         0         0         0
         0         0         0         0         0         0         0         0
         0         0         0         0         0         0         0         0
         0         0         0         0         0         0         0         0
         0         0         0         0         0         0         0         0
         0         0         0         0         0         0         0         0
         0         0         0         0         0         0         0         0
         0         0         0         0         0         0         0         0
         0         0         0         0         0         0         0         0
         0         0         0         0         0         0         0         0
         0         0         0         0         0         0         0         0
         0         0         0         0         0         0         0         0
         0         0         0         0         0         0         0         0
         0         0         0         0         0         0         0         0
         0         0         0         0         0         0         0         0
         0         0         0         0         0         0         0         0
         0         0         0         0         0         0         0         0
         0         0         0         0         0         0         0         0
         0         0         0         0         0         0         0         0
         0         0         0         0         0         0         0         0
         0         0         0         0         0         0         0         0
         0         0         0         0         0         0         0         0
         0         0         0         0         0         0         0         0
         0         0         0         0         0         0         0         0
         0         0         0         0         0         0         0         0
         0         0         0         0         0         0         0         0
         0         0         0         0         0         0         0         0
         0         0         0         0         0         0         0         0
         0         0         0         0         0         0         0         0
         0         0         0         0         0         0         0         0
         0         0         0         0         0         0         0         0
         0         0         0         0         0         0         0         0
         0         0         0         0         0         0         0         0
         0         0         0         0         0         0         0         0
         0         0         0         0         0         0         0         0
         0         0         0         0         0         0         0         0
         0         0         0         0         0         0         0         0
         0         0         0         0         0         0         0         0
         0         0         0         0         0         0         0         0
         0         0         0         0         0         0         0         0
         0         0         0         0         0         0         0         0
         0         0         0         0         0         0         0         0
         0         0         0         0         0         0         0         0
         0         0         0         0         0         0         0         0
         0         0         0         0         0         0         0         0
         0         0         0         0         0         0         0         0
         0         0         0         0         0         0         0         0
         0         0         0         0         0         0         0         0
         0         0         0         0         0         0         0         0
         0         0         0         0         0         0         0         0
         0         0         0         0         0         0         0         0
         0         0         0         0         0         0         0         0
         0         0         0         0         0         0         0         0
         0         0         0         0         0         0         0         0
         0         0         0         0         0         0         0         0
         0         0         0         0         0         0         0         0
         0         0         0         0         0         0         0         0
         0         0         0         0         0         0         0         0
         0         0         0         0         0         0         0         0
         0         0         0         0         0         0         0         0
         0         0         0         0         0         0         0         0
         0         0         0         0         0         0         0         0
         0         0         0         0         0         0         0         0
         0         0         0         0         0         0         0         0
         0         0         0         0         0         0         0         0
         0         0         0         0         0         0         0         0
         0         0         0         0         0         0         0         0
         0         0         0         0         0         0         0         0
         0         0         0         0         0         0         0         0
         0         0         0         0         0         0         0         0
         0         0         0         0         0         0         0         0
         0         0         0         0         0         0         0         0
         0         0         0         0         0         0         0         0
         0         0         0         0         0         0         0         0
         0         0         0         0         0         0         0         0
         0         0         0         0         0         0         0         0
         0         0         0         0         0         0         0         0
         0         0         0         0         0         0         0         0
         0         0         0         0         0         0         0         0
         0         0         0         0         0         0         0         0
         0         0         0         0         0         0         0         0
         0         0         0         0         0         0         0         0
         0         0         0         0         0         0         0         0
         0         0         0         0         0         0         0         0
         0         0         0         0         0         0         0         0
         0         0         0         0         0         0         0         0
         0         0         0         0         0         0         0         0
         0         0         0         0         0         0         0         0
         0         0         0         0         0         0         0         0
         0         0         0         0         0         0         0         0
         0         0         0         0         0         0         0         0
         0         0         0         0         0         0         0         0
         0         0         0         0         0         0         0         0
         0         0         0         0         0         0         0         0
         0         0         0         0         0         0         0         0
         0         0         0         0         0         0         0         0
         0         0         0         0         0         0         0         0
         0         0         0         0         0         0         0         0
         0         0         0         0         0         0         0         0
         0         0         0         0         0         0         0         0
         0         0         0         0         0         0         0         0
         0         0         0         0         0         0         0         0
         0         0         0         0         0         0         0         0
         0         0         0         0         0         0         0         0
         0         0         0         0         0         0         0         0
         0         0         0         0         0         0         0         0
         0         0         0         0         0         0         0         0
         0         0         0         0         0         0         0         0
         0         0         0         0         0         0         0         0
         0         0         0         0         0         0         0         0
         0         0         0         0         0         0         0         0
         0         0         0         0         0         0         0         0
         0         0         0         0         0         0         0         0
         0         0         0         0         0         0         0         0
         0         0         0         0         0         0         0         0
         0         0         0         0         0         0         0         0
         0         0         0         0         0         0         0         0
         0         0         0         0         0         0         0         0
         0         0         0         0         0         0         0         0
         0         0         0         0         0         0         0         0
         0         0         0         0         0         0         0         0
         0         0         0         0         0         0         0         0
         0         0         0         0         0         0         0         0
         0         0         0         0         0         0         0         0
         0         0         0         0         0         0         0         0
         0         0         0         0         0         0         0         0
         0         0         0         0         0         0         0         0
         0         0         0         0         0         0         0         0
         0         0         0         0         0         0         0         0
         0         0         0         0         0         0         0         0
         0         0         0         0         0         0         0         0
         0         0         0         0         0         0         0         0
         0         0         0         0         0         0         0         0
         0         0         0         0         0         0         0         0
         0         0         0         0         0         0         0         0
         0         0         0         0         0         0         0         0
         0         0         0         0         0         0         0         0
         0         0         0         0         0         0         0         0
         0         0         0         0         0         0         0         0
         0         0         0         0         0         0         0         0
         0         0         0         0         0         0         0         0
         0         0         0         0         0         0         0         0
         0         0         0         0         0         0         0         0
         0         0         0         0         0         0         0         0
         0         0         0         0         0         0         0         0
         0         0         0         0         0         0         0         0
         0         0         0         0         0         0         0         0
         0         0         0         0         0         0         0         0
         0         0         0         0         0         0         0         0
         0         0         0         0         0         0         0         0
         0         0         0         0         0         0         0         0
         0         0         0         0         0         0         0         0
         0         0         0         0         0         0         0         0
         0         0         0         0         0         0         0         0
         0         0         0         0         0         0         0         0
         0         0         0         0         0         0         0         0
         0         0         0         0         0         0         0         0
         0         0         0         0         0         0         0         0
         0         0         0         0         0         0         0         0
         0         0         0         0         0         0         0         0
         0         0         0         0         0         0         0         0
         0         0         0         0         0         0         0         0
         0         0         0         0         0         0         0         0
         0         0         0         0         0         0         0         0
         0         0         0         0         0         0         0         0
         0         0         0         0         0         0         0         0
         0         0         0         0         0         0         0         0
         0         0         0         0         0         0         0         0
         0         0         0         0         0         0         0         0
         0         0         0         0         0         0         0         0
         0         0         0         0         0         0         0         0
         0         0         0         0         0         0         0         0
         0         0         0         0         0         0         0         0
         0         0         0         0         0         0         0         0
         0         0         0         0         0         0         0         0
         0         0         0         0         0         0         0         0
         0         0         0         0         0         0         0         0
         0         0         0         0         0         0         0         0
         0         0         0         0         0         0         0         0
         0         0         0         0         0         0         0         0
         0         0         0         0         0         0         0         0
         0         0         0         0         0         0         0         0
         0         0         0         0         0         0         0         0
         0         0         0         0         0         0         0         0
         0         0         0         0         0         0         0         0
         0         0         0         0         0         0         0         0
         0         0         0         0         0         0         0         0
         0         0         0         0         0         0         0         0
         0         0         0         0         0         0         0         0
         0         0         0         0         0         0         0         0
         0         0         0         0         0         0         0         0
         0         0         0         0         0         0         0         0
         0         0         0         0         0         0         0         0
         0         0         0         0         0         0         0         0
         0         0         0         0         0         0         0         0
         0         0         0         0         0         0         0         0
         0         0         0         0         0         0         0         0
         0         0         0         0         0         0         0         0
         0         0         0         0         0         0         0         0
         0         0         0         0         0         0         0         0
         0         0         0         0         0         0         0         0
         0         0         0         0         0         0         0         0
         0         0         0         0         0         0         0         0
         0         0         0         0         0         0         0         0
         0         0         0         0         0         0         0         0
         0         0         0         0         0         0         0         0
         0         0         0         0         0         0         0         0
         0         0         0         0         0         0         0         0
         0         0         0         0         0         0         0         0
         0         0         0         0         0         0         0         0
         0         0         0         0         0         0         0         0
         0         0         0         0         0         0         0         0
         0         0         0         0         0         0         0         0
         0         0         0         0         0         0         0         0
         0         0         0         0         0         0         0         0
         0         0         0         0         0         0         0         0
         0         0         0         0         0         0         0         0
         0         0         0         0         0         0         0         0
         0         0         0         0         0         0         0         0
         0         0         0         0         0         0         0         0
         0         0         0         0         0         0         0         0
         0         0         0         0         0         0         0         0
         0         0         0         0         0         0         0         0
         0         0         0         0         0         0         0         0
         0         0         0         0         0         0         0         0
         0         0         0         0         0         0         0         0
         0         0         0         0         0         0         0         0
         0         0         0         0         0         0         0         0
         0         0         0         0         0         0         0         0
         0         0         0         0         0         0         0         0
         0         0         0         0         0         0         0         0
         0         0         0         0         0         0         0         0
         0         0         0         0         0         0         0         0
         0         0         0         0         0         0         0         0
         0         0         0         0         0         0         0         0
         0         0         0         0         0         0         0         0
         0         0         0         0         0         0         0         0
         0         0         0         0         0         0         0         0
         0         0         0         0         0         0         0         0
         0         0         0         0         0         0         0         0
         0         0         0         0         0         0         0         0
         0         0         0         0         0         0         0         0
         0         0         0         0         0         0         0         0
         0         0         0         0         0         0         0         0
         0         0         0         0         0         0         0         0
         0         0         0         0         0         0         0         0
         0         0         0         0         0         0         0         0
         0         0         0         0         0         0         0         0
         0         0         0         0         0         0         0         0
         0         0         0         0         0         0         0         0
         0         0         0         0         0         0         0         0
         0         0         0         0         0         0         0         0
         0         0         0         0         0         0         0         0
         0         0         0         0         0         0         0         0
         0         0         0         0         0         0         0         0
         0         0         0         0         0         0         0         0
         0         0         0         0         0         0         0         0
         0         0         0         0         0         0         0         0
         0         0         0         0         0         0         0         0
         0         0         0         0         0         0         0         0
         0         0         0         0         0         0         0         0
         0         0         0         0         0         0         0         0
         0         0         0         0         0         0         0         0
         0         0         0         0         0         0         0         0
         0         0         0         0         0         0         0         0
         0         0         0         0         0         0         0         0
         0         0         0         0         0         0         0         0
         0         0         0         0         0         0         0         0
         0         0         0         0         0         0         0         0
         0         0         0         0         0         0         0         0
         0         0         0         0         0         0         0         0
         0         0         0         0         0         0         0         0
         0         0         0         0         0         0         0         0
         0         0         0         0         0         0         0         0
         0         0         0         0         0         0         0         0
         0         0         0         0         0         0         0         0
         0         0         0         0         0         0         0         0
         0         0         0         0         0         0         0         0
         0         0         0         0         0         0         0         0
         0         0         0         0         0         0         0         0
         0         0         0         0         0         0         0         0
         0         0         0         0         0         0         0         0
         0         0         0         0         0         0         0         0
         0         0         0         0         0         0         0         0
         0         0         0         0         0         0         0         0
         0         0         0         0         0         0         0         0
         0         0         0         0         0         0         0         0
         0         0         0         0         0         0         0         0
         0         0         0         0         0         0         0         0
         0         0         0         0         0         0         0         0
         0         0         0         0         0         0         0         0
         0         0         0         0         0         0         0         0
         0         0         0         0         0         0         0         0
         0         0         0         0         0         0         0         0
         0         0         0         0         0         0         0         0
         0         0         0         0         0         0         0         0
         0         0         0         0         0         0         0         0
         0         0         0         0         0         0         0         0
         0         0         0         0         0         0         0         0
         0         0         0         0         0         0         0         0
         0         0         0         0         0         0         0         0
         0         0         0         0         0         0         0         0
         0         0         0         0         0         0         0         0
         0         0         0         0         0         0         0         0
         0         0         0         0         0         0         0         0
         0         0         0         0         0         0         0         0
         0         0         0         0         0         0         0         0
         0         0         0         0         0         0         0         0
         0         0         0         0         0         0         0         0
         0         0         0         0         0         0         0         0
         0         0         0         0         0         0         0         0
         0         0         0         0         0         0         0         0
         0         0         0         0         0         0         0         0
         0         0         0         0         0         0         0         0
         0         0         0         0         0         0         0         0
         0         0         0         0         0         0         0         0
         0         0         0         0         0         0         0         0
         0         0         0         0         0         0         0         0
         0         0         0         0         0         0         0         0
         0         0         0         0         0         0         0         0
         0         0         0         0         0         0         0         0
         0         0         0         0         0         0         0         0
         0         0         0         0         0         0         0         0
         0         0         0         0         0         0         0         0
         0         0         0         0         0         0         0         0
         0         0         0         0         0         0         0         0
         0         0         0         0         0         0         0         0
         0         0         0         0         0         0         0         0
         0         0         0         0         0         0         0         0
         0         0         0         0         0         0         0         0
         0         0         0         0         0         0         0         0
         0         0         0         0         0         0         0         0
         0         0         0         0         0         0         0         0
         0         0         0         0         0         0         0         0
         0         0         0         0         0         0         0         0
         0         0         0         0         0         0         0         0
         0         0         0         0         0         0         0         0
         0         0         0         0         0         0         0         0
         0         0         0         0         0         0         0         0
         0         0         0         0         0         0         0         0
         0         0         0         0         0         0         0         0
         0         0         0         0         0         0         0         0
         0         0         0         0         0         0         0         0
         0         0         0         0         0         0         0         0
         0         0         0         0         0         0         0         0
         0         0         0         0         0         0         0         0
         0         0         0         0         0         0         0         0
         0         0         0         0         0         0         0         0
         0         0         0         0         0         0         0         0
         0         0         0         0         0         0         0         0
         0         0         0         0         0         0         0         0
         0         0         0         0         0         0         0         0
         0         0         0         0         0         0         0         0
         0         0         0         0         0         0         0         0
         0         0         0         0         0         0         0         0
         0         0         0         0         0         0         0         0
         0         0         0         0         0         0         0         0
         0         0         0         0         0         0         0         0
         0         0         0         0         0         0         0         0
         0         0         0         0         0         0         0         0
         0         0         0         0         0         0         0         0
         0         0         0         0         0         0         0         0
         0         0         0         0         0         0         0         0
         0         0         0         0         0         0         0         0
         0         0         0         0         0         0         0         0
         0         0         0         0         0         0         0         0
         0         0         0         0         0         0         0         0
         0         0         0         0         0         0         0         0
         0         0         0         0         0         0         0         0
         0         0         0         0         0         0         0         0
         0         0         0         0         0         0         0         0
         0         0         0         0         0         0         0         0
         0         0         0         0         0         0         0         0
         0         0         0         0         0         0         0         0
         0         0         0         0         0         0         0         0
         0         0         0         0         0         0         0         0
         0         0         0         0         0         0         0         0
         0         0         0         0         0         0         0         0
         0         0         0         0         0         0         0         0
         0         0         0         0         0         0         0         0
         0         0         0         0         0         0         0         0
         0         0         0         0         0         0         0         0
         0         0         0         0         0         0         0         0
         0         0         0         0         0         0         0         0
         0         0         0         0         0         0         0         0
         0         0         0         0         0         0         0         0
         0         0         0         0         0         0         0         0
         0         0         0         0         0         0         0         0
         0         0         0         0         0         0         0         0
         0         0         0         0         0         0         0         0
         0         0         0         0         0         0         0         0
         0         0         0         0         0         0         0         0
         0         0         0         0         0         0         0         0
         0         0         0         0         0         0         0         0
         0         0         0         0         0         0         0         0
         0         0         0         0         0         0         0         0
         0         0         0         0         0         0         0         0
         0         0         0         0         0         0         0         0
         0         0         0         0         0         0         0         0
         0         0         0         0         0         0         0         0
         0         0         0         0         0         0         0         0
         0         0         0         0         0         0         0         0
         0         0         0         0         0         0         0         0
         0         0         0         0         0         0         0         0
         0         0         0         0         0         0         0         0
         0         0         0         0         0         0         0         0
         0         0         0         0         0         0         0         0
         0         0         0         0         0         0         0         0
         0         0         0         0         0         0         0         0
         0         0         0         0         0         0         0         0
         0         0         0         0         0         0         0         0
         0         0         0         0         0         0         0         0
         0         0         0         0         0         0         0         0
         0         0         0         0         0         0         0         0
         0         0         0         0         0         0         0         0
         0         0         0         0         0         0         0         0
         0         0         0         0         0         0         0         0
         0         0         0         0         0         0         0         0
         0         0         0         0         0         0         0         0
         0         0         0         0         0         0         0         0
         0         0         0         0         0         0         0         0
         0         0         0         0         0         0         0         0
         0         0         0         0         0         0         0         0
         0         0         0         0         0         0         0         0
         0         0         0         0         0         0         0         0
         0         0         0         0         0         0         0         0
         0         0         0         0         0         0         0         0
         0         0         0         0         0         0         0         0
         0         0         0         0         0         0         0         0
         0         0         0         0         0         0         0         0
         0         0         0         0         0         0         0         0
         0         0         0         0         0         0         0         0
         0         0         0         0         0         0         0         0
         0         0         0         0         0         0         0         0
         0         0         0         0         0         0         0         0
         0         0         0         0         0         0         0         0
         0         0         0         0         0         0         0         0
         0         0         0         0         0         0         0         0
         0         0         0         0         0         0         0         0
         0         0         0         0         0         0         0         0
         0         0         0         0         0         0         0         0
         0         0         0         0         0         0         0         0
         0         0         0         0         0         0         0         0
         0         0         0         0         0         0         0         0
         0         0         0         0         0         0         0         0
         0         0         0         0         0         0         0         0
         0         0         0         0         0         0         0         0
         0         0         0         0         0         0         0         0
         0         0         0         0         0         0         0         0
         0         0         0         0         0         0         0         0
         0         0         0         0         0         0         0         0
         0         0         0         0         0         0         0         0
         0         0         0         0         0         0         0         0
         0         0         0         0         0         0         0         0
         0         0         0         0         0         0         0         0
         0         0         0         0         0         0         0         0
         0         0         0         0         0         0         0         0
         0         0         0         0         0         0         0         0
         0         0         0         0         0         0         0         0
         0         0         0         0         0         0         0         0
         0         0         0         0         0         0         0         0
         0         0         0         0         0         0         0         0
         0         0         0         0         0         0         0         0
         0         0         0         0         0         0         0         0
         0         0         0         0         0         0         0         0
         0         0         0         0         0         0         0         0
         0         0         0         0         0         0         0         0
         0         0         0         0         0         0         0         0
         0         0         0         0         0         0         0         0
         0         0         0         0         0         0         0         0
         0         0         0         0         0         0         0         0
         0         0         0         0         0         0         0         0
         0         0         0         0         0         0         0         0
         0         0         0         0         0         0         0         0
         0         0         0         0         0         0         0         0
         0         0         0         0         0         0         0         0
         0         0         0         0         0         0         0         0
         0         0         0         0         0         0         0         0
         0         0         0         0         0         0         0         0
         0         0         0         0         0         0         0         0
         0         0         0         0         0         0         0         0
         0         0         0         0         0         0         0         0
         0         0         0         0         0         0         0         0
         0         0         0         0         0         0         0         0
         0         0         0         0         0         0         0         0
         0         0         0         0         0         0         0         0
         0         0         0         0         0         0         0         0
         0         0         0         0         0         0         0         0
         0         0         0         0         0         0         0         0
         0         0         0         0         0         0         0         0
         0         0         0         0         0         0         0         0
         0         0         0         0         0         0         0         0
         0         0         0         0         0         0         0         0
         0         0         0         0         0         0         0         0
         0         0         0         0         0         0         0         0
         0         0         0         0         0         0         0         0
         0         0         0         0         0         0         0         0
         0         0         0         0         0         0         0         0
         0         0         0         0         0         0         0         0
         0         0         0         0         0         0         0         0
         0         0         0         0         0         0         0         0
         0         0         0         0         0         0         0         0
         0         0         0         0         0         0         0         0
         0         0         0         0         0         0         0         0
         0         0         0         0         0         0         0         0
         0         0         0         0         0         0         0         0
         0         0         0         0         0         0         0         0
         0         0         0         0         0         0         0         0
         0         0         0         0         0         0         0         0
         0         0         0         0         0         0         0         0
         0         0         0         0         0         0         0         0
         0         0         0         0         0         0         0         0
         0         0         0         0         0         0         0         0
         0         0         0         0         0         0         0         0
         0         0         0         0         0         0         0         0
         0         0         0         0         0         0         0         0
         0         0         0         0         0         0         0         0
         0         0         0         0         0         0         0         0
         0         0         0         0         0         0         0         0
         0         0         0         0         0         0         0         0
         0         0         0         0         0         0         0         0
         0         0         0         0         0         0         0         0
         0         0         0         0         0         0         0         0
         0         0         0         0         0         0         0         0
         0         0         0         0         0         0         0         0
         0         0         0         0         0         0         0         0
         0         0         0         0         0         0         0         0
         0         0         0         0         0         0         0         0
         0         0         0         0         0         0         0         0
         0         0         0         0         0         0         0         0
         0         0         0         0         0         0         0         0
         0         0         0         0         0         0         0         0
         0         0         0         0         0         0         0         0
         0         0         0         0         0         0         0         0
         0         0         0         0         0         0         0         0
         0         0         0         0         0         0         0         0
         0         0         0         0         0         0         0         0
         0         0         0         0         0         0         0         0
         0         0         0         0         0         0         0         0
         0         0         0         0         0         0         0         0
         0         0         0         0         0         0         0         0
         0         0         0         0         0         0         0         0
         0         0         0         0         0         0         0         0
         0         0         0         0         0         0         0         0
         0         0         0         0         0         0         0         0
         0         0         0         0         0         0         0         0
         0         0         0         0         0         0         0         0
         0         0         0         0         0         0         0         0
         0         0         0         0         0         0         0         0
         0         0         0         0         0         0         0         0
         0         0         0         0         0         0         0         0
         0         0         0         0         0         0         0         0
         0         0         0         0         0         0         0         0
         0         0         0         0         0         0         0         0
         0         0         0         0         0         0         0         0
         0         0         0         0         0         0         0         0
         0         0         0         0         0         0         0         0
         0         0         0         0         0         0         0         0
         0         0         0         0         0         0         0         0
         0         0         0         0         0         0         0         0
         0         0         0         0         0         0         0         0
         0         0         0         0         0         0         0         0
         0         0         0         0         0         0         0         0
         0         0         0         0         0         0         0         0
         0         0         0         0         0         0         0         0
         0         0         0         0         0         0         0         0
         0         0         0         0         0         0         0         0
         0         0         0         0         0         0         0         0
         0         0         0         0         0         0         0         0
         0         0         0         0         0         0         0         0
         0         0         0         0         0         0         0         0
         0         0         0         0         0         0         0         0
         0         0         0         0         0         0         0         0
         0         0         0         0         0         0         0         0
         0         0         0         0         0         0         0         0
         0         0         0         0         0         0         0         0
         0         0         0         0         0         0         0         0
         0         0         0         0         0         0         0         0
         0         0         0         0         0         0         0         0
         0         0         0         0         0         0         0         0
         0         0         0         0         0         0         0         0
         0         0         0         0         0         0         0         0
         0         0         0         0         0         0         0         0
         0         0         0         0         0         0         0         0
         0         0         0         0         0         0         0         0
         0         0         0         0         0         0         0         0
         0         0         0         0         0         0         0         0
         0         0         0         0         0         0         0         0
         0         0         0         0         0         0         0         0
         0         0         0         0         0         0         0         0
         0         0         0         0         0         0         0         0
         0         0         0         0         0         0         0         0
         0         0         0         0         0         0         0         0
         0         0         0         0         0         0         0         0
         0         0         0         0         0         0         0         0
         0         0         0         0         0         0         0         0
         0         0         0         0         0         0         0         0
         0         0         0         0         0         0         0         0
         0         0         0         0         0         0         0         0
         0         0         0         0         0         0         0         0
         0         0         0         0         0         0         0         0
         0         0         0         0         0         0         0         0
         0         0         0         0         0         0         0         0
         0         0         0         0         0         0         0         0
         0         0         0         0         0         0         0         0
         0         0         0         0         0         0         0         0
         0         0         0         0         0         0         0         0
         0         0         0         0         0         0         0         0
         0         0         0         0         0         0         0         0
         0         0         0         0         0         0         0         0
         0         0         0         0         0         0         0         0
         0         0         0         0         0         0         0         0
         0         0         0         0         0         0         0         0
         0         0         0         0         0         0         0         0
         0         0         0         0         0         0         0         0
         0         0         0         0         0         0         0         0
         0         0         0         0         0         0         0         0
         0         0         0         0         0         0         0         0
         0         0         0         0         0         0         0         0
         0         0         0         0         0         0         0         0
         0         0         0         0         0         0         0         0
         0         0         0         0         0         0         0         0
         0         0         0         0         0         0         0         0
         0         0         0         0         0         0         0         0
         0         0         0         0         0         0         0         0
         0         0         0         0         0         0         0         0
         0         0         0         0         0         0         0         0
         0         0         0         0         0         0         0         0
         0         0         0         0         0         0         0         0
         0         0         0         0         0         0         0         0
         0         0         0         0         0         0         0         0
         0         0         0         0         0         0         0         0
         0         0         0         0         0         0         0         0
         0         0         0         0         0         0         0         0
         0         0         0         0         0         0         0         0
         0         0         0         0         0         0         0         0
         0         0         0         0         0         0         0         0
         0         0         0         0         0         0         0         0
         0         0         0         0         0         0         0         0
         0         0         0         0         0         0         0         0
         0         0         0         0         0         0         0         0
         0         0         0         0         0         0         0         0
         0         0         0         0         0         0         0         0
         0         0         0         0         0         0         0         0
         0         0         0         0         0         0         0         0
         0         0         0         0         0         0         0         0
         0         0         0         0         0         0         0         0
         0         0         0         0         0         0         0         0
         0         0         0         0         0         0         0         0
         0         0         0         0         0         0         0         0
         0         0         0         0         0         0         0         0
         0         0         0         0         0         0         0         0
         0         0         0         0         0         0         0         0
         0         0         0         0         0         0         0         0
         0         0         0         0         0         0         0         0
         0         0         0         0         0         0         0         0
         0         0         0         0         0         0         0         0
         0         0         0         0         0         0         0         0
         0         0         0         0         0         0         0         0
         0         0         0         0         0         0         0         0
         0         0         0         0         0         0         0         0
         0         0         0         0         0         0         0         0
         0         0         0         0         0         0         0         0
         0         0         0         0         0         0         0         0
         0         0         0         0         0         0         0         0
         0         0         0         0         0         0         0         0
         0         0         0         0         0         0         0         0
         0         0         0         0         0         0         0         0
         0         0         0         0         0         0         0         0
         0         0         0         0         0         0         0         0
         0         0         0         0         0         0         0         0
         0         0         0         0         0         0         0         0
         0         0         0         0         0         0         0         0
         0         0         0         0         0         0         0         0
         0         0         0         0         0         0         0         0
         0         0         0         0         0         0         0         0
         0         0         0         0         0         0         0         0
         0         0         0         0         0         0         0         0
         0         0         0         0         0         0         0         0
         0         0         0         0         0         0         0         0
         0         0         0         0         0         0         0         0
         0         0         0         0         0         0         0         0
         0         0         0         0         0         0         0         0
         0         0         0         0         0         0         0         0
         0         0         0         0         0         0         0         0
         0         0         0         0         0         0         0         0
         0         0         0         0         0         0         0         0
         0         0         0         0         0         0         0         0
         0         0         0         0         0         0         0         0
         0         0         0         0         0         0         0         0
         0         0         0         0         0         0         0         0
         0         0         0         0         0         0         0         0
         0         0         0         0         0         0         0         0
         0         0         0         0         0         0         0         0
         0         0         0         0         0         0         0         0
         0         0         0         0         0         0         0         0
         0         0         0         0         0         0         0         0
         0         0         0         0         0         0         0         0
         0         0         0         0         0         0         0         0
         0         0         0         0         0         0         0         0
         0         0         0         0         0         0         0         0
         0         0         0         0         0         0         0         0
         0         0         0         0         0         0         0         0
         0         0         0         0         0         0         0         0
         0         0         0         0         0         0         0         0
         0         0         0         0         0         0         0         0
         0         0         0         0         0         0         0         0
         0         0         0         0         0         0         0         0
         0         0         0         0         0         0         0         0
         0         0         0         0         0         0         0         0
         0         0         0         0         0         0         0         0
         0         0         0         0         0         0         0         0
         0         0         0         0         0         0         0         0
         0         0         0         0         0         0         0         0
         0         0         0         0         0         0         0         0
         0         0         0         0         0         0         0         0
         0         0         0         0         0         0         0         0
         0         0         0         0         0         0         0         0
         0         0         0         0         0         0         0         0
         0         0         0         0         0         0         0         0
         0         0         0         0         0         0         0         0
         0         0         0         0         0         0         0         0
         0         0         0         0         0         0         0         0
         0         0         0         0         0         0         0         0
         0         0         0         0         0         0         0         0
         0         0         0         0         0         0         0         0
         0         0         0         0         0         0         0         0
         0         0         0         0         0         0         0         0
         0         0         0         0         0         0         0         0
         0         0         0         0         0         0         0         0
         0         0         0         0         0         0         0         0
         0         0         0         0         0         0         0         0
         0         0         0         0         0         0         0         0
         0         0         0         0         0         0         0         0
         0         0         0         0         0         0         0         0
         0         0         0         0         0         0         0         0
         0         0         0         0         0         0         0         0
         0         0         0         0         0         0         0         0
         0         0         0         0         0         0         0         0
         0         0         0         0         0         0         0         0
         0         0         0         0         0         0         0         0
         0         0         0         0         0         0         0         0
         0         0         0         0         0         0         0         0
         0         0         0         0         0         0         0         0
         0         0         0         0         0         0         0         0
         0         0         0         0         0         0         0         0
         0         0         0         0         0         0         0         0
         0         0         0         0         0         0         0         0
         0         0         0         0         0         0         0         0
         0         0         0         0         0         0         0         0
         0         0         0         0         0         0         0         0
         0         0         0         0         0         0         0         0
         0         0         0         0         0         0         0         0
         0         0         0         0         0         0         0         0
         0         0         0         0         0         0         0         0
         0         0         0         0         0         0         0         0
         0         0         0         0         0         0         0         0
         0         0         0         0         0         0         0         0
         0         0         0         0         0         0         0         0
         0         0         0         0         0         0         0         0
         0         0         0         0         0         0         0         0
         0         0         0         0         0         0         0         0
         0         0         0         0         0         0         0         0
         0         0         0         0         0         0         0         0
         0         0         0         0         0         0         0         0
         0         0         0         0         0         0         0         0
         0         0         0         0         0         0         0         0
         0         0         0         0         0         0         0         0
         0         0         0         0         0         0         0         0
         0         0         0         0         0         0         0         0
         0         0         0         0         0         0         0         0
         0         0         0         0         0         0         0         0
         0         0         0         0         0         0         0         0
         0         0         0         0         0         0         0         0
         0         0         0         0         0         0         0         0
         0         0         0         0         0         0         0         0
         0         0         0         0         0         0         0         0
         0         0         0         0         0         0         0         0
         0         0         0         0         0         0         0         0
         0         0         0         0         0         0         0         0
         0         0         0         0         0         0         0         0
         0         0         0         0         0         0         0         0
         0         0         0         0         0         0         0         0
         0         0         0         0         0         0         0         0
         0         0         0         0         0         0         0         0
         0         0         0         0         0         0         0         0
         0         0         0         0         0         0         0         0
         0         0         0         0         0         0         0         0
         0         0         0         0         0         0         0         0
         0         0         0         0         0         0         0         0
         0         0         0         0         0         0         0         0
         0         0         0         0         0         0         0         0
         0         0         0         0         0         0         0         0
         0         0         0         0         0         0         0         0
         0         0         0         0         0         0         0         0
         0         0         0         0         0         0         0         0
         0         0         0         0         0         0         0         0
         0         0         0         0         0         0         0         0
         0         0         0         0         0         0         0         0
         0         0         0         0         0         0         0         0
         0         0         0         0         0         0         0         0
         0         0         0         0         0         0         0         0
         0         0         0         0         0         0         0         0
         0         0         0         0         0         0         0         0
         0         0         0         0         0         0         0         0
         0         0         0         0         0         0         0         0
         0         0         0         0         0         0         0         0
         0         0         0         0         0         0         0         0
         0         0         0         0         0         0         0         0
         0         0         0         0         0         0         0         0
         0         0         0         0         0         0         0         0
         0         0         0         0         0         0         0         0
         0         0         0         0         0         0         0         0
         0         0         0         0         0         0         0         0
         0         0         0         0         0         0         0         0
         0         0         0         0         0         0         0         0
         0         0         0         0         0         0         0         0
         0         0         0         0         0         0         0         0
         0         0         0         0         0         0         0         0
         0         0         0         0         0         0         0         0
         0         0         0         0         0         0         0         0
         0         0         0         0         0         0         0         0
         0         0         0         0         0         0         0         0
         0         0         0         0         0         0         0         0
         0         0         0         0         0         0         0         0
         0         0         0         0         0         0         0         0
         0         0         0         0         0         0         0         0
         0         0         0         0         0         0         0         0
         0         0         0         0         0         0         0         0
         0         0         0         0         0         0         0         0
         0         0         0         0         0         0         0         0
         0         0         0         0         0         0         0         0
         0         0         0         0         0         0         0         0
         0         0         0         0         0         0         0         0
         0         0         0         0         0         0         0         0
         0         0         0         0         0         0         0         0
         0         0         0         0         0         0         0         0
         0         0         0         0         0         0         0         0
         0         0         0         0         0         0         0         0
         0         0         0         0         0         0         0         0
         0         0         0         0         0         0         0         0
         0         0         0         0         0         0         0         0
         0         0         0         0         0         0         0         0
         0         0         0         0         0         0         0         0
         0         0         0         0         0         0         0         0
         0         0         0         0         0         0         0         0
         0         0         0         0         0         0         0         0
         0         0         0         0         0         0         0         0
         0         0         0         0         0         0         0         0
         0         0         0         0         0         0         0         0
         0         0         0         0         0         0         0         0
         0         0         0         0         0         0         0         0
         0         0         0         0         0         0         0         0
         0         0         0         0         0         0         0         0
         0         0         0         0         0         0         0         0
         0         0         0         0         0         0         0         0
         0         0         0         0         0         0         0         0
         0         0         0         0         0         0         0         0
         0         0         0         0         0         0         0         0
         0         0         0         0         0         0         0         0
         0         0         0         0         0         0         0         0
         0         0         0         0         0         0         0         0
         0         0         0         0         0         0         0         0
         0         0         0         0         0         0         0         0
         0         0         0         0         0         0         0         0
         0         0         0         0         0         0         0         0
         0         0         0         0         0         0         0         0
         0         0         0         0         0         0         0         0
         0         0         0         0         0         0         0         0
         0         0         0         0         0         0         0         0
         0         0         0         0         0         0         0         0
         0         0         0         0         0         0         0         0
         0         0         0         0         0         0         0         0
         0         0         0         0         0         0         0         0
         0         0         0         0         0         0         0         0
         0         0         0         0         0         0         0         0
         0         0         0         0         0         0         0         0
         0         0         0         0         0         0         0         0
         0         0         0         0         0         0         0         0
         0         0         0         0         0         0         0         0
         0         0         0         0         0         0         0         0
         0         0         0         0         0         0         0         0
         0         0         0         0         0         0         0         0
         0         0         0         0         0         0         0         0
         0         0         0         0         0         0         0         0
         0         0         0         0         0         0         0         0
         0         0         0         0         0         0         0         0
         0         0         0         0         0         0         0         0
         0         0         0         0         0         0         0         0
         0         0         0         0         0         0         0         0
         0         0         0         0         0         0         0         0
         0         0         0         0         0         0         0         0
         0         0         0         0         0         0         0         0
         0         0         0         0         0         0         0         0
         0         0         0         0         0         0         0         0
         0         0         0         0         0         0         0         0
         0         0         0         0         0         0         0         0
         0         0         0         0         0         0         0         0
         0         0         0         0         0         0         0         0
         0         0         0         0         0         0         0         0
         0         0         0         0         0         0         0         0
         0         0         0         0         0         0         0         0
         0         0         0         0         0         0         0         0
         0         0         0         0         0         0         0         0
         0         0         0         0         0         0         0         0
         0         0         0         0         0         0         0         0
         0         0         0         0         0         0         0         0
         0         0         0         0         0         0         0         0
         0         0         0         0         0         0         0         0
         0         0         0         0         0         0         0         0
         0         0         0         0         0         0         0         0
         0         0         0         0         0         0         0         0
         0         0         0         0         0         0         0         0
         0         0         0         0         0         0         0         0
         0         0         0         0         0         0         0         0
         0         0         0         0         0         0         0         0
         0         0         0         0         0         0         0         0
         0         0         0         0         0         0         0         0
         0         0         0         0         0         0         0         0
         0         0         0         0         0         0         0         0
         0         0         0         0         0         0         0         0
         0         0         0         0         0         0         0         0
         0         0         0         0         0         0         0         0
         0         0         0         0         0         0         0         0
         0         0         0         0         0         0         0         0
         0         0         0         0         0         0         0         0
         0         0         0         0         0         0         0         0
         0         0         0         0         0         0         0         0
         0         0         0         0         0         0         0         0
         0         0         0         0         0         0         0         0
         0         0         0         0         0         0         0         0
         0         0         0         0         0         0         0         0
         0         0         0         0         0         0         0         0
         0         0         0         0         0         0         0         0
         0         0         0         0         0         0         0         0
         0         0         0         0         0         0         0         0
         0         0         0         0         0         0         0         0
         0         0         0         0         0         0         0         0
         0         0         0         0         0         0         0         0
         0         0         0         0         0         0         0         0
         0         0         0         0         0         0         0         0
         0         0         0         0         0         0         0         0
         0         0         0         0         0         0         0         0
         0         0         0         0         0         0         0         0
         0         0         0         0         0         0         0         0
         0         0         0         0         0         0         0         0
         0         0         0         0         0         0         0         0
         0         0         0         0         0         0         0         0
         0         0         0         0         0         0         0         0
         0         0         0         0         0         0         0         0
         0         0         0         0         0         0         0         0
         0         0         0         0         0         0         0         0
         0         0         0         0         0         0         0         0
         0         0         0         0         0         0         0         0
         0         0         0         0         0         0         0         0
         0         0         0         0         0         0         0         0
         0         0         0         0         0         0         0         0
         0         0         0         0         0         0         0         0
         0         0         0         0         0         0         0         0
         0         0         0         0         0         0         0         0
         0         0         0         0         0         0         0         0
         0         0         0         0         0         0         0         0
         0         0         0         0         0         0         0         0
         0         0         0         0         0         0         0         0
         0         0         0         0         0         0         0         0
         0         0         0         0         0         0         0         0
         0         0         0         0         0         0         0         0
         0         0         0         0         0         0         0         0
         0         0         0         0         0         0         0         0
         0         0         0         0         0         0         0         0
         0         0         0         0         0         0         0         0
         0         0         0         0         0         0         0         0
         0         0         0         0         0         0         0         0
         0         0         0         0         0         0         0         0
         0         0         0         0         0         0         0         0
         0         0         0         0         0         0         0         0
         0         0         0         0         0         0         0         0
         0         0         0         0         0         0         0         0
         0         0         0         0         0         0         0         0
         0         0         0         0         0         0         0         0
         0         0         0         0         0         0         0         0
         0         0         0         0         0         0         0         0
         0         0         0         0         0         0         0         0
         0         0         0         0         0         0         0         0
         0         0         0         0         0         0         0         0
         0         0         0         0         0         0         0         0
         0         0         0         0         0         0         0         0
         0         0         0         0         0         0         0         0
         0         0         0         0         0         0         0         0
         0         0         0         0         0         0         0         0
         0         0         0         0         0         0         0         0
         0         0         0         0         0         0         0         0
         0         0         0         0         0         0         0         0
         0         0         0         0         0         0         0         0
         0         0         0         0         0         0         0         0
         0         0         0         0         0         0         0         0
         0         0         0         0         0         0         0         0
         0         0         0         0         0         0         0         0
         0         0         0         0         0         0         0         0
         0         0         0         0         0         0         0         0
         0         0         0         0         0         0         0         0
         0         0         0         0         0         0         0         0
         0         0         0         0         0         0         0         0
         0         0         0         0         0         0         0         0
         0         0         0         0         0         0         0         0
         0         0         0         0         0         0         0         0
         0         0         0         0         0         0         0         0
         0         0         0         0         0         0         0         0
         0         0         0         0         0         0         0         0
         0         0         0         0         0         0         0         0
         0         0         0         0         0         0         0         0
         0         0         0         0         0         0         0         0
         0         0         0         0         0         0         0         0
         0         0         0         0         0         0         0         0
         0         0         0         0         0         0         0         0
         0         0         0         0         0         0         0         0
         0         0         0         0         0         0         0         0
         0         0         0         0         0         0         0         0
         0         0         0         0         0         0         0         0
         0         0         0         0         0         0         0         0
         0         0         0         0         0         0         0         0
         0         0         0         0         0         0         0         0
         0         0         0         0         0         0         0         0
         0         0         0         0         0         0         0         0
         0         0         0         0         0         0         0         0
         0         0         0         0         0         0         0         0
         0         0         0         0         0         0         0         0
         0         0         0         0         0         0         0         0
         0         0         0         0         0         0         0         0
         0         0         0         0         0         0         0         0
         0         0         0         0         0         0         0         0
         0         0         0         0         0         0         0         0
         0         0         0         0         0         0         0         0
         0         0         0         0         0         0         0         0
         0         0         0         0         0         0         0         0
         0         0         0         0         0         0         0         0
         0         0         0         0         0         0         0         0
         0         0         0         0         0         0         0         0
         0         0         0         0         0         0         0         0
         0         0         0         0         0         0         0         0
         0         0         0         0         0         0         0         0
         0         0         0         0         0         0         0         0
         0         0         0         0         0         0         0         0
         0         0         0         0         0         0         0         0
         0         0         0         0         0         0         0         0
         0         0         0         0         0         0         0         0
         0         0         0         0         0         0         0         0
         0         0         0         0         0         0         0         0
         0         0         0         0         0         0         0         0
         0         0         0         0         0         0         0         0
         0         0         0         0         0         0         0         0
         0         0         0         0         0         0         0         0
         0         0         0         0         0         0         0         0
         0         0         0         0         0         0         0         0
         0         0         0         0         0         0         0         0
         0         0         0         0         0         0         0         0
         0         0         0         0         0         0         0         0
         0         0         0         0         0         0         0         0
         0         0         0         0         0         0         0         0
         0         0         0         0         0         0         0         0
         0         0         0         0         0         0         0         0
         0         0         0         0         0         0         0         0
         0         0         0         0         0         0         0         0
         0         0         0         0         0         0         0         0
         0         0         0         0         0         0         0         0
         0         0         0         0         0         0         0         0
         0         0         0         0         0         0         0         0
         0         0         0         0         0         0         0         0
         0         0         0         0         0         0         0         0
         0         0         0         0         0         0         0         0
         0         0         0         0         0         0         0         0
         0         0         0         0         0         0         0         0
         0         0         0         0         0         0         0         0
         0         0         0         0         0         0         0         0
         0         0         0         0         0         0         0         0
         0         0         0         0         0         0         0         0
         0         0         0         0         0         0         0         0
         0         0         0         0         0         0         0         0
         0         0         0         0         0         0         0         0
         0         0         0         0         0         0         0         0
         0         0         0         0         0         0         0         0
         0         0         0         0         0         0         0         0
         0         0         0         0         0         0         0         0
         0         0         0         0         0         0         0         0
         0         0         0         0         0         0         0         0
         0         0         0         0         0         0         0         0
         0         0         0         0         0         0         0         0
         0         0         0         0         0         0         0         0
         0         0         0         0         0         0         0         0
         0         0         0         0         0         0         0         0
         0         0         0         0         0         0         0         0
         0         0         0         0         0         0         0         0
         0         0         0         0         0         0         0         0
         0         0         0         0         0         0         0         0
         0         0         0         0         0         0         0         0
         0         0         0         0         0         0         0         0
         0         0         0         0         0         0         0         0
         0         0         0         0         0         0         0         0
         0         0         0         0         0         0         0         0
         0         0         0         0         0         0         0         0
         0         0         0         0         0         0         0         0
         0         0         0         0         0         0         0         0
         0         0         0         0         0         0         0         0
         0         0         0         0         0         0         0         0
         0         0         0         0         0         0         0         0
         0         0         0         0         0         0         0         0
         0         0         0         0         0         0         0         0
         0         0         0         0         0         0         0         0
         0         0         0         0         0         0         0         0
         0         0         0         0         0         0         0         0
         0         0         0         0         0         0         0         0
         0         0         0         0         0         0         0         0
         0         0         0         0         0         0         0         0
         0         0         0         0         0         0         0         0
         0         0         0         0         0         0         0         0
         0         0         0         0         0         0         0         0
         0         0         0         0         0         0         0         0
         0         0         0         0         0         0         0         0
         0         0         0         0         0         0         0         0
         0         0         0         0         0         0         0         0
         0         0         0         0         0         0         0         0
         0         0         0         0         0         0         0         0
         0         0         0         0         0         0         0         0
         0         0         0         0         0         0         0         0
         0         0         0         0         0         0         0         0
         0         0         0         0         0         0         0         0
         0         0         0         0         0         0         0         0
         0         0         0         0         0         0         0         0
         0         0         0         0         0         0         0         0
         0         0         0         0         0         0         0         0
         0         0         0         0         0         0         0         0
         0         0         0         0         0         0         0         0
         0         0         0         0         0         0         0         0
         0         0         0         0         0         0         0         0
         0         0         0         0         0         0         0         0
         0         0         0         0         0         0         0         0
         0         0         0         0         0         0         0         0
         0         0         0         0         0         0         0         0
         0         0         0         0         0         0         0         0
         0         0         0         0         0         0         0         0
         0         0         0         0         0         0         0         0
         0         0         0         0         0         0         0         0
         0         0         0         0         0         0         0         0
         0         0         0         0         0         0         0         0
         0         0         0         0         0         0         0         0
         0         0         0         0         0         0         0         0
         0         0         0         0         0         0         0         0
         0         0         0         0         0         0         0         0
         0         0         0         0         0         0         0         0
         0         0         0         0         0         0         0         0
         0         0         0         0         0         0         0         0
         0         0         0         0         0         0         0         0
         0         0         0         0         0         0         0         0
         0         0         0         0         0         0         0         0
         0         0         0         0         0         0         0         0
         0         0         0         0         0         0         0         0
         0         0         0         0         0         0         0         0
         0         0         0         0         0         0         0         0
         0         0         0         0         0         0         0         0
         0         0         0         0         0         0         0         0
         0         0         0         0         0         0         0         0
         0         0         0         0         0         0         0         0
         0         0         0         0         0         0         0         0
         0         0         0         0         0         0         0         0
         0         0         0         0         0         0         0         0
         0         0         0         0         0         0         0         0
         0         0         0         0         0         0         0         0
         0         0         0         0         0         0         0         0
         0         0         0         0         0         0         0         0
         0         0         0         0         0         0         0         0
         0         0         0         0         0         0         0         0
         0         0         0         0         0         0         0         0
         0         0         0         0         0         0         0         0
         0         0         0         0         0         0         0         0
         0         0         0         0         0         0         0         0
         0         0         0         0         0         0         0         0
         0         0         0         0         0         0         0         0
         0         0         0         0         0         0         0         0
         0         0         0         0         0         0         0         0
         0         0         0         0         0         0         0         0
         0         0         0         0         0         0         0         0
         0         0         0         0         0         0         0         0
         0         0         0         0         0         0         0         0
         0         0         0         0         0         0         0         0
         0         0         0         0         0         0         0         0
         0         0         0         0         0         0         0         0
         0         0         0         0         0         0         0         0
         0         0         0         0         0         0         0         0
         0         0         0         0         0         0         0         0
         0         0         0         0         0         0         0         0
         0         0         0         0         0         0         0         0
         0         0         0         0         0         0         0         0
         0         0         0         0         0         0         0         0
         0         0         0         0         0         0         0         0
         0         0         0         0         0         0         0         0
         0         0         0         0         0         0         0         0
         0         0         0         0         0         0         0         0
         0         0         0         0         0         0         0         0
         0         0         0         0         0         0         0         0
         0         0         0         0         0         0         0         0
         0         0         0         0         0         0         0         0
         0         0         0         0         0         0         0         0
         0         0         0         0         0         0         0         0
         0         0         0         0         0         0         0         0
         0         0         0         0         0         0         0         0
         0         0         0         0         0         0         0         0
         0         0         0         0         0         0         0         0
         0         0         0         0         0         0         0         0
         0         0         0         0         0         0         0         0
         0         0         0         0         0         0         0         0
         0         0         0         0         0         0         0         0
         0         0         0         0         0         0         0         0
         0         0         0         0         0         0         0         0
         0         0         0         0         0         0         0         0
         0         0         0         0         0         0         0         0
         0         0         0         0         0         0         0         0
         0         0         0         0         0         0         0         0
         0         0         0         0         0         0         0         0
         0         0         0         0         0         0         0         0
         0         0         0         0         0         0         0         0
         0         0         0         0         0         0         0         0
         0         0         0         0         0         0         0         0
         0         0         0         0         0         0         0         0
         0         0         0         0         0         0         0         0
         0         0         0         0         0         0         0         0
         0         0         0         0         0         0         0         0
         0         0         0         0         0         0         0         0
         0         0         0         0         0         0         0         0
         0         0         0         0         0         0         0         0
         0         0         0         0         0         0         0         0
         0         0         0         0         0         0         0         0
         0         0         0         0         0         0         0         0
         0         0         0         0         0         0         0         0
         0         0         0         0         0         0         0         0
         0         0         0         0         0         0         0         0
         0         0         0         0         0         0         0         0
         0         0         0         0         0         0         0         0
         0         0         0         0         0         0         0         0
         0         0         0         0         0         0         0         0
         0         0         0         0         0         0         0         0
         0         0         0         0         0         0         0         0
         0         0         0         0         0         0         0         0
         0         0         0         0         0         0         0         0
         0         0         0         0         0         0         0         0
         0         0         0         0         0         0         0         0
         0         0         0         0         0         0         0         0
         0         0         0         0         0         0         0         0
         0         0         0         0         0         0         0         0
         0         0         0         0         0         0         0         0
         0         0         0         0         0         0         0         0
         0         0         0         0         0         0         0         0
         0         0         0         0         0         0         0         0
         0         0         0         0         0         0         0         0
         0         0         0         0         0         0         0         0
         0         0         0         0         0         0         0         0
         0         0         0         0         0         0         0         0
         0         0         0         0         0         0         0         0
         0         0         0         0         0         0         0         0
         0         0         0         0         0         0         0         0
         0         0         0         0         0         0         0         0
         0         0         0         0         0         0         0         0
         0         0         0         0         0         0         0         0
         0         0         0         0         0         0         0         0
         0         0         0         0         0         0         0         0
         0         0         0         0         0         0         0         0
         0         0         0         0         0         0         0         0
         0         0         0         0         0         0         0         0
         0         0         0         0         0         0         0         0
         0         0         0         0         0         0         0         0
         0         0         0         0         0         0         0         0
         0         0         0         0         0         0         0         0
         0         0         0         0         0         0         0         0
         0         0         0         0         0         0         0         0
         0         0         0         0         0         0         0         0
         0         0         0         0         0         0         0         0
         0         0         0         0         0         0         0         0
         0         0         0         0         0         0         0         0
         0         0         0         0         0         0         0         0
         0         0         0         0         0         0         0         0
         0         0         0         0         0         0         0         0
         0         0         0         0         0         0         0         0
         0         0         0         0         0         0         0         0
         0         0         0         0         0         0         0         0
         0         0         0         0         0         0         0         0
         0         0         0         0         0         0         0         0
         0         0         0         0         0         0         0         0
         0         0         0         0         0         0         0         0
         0         0         0         0         0         0         0         0
         0         0         0         0         0         0         0         0
         0         0         0         0         0         0         0         0
         0         0         0         0         0         0         0         0
         0         0         0         0         0         0         0         0
         0         0         0         0         0         0         0         0
         0         0         0         0         0         0         0         0
         0         0         0         0         0         0         0         0
         0         0         0         0         0         0         0         0
         0         0         0         0         0         0         0         0
         0         0         0         0         0         0         0         0
         0         0         0         0         0         0         0         0
         0         0         0         0         0         0         0         0
         0         0         0         0         0         0         0         0
         0         0         0         0         0         0         0         0
         0         0         0         0         0         0         0         0
         0         0         0         0         0         0         0         0
         0         0         0         0         0         0         0         0
         0         0         0         0         0         0         0         0
         0         0         0         0         0         0         0         0
         0         0         0         0         0         0         0         0
         0         0         0         0         0         0         0         0
         0         0         0         0         0         0         0         0
         0         0         0         0         0         0         0         0
         0         0         0         0         0         0         0         0
         0         0         0         0         0         0         0         0
         0         0         0         0         0         0         0         0
         0         0         0         0         0         0         0         0
         0         0         0         0         0         0         0         0
         0         0         0         0         0         0         0         0
         0         0         0         0         0         0         0         0
         0         0         0         0         0         0         0         0
         0         0         0         0         0         0         0         0
         0         0         0         0         0         0         0         0
         0         0         0         0         0         0         0         0
         0         0         0         0         0         0         0         0
         0         0         0         0         0         0         0         0
         0         0         0         0         0         0         0         0
         0         0         0         0         0         0         0         0
         0         0         0         0         0         0         0         0
         0         0         0         0         0         0         0         0
         0         0         0         0         0         0         0         0
         0         0         0         0         0         0         0         0
         0         0         0         0         0         0         0         0
         0         0         0         0         0         0         0         0
         0         0         0         0         0         0         0         0
         0         0         0         0         0         0         0         0
         0         0         0         0         0         0         0         0
         0         0         0         0         0         0         0         0
         0         0         0         0         0         0         0         0
         0         0         0         0         0         0         0         0
         0         0         0         0         0         0         0         0
         0         0         0         0         0         0         0         0
         0         0         0         0         0         0         0         0
         0         0         0         0         0         0         0         0
         0         0         0         0         0         0         0         0
         0         0         0         0         0         0         0         0
         0         0         0         0         0         0         0         0
         0         0         0         0         0         0         0         0
         0         0         0         0         0         0         0         0
         0         0         0         0         0         0         0         0
         0         0         0         0         0         0         0         0
         0         0         0         0         0         0         0         0
         0         0         0         0         0         0         0         0
         0         0         0         0         0         0         0         0
         0         0         0         0         0         0         0         0
         0         0         0         0         0         0         0         0
         0         0         0         0         0         0         0         0
         0         0         0         0         0         0         0         0
         0         0         0         0         0         0         0         0
         0         0         0         0         0         0         0         0
         0         0         0         0         0         0         0         0
         0         0         0         0         0         0         0         0
         0         0         0         0         0         0         0         0
         0         0         0         0         0         0         0         0
         0         0         0         0         0         0         0         0
         0         0         0         0         0         0         0         0
         0         0         0         0         0         0         0         0
         0         0         0         0         0         0         0         0
         0         0         0         0         0         0         0         0
         0         0         0         0         0         0         0         0
         0         0         0         0         0         0         0         0
         0         0         0         0         0         0         0         0
         0         0         0         0         0         0         0         0
         0         0         0         0         0         0         0         0
         0         0         0         0         0         0         0         0
         0         0         0         0         0         0         0         0
         0         0         0         0         0         0         0         0
         0         0         0         0         0         0         0         0
         0         0         0         0         0         0         0         0
         0         0         0         0         0         0         0         0
         0         0         0         0         0         0         0         0
         0         0         0         0         0         0         0         0
         0         0         0         0         0         0         0         0
         0         0         0         0         0         0         0         0
         0         0         0         0         0         0         0         0
         0         0         0         0         0         0         0         0
         0         0         0         0         0         0         0         0
         0         0         0         0         0         0         0         0
         0         0         0         0         0         0         0         0
         0         0         0         0         0         0         0         0
         0         0         0         0         0         0         0         0
         0         0         0         0         0         0         0         0
         0         0         0         0         0         0         0         0
         0         0         0         0         0         0         0         0
         0         0         0         0         0         0         0         0
         0         0         0         0         0         0         0         0
         0         0         0         0         0         0         0         0
         0         0         0         0         0         0         0         0
         0         0         0         0         0         0         0         0
         0         0         0         0         0         0         0         0
         0         0         0         0         0         0         0         0
         0         0         0         0         0         0         0         0
         0         0         0         0         0         0         0         0
         0         0         0         0         0         0         0         0
         0         0         0         0         0         0         0         0
         0         0         0         0         0         0         0         0
         0         0         0         0         0         0         0         0
         0         0         0         0         0         0         0         0
         0         0         0         0         0         0         0         0
         0         0         0         0         0         0         0         0
         0         0         0         0         0         0         0         0
         0         0         0         0         0         0         0         0
         0         0         0         0         0         0         0         0
         0         0         0         0         0         0         0         0
         0         0         0         0         0         0         0         0
         0         0         0         0         0         0         0         0
         0         0         0         0         0         0         0         0
         0         0         0         0         0         0         0         0
         0         0         0         0         0         0         0         0
         0         0         0         0         0         0         0         0
         0         0         0         0         0         0         0         0
         0         0         0         0         0         0         0         0
         0         0         0         0         0         0         0         0
         0         0         0         0         0         0         0         0
         0         0         0         0         0         0         0         0
         0         0         0         0         0         0         0         0
         0         0         0         0         0         0         0         0
         0         0         0         0         0         0         0         0
         0         0         0         0         0         0         0         0
         0         0         0         0         0         0         0         0
         0         0         0         0         0         0         0         0
         0         0         0         0         0         0         0         0
         0         0         0         0         0         0         0         0
         0         0         0         0         0         0         0         0
         0         0         0         0         0         0         0         0
         0         0         0         0         0         0         0         0
         0         0         0         0         0         0         0         0
         0         0         0         0         0         0         0         0
         0         0         0         0         0         0         0         0
         0         0         0         0         0         0         0         0
         0         0         0         0         0         0         0         0
         0         0         0         0         0         0         0         0
         0         0         0         0         0         0         0         0
         0         0         0         0         0         0         0         0
         0         0         0         0         0         0         0         0
         0         0         0         0         0         0         0         0
         0         0         0         0         0         0         0         0
         0         0         0         0         0         0         0         0
         0         0         0         0         0         0         0         0
         0         0         0         0         0         0         0         0
         0         0         0         0         0         0         0         0
         0         0         0         0         0         0         0         0
         0         0         0         0         0         0         0         0
         0         0         0         0         0         0         0         0
         0         0         0         0         0         0         0         0
         0         0         0         0         0         0         0         0
         0         0         0         0         0         0         0         0
         0         0         0         0         0         0         0         0
         0         0         0         0         0         0         0         0
         0         0         0         0         0         0         0         0
         0         0         0         0         0         0         0         0
         0         0         0         0         0         0         0         0
         0         0         0         0         0         0         0         0
         0         0         0         0         0         0         0         0
         0         0         0         0         0         0         0         0
         0         0         0         0         0         0         0         0
         0         0         0         0         0         0         0         0
         0         0         0         0         0         0         0         0
         0         0         0         0         0         0         0         0
         0         0         0         0         0         0         0         0
         0         0         0         0         0         0         0         0
         0         0         0         0         0         0         0         0
         0         0         0         0         0         0         0         0
         0         0         0         0         0         0         0         0
         0         0         0         0         0         0         0         0
         0         0         0         0         0         0         0         0
         0         0         0         0         0         0         0         0
         0         0         0         0         0         0         0         0
         0         0         0         0         0         0         0         0
         0         0         0         0         0         0         0         0
         0         0         0         0         0         0         0         0
         0         0         0         0         0         0         0         0
         0         0         0         0         0         0         0         0
         0         0         0         0         0         0         0         0
         0         0         0         0         0         0         0         0
         0         0         0         0         0         0         0         0
         0         0         0         0         0         0         0         0
         0         0         0         0         0         0         0         0
         0         0         0         0         0         0         0         0
         0         0         0         0         0         0         0         0
         0         0         0         0         0         0         0         0
         0         0         0         0         0         0         0         0
         0         0         0         0         0         0         0         0
         0         0         0         0         0         0         0         0
         0         0         0         0         0         0         0         0
         0         0         0         0         0         0         0         0
         0         0         0         0         0         0         0         0
         0         0         0         0         0         0         0         0
         0         0         0         0         0         0         0         0
         0         0         0         0         0         0         0         0
         0         0         0         0         0         0         0         0
         0         0         0         0         0         0         0         0
         0         0         0         0         0         0         0         0
         0         0         0         0         0         0         0         0
         0         0         0         0         0         0         0         0
         0         0         0         0         0         0         0         0
         0         0         0         0         0         0         0         0
         0         0         0         0         0         0         0         0
         0         0         0         0         0         0         0         0
         0         0         0         0         0         0         0         0
         0         0         0         0         0         0         0         0
         0         0         0         0         0         0         0         0
         0         0         0         0         0         0         0         0
         0         0         0         0         0         0         0         0
         0         0         0         0         0         0         0         0
         0         0         0         0         0         0         0         0
         0         0         0         0         0         0         0         0
         0         0         0         0         0         0         0         0
         0         0         0         0         0         0         0         0
         0         0         0         0         0         0         0         0
         0         0         0         0         0         0         0         0
         0         0         0         0         0         0         0         0
         0         0         0         0         0         0         0         0
         0         0         0         0         0         0         0         0
         0         0         0         0         0         0         0         0
         0         0         0         0         0         0         0         0
         0         0         0         0         0         0         0         0
         0         0         0         0         0         0         0         0
         0         0         0         0         0         0         0         0
         0         0         0         0         0         0         0         0
         0         0         0         0         0         0         0         0
         0         0         0         0         0         0         0         0
         0         0         0         0         0         0         0         0
         0         0         0         0         0         0         0         0
         0         0         0         0         0         0         0         0
         0         0         0         0         0         0         0         0
         0         0         0         0         0         0         0         0
         0         0         0         0         0         0         0         0
         0         0         0         0         0         0         0         0
         0         0         0         0         0         0         0         0
         0         0         0         0         0         0         0         0
         0         0         0         0         0         0         0         0
         0         0         0         0         0         0         0         0
         0         0         0         0         0         0         0         0
         0         0         0         0         0         0         0         0
         0         0         0         0         0         0         0         0
         0         0         0         0         0         0         0         0
         0         0         0         0         0         0         0         0
         0         0         0         0         0         0         0         0
         0         0         0         0         0         0         0         0
         0         0         0         0         0         0         0         0
         0         0         0         0         0         0         0         0
         0         0         0         0         0         0         0         0
         0         0         0         0         0         0         0         0
         0         0         0         0         0         0         0         0
         0         0         0         0         0         0         0         0
         0         0         0         0         0         0         0         0
         0         0         0         0         0         0         0         0
         0         0         0         0         0         0         0         0
         0         0         0         0         0         0         0         0
         0         0         0         0         0         0         0         0
         0         0         0         0         0         0         0         0
         0         0         0         0         0         0         0         0
         0         0         0         0         0         0         0         0
         0         0         0         0         0         0         0         0
         0         0         0         0         0         0         0         0
         0         0         0         0         0         0         0         0
         0         0         0         0         0         0         0         0
         0         0         0         0         0         0         0         0
         0         0         0         0         0         0         0         0
         0         0         0         0         0         0         0         0
         0         0         0         0         0         0         0         0
         0         0         0         0         0         0         0         0
         0         0         0         0         0         0         0         0
         0         0         0         0         0         0         0         0
         0         0         0         0         0         0         0         0
         0         0         0         0         0         0         0         0
         0         0         0         0         0         0         0         0
         0         0         0         0         0         0         0         0
         0         0         0         0         0         0         0         0
         0         0         0         0         0         0         0         0
         0         0         0         0         0         0         0         0
         0         0         0         0         0         0         0         0
         0         0         0         0         0         0         0         0
         0         0         0         0         0         0         0         0
         0         0         0         0         0         0         0         0
         0         0         0         0         0         0         0         0
         0         0         0         0         0         0         0         0
         0         0         0         0         0         0         0         0
         0         0         0         0         0         0         0         0
         0         0         0         0         0         0         0         0
         0         0         0         0         0         0         0         0
         0         0         0         0         0         0         0         0
         0         0         0         0         0         0         0         0
         0         0         0         0         0         0         0         0
         0         0         0         0         0         0         0         0
         0         0         0         0         0         0         0         0
         0         0         0         0         0         0         0         0
         0         0         0         0         0         0         0         0
         0         0         0         0         0         0         0         0
         0         0         0         0         0         0         0         0
         0         0         0         0         0         0         0         0
         0         0         0         0         0         0         0         0
         0         0         0         0         0         0         0         0
         0         0         0         0         0         0         0         0
         0         0         0         0         0         0         0         0
         0         0         0         0         0         0         0         0
         0         0         0         0         0         0         0         0
         0         0         0         0         0         0         0         0
         0         0         0         0         0         0         0         0
         0         0         0         0         0         0         0         0
         0         0         0         0         0         0         0         0
         0         0         0         0         0         0         0         0
         0         0         0         0         0         0         0         0
         0         0         0         0         0         0         0         0
         0         0         0         0         0         0         0         0
         0         0         0         0         0         0         0         0
         0         0         0         0         0         0         0         0
         0         0         0         0         0         0         0         0
         0         0         0         0         0         0         0         0
         0         0         0         0         0         0         0         0
         0         0         0         0         0         0         0         0
         0         0         0         0         0         0         0         0
         0         0         0         0         0         0         0         0
         0         0         0         0         0         0         0         0
         0         0         0         0         0         0         0         0
         0         0         0         0         0         0         0         0
         0         0         0         0         0         0         0         0
         0         0         0         0         0         0         0         0
         0         0         0         0         0         0         0         0
         0         0         0         0         0         0         0         0
         0         0         0         0         0         0         0         0
         0         0         0         0         0         0         0         0
         0         0         0         0         0         0         0         0
         0         0         0         0         0         0         0         0
         0         0         0         0         0         0         0         0
         0         0         0         0         0         0         0         0
         0         0         0         0         0         0         0         0
         0         0         0         0         0         0         0         0
         0         0         0         0         0         0         0         0
         0         0         0         0         0         0         0         0
         0         0         0         0         0         0         0         0
         0         0         0         0         0         0         0         0
         0         0         0         0         0         0         0         0
         0         0         0         0         0         0         0         0
         0         0         0         0         0         0         0         0
         0         0         0         0         0         0         0         0
         0         0         0         0         0         0         0         0
         0         0         0         0         0         0         0         0
         0         0         0         0         0         0         0         0
         0         0         0         0         0         0         0         0
         0         0         0         0         0         0         0         0
         0         0         0         0         0         0         0         0
         0         0         0         0         0         0         0         0
         0         0         0         0         0         0         0         0
         0         0         0         0         0         0         0         0
         0         0         0         0         0         0         0         0
         0         0         0         0         0         0         0         0
         0         0         0         0         0         0         0         0
         0         0         0         0         0         0         0         0
         0         0         0         0         0         0         0         0
         0         0         0         0         0         0         0         0
         0         0         0         0         0         0         0         0
         0         0         0         0         0         0         0         0
         0         0         0         0         0         0         0         0
         0         0         0         0         0         0         0         0
         0         0         0         0         0         0         0         0
         0         0         0         0         0         0         0         0
         0         0         0         0         0         0         0         0
         0         0         0         0         0         0         0         0
         0         0         0         0         0         0         0         0
         0         0         0         0         0         0         0         0
         0         0         0         0         0         0         0         0
         0         0         0         0         0         0         0         0
         0         0         0         0         0         0         0         0
         0         0         0         0         0         0         0         0
         0         0         0         0         0         0         0         0
         0         0         0         0         0         0         0         0
         0         0         0         0         0         0         0         0
         0         0         0         0         0         0         0         0
         0         0         0         0         0         0         0         0
         0         0         0         0         0         0         0         0
         0         0         0         0         0         0         0         0
         0         0         0         0         0         0         0         0
         0         0         0         0         0         0         0         0
         0         0         0         0         0         0         0         0
         0         0         0         0         0         0         0         0
         0         0         0         0         0         0         0         0
         0         0         0         0         0         0         0         0
         0         0         0         0         0         0         0         0
         0         0         0         0         0         0         0         0
         0         0         0         0         0         0         0         0
         0         0         0         0         0         0         0         0
         0         0         0         0         0         0         0         0
         0         0         0         0         0         0         0         0
         0         0         0         0         0         0         0         0
         0         0         0         0         0         0         0         0
         0         0         0         0         0         0         0         0
         0         0         0         0         0         0         0         0
         0         0         0         0         0         0         0         0
         0         0         0         0         0         0         0         0
         0         0         0         0         0         0         0         0
         0         0         0         0         0         0         0         0
         0         0         0         0         0         0         0         0
         0         0         0         0         0         0         0         0
         0         0         0         0         0         0         0         0
         0         0         0         0         0         0         0         0
         0         0         0         0         0         0         0         0
         0         0         0         0         0         0         0         0
         0         0         0         0         0         0         0         0
         0         0         0         0         0         0         0         0
         0         0         0         0         0         0         0         0
         0         0         0         0         0         0         0         0
         0         0         0         0         0         0         0         0
         0         0         0         0         0         0         0         0
         0         0         0         0         0         0         0         0
         0         0         0         0         0         0         0         0
         0         0         0         0         0         0         0         0
         0         0         0         0         0         0         0         0
         0         0         0         0         0         0         0         0
         0         0         0         0         0         0         0         0
         0         0         0         0         0         0         0         0
         0         0         0         0         0         0         0         0
         0         0         0         0         0         0         0         0
         0         0         0         0         0         0         0         0
         0         0         0         0         0         0         0         0
         0         0         0         0         0         0         0         0
         0         0         0         0         0         0         0         0
         0         0         0         0         0         0         0         0
         0         0         0         0         0         0         0         0
         0         0         0         0         0         0         0         0
         0         0         0         0         0         0         0         0
         0         0         0         0         0         0         0         0
         0         0         0         0         0         0         0         0
         0         0         0         0         0         0         0         0
         0         0         0         0         0         0         0         0
         0         0         0         0         0         0         0         0
         0         0         0         0         0         0         0         0
         0         0         0         0         0         0         0         0
         0         0         0         0         0         0         0         0
         0         0         0         0         0         0         0         0
         0         0         0         0         0         0         0         0
         0         0         0         0         0         0         0         0
         0         0         0         0         0         0         0         0
         0         0         0         0         0         0         0         0
         0         0         0         0         0         0         0         0
         0         0         0         0         0         0         0         0
         0         0         0         0         0         0         0         0
         0         0         0         0         0         0         0         0
         0         0         0         0         0         0         0         0
         0         0         0         0         0         0         0         0
         0         0         0         0         0         0         0         0
         0         0         0         0         0         0         0         0
         0         0         0         0         0         0         0         0
         0         0         0         0         0         0         0         0
         0         0         0         0         0         0         0         0
         0         0         0         0         0         0         0         0
         0         0         0         0         0         0         0         0
         0         0         0         0         0         0         0         0
         0         0         0         0         0         0         0         0
         0         0         0         0         0         0         0         0
         0         0         0         0         0         0         0         0
         0         0         0         0         0         0         0         0
         0         0         0         0         0         0         0         0
         0         0         0         0         0         0         0         0
         0         0         0         0         0         0         0         0
         0         0         0         0         0         0         0         0
         0         0         0         0         0         0         0         0
         0         0         0         0         0         0         0         0
         0         0         0         0         0         0         0         0
         0         0         0         0         0         0         0         0
         0         0         0         0         0         0         0         0
         0         0         0         0         0         0         0         0
         0         0         0         0         0         0         0         0
         0         0         0         0         0         0         0         0
         0         0         0         0         0         0         0         0
         0         0         0         0         0         0         0         0
         0         0         0         0         0         0         0         0
         0         0         0         0         0         0         0         0
         0         0         0         0         0         0         0         0
         0         0         0         0         0         0         0         0
         0         0         0         0         0         0         0         0
         0         0         0         0         0         0         0         0
         0         0         0         0         0         0         0         0
         0         0         0         0         0         0         0         0
         0         0         0         0         0         0         0         0
         0         0         0         0         0         0         0         0
         0         0         0         0         0         0         0         0
         0         0         0         0         0         0         0         0
         0         0         0         0         0         0         0         0
         0         0         0         0         0         0         0         0
         0         0         0         0         0         0         0         0
         0         0         0         0         0         0         0         0
         0         0         0         0         0         0         0         0
         0         0         0         0         0         0         0         0
         0         0         0         0         0         0         0         0
         0         0         0         0         0         0         0         0
         0         0         0         0         0         0         0         0
         0         0         0         0         0         0         0         0
         0         0         0         0         0         0         0         0
         0         0         0         0         0         0         0         0
         0         0         0         0         0         0         0         0
         0         0         0         0         0         0         0         0
         0         0         0         0         0         0         0         0
         0         0         0         0         0         0         0         0
         0         0         0         0         0         0         0         0
         0         0         0         0         0         0         0         0
         0         0         0         0         0         0         0         0
         0         0         0         0         0         0         0         0
         0         0         0         0         0         0         0         0
         0         0         0         0         0         0         0         0
         0         0         0         0         0         0         0         0
         0         0         0         0         0         0         0         0
         0         0         0         0         0         0         0         0
         0         0         0         0         0         0         0         0
         0         0         0         0         0         0         0         0
         0         0         0         0         0         0         0         0
         0         0         0         0         0         0         0         0
         0         0         0         0         0         0         0         0
         0         0         0         0         0         0         0         0
         0         0         0         0         0         0         0         0
         0         0         0         0         0         0         0         0
         0         0         0         0         0         0         0         0
         0         0         0         0         0         0         0         0
         0         0         0         0         0         0         0         0
         0         0         0         0         0         0         0         0
         0         0         0         0         0         0         0         0
         0         0         0         0         0         0         0         0
         0         0         0         0         0         0         0         0
         0         0         0         0         0         0         0         0
         0         0         0         0         0         0         0         0
         0         0         0         0         0         0         0         0
         0         0         0         0         0         0         0         0
         0         0         0         0         0         0         0         0
         0         0         0         0         0         0         0         0
         0         0         0         0         0         0         0         0
         0         0         0         0         0         0         0         0
         0         0         0         0         0         0         0         0
         0         0         0         0         0         0         0         0
         0         0         0         0         0         0         0         0
         0         0         0         0         0         0         0         0
         0         0         0         0         0         0         0         0
         0         0         0         0         0         0         0         0
         0         0         0         0         0         0         0         0
         0         0         0         0         0         0         0         0
         0         0         0         0         0         0         0         0
         0         0         0         0         0         0         0         0
         0         0         0         0         0         0         0         0
         0         0         0         0         0         0         0         0
         0         0         0         0         0         0         0         0
         0         0         0         0         0         0         0         0
         0         0         0         0         0         0         0         0
         0         0         0         0         0         0         0         0
         0         0         0         0         0         0         0         0
         0         0         0         0         0         0         0         0
         0         0         0         0         0         0         0         0
         0         0         0         0         0         0         0         0
         0         0         0         0         0         0         0         0
         0         0         0         0         0         0         0         0
         0         0         0         0         0         0         0         0
         0         0         0         0         0         0         0         0
         0         0         0         0         0         0         0         0
         0         0         0         0         0         0         0         0
         0         0         0         0         0         0         0         0
         0         0         0         0         0         0         0         0
         0         0         0         0         0         0         0         0
         0         0         0         0         0         0         0         0
         0         0         0         0         0         0         0         0
         0         0         0         0         0         0         0         0
         0         0         0         0         0         0         0         0
         0         0         0         0         0         0         0         0
         0         0         0         0         0         0         0         0
         0         0         0         0         0         0         0         0
         0         0         0         0         0         0         0         0
         0         0         0         0         0         0         0         0
         0         0         0         0         0         0         0         0
         0         0         0         0         0         0         0         0
         0         0         0         0         0         0         0         0
         0         0         0         0         0         0         0         0
         0         0         0         0         0         0         0         0
         0         0         0         0         0         0         0         0
         0         0         0         0         0         0         0         0
         0         0         0         0         0         0         0         0
         0         0         0         0         0         0         0         0
         0         0         0         0         0         0         0         0
         0         0         0         0         0         0         0         0
         0         0         0         0         0         0         0         0
         0         0         0         0         0         0         0         0
         0         0         0         0         0         0         0         0
         0         0         0         0         0         0         0         0
         0         0         0         0         0         0         0         0
         0         0         0         0         0         0         0         0
         0         0         0         0         0         0         0         0
         0         0         0         0         0         0         0         0
         0         0         0         0         0         0         0         0
         0         0         0         0         0         0         0         0
         0         0         0         0         0         0         0         0
         0         0         0         0         0         0         0         0
         0         0         0         0         0         0         0         0
         0         0         0         0         0         0         0         0
         0         0         0         0         0         0         0         0
         0         0         0         0         0         0         0         0
         0         0         0         0         0         0         0         0
         0         0         0         0         0         0         0         0
         0         0         0         0         0         0         0         0
         0         0         0         0         0         0         0         0
         0         0         0         0         0         0         0         0
         0         0         0         0         0         0         0         0
         0         0         0         0         0         0         0         0
         0         0         0         0         0         0         0         0
         0         0         0         0         0         0         0         0
         0         0         0         0         0         0         0         0
         0         0         0         0         0         0         0         0
         0         0         0         0         0         0         0         0
         0         0         0         0         0         0         0         0
         0         0         0         0         0         0         0         0
         0         0         0         0         0         0         0         0
         0         0         0         0         0         0         0         0
         0         0         0         0         0         0         0         0
         0         0         0         0         0         0         0         0
         0         0         0         0         0         0         0         0
         0         0         0         0         0         0         0         0
         0         0         0         0         0         0         0         0
         0         0         0         0         0         0         0         0
         0         0         0         0         0         0         0         0
         0         0         0         0         0         0         0         0
         0         0         0         0         0         0         0         0
         0         0         0         0         0         0         0         0
         0         0         0         0         0         0         0         0
         0         0         0         0         0         0         0         0
         0         0         0         0         0         0         0         0
         0         0         0         0         0         0         0         0
         0         0         0         0         0         0         0         0
         0         0         0         0         0         0         0         0
         0         0         0         0         0         0         0         0
         0         0         0         0         0         0         0         0
         0         0         0         0         0         0         0         0
         0         0         0         0         0         0         0         0
         0         0         0         0         0         0         0         0
         0         0         0         0         0         0         0         0
         0         0         0         0         0         0         0         0
         0         0         0         0         0         0         0         0
         0         0         0         0         0         0         0         0
         0         0         0         0         0         0         0         0
         0         0         0         0         0         0         0         0
         0         0         0         0         0         0         0         0
         0         0         0         0         0         0         0         0
         0         0         0         0         0         0         0         0
         0         0         0         0         0         0         0         0
         0         0         0         0         0         0         0         0
         0         0         0         0         0         0         0         0
         0         0         0         0         0         0         0         0
         0         0         0         0         0         0         0         0
         0         0         0         0         0         0         0         0
         0         0         0         0         0         0         0         0
         0         0         0         0         0         0         0         0
         0         0         0         0         0         0         0         0
         0         0         0         0         0         0         0         0
         0         0         0         0         0         0         0         0
         0         0         0         0         0         0         0         0
         0         0         0         0         0         0         0         0
         0         0         0         0         0         0         0         0
         0         0         0         0         0         0         0         0
         0         0         0         0         0         0         0         0
         0         0         0         0         0         0         0         0
         0         0         0         0         0         0         0         0
         0         0         0         0         0         0         0         0
         0         0         0         0         0         0         0         0
         0         0         0         0         0         0         0         0
         0         0         0         0         0         0         0         0
         0         0         0         0         0         0         0         0
         0         0         0         0         0         0         0         0
         0         0         0         0         0         0         0         0
         0         0         0         0         0         0         0         0
         0         0         0         0         0         0         0         0
         0         0         0         0         0         0         0         0
         0         0         0         0         0         0         0         0
         0         0         0         0         0         0         0         0
         0         0         0         0         0         0         0         0
         0         0         0         0         0         0         0         0
         0         0         0         0         0         0         0         0
         0         0         0         0         0         0         0         0
         0         0         0         0         0         0         0         0
         0         0         0         0         0         0         0         0
         0         0         0         0         0         0         0         0
         0         0         0         0         0         0         0         0
         0         0         0         0         0         0         0         0
         0         0         0         0         0         0         0         0
         0         0         0         0         0         0         0         0
         0         0         0         0         0         0         0         0
         0         0         0         0         0         0         0         0
         0         0         0         0         0         0         0         0
         0         0         0         0         0         0         0         0
         0         0         0         0         0         0         0         0
         0         0         0         0         0         0         0         0
         0         0         0         0         0         0         0         0
         0         0         0         0         0         0         0         0
         0         0         0         0         0         0         0         0
         0         0         0         0         0         0         0         0
         0         0         0         0         0         0         0         0
         0         0         0         0         0         0         0         0
         0         0         0         0         0         0         0         0
         0         0         0         0         0         0         0         0
         0         0         0         0         0         0         0         0
         0         0         0         0         0         0         0         0
         0         0         0         0         0         0         0         0
         0         0         0         0         0         0         0         0
         0         0         0         0         0         0         0         0
         0         0         0         0         0         0         0         0
         0         0         0         0         0         0         0         0
         0         0         0         0         0         0         0         0
         0         0         0         0         0         0         0         0
         0         0         0         0         0         0         0         0
         0         0         0         0         0         0         0         0
         0         0         0         0         0         0         0         0
         0         0         0         0         0         0         0         0
         0         0         0         0         0         0         0         0
         0         0         0         0         0         0         0         0
         0         0         0         0         0         0         0         0
         0         0         0         0         0         0         0         0
         0         0         0         0         0         0         0         0
         0         0         0         0         0         0         0         0
         0         0         0         0         0         0         0         0
         0         0         0         0         0         0         0         0
         0         0         0         0         0         0         0         0
         0         0         0         0         0         0         0         0
         0         0         0         0         0         0         0         0
         0         0         0         0         0         0         0         0
         0         0         0         0         0         0         0         0
         0         0         0         0         0         0         0         0
         0         0         0         0         0         0         0         0
         0         0         0         0         0         0         0         0
         0         0         0         0         0         0         0         0
         0         0         0         0         0         0         0         0
         0         0         0         0         0         0         0         0
         0         0         0         0         0         0         0         0
         0         0         0         0         0         0         0         0
         0         0         0         0         0         0         0         0
         0         0         0         0         0         0         0         0
         0         0         0         0         0         0         0         0
         0         0         0         0         0         0         0         0
         0         0         0         0         0         0         0         0
         0         0         0         0         0         0         0         0
         0         0         0         0         0         0         0         0
         0         0         0         0         0         0         0         0
         0         0         0         0         0         0         0         0
         0         0         0         0         0         0         0         0
         0         0         0         0         0         0         0         0
         0         0         0         0         0         0         0         0
         0         0         0         0         0         0         0         0
         0         0         0         0         0         0         0         0
         0         0         0         0         0         0         0         0
         0         0         0         0         0         0         0         0
         0         0         0         0         0         0         0         0
         0         0         0         0         0         0         0         0
         0         0         0         0         0         0         0         0
         0         0         0         0         0         0         0         0
         0         0         0         0         0         0         0         0
         0         0         0         0         0         0         0         0
         0         0         0         0         0         0         0         0
         0         0         0         0         0         0         0         0
         0         0         0         0         0         0         0         0
         0         0         0         0         0         0         0         0
         0         0         0         0         0         0         0         0
         0         0         0         0         0         0         0         0
         0         0         0         0         0         0         0         0
         0         0         0         0         0         0         0         0
         0         0         0         0         0         0         0         0
         0         0         0         0         0         0         0         0
         0         0         0         0         0         0         0         0
         0         0         0         0         0         0         0         0
         0         0         0         0         0         0         0         0
         0         0         0         0         0         0         0         0
         0         0         0         0         0         0         0         0
         0         0         0         0         0         0         0         0
         0         0         0         0         0         0         0         0
         0         0         0         0         0         0         0         0
         0         0         0         0         0         0         0         0
         0         0         0         0         0         0         0         0
         0         0         0         0         0         0         0         0
         0         0         0         0         0         0         0         0
         0         0         0         0         0         0         0         0
         0         0         0         0         0         0         0         0
         0         0         0         0         0         0         0         0
         0         0         0         0         0         0         0         0
         0         0         0         0         0         0         0         0
         0         0         0         0         0         0         0         0
         0         0         0         0         0         0         0         0
         0         0         0         0         0         0         0         0
         0         0         0         0         0         0         0         0
         0         0         0         0         0         0         0         0
         0         0         0         0         0         0         0         0
         0         0         0         0         0         0         0         0
         0         0         0         0         0         0         0         0
         0         0         0         0         0         0         0         0
         0         0         0         0         0         0         0         0
         0         0         0         0         0         0         0         0
         0         0         0         0         0         0         0         0
         0         0         0         0         0         0         0         0
         0         0         0         0         0         0         0         0
         0         0         0         0         0         0         0         0
         0         0         0         0         0         0         0         0
         0         0         0         0         0         0         0         0
         0         0         0         0         0         0         0         0
         0         0         0         0         0         0         0         0
         0         0         0         0         0         0         0         0
         0         0         0         0         0         0         0         0
         0         0         0         0         0         0         0         0
         0         0         0         0         0         0         0         0
         0         0         0         0         0         0         0         0
         0         0         0         0         0         0         0         0
         0         0         0         0         0         0         0         0
         0         0         0         0         0         0         0         0
         0         0         0         0         0         0         0         0
         0         0         0         0         0         0         0         0
         0         0         0         0         0         0         0         0
         0         0         0         0         0         0         0         0
         0         0         0         0         0         0         0         0
         0         0         0         0         0         0         0         0
         0         0         0         0         0         0         0         0
         0         0         0         0         0         0         0         0
         0         0         0         0         0         0         0         0
         0         0         0         0         0         0         0         0
         0         0         0         0         0         0         0         0
         0         0         0         0         0         0         0         0
         0         0         0         0         0         0         0         0
         0         0         0         0         0         0         0         0
         0         0         0         0         0         0         0         0
         0         0         0         0         0         0         0         0
         0         0         0         0         0         0         0         0
         0         0         0         0         0         0         0         0
         0         0         0         0         0         0         0         0
         0         0         0         0         0         0         0         0
         0         0         0         0         0         0         0         0
         0         0         0         0         0         0         0         0
         0         0         0         0         0         0         0         0
         0         0         0         0         0         0         0         0
         0         0         0         0         0         0         0         0
         0         0         0         0         0         0         0         0
         0         0         0         0         0         0         0         0
         0         0         0         0         0         0         0         0
         0         0         0         0         0         0         0         0
         0         0         0         0         0         0         0         0
         0         0         0         0         0         0         0         0
         0         0         0         0         0         0         0         0
         0         0         0         0         0         0         0         0
         0         0         0         0         0         0         0         0
         0         0         0         0         0         0         0         0
         0         0         0         0         0         0         0         0
         0         0         0         0         0         0         0         0
         0         0         0         0         0         0         0         0
         0         0         0         0         0         0         0         0
         0         0         0         0         0         0         0         0
         0         0         0         0         0         0         0         0
         0         0         0         0         0         0         0         0
         0         0         0         0         0         0         0         0
         0         0         0         0         0         0         0         0
         0         0         0         0         0         0         0         0
         0         0         0         0         0         0         0         0
         0         0         0         0         0         0         0         0
         0         0         0         0         0         0         0         0
         0         0         0         0         0         0         0         0
         0         0         0         0         0         0         0         0
         0         0         0         0         0         0         0         0
         0         0         0         0         0         0         0         0
         0         0         0         0         0         0         0         0
         0         0         0         0         0         0         0         0
         0         0         0         0         0         0         0         0
         0         0         0         0         0         0         0         0
         0         0         0         0         0         0         0         0
         0         0         0         0         0         0         0         0
         0         0         0         0         0         0         0         0
         0         0         0         0         0         0         0         0
         0         0         0         0         0         0         0         0
         0         0         0         0         0         0         0         0
         0         0         0         0         0         0         0         0
         0         0         0         0         0         0         0         0
         0         0         0         0         0         0         0         0
         0         0         0         0         0         0         0         0
         0         0         0         0         0         0         0         0
         0         0         0         0         0         0         0         0
         0         0         0         0         0         0         0         0
         0         0         0         0         0         0         0         0
         0         0         0         0         0         0         0         0
         0         0         0         0         0         0         0         0
         0         0         0         0         0         0         0         0
         0         0         0         0         0         0         0         0
         0         0         0         0         0         0         0         0
         0         0         0         0         0         0         0         0
         0         0         0         0         0         0         0         0
         0         0         0         0         0         0         0         0
         0         0         0         0         0         0         0         0
         0         0         0         0         0         0         0         0
         0         0         0         0         0         0         0         0
         0         0         0         0         0         0         0         0
         0         0         0         0         0         0         0         0
         0         0         0         0         0         0         0         0
         0         0         0         0         0         0         0         0
         0         0         0         0         0         0         0         0
         0         0         0         0         0         0         0         0
         0         0         0         0         0         0         0         0
         0         0         0         0         0         0         0         0
         0         0         0         0         0         0         0         0
         0         0         0         0         0         0         0         0
         0         0         0         0         0         0         0         0
         0         0         0         0         0         0         0         0
         0         0         0         0         0         0         0         0
         0         0         0         0         0         0         0         0
         0         0         0         0         0         0         0         0
         0         0         0         0         0         0         0         0
         0         0         0         0         0         0         0         0
         0         0         0         0         0         0         0         0
         0         0         0         0         0         0         0         0
         0         0         0         0         0         0         0         0
         0         0         0         0         0         0         0         0
         0         0         0         0         0         0         0         0
         0         0         0         0         0         0         0         0
         0         0         0         0         0         0         0         0
         0         0         0         0         0         0         0         0
         0         0         0         0         0         0         0         0
         0         0         0         0         0         0         0         0
         0         0         0         0         0         0         0         0
         0         0         0         0         0         0         0         0
         0         0         0         0         0         0         0         0
         0         0         0         0         0         0         0         0
         0         0         0         0         0         0         0         0
         0         0         0         0         0         0         0         0
         0         0         0         0         0         0         0         0
         0         0         0         0         0         0         0         0
         0         0         0         0         0         0         0         0
         0         0         0         0         0         0         0         0
         0         0         0         0         0         0         0         0
         0         0         0         0         0         0         0         0
         0         0         0         0         0         0         0         0
         0         0         0         0         0         0         0         0
         0         0         0         0         0         0         0         0
         0         0         0         0         0         0         0         0
         0         0         0         0         0         0         0         0
         0         0         0         0         0         0         0         0
         0         0         0         0         0         0         0         0
         0         0         0         0         0         0         0         0
         0         0         0         0         0         0         0         0
         0         0         0         0         0         0         0         0
         0         0         0         0         0         0         0         0
         0         0         0         0         0         0         0         0
         0         0         0         0         0         0         0         0
         0         0         0         0         0         0         0         0
         0         0         0         0         0         0         0         0
         0         0         0         0         0         0         0         0
         0         0         0         0         0         0         0         0
         0         0         0         0         0         0         0         0
         0         0         0         0         0         0         0         0
         0         0         0         0         0         0         0         0
         0         0         0         0         0         0         0         0
         0         0         0         0         0         0         0         0
         0         0         0         0         0         0         0         0
         0         0         0         0         0         0         0         0
         0         0         0         0         0         0         0         0
         0         0         0         0         0         0         0         0
         0         0         0         0         0         0         0         0
         0         0         0         0         0         0         0         0
         0         0         0         0         0         0         0         0
         0         0         0         0         0         0         0         0
         0         0         0         0         0         0         0         0
         0         0         0         0         0         0         0         0
         0         0         0         0         0         0         0         0
         0         0         0         0         0         0         0         0
         0         0         0         0         0         0         0         0
         0         0         0         0         0         0         0         0
         0         0         0         0         0         0         0         0
         0         0         0         0         0         0         0         0
         0         0         0         0         0         0         0         0
         0         0         0         0         0         0         0         0
         0         0         0         0         0         0         0         0
         0         0         0         0         0         0         0         0
         0         0         0         0         0         0         0         0
         0         0         0         0         0         0         0         0
         0         0         0         0         0         0         0         0
         0         0         0         0         0         0         0         0
         0         0         0         0         0         0         0         0
         0         0         0         0         0         0         0         0
         0         0         0         0         0         0         0         0
         0         0         0         0         0         0         0         0
         0         0         0         0         0         0         0         0
         0         0         0         0         0         0         0         0
         0         0         0         0         0         0         0         0
         0         0         0         0         0         0         0         0
         0         0         0         0         0         0         0         0
         0         0         0         0         0         0         0         0
         0         0         0         0         0         0         0         0
         0         0         0         0         0         0         0         0
         0         0         0         0         0         0         0         0
         0         0         0         0         0         0         0         0
         0         0         0         0         0         0         0         0
         0         0         0         0         0         0         0         0
         0         0         0         0         0         0         0         0
         0         0         0         0         0         0         0         0
         0         0         0         0         0         0         0         0
         0         0         0         0         0         0         0         0
         0         0         0         0         0         0         0         0
         0         0         0         0         0         0         0         0
         0         0         0         0         0         0         0         0
         0         0         0         0         0         0         0         0
         0         0         0         0         0         0         0         0
         0         0         0         0         0         0         0         0
         0         0         0         0         0         0         0         0
         0         0         0         0         0         0         0         0
         0         0         0         0         0         0         0         0
         0         0         0         0         0         0         0         0
         0         0         0         0         0         0         0         0
         0         0         0         0         0         0         0         0
         0         0         0         0         0         0         0         0
         0         0         0         0         0         0         0         0
         0         0         0         0         0         0         0         0
         0         0         0         0         0         0         0         0
         0         0         0         0         0         0         0         0
         0         0         0         0         0         0         0         0
         0         0         0         0         0         0         0         0
         0         0         0         0         0         0         0         0
         0         0         0         0         0         0         0         0
         0         0         0         0         0         0         0         0
         0         0         0         0         0         0         0         0
         0         0         0         0         0         0         0         0
         0         0         0         0         0         0         0         0
         0         0         0         0         0         0         0         0
         0         0         0         0         0         0         0         0
         0         0         0         0         0         0         0         0
         0         0         0         0         0         0         0         0
         0         0         0         0         0         0         0         0
         0         0         0         0         0         0         0         0
         0         0         0         0         0         0         0         0
         0         0         0         0         0         0         0         0
         0         0         0         0         0         0         0         0
         0         0         0         0         0         0         0         0
         0         0         0         0         0         0         0         0
         0         0         0         0         0         0         0         0
         0         0         0         0         0         0         0         0
         0         0         0         0         0         0         0         0
         0         0         0         0         0         0         0         0
         0         0         0         0         0         0         0         0
         0         0         0         0         0         0         0         0
         0         0         0         0         0         0         0         0
         0         0         0         0         0         0         0         0
         0         0         0         0         0         0         0         0
         0         0         0         0         0         0         0         0
         0         0         0         0         0         0         0         0
         0         0         0         0         0         0         0         0
         0         0         0         0         0         0         0         0
         0         0         0         0         0         0         0         0
         0         0         0         0         0         0         0         0
         0         0         0         0         0         0         0         0
         0         0         0         0         0         0         0         0
         0         0         0         0         0         0         0         0
         0         0         0         0         0         0         0         0
         0         0         0         0         0         0         0         0
         0         0         0         0         0         0         0         0
         0         0         0         0         0         0         0         0
         0         0         0         0         0         0         0         0
         0         0         0         0         0         0         0         0
         0         0         0         0         0         0         0         0
         0         0         0         0         0         0         0         0
         0         0         0         0         0         0         0         0
         0         0         0         0         0         0         0         0
         0         0         0         0         0         0         0         0
         0         0         0         0         0         0         0         0
         0         0         0         0         0         0         0         0
         0         0         0         0         0         0         0         0
         0         0         0         0         0         0         0         0
         0         0         0         0         0         0         0         0
         0         0         0         0         0         0         0         0
         0         0         0         0         0         0         0         0
         0         0         0         0         0         0         0         0
         0         0         0         0         0         0         0         0
         0         0         0         0         0         0         0         0
         0         0         0         0         0         0         0         0
         0         0         0         0         0         0         0         0
         0         0         0         0         0         0         0         0
         0         0         0         0         0         0         0         0
         0         0         0         0         0         0         0         0
         0         0         0         0         0         0         0         0
         0         0         0         0         0         0         0         0
         0         0         0         0         0         0         0         0
         0         0         0         0         0         0         0         0
         0         0         0         0         0         0         0         0
         0         0         0         0         0         0         0         0
         0         0         0         0         0         0         0         0
         0         0         0         0         0         0         0         0
         0         0         0         0         0         0         0         0
         0         0         0         0         0         0         0         0
         0         0         0         0         0         0         0         0
         0         0         0         0         0         0         0         0
         0         0         0         0         0         0         0         0
         0         0         0         0         0         0         0         0
         0         0         0         0         0         0         0         0
         0         0         0         0         0         0         0         0
         0         0         0         0         0         0         0         0
         0         0         0         0         0         0         0         0
         0         0         0         0         0         0         0         0
         0         0         0         0         0         0         0         0
         0         0         0         0         0         0         0         0
         0         0         0         0         0         0         0         0
         0         0         0         0         0         0         0         0
         0         0         0         0         0         0         0         0
         0         0         0         0         0         0         0         0
         0         0         0         0         0         0         0         0
         0         0         0         0         0         0         0         0
         0         0         0         0         0         0         0         0
         0         0         0         0         0         0         0         0
         0         0         0         0         0         0         0         0
         0         0         0         0         0         0         0         0
         0         0         0         0         0         0         0         0
         0         0         0         0         0         0         0         0
         0         0         0         0         0         0         0         0
         0         0         0         0         0         0         0         0
         0         0         0         0         0         0         0         0
         0         0         0         0         0         0         0         0
         0         0         0         0         0         0         0         0
         0         0         0         0         0         0         0         0
         0         0         0         0         0         0         0         0
         0         0         0         0         0         0         0         0
         0         0         0         0         0         0         0         0
         0         0         0         0         0         0         0         0
         0         0         0         0         0         0         0         0
         0         0         0         0         0         0         0         0
         0         0         0         0         0         0         0         0
         0         0         0         0         0         0         0         0
         0         0         0         0         0         0         0         0
         0         0         0         0         0         0         0         0
         0         0         0         0         0         0         0         0
         0         0         0         0         0         0         0         0
         0         0         0         0         0         0         0         0
         0         0         0         0         0         0         0         0
         0         0         0         0         0         0         0         0
         0         0         0         0         0         0         0         0
         0         0         0         0         0         0         0         0
         0         0         0         0         0         0         0         0
         0         0         0         0         0         0         0         0
         0         0         0         0         0         0         0         0
         0         0         0         0         0         0         0         0
         0         0         0         0         0         0         0         0
         0         0         0         0         0         0         0         0
         0         0         0         0         0         0         0         0
         0         0         0         0         0         0         0         0
         0         0         0         0         0         0         0         0
         0         0         0         0         0         0         0         0
         0         0         0         0         0         0         0         0
         0         0         0         0         0         0         0         0
         0         0         0         0         0         0         0         0
         0         0         0         0         0         0         0         0
         0         0         0         0         0         0         0         0
         0         0         0         0         0         0         0         0
         0         0         0         0         0         0         0         0
         0         0         0         0         0         0         0         0
         0         0         0         0         0         0         0         0
         0         0         0         0         0         0         0         0
         0         0         0         0         0         0         0         0
         0         0         0         0         0         0         0         0
         0         0         0         0         0         0         0         0
         0         0         0         0         0         0         0         0
         0         0         0         0         0         0         0         0
         0         0         0         0         0         0         0         0
         0         0         0         0         0         0         0         0
         0         0         0         0         0         0         0         0
         0         0         0         0         0         0         0         0
         0         0         0         0         0         0         0         0
         0         0         0         0         0         0         0         0
         0         0         0         0         0         0         0         0
         0         0         0         0         0         0         0         0
         0         0         0         0         0         0         0         0
         0         0         0         0         0         0         0         0
         0         0         0         0         0         0         0         0
         0         0         0         0         0         0         0         0
         0         0         0         0         0         0         0         0
         0         0         0         0         0         0         0         0
         0         0         0         0         0         0         0         0
         0         0         0         0         0         0         0         0
         0         0         0         0         0         0         0         0
         0         0         0         0         0         0         0         0
         0         0         0         0         0         0         0         0
         0         0         0         0         0         0         0         0
         0         0         0         0         0         0         0         0
         0         0         0         0         0         0         0         0
         0         0         0         0         0         0         0         0
         0         0         0         0         0         0         0         0
         0         0         0         0         0         0         0         0
         0         0         0         0         0         0         0         0
         0         0         0         0         0         0         0         0
         0         0         0         0         0         0         0         0
         0         0         0         0         0         0         0         0
         0         0         0         0         0         0         0         0
         0         0         0         0         0         0         0         0
         0         0         0         0         0         0         0         0
         0         0         0         0         0         0         0         0
         0         0         0         0         0         0         0         0
         0         0         0         0         0         0         0         0
         0         0         0         0         0         0         0         0
         0         0         0         0         0         0         0         0
         0         0         0         0         0         0         0         0
         0         0         0         0         0         0         0         0
         0         0         0         0         0         0         0         0
         0         0         0         0         0         0         0         0
         0         0         0         0         0         0         0         0
         0         0         0         0         0         0         0         0
         0         0         0         0         0         0         0         0
         0         0         0         0         0         0         0         0
         0         0         0         0         0         0         0         0
         0         0         0         0         0         0         0         0
         0         0         0         0         0         0         0         0
         0         0         0         0         0         0         0         0
         0         0         0         0         0         0         0         0
         0         0         0         0         0         0         0         0
         0         0         0         0         0         0         0         0
         0         0         0         0         0         0         0         0
         0         0         0         0         0         0         0         0
         0         0         0         0         0         0         0         0
         0         0         0         0         0         0         0         0
         0         0         0         0         0         0         0         0
         0         0         0         0         0         0         0         0
         0         0         0         0         0         0         0         0
         0         0         0         0         0         0         0         0
         0         0         0         0         0         0         0         0
         0         0         0         0         0         0         0         0
         0         0         0         0         0         0         0         0
         0         0         0         0         0         0         0         0
         0         0         0         0         0         0         0         0
         0         0         0         0         0         0         0         0
         0         0         0         0         0         0         0         0
         0         0         0         0         0         0         0         0
         0         0         0         0         0         0         0         0
         0         0         0         0         0         0         0         0
         0         0         0         0         0         0         0         0
         0         0         0         0         0         0         0         0
         0         0         0         0         0         0         0         0
         0         0         0         0         0         0         0         0
         0         0         0         0         0         0         0         0
         0         0         0         0         0         0         0         0
         0         0         0         0         0         0         0         0
         0         0         0         0         0         0         0         0
         0         0         0         0         0         0         0         0
         0         0         0         0         0         0         0         0
         0         0         0         0         0         0         0         0
         0         0         0         0         0         0         0         0
         0         0         0         0         0         0         0         0
         0         0         0         0         0         0         0         0
         0         0         0         0         0         0         0         0
         0         0         0         0         0         0         0         0
         0         0         0         0         0         0         0         0
         0         0         0         0         0         0         0         0
         0         0         0         0         0         0         0         0
         0         0         0         0         0         0         0         0
         0         0         0         0         0         0         0         0
         0         0         0         0         0         0         0         0
         0         0         0         0         0         0         0         0
         0         0         0         0         0         0         0         0
         0         0         0         0         0         0         0         0
         0         0         0         0         0         0         0         0
         0         0         0         0         0         0         0         0
         0         0         0         0         0         0         0         0
         0         0         0         0         0         0         0         0
         0         0         0         0         0         0         0         0
         0         0         0         0         0         0         0         0
         0         0         0         0         0         0         0         0
         0         0         0         0         0         0         0         0
         0         0         0         0         0         0         0         0
         0         0         0         0         0         0         0         0
         0         0         0         0         0         0         0         0
         0         0         0         0         0         0         0         0
         0         0         0         0         0         0         0         0
         0         0         0         0         0         0         0         0
         0         0         0         0         0         0         0         0
         0         0         0         0         0         0         0         0
         0         0         0         0         0         0         0         0
         0         0         0         0         0         0         0         0
         0         0         0         0         0         0         0         0
         0         0         0         0         0         0         0         0
         0         0         0         0         0         0         0         0
         0         0         0         0         0         0         0         0
         0         0         0         0         0         0         0         0
         0         0         0         0         0         0         0         0
         0         0         0         0         0         0         0         0
         0         0         0         0         0         0         0         0
         0         0         0         0         0         0         0         0
         0         0         0         0         0         0         0         0
         0         0         0         0         0         0         0         0
         0         0         0         0         0         0         0         0
         0         0         0         0         0         0         0         0
         0         0         0         0         0         0         0         0
         0         0         0         0         0         0         0         0
         0         0         0         0         0         0         0         0
         0         0         0         0         0         0         0         0
         0         0         0         0         0         0         0         0
         0         0         0         0         0         0         0         0
         0         0         0         0         0         0         0         0
         0         0         0         0         0         0         0         0
         0         0         0         0         0         0         0         0
         0         0         0         0         0         0         0         0
         0         0         0         0         0         0         0         0
         0         0         0         0         0         0         0         0
         0         0         0         0         0         0         0         0
         0         0         0         0         0         0         0         0
         0         0         0         0         0         0         0         0
         0         0         0         0         0         0         0         0
         0         0         0         0         0         0         0         0
         0         0         0         0         0         0         0         0
         0         0         0         0         0         0         0         0
         0         0         0         0         0         0         0         0
         0         0         0         0         0         0         0         0
         0         0         0         0         0         0         0         0
         0         0         0         0         0         0         0         0
         0         0         0         0         0         0         0         0
         0         0         0         0         0         0         0         0
         0         0         0         0         0         0         0         0
         0         0         0         0         0         0         0         0
         0         0         0         0         0         0         0         0
         0         0         0         0         0         0         0         0
         0         0         0         0         0         0         0         0
         0         0         0         0         0         0         0         0
         0         0         0         0         0         0         0         0
         0         0         0         0         0         0         0         0
         0         0         0         0         0         0         0         0
         0         0         0         0         0         0         0         0
         0         0         0         0         0         0         0         0
         0         0         0         0         0         0         0         0
         0         0         0         0         0         0         0         0
         0         0         0         0         0         0         0         0
         0         0         0         0         0         0         0         0
         0         0         0         0         0         0         0         0
         0         0         0         0         0         0         0         0
         0         0         0         0         0         0         0         0
         0         0         0         0         0         0         0         0
         0         0         0         0         0         0         0         0
         0         0         0         0         0         0         0         0
         0         0         0         0         0         0         0         0
         0         0         0         0         0         0         0         0
         0         0         0         0         0         0         0         0
         0         0         0         0         0         0         0         0
         0         0         0         0         0         0         0         0
         0         0         0         0         0         0         0         0
         0         0         0         0         0         0         0         0
         0         0         0         0         0         0         0         0
         0         0         0         0         0         0         0         0
         0         0         0         0         0         0         0         0
         0         0         0         0         0         0         0         0
         0         0         0         0         0         0         0         0
         0         0         0         0         0         0         0         0
         0         0         0         0         0         0         0         0
         0         0         0         0         0         0         0         0
         0         0         0         0         0         0         0         0
         0         0         0         0         0         0         0         0
         0         0         0         0         0         0         0         0
         0         0         0         0         0         0         0         0
         0         0         0         0         0         0         0         0
         0         0         0         0         0         0         0         0
         0         0         0         0         0         0         0         0
         0         0         0         0         0         0         0         0
         0         0         0         0         0         0         0         0
         0         0         0         0         0         0         0         0
         0         0         0         0         0         0         0         0
         0         0         0         0         0         0         0         0
         0         0         0         0         0         0         0         0
         0         0         0         0         0         0         0         0
         0         0         0         0         0         0         0         0
         0         0         0         0         0         0         0         0
         0         0         0         0         0         0         0         0
         0         0         0         0         0         0         0         0
         0         0         0         0         0         0         0         0
         0         0         0         0         0         0         0         0
         0         0         0         0         0         0         0         0
         0         0         0         0         0         0         0         0
         0         0         0         0         0         0         0         0
         0         0         0         0         0         0         0         0
         0         0         0         0         0         0         0         0
         0         0         0         0         0         0         0         0
         0         0         0         0         0         0         0         0
         0         0         0         0         0         0         0         0
         0         0         0         0         0         0         0         0
         0         0         0         0         0         0         0         0
         0         0         0         0         0         0         0         0
         0         0         0         0         0         0         0         0
         0         0         0         0         0         0         0         0
         0         0         0         0         0         0         0         0
         0         0         0         0         0         0         0         0
         0         0         0         0         0         0         0         0
         0         0         0         0         0         0         0         0
         0         0         0         0         0         0         0         0
         0         0         0         0         0         0         0         0
         0         0         0         0         0         0         0         0
         0         0         0         0         0         0         0         0
         0         0         0         0         0         0         0         0
         0         0         0         0         0         0         0         0
         0         0         0         0         0         0         0         0
         0         0         0         0         0         0         0         0
         0         0         0         0         0         0         0         0
         0         0         0         0         0         0         0         0
         0         0         0         0         0         0         0         0
         0         0         0         0         0         0         0         0
         0         0         0         0         0         0         0         0
         0         0         0         0         0         0         0         0
         0         0         0         0         0         0         0         0
         0         0         0         0         0         0         0         0
         0         0         0         0         0         0         0         0
         0         0         0         0         0         0         0         0
         0         0         0         0         0         0         0         0
         0         0         0         0         0         0         0         0
         0         0         0         0         0         0         0         0
         0         0         0         0         0         0         0         0
         0         0         0         0         0         0         0         0
         0         0         0         0         0         0         0         0
         0         0         0         0         0         0         0         0
         0         0         0         0         0         0         0         0
         0         0         0         0         0         0         0         0
         0         0         0         0         0         0         0         0
         0         0         0         0         0         0         0         0
         0         0         0         0         0         0         0         0
         0         0         0         0         0         0         0         0
         0         0         0         0         0         0         0         0
         0         0         0         0         0         0         0         0
         0         0         0         0         0         0         0         0
         0         0         0         0         0         0         0         0
         0         0         0         0         0         0         0         0
         0         0         0         0         0         0         0         0
         0         0         0         0         0         0         0         0
         0         0         0         0         0         0         0         0
         0         0         0         0         0         0         0         0
         0         0         0         0         0         0         0         0
         0         0         0         0         0         0         0         0
         0         0         0         0         0         0         0         0
         0         0         0         0         0         0         0         0
         0         0         0         0         0         0         0         0
         0         0         0         0         0         0         0         0
         0         0         0         0         0         0         0         0
         0         0         0         0         0         0         0         0
         0         0         0         0         0         0         0         0
         0         0         0         0         0         0         0         0
         0         0         0         0         0         0         0         0
         0         0         0         0         0         0         0         0
         0         0         0         0         0         0         0         0
         0         0         0         0         0         0         0         0
         0         0         0         0         0         0         0         0
         0         0         0         0         0         0         0         0
         0         0         0         0         0         0         0         0
         0         0         0         0         0         0         0         0
         0         0         0         0         0         0         0         0
         0         0         0         0         0         0         0         0
         0         0         0         0         0         0         0         0
         0         0         0         0         0         0         0         0
         0         0         0         0         0         0         0         0
         0         0         0         0         0         0         0         0
         0         0         0         0         0         0         0         0
         0         0         0         0         0         0         0         0
         0         0         0         0         0         0         0         0
         0         0         0         0         0         0         0         0
         0         0         0         0         0         0         0         0
         0         0         0         0         0         0         0         0
         0         0         0         0         0         0         0         0
         0         0         0         0         0         0         0         0
         0         0         0         0         0         0         0         0
         0         0         0         0         0         0         0         0
         0         0         0         0         0         0         0         0
         0         0         0         0         0         0         0         0
         0         0         0         0         0         0         0         0
         0         0         0         0         0         0         0         0
         0         0         0         0         0         0         0         0
         0         0         0         0         0         0         0         0
         0         0         0         0         0         0         0         0
         0         0         0         0         0         0         0         0
         0         0         0         0         0         0         0         0
         0         0         0         0         0         0         0         0
         0         0         0         0         0         0         0         0
         0         0         0         0         0         0         0         0
         0         0         0         0         0         0         0         0
         0         0         0         0         0         0         0         0
         0         0         0         0         0         0         0         0
         0         0         0         0         0         0         0         0
         0         0         0         0         0         0         0         0
         0         0         0         0         0         0         0         0
         0         0         0         0         0         0         0         0
         0         0         0         0         0         0         0         0
         0         0         0         0         0         0         0         0
         0         0         0         0         0         0         0         0
         0         0         0         0         0         0         0         0
         0         0         0         0         0         0         0         0
         0         0         0         0         0         0         0         0
         0         0         0         0         0         0         0         0
         0         0         0         0         0         0         0         0
         0         0         0         0         0         0         0         0
         0         0         0         0         0         0         0         0
         0         0         0         0         0         0         0         0
         0         0         0         0         0         0         0         0
         0         0         0         0         0         0         0         0
         0         0         0         0         0         0         0         0
         0         0         0         0         0         0         0         0
         0         0         0         0         0         0         0         0
         0         0         0         0         0         0         0         0
         0         0         0         0         0         0         0         0
         0         0         0         0         0         0         0         0
         0         0         0         0         0         0         0         0
         0         0         0         0         0         0         0         0
         0         0         0         0         0         0         0         0
         0         0         0         0         0         0         0         0
         0         0         0         0         0         0         0         0
         0         0         0         0         0         0         0         0
         0         0         0         0         0         0         0         0
         0         0         0         0         0         0         0         0
         0         0         0         0         0         0         0         0
         0         0         0         0         0         0         0         0
         0         0         0         0         0         0         0         0
         0         0         0         0         0         0         0         0
         0         0         0         0         0         0         0         0
         0         0         0         0         0         0         0         0
         0         0         0         0         0         0         0         0
         0         0         0         0         0         0         0         0
         0         0         0         0         0         0         0         0
         0         0         0         0         0         0         0         0
         0         0         0         0         0         0         0         0
         0         0         0         0         0         0         0         0
         0         0         0         0         0         0         0         0
         0         0         0         0         0         0         0         0
         0         0         0         0         0         0         0         0
         0         0         0         0         0         0         0         0
         0         0         0         0         0         0         0         0
         0         0         0         0         0         0         0         0
         0         0         0         0         0         0         0         0
         0         0         0         0         0         0         0         0
         0         0         0         0         0         0         0         0
         0         0         0         0         0         0         0         0
         0         0         0         0         0         0         0         0
         0         0         0         0         0         0         0         0
         0         0         0         0         0         0         0         0
         0         0         0         0         0         0         0         0
         0         0         0         0         0         0         0         0
         0         0         0         0         0         0         0         0
         0         0         0         0         0         0         0         0
         0         0         0         0         0         0         0         0
         0         0         0         0         0         0         0         0
         0         0         0         0         0         0         0         0
         0         0         0         0         0         0         0         0
         0         0         0         0         0         0         0         0
         0         0         0         0         0         0         0         0
         0         0         0         0         0         0         0         0
         0         0         0         0         0         0         0         0
         0         0         0         0         0         0         0         0
         0         0         0         0         0         0         0         0
         0         0         0         0         0         0         0         0
         0         0         0         0         0         0         0         0
         0         0         0         0         0         0         0         0
         0         0         0         0         0         0         0         0
         0         0         0         0         0         0         0         0
         0         0         0         0         0         0         0         0
         0         0         0         0         0         0         0         0
         0         0         0         0         0         0         0         0
         0         0         0         0         0         0         0         0
         0         0         0         0         0         0         0         0
         0         0         0         0         0         0         0         0
         0         0         0         0         0         0         0         0
         0         0         0         0         0         0         0         0
         0         0         0         0         0         0         0         0
         0         0         0         0         0         0         0         0
         0         0         0         0         0         0         0         0
         0         0         0         0         0         0         0         0
         0         0         0         0         0         0         0         0
         0         0         0         0         0         0         0         0
         0         0         0         0         0         0         0         0
         0         0         0         0         0         0         0         0
         0         0         0         0         0         0         0         0
         0         0         0         0         0         0         0         0
         0         0         0         0         0         0         0         0
         0         0         0         0         0         0         0         0
         0         0         0         0         0         0         0         0
         0         0         0         0         0         0         0         0
         0         0         0         0         0         0         0         0
         0         0         0         0         0         0         0         0
         0         0         0         0         0         0         0         0
         0         0         0         0         0         0         0         0
         0         0         0         0         0         0         0         0
         0         0         0         0         0         0         0         0
         0         0         0         0         0         0         0         0
         0         0         0         0         0         0         0         0
         0         0         0         0         0         0         0         0
         0         0         0         0         0         0         0         0
         0         0         0         0         0         0         0         0
         0         0         0         0         0         0         0         0
         0         0         0         0         0         0         0         0
         0         0         0         0         0         0         0         0
         0         0         0         0         0         0         0         0
         0         0         0         0         0         0         0         0
         0         0         0         0         0         0         0         0
         0         0         0         0         0         0         0         0
         0         0         0         0         0         0         0         0
         0         0         0         0         0         0         0         0
         0         0         0         0         0         0         0         0
         0         0         0         0         0         0         0         0
         0         0         0         0         0         0         0         0
         0         0         0         0         0         0         0         0
         0         0         0         0         0         0         0         0
         0         0         0         0         0         0         0         0
         0         0         0         0         0         0         0         0
         0         0         0         0         0         0         0         0
         0         0         0         0         0         0         0         0
         0         0         0         0         0         0         0         0
         0         0         0         0         0         0         0         0
         0         0         0         0         0         0         0         0
         0         0         0         0         0         0         0         0
         0         0         0         0         0         0         0         0
         0         0         0         0         0         0         0         0
         0         0         0         0         0         0         0         0
         0         0         0         0         0         0         0         0
         0         0         0         0         0         0         0         0
         0         0         0         0         0         0         0         0
         0         0         0         0         0         0         0         0
         0         0         0         0         0         0         0         0
         0         0         0         0         0         0         0         0
         0         0         0         0         0         0         0         0
         0         0         0         0         0         0         0         0
         0         0         0         0         0         0         0         0
         0         0         0         0         0         0         0         0
         0         0         0         0         0         0         0         0
         0         0         0         0         0         0         0         0
         0         0         0         0         0         0         0         0
         0         0         0         0         0         0         0         0
         0         0         0         0         0         0         0         0
         0         0         0         0         0         0         0         0
         0         0         0         0         0         0         0         0
         0         0         0         0         0         0         0         0
         0         0         0         0         0         0         0         0
         0         0         0         0         0         0         0         0
         0         0         0         0         0         0         0         0
         0         0         0         0         0         0         0         0
         0         0         0         0         0         0         0         0
         0         0         0         0         0         0         0         0
         0         0         0         0         0         0         0         0
         0         0         0         0         0         0         0         0
         0         0         0         0         0         0         0         0
         0         0         0         0         0         0         0         0
         0         0         0         0         0         0         0         0
         0         0         0         0         0         0         0         0
         0         0         0         0         0         0         0         0
         0         0         0         0         0         0         0         0
         0         0         0         0         0         0         0         0
         0         0         0         0         0         0         0         0
         0         0         0         0         0         0         0         0
         0         0         0         0         0         0         0         0
         0         0         0         0         0         0         0         0
         0         0         0         0         0         0         0         0
         0         0         0         0         0         0         0         0
         0         0         0         0         0         0         0         0
         0         0         0         0         0         0         0         0
         0         0         0         0         0         0         0         0
         0         0         0         0         0         0         0         0
         0         0         0         0         0         0         0         0
         0         0         0         0         0         0         0         0
         0         0         0         0         0         0         0         0
         0         0         0         0         0         0         0         0
         0         0         0         0         0         0         0         0
         0         0         0         0         0         0         0         0
         0         0         0         0         0         0         0         0
         0         0         0         0         0         0         0         0
         0         0         0         0         0         0         0         0
         0         0         0         0         0         0         0         0
         0         0         0         0         0         0         0         0
         0         0         0         0         0         0         0         0
         0         0         0         0         0         0         0         0
         0         0         0         0         0         0         0         0
         0         0         0         0         0         0         0         0
         0         0         0         0         0         0         0         0
         0         0         0         0         0         0         0         0
         0         0         0         0         0         0         0         0
         0         0         0         0         0         0         0         0
         0         0         0         0         0         0         0         0
         0         0         0         0         0         0         0         0
         0         0         0         0         0         0         0         0
         0         0         0         0         0         0         0         0
         0         0         0         0         0         0         0         0
         0         0         0         0         0         0         0         0
         0         0         0         0         0         0         0         0
         0         0         0         0         0         0         0         0
         0         0         0         0         0         0         0         0
         0         0         0         0         0         0         0         0
         0         0         0         0         0         0         0         0
         0         0         0         0         0         0         0         0
         0         0         0         0         0         0         0         0
         0         0         0         0         0         0         0         0
         0         0         0         0         0         0         0         0
         0         0         0         0         0         0         0         0
         0         0         0         0         0         0         0         0
         0         0         0         0         0         0         0         0
         0         0         0         0         0         0         0         0
         0         0         0         0         0         0         0         0
         0         0         0         0         0         0         0         0
         0         0         0         0         0         0         0         0
         0         0         0         0         0         0         0         0
         0         0         0         0         0         0         0         0
         0         0         0         0         0         0         0         0
         0         0         0         0         0         0         0         0
         0         0         0         0         0         0         0         0
         0         0         0         0         0         0         0         0
         0         0         0         0         0         0         0         0
         0         0         0         0         0         0         0         0
         0         0         0         0         0         0         0         0
         0         0         0         0         0         0         0         0
         0         0         0         0         0         0         0         0
         0         0         0         0         0         0         0         0
         0         0         0         0         0         0         0         0
         0         0         0         0         0         0         0         0
         0         0         0         0         0         0         0         0
         0         0         0         0         0         0         0         0
         0         0         0         0         0         0         0         0
         0         0         0         0         0         0         0         0
         0         0         0         0         0         0         0         0
         0         0         0         0         0         0         0         0
         0         0         0         0         0         0         0         0
         0         0         0         0         0         0         0         0
         0         0         0         0         0         0         0         0
         0         0         0         0         0         0         0         0
         0         0         0         0         0         0         0         0
         0         0         0         0         0         0         0         0
         0         0         0         0         0         0         0         0
         0         0         0         0         0         0         0         0
         0         0         0         0         0         0         0         0
         0         0         0         0         0         0         0         0
         0         0         0         0         0         0         0         0
         0         0         0         0         0         0         0         0
         0         0         0         0         0         0         0         0
         0         0         0         0         0         0         0         0
         0         0         0         0         0         0         0         0
         0         0         0         0         0         0         0         0
         0         0         0         0         0         0         0         0
         0         0         0         0         0         0         0         0
         0         0         0         0         0         0         0         0
         0         0         0         0         0         0         0         0
         0         0         0         0         0         0         0         0
         0         0         0         0         0         0         0         0
         0         0         0         0         0         0         0         0
         0         0         0         0         0         0         0         0
         0         0         0         0         0         0         0         0
         0         0         0         0         0         0         0         0
         0         0         0         0         0         0         0         0
         0         0         0         0         0         0         0         0
         0         0         0         0         0         0         0         0
         0         0         0         0         0         0         0         0
         0         0         0         0         0         0         0         0
         0         0         0         0         0         0         0         0
         0         0         0         0         0         0         0         0
         0         0         0         0         0         0         0         0
         0         0         0         0         0         0         0         0
         0         0         0         0         0         0         0         0
         0         0         0         0         0         0         0         0
         0         0         0         0         0         0         0         0
         0         0         0         0         0         0         0         0
         0         0         0         0         0         0         0         0
         0         0         0         0         0         0         0         0
         0         0         0         0         0         0         0         0
         0         0         0         0         0         0         0         0
         0         0         0         0         0         0         0         0
         0         0         0         0         0         0         0         0
         0         0         0         0         0         0         0         0
         0         0         0         0         0         0         0         0
         0         0         0         0         0         0         0         0
         0         0         0         0         0         0         0         0
         0         0         0         0         0         0         0         0
         0         0         0         0         0         0         0         0
         0         0         0         0         0         0         0         0
         0         0         0         0         0         0         0         0
         0         0         0         0         0         0         0         0
         0         0         0         0         0         0         0         0
         0         0         0         0         0         0         0         0
         0         0         0         0         0         0         0         0
         0         0         0         0         0         0         0         0
         0         0         0         0         0         0         0         0
         0         0         0         0         0         0         0         0
         0         0         0         0         0         0         0         0
         0         0         0         0         0         0         0         0
         0         0         0         0         0         0         0         0
         0         0         0         0         0         0         0         0
         0         0         0         0         0         0         0         0
         0         0         0         0         0         0         0         0
         0         0         0         0         0         0         0         0
         0         0         0         0         0         0         0         0
         0         0         0         0         0         0         0         0
         0         0         0         0         0         0         0         0
         0         0         0         0         0         0         0         0
         0         0         0         0         0         0         0         0
         0         0         0         0         0         0         0         0
         0         0         0         0         0         0         0         0
         0         0         0         0         0         0         0         0
         0         0         0         0         0         0         0         0
         0         0         0         0         0         0         0         0
         0         0         0         0         0         0         0         0
         0         0         0         0         0         0         0         0
         0         0         0         0         0         0         0         0
         0         0         0         0         0         0         0         0
         0         0         0         0         0         0         0         0
         0         0         0         0         0         0         0         0
         0         0         0         0         0         0         0         0
         0         0         0         0         0         0         0         0
         0         0         0         0         0         0         0         0
         0         0         0         0         0         0         0         0
         0         0         0         0         0         0         0         0
         0         0         0         0         0         0         0         0
         0         0         0         0         0         0         0         0
         0         0         0         0         0         0         0         0
         0         0         0         0         0         0         0         0
         0         0         0         0         0         0         0         0
         0         0         0         0         0         0         0         0
         0         0         0         0         0         0         0         0
         0         0         0         0         0         0         0         0
         0         0         0         0         0         0         0         0
         0         0         0         0         0         0         0         0
         0         0         0         0         0         0         0         0
         0         0         0         0         0         0         0         0
         0         0         0         0         0         0         0         0
         0         0         0         0         0         0         0         0
         0         0         0         0         0         0         0         0
         0         0         0         0         0         0         0         0
         0         0         0         0         0         0         0         0
         0         0         0         0         0         0         0         0
         0         0         0         0         0         0         0         0
         0         0         0         0         0         0         0         0
         0         0         0         0         0         0         0         0
         0         0         0         0         0         0         0         0
         0         0         0         0         0         0         0         0
         0         0         0         0         0         0         0         0
         0         0         0         0         0         0         0         0
         0         0         0         0         0         0         0         0
         0         0         0         0         0         0         0         0
         0         0         0         0         0         0         0         0
         0         0         0         0         0         0         0         0
         0         0         0         0         0         0         0         0
         0         0         0         0         0         0         0         0
         0         0         0         0         0         0         0         0
         0         0         0         0         0         0         0         0
         0         0         0         0         0         0         0         0
         0         0         0         0         0         0         0         0
         0         0         0         0         0         0         0         0
         0         0         0         0         0         0         0         0
         0         0         0         0         0         0         0         0
         0         0         0         0         0         0         0         0
         0         0         0         0         0         0         0         0
         0         0         0         0         0         0         0         0
         0         0         0         0         0         0         0         0
         0         0         0         0         0         0         0         0
         0         0         0         0         0         0         0         0
         0         0         0         0         0         0         0         0
         0         0         0         0         0         0         0         0
         0         0         0         0         0         0         0         0
         0         0         0         0         0         0         0         0
         0         0         0         0         0         0         0         0
         0         0         0         0         0         0         0         0
         0         0         0         0         0         0         0         0
         0         0         0         0         0         0         0         0
         0         0         0         0         0         0         0         0
         0         0         0         0         0         0         0         0
         0         0         0         0         0         0         0         0
         0         0         0         0         0         0         0         0
         0         0         0         0         0         0         0         0
         0         0         0         0         0         0         0         0
         0         0         0         0         0         0         0         0
         0         0         0         0         0         0         0         0
         0         0         0         0         0         0         0         0
         0         0         0         0         0         0         0         0
         0         0         0         0         0         0         0         0
         0         0         0         0         0         0         0         0
         0         0         0         0         0         0         0         0
         0         0         0         0         0         0         0         0
         0         0         0         0         0         0         0         0
         0         0         0         0         0         0         0         0
         0         0         0         0         0         0         0         0
         0         0         0         0         0         0         0         0
         0         0         0         0         0         0         0         0
         0         0         0         0         0         0         0         0
         0         0         0         0         0         0         0         0
         0         0         0         0         0         0         0         0
         0         0         0         0         0         0         0         0
         0         0         0         0         0         0         0         0
         0         0         0         0         0         0         0         0
         0         0         0         0         0         0         0         0
         0         0         0         0         0         0         0         0
         0         0         0         0         0         0         0         0
         0         0         0         0         0         0         0         0
         0         0         0         0         0         0         0         0
         0         0         0         0         0         0         0         0
         0         0         0         0         0         0         0         0
         0         0         0         0         0         0         0         0
         0         0         0         0         0         0         0         0
         0         0         0         0         0         0         0         0
         0         0         0         0         0         0         0         0
         0         0         0         0         0         0         0         0
         0         0         0         0         0         0         0         0
         0         0         0         0         0         0         0         0
         0         0         0         0         0         0         0         0
         0         0         0         0         0         0         0         0
         0         0         0         0         0         0         0         0
         0         0         0         0         0         0         0         0
         0         0         0         0         0         0         0         0
         0         0         0         0         0         0         0         0
         0         0         0         0         0         0         0         0
         0         0         0         0         0         0         0         0
         0         0         0         0         0         0         0         0
         0         0         0         0         0         0         0         0
         0         0         0         0         0         0         0         0
         0         0         0         0         0         0         0         0
         0         0         0         0         0         0         0         0
         0         0         0         0         0         0         0         0
         0         0         0         0         0         0         0         0
         0         0         0         0         0         0         0         0
         0         0         0         0         0         0         0         0
         0         0         0         0         0         0         0         0
         0         0         0         0         0         0         0         0
         0         0         0         0         0         0         0         0
         0         0         0         0         0         0         0         0
         0         0         0         0         0         0         0         0
         0         0         0         0         0         0         0         0
         0         0         0         0         0         0         0         0
         0         0         0         0         0         0         0         0
         0         0         0         0         0         0         0         0
         0         0         0         0         0         0         0         0
         0         0         0         0         0         0         0         0
         0         0         0         0         0         0         0         0
         0         0         0         0         0         0         0         0
         0         0         0         0         0         0         0         0
         0         0         0         0         0         0         0         0
         0         0         0         0         0         0         0         0
         0         0         0         0         0         0         0         0
         0         0         0         0         0         0         0         0
         0         0         0         0         0         0         0         0
         0         0         0         0         0         0         0         0
         0         0         0         0         0         0         0         0
         0         0         0         0         0         0         0         0
         0         0         0         0         0         0         0         0
         0         0         0         0         0         0         0         0
         0         0         0         0         0         0         0         0
         0         0         0         0         0         0         0         0
         0         0         0         0         0         0         0         0
         0         0         0         0         0         0         0         0
         0         0         0         0         0         0         0         0
         0         0         0         0         0         0         0         0
         0         0         0         0         0         0         0         0
         0         0         0         0         0         0         0         0
         0         0         0         0         0         0         0         0
         0         0         0         0         0         0         0         0
         0         0         0         0         0         0         0         0
         0         0         0         0         0         0         0         0
         0         0         0         0         0         0         0         0
         0         0         0         0         0         0         0         0
         0         0         0         0         0         0         0         0
         0         0         0         0         0         0         0         0
         0         0         0         0         0         0         0         0
         0         0         0         0         0         0         0         0
         0         0         0         0         0         0         0         0
         0         0         0         0         0         0         0         0
         0         0         0         0         0         0         0         0
         0         0         0         0         0         0         0         0
         0         0         0         0         0         0         0         0
         0         0         0         0         0         0         0         0
         0         0         0         0         0         0         0         0
         0         0         0         0         0         0         0         0
         0         0         0         0         0         0         0         0
         0         0         0         0         0         0         0         0
         0         0         0         0         0         0         0         0
         0         0         0         0         0         0         0         0
         0         0         0         0         0         0         0         0
         0         0         0         0         0         0         0         0
         0         0         0         0         0         0         0         0
         0         0         0         0         0         0         0         0
         0         0         0         0         0         0         0         0
         0         0         0         0         0         0         0         0
         0         0         0         0         0         0         0         0
         0         0         0         0         0         0         0         0
         0         0         0         0         0         0         0         0
         0         0         0         0         0         0         0         0
         0         0         0         0         0         0         0         0
         0         0         0         0         0         0         0         0
         0         0         0         0         0         0         0         0
         0         0         0         0         0         0         0         0
         0         0         0         0         0         0         0         0
         0         0         0         0         0         0         0         0
         0         0         0         0         0         0         0         0
         0         0         0         0         0         0         0         0
         0         0         0         0         0         0         0         0
         0         0         0         0         0         0         0         0
         0         0         0         0         0         0         0         0
         0         0         0         0         0         0         0         0
         0         0         0         0         0         0         0         0
         0         0         0         0         0         0         0         0
         0         0         0         0         0         0         0         0
         0         0         0         0         0         0         0         0
         0         0         0         0         0         0         0         0
         0         0         0         0         0         0         0         0
         0         0         0         0         0         0         0         0
         0         0         0         0         0         0         0         0
         0         0         0         0         0         0         0         0
         0         0         0         0         0         0         0         0
         0         0         0         0         0         0         0         0
         0         0         0         0         0         0         0         0
         0         0         0         0         0         0         0         0
         0         0         0         0         0         0         0         0
         0         0         0         0         0         0         0         0
         0         0         0         0         0         0         0         0
         0         0         0         0         0         0         0         0
         0         0         0         0         0         0         0         0
         0         0         0         0         0         0         0         0
         0         0         0         0         0         0         0         0
         0         0         0         0         0         0         0         0
         0         0         0         0         0         0         0         0
         0         0         0         0         0         0         0         0
         0         0         0         0         0         0         0         0
         0         0         0         0         0         0         0         0
         0         0         0         0         0         0         0         0
         0         0         0         0         0         0         0         0
         0         0         0         0         0         0         0         0
         0         0         0         0         0         0         0         0
         0         0         0         0         0         0         0         0
         0         0         0         0         0         0         0         0
         0         0         0         0         0         0         0         0
         0         0         0         0         0         0         0         0
         0         0         0         0         0         0         0         0
         0         0         0         0         0         0         0         0
         0         0         0         0         0         0         0         0
         0         0         0         0         0         0         0         0
         0         0         0         0         0         0         0         0
         0         0         0         0         0         0         0         0
         0         0         0         0         0         0         0         0
         0         0         0         0         0         0         0         0
         0         0         0         0         0         0         0         0
         0         0         0         0         0         0         0         0
         0         0         0         0         0         0         0         0
         0         0         0         0         0         0         0         0
         0         0         0         0         0         0         0         0
         0         0         0         0         0         0         0         0
         0         0         0         0         0         0         0         0
         0         0         0         0         0         0         0         0
         0         0         0         0         0         0         0         0
         0         0         0         0         0         0         0         0
         0         0         0         0         0         0         0         0
         0         0         0         0         0         0         0         0
         0         0         0         0         0         0         0         0
         0         0         0         0         0         0         0         0
         0         0         0         0         0         0         0         0
         0         0         0         0         0         0         0         0
         0         0         0         0         0         0         0         0
         0         0         0         0         0         0         0         0
         0         0         0         0         0         0         0         0
         0         0         0         0         0         0         0         0
         0         0         0         0         0         0         0         0
         0         0         0         0         0         0         0         0
         0         0         0         0         0         0         0         0
         0         0         0         0         0         0         0         0
         0         0         0         0         0         0         0         0
         0         0         0         0         0         0         0         0
         0         0         0         0         0         0         0         0
         0         0         0         0         0         0         0         0
         0         0         0         0         0         0         0         0
         0         0         0         0         0         0         0         0
         0         0         0         0         0         0         0         0
         0         0         0         0         0         0         0         0
         0         0         0         0         0         0         0         0
         0         0         0         0         0         0         0         0
         0         0         0         0         0         0         0         0
         0         0         0         0         0         0         0         0
         0         0         0         0         0         0         0         0
         0         0         0         0         0         0         0         0
         0         0         0         0         0         0         0         0
         0         0         0         0         0         0         0         0
         0         0         0         0         0         0         0         0
         0         0         0         0         0         0         0         0
         0         0         0         0         0         0         0         0
         0         0         0         0         0         0         0         0
         0         0         0         0         0         0         0         0
         0         0         0         0         0         0         0         0
         0         0         0         0         0         0         0         0
         0         0         0         0         0         0         0         0
         0         0         0         0         0         0         0         0
         0         0         0         0         0         0         0         0
         0         0         0         0         0         0         0         0
         0         0         0         0         0         0         0         0
         0         0         0         0         0         0         0         0
         0         0         0         0         0         0         0         0
         0         0         0         0         0         0         0         0
         0         0         0         0         0         0         0         0
         0         0         0         0         0         0         0         0
         0         0         0         0         0         0         0         0
         0         0         0         0         0         0         0         0
         0         0         0         0         0         0         0         0
         0         0         0         0         0         0         0         0
         0         0         0         0         0         0         0         0
         0         0         0         0         0         0         0         0
         0         0         0         0         0         0         0         0
         0         0         0         0         0         0         0         0
         0         0         0         0         0         0         0         0
         0         0         0         0         0         0         0         0
         0         0         0         0         0         0         0         0
         0         0         0         0         0         0         0         0
         0         0         0         0         0         0         0         0
         0         0         0         0         0         0         0         0
         0         0         0         0         0         0         0         0
         0         0         0         0         0         0         0         0
         0         0         0         0         0         0         0         0
         0         0         0         0         0         0         0         0
         0         0         0         0         0         0         0         0
         0         0         0         0         0         0         0         0
         0         0         0         0         0         0         0         0
         0         0         0         0         0         0         0         0
         0         0         0         0         0         0         0         0
         0         0         0         0         0         0         0         0
         0         0         0         0         0         0         0         0
         0         0         0         0         0         0         0         0
         0         0         0         0         0         0         0         0
         0         0         0         0         0         0         0         0
         0         0         0         0         0         0         0         0
         0         0         0         0         0         0         0         0
         0         0         0         0         0         0         0         0
         0         0         0         0         0         0         0         0
         0         0         0         0         0         0         0         0
         0         0         0         0         0         0         0         0
         0         0         0         0         0         0         0         0
         0         0         0         0         0         0         0         0
         0         0         0         0         0         0         0         0
         0         0         0         0         0         0         0         0
         0         0         0         0         0         0         0         0
         0         0         0         0         0         0         0         0
         0         0         0         0         0         0         0         0
         0         0         0         0         0         0         0         0
         0         0         0         0         0         0         0         0
         0         0         0         0         0         0         0         0
         0         0         0         0         0         0         0         0
         0         0         0         0         0         0         0         0
         0         0         0         0         0         0         0         0
         0         0         0         0         0         0         0         0
         0         0         0         0         0         0         0         0
         0         0         0         0         0         0         0         0
         0         0         0         0         0         0         0         0
         0         0         0         0         0         0         0         0
         0         0         0         0         0         0         0         0
         0         0         0         0         0         0         0         0
         0         0         0         0         0         0         0         0
         0         0         0         0         0         0         0         0
         0         0         0         0         0         0         0         0
         0         0         0         0         0         0         0         0
         0         0         0         0         0         0         0         0
         0         0         0         0         0         0         0         0
         0         0         0         0         0         0         0         0
         0         0         0         0         0         0         0         0
         0         0         0         0         0         0         0         0
         0         0         0         0         0         0         0         0
         0         0         0         0         0         0         0         0
         0         0         0         0         0         0         0         0
         0         0         0         0         0         0         0         0
         0         0         0         0         0         0         0         0
         0         0         0         0         0         0         0         0
         0         0         0         0         0         0         0         0
         0         0         0         0         0         0         0         0
         0         0         0         0         0         0         0         0
         0         0         0         0         0         0         0         0
         0         0         0         0         0         0         0         0
         0         0         0         0         0         0         0         0
         0         0         0         0         0         0         0         0
         0         0         0         0         0         0         0         0
         0         0         0         0         0         0         0         0
         0         0         0         0         0         0         0         0
         0         0         0         0         0         0         0         0
         0         0         0         0         0         0         0         0
         0         0         0         0         0         0         0         0
         0         0         0         0         0         0         0         0
         0         0         0         0         0         0         0         0
         0         0         0         0         0         0         0         0
         0         0         0         0         0         0         0         0
         0         0         0         0         0         0         0         0
         0         0         0         0         0         0         0         0
         0         0         0         0         0         0         0         0
         0         0         0         0         0         0         0         0
         0         0         0         0         0         0         0         0
         0         0         0         0         0         0         0         0
         0         0         0         0         0         0         0         0
         0         0         0         0         0         0         0         0
         0         0         0         0         0         0         0         0
         0         0         0         0         0         0         0         0
         0         0         0         0         0         0         0         0
         0         0         0         0         0         0         0         0
         0         0         0         0         0         0         0         0
         0         0         0         0         0         0         0         0
         0         0         0         0         0         0         0         0
         0         0         0         0         0         0         0         0
         0         0         0         0         0         0         0         0
         0         0         0         0         0         0         0         0
         0         0         0         0         0         0         0         0
         0         0         0         0         0         0         0         0
         0         0         0         0         0         0         0         0
         0         0         0         0         0         0         0         0
         0         0         0         0         0         0         0         0
         0         0         0         0         0         0         0         0
         0         0         0         0         0         0         0         0
         0         0         0         0         0         0         0         0
         0         0         0         0         0         0         0         0
         0         0         0         0         0         0         0         0
         0         0         0         0         0         0         0         0
         0         0         0         0         0         0         0         0
         0         0         0         0         0         0         0         0
         0         0         0         0         0         0         0         0
         0         0         0         0         0         0         0         0
         0         0         0         0         0         0         0         0
         0         0         0         0         0         0         0         0
         0         0         0         0         0         0         0         0
         0         0         0         0         0         0         0         0
         0         0         0         0         0         0         0         0
         0         0         0         0         0         0         0         0
         0         0         0         0         0         0         0         0
         0         0         0         0         0         0         0         0
         0         0         0         0         0         0         0         0
         0         0         0         0         0         0         0         0
         0         0         0         0         0         0         0         0
         0         0         0         0         0         0         0         0
         0         0         0         0         0         0         0         0
         0         0         0         0         0         0         0         0
         0         0         0         0         0         0         0         0
         0         0         0         0         0         0         0         0
         0         0         0         0         0         0         0         0
         0         0         0         0         0         0         0         0
         0         0         0         0         0         0         0         0
         0         0         0         0         0         0         0         0
         0         0         0         0         0         0         0         0
         0         0         0         0         0         0         0         0
         0         0         0         0         0         0         0         0
         0         0         0         0         0         0         0         0
         0         0         0         0         0         0         0         0
         0         0         0         0         0         0         0         0
         0         0         0         0         0         0         0         0
         0         0         0         0         0         0         0         0
         0         0         0         0         0         0         0         0
         0         0         0         0         0         0         0         0
         0         0         0         0         0         0         0         0
         0         0         0         0         0         0         0         0
         0         0         0         0         0         0         0         0
         0         0         0         0         0         0         0         0
         0         0         0         0         0         0         0         0
         0         0         0         0         0         0         0         0
         0         0         0         0         0         0         0         0
         0         0         0         0         0         0         0         0
         0         0         0         0         0         0         0         0
         0         0         0         0         0         0         0         0
         0         0         0         0         0         0         0         0
         0         0         0         0         0         0         0         0
         0         0         0         0         0         0         0         0
         0         0         0         0         0         0         0         0
         0         0         0         0         0         0         0         0
         0         0         0         0         0         0         0         0
         0         0         0         0         0         0         0         0
         0         0         0         0         0         0         0         0
         0         0         0         0         0         0         0         0
         0         0         0         0         0         0         0         0
         0         0         0         0         0         0         0         0
         0         0         0         0         0         0         0         0
         0         0         0         0         0         0         0         0
         0         0         0         0         0         0         0         0
         0         0         0         0         0         0         0         0
         0         0         0         0         0         0         0         0
         0         0         0         0         0         0         0         0
         0         0         0         0         0         0         0         0
         0         0         0         0         0         0         0         0
         0         0         0         0         0         0         0         0
         0         0         0         0         0         0         0         0
         0         0         0         0         0         0         0         0
         0         0         0         0         0         0         0         0
         0         0         0         0         0         0         0         0
         0         0         0         0         0         0         0         0
         0         0         0         0         0         0         0         0
         0         0         0         0         0         0         0         0
         0         0         0         0         0         0         0         0
         0         0         0         0         0         0         0         0
         0         0         0         0         0         0         0         0
         0         0         0         0         0         0         0         0
         0         0         0         0         0         0         0         0
         0         0         0         0         0         0         0         0
         0         0         0         0         0         0         0         0
         0         0         0         0         0         0         0         0
         0         0         0         0         0         0         0         0
         0         0         0         0         0         0         0         0
         0         0         0         0         0         0         0         0
         0         0         0         0         0         0         0         0
         0         0         0         0         0         0         0         0
         0         0         0         0         0         0         0         0
         0         0         0         0         0         0         0         0
         0         0         0         0         0         0         0         0
         0         0         0         0         0         0         0         0
         0         0         0         0         0         0         0         0
         0         0         0         0         0         0         0         0
         0         0         0         0         0         0         0         0
         0         0         0         0         0         0         0         0
         0         0         0         0         0         0         0         0
         0         0         0         0         0         0         0         0
         0         0         0         0         0         0         0         0
         0         0         0         0         0         0         0         0
         0         0         0         0         0         0         0         0
         0         0         0         0         0         0         0         0
         0         0         0         0         0         0         0         0
         0         0         0         0         0         0         0         0
         0         0         0         0         0         0         0         0
         0         0         0         0         0         0         0         0
         0         0         0         0         0         0         0         0
         0         0         0         0         0         0         0         0
         0         0         0         0         0         0         0         0
         0         0         0         0         0         0         0         0
         0         0         0         0         0         0         0         0
         0         0         0         0         0         0         0         0
         0         0         0         0         0         0         0         0
         0         0         0         0         0         0         0         0
         0         0         0         0         0         0         0         0
         0         0         0         0         0         0         0         0
         0         0         0         0         0         0         0         0
         0         0         0         0         0         0         0         0
         0         0         0         0         0         0         0         0
         0         0         0         0         0         0         0         0
         0         0         0         0         0         0         0         0
         0         0         0         0         0         0         0         0
         0         0         0         0         0         0         0         0
         0         0         0         0         0         0         0         0
         0         0         0         0         0         0         0         0
         0         0         0         0         0         0         0         0
         0         0         0         0         0         0         0         0
         0         0         0         0         0         0         0         0
         0         0         0         0         0         0         0         0
         0         0         0         0         0         0         0         0
         0         0         0         0         0         0         0         0
         0         0         0         0         0         0         0         0
         0         0         0         0         0         0         0         0
         0         0         0         0         0         0         0         0
         0         0         0         0         0         0         0         0
         0         0         0         0         0         0         0         0
         0         0         0         0         0         0         0         0
         0         0         0         0         0         0         0         0
         0         0         0         0         0         0         0         0
         0         0         0         0         0         0         0         0
         0         0         0         0         0         0         0         0
         0         0         0         0         0         0         0         0
         0         0         0         0         0         0         0         0
         0         0         0         0         0         0         0         0
         0         0         0         0         0         0         0         0
         0         0         0         0         0         0         0         0
         0         0         0         0         0         0         0         0
         0         0         0         0         0         0         0         0
         0         0         0         0         0         0         0         0
         0         0         0         0         0         0         0         0
         0         0         0         0         0         0         0         0
         0         0         0         0         0         0         0         0
         0         0         0         0         0         0         0         0
         0         0         0         0         0         0         0         0
         0         0         0         0         0         0         0         0
         0         0         0         0         0         0         0         0
         0         0         0         0         0         0         0         0
         0         0         0         0         0         0         0         0
         0         0         0         0         0         0         0         0
         0         0         0         0         0         0         0         0
         0         0         0         0         0         0         0         0
         0         0         0         0         0         0         0         0
         0         0         0         0         0         0         0         0
         0         0         0         0         0         0         0         0
         0         0         0         0         0         0         0         0
         0         0         0         0         0         0         0         0
         0         0         0         0         0         0         0         0
         0         0         0         0         0         0         0         0
         0         0         0         0         0         0         0         0
         0         0         0         0         0         0         0         0
         0         0         0         0         0         0         0         0
         0         0         0         0         0         0         0         0
         0         0         0         0         0         0         0         0
         0         0         0         0         0         0         0         0
         0         0         0         0         0         0         0         0
         0         0         0         0         0         0         0         0
         0         0         0         0         0         0         0         0
         0         0         0         0         0         0         0         0
         0         0         0         0         0         0         0         0
         0         0         0         0         0         0         0         0
         0         0         0         0         0         0         0         0
         0         0         0         0         0         0         0         0
         0         0         0         0         0         0         0         0
         0         0         0         0         0         0         0         0
         0         0         0         0         0         0         0         0
         0         0         0         0         0         0         0         0
         0         0         0         0         0         0         0         0
         0         0         0         0         0         0         0         0
         0         0         0         0         0         0         0         0
         0         0         0         0         0         0         0         0
         0         0         0         0         0         0         0         0
         0         0         0         0         0         0         0         0
         0         0         0         0         0         0         0         0
         0         0         0         0         0         0         0         0
         0         0         0         0         0         0         0         0
         0         0         0         0         0         0         0         0
         0         0         0         0         0         0         0         0
         0         0         0         0         0         0         0         0
         0         0         0         0         0         0         0         0
         0         0         0         0         0         0         0         0
         0         0         0         0         0         0         0         0
         0         0         0         0         0         0         0         0
         0         0         0         0         0         0         0         0
         0         0         0         0         0         0         0         0
         0         0         0         0         0         0         0         0
         0         0         0         0         0         0         0         0
         0         0         0         0         0         0         0         0
         0         0         0         0         0         0         0         0
         0         0         0         0         0         0         0         0
         0         0         0         0         0         0         0         0
         0         0         0         0         0         0         0         0
         0         0         0         0         0         0         0         0
         0         0         0         0         0         0         0         0
         0         0         0         0         0         0         0         0
         0         0         0         0         0         0         0         0
         0         0         0         0         0         0         0         0
         0         0         0         0         0         0         0         0
         0         0         0         0         0         0         0         0
         0         0         0         0         0         0         0         0
         0         0         0         0         0         0         0         0
         0         0         0         0         0         0         0         0
         0         0         0         0         0         0         0         0
         0         0         0         0         0         0         0         0
         0         0         0         0         0         0         0         0
         0         0         0         0         0         0         0         0
         0         0         0         0         0         0         0         0
         0         0         0         0         0         0         0         0
         0         0         0         0         0         0         0         0
         0         0         0         0         0         0         0         0
         0         0         0         0         0         0         0         0
         0         0         0         0         0         0         0         0
         0         0         0         0         0         0         0         0
         0         0         0         0         0         0         0         0
         0         0         0         0         0         0         0         0
         0         0         0         0         0         0         0         0
         0         0         0         0         0         0         0         0
         0         0         0         0         0         0         0         0
         0         0         0         0         0         0         0         0
         0         0         0         0         0         0         0         0
         0         0         0         0         0         0         0         0
         0         0         0         0         0         0         0         0
         0         0         0         0         0         0         0         0
         0         0         0         0         0         0         0         0
         0         0         0         0         0         0         0         0
         0         0         0         0         0         0         0         0
         0         0         0         0         0         0         0         0
         0         0         0         0         0         0         0         0
         0         0         0         0         0         0         0         0
         0         0         0         0         0         0         0         0
         0         0         0         0         0         0         0         0
         0         0         0         0         0         0         0         0
         0         0         0         0         0         0         0         0
         0         0         0         0         0         0         0         0
         0         0         0         0         0         0         0         0
         0         0         0         0         0         0         0         0
         0         0         0         0         0         0         0         0
         0         0         0         0         0         0         0         0
         0         0         0         0         0         0         0         0
         0         0         0         0         0         0         0         0
         0         0         0         0         0         0         0         0
         0         0         0         0         0         0         0         0
         0         0         0         0         0         0         0         0
         0         0         0         0         0         0         0         0
         0         0         0         0         0         0         0         0
         0         0         0         0         0         0         0         0
         0         0         0         0         0         0         0         0
         0         0         0         0         0         0         0         0
         0         0         0         0         0         0         0         0
         0         0         0         0         0         0         0         0
         0         0         0         0         0         0         0         0
         0         0         0         0         0         0         0         0
         0         0         0         0         0         0         0         0
         0         0         0         0         0         0         0         0
         0         0         0         0         0         0         0         0
         0         0         0         0         0         0         0         0
         0         0         0         0         0         0         0         0
         0         0         0         0         0         0         0         0
         0         0         0         0         0         0         0         0
         0         0         0         0         0         0         0         0
         0         0         0         0         0         0         0         0
         0         0         0         0         0         0         0         0
         0         0         0         0         0         0         0         0
         0         0         0         0         0         0         0         0
         0         0         0         0         0         0         0         0
         0         0         0         0         0         0         0         0
         0         0         0         0         0         0         0         0
         0         0         0         0         0         0         0         0
         0         0         0         0         0         0         0         0
         0         0         0         0         0         0         0         0
         0         0         0         0         0         0         0         0
         0         0         0         0         0         0         0         0
         0         0         0         0         0         0         0         0
         0         0         0         0         0         0         0         0
         0         0         0         0         0         0         0         0
         0         0         0         0         0         0         0         0
         0         0         0         0         0         0         0         0
         0         0         0         0         0         0         0         0
         0         0         0         0         0         0         0         0
         0         0         0         0         0         0         0         0
         0         0         0         0         0         0         0         0
         0         0         0         0         0         0         0         0
         0         0         0         0         0         0         0         0
         0         0         0         0         0         0         0         0
         0         0         0         0         0         0         0         0
         0         0         0         0         0         0         0         0
         0         0         0         0         0         0         0         0
         0         0         0         0         0         0         0         0
         0         0         0         0         0         0         0         0
         0         0         0         0         0         0         0         0
         0         0         0         0         0         0         0         0
         0         0         0         0         0         0         0         0
         0         0         0         0         0         0         0         0
         0         0         0         0         0         0         0         0
         0         0         0         0         0         0         0         0
         0         0         0         0         0         0         0         0
         0         0         0         0         0         0         0         0
         0         0         0         0         0         0         0         0
         0         0         0         0         0         0         0         0
         0         0         0         0         0         0         0         0
         0         0         0         0         0         0         0         0
         0         0         0         0         0         0         0         0
         0         0         0         0         0         0         0         0
         0         0         0         0         0         0         0         0
         0         0         0         0         0         0         0         0
         0         0         0         0         0         0         0         0
         0         0         0         0         0         0         0         0
         0         0         0         0         0         0         0         0
         0         0         0         0         0         0         0         0
         0         0         0         0         0         0         0         0
         0         0         0         0         0         0         0         0
         0         0         0         0         0         0         0         0
         0         0         0         0         0         0         0         0
         0         0         0         0         0         0         0         0
         0         0         0         0         0         0         0         0
         0         0         0         0         0         0         0         0
         0         0         0         0         0         0         0         0
         0         0         0         0         0         0         0         0
         0         0         0         0         0         0         0         0
         0         0         0         0         0         0         0         0
         0         0         0         0         0         0         0         0
         0         0         0         0         0         0         0         0
         0         0         0         0         0         0         0         0
         0         0         0         0         0         0         0         0
         0         0         0         0         0         0         0         0
         0         0         0         0         0         0         0         0
         0         0         0         0         0         0         0         0
         0         0         0         0         0         0         0         0
         0         0         0         0         0         0         0         0
         0         0         0         0         0         0         0         0
         0         0         0         0         0         0         0         0
         0         0         0         0         0         0         0         0
         0         0         0         0         0         0         0         0
         0         0         0         0         0         0         0         0
         0         0         0         0         0         0         0         0
         0         0         0         0         0         0         0         0
         0         0         0         0         0         0         0         0
         0         0         0         0         0         0         0         0
         0         0         0         0         0         0         0         0
         0         0         0         0         0         0         0         0
         0         0         0         0         0         0         0         0
         0         0         0         0         0         0         0         0
         0         0         0         0         0         0         0         0
         0         0         0         0         0         0         0         0
         0         0         0         0         0         0         0         0
         0         0         0         0         0         0         0         0
         0         0         0         0         0         0         0         0
         0         0         0         0         0         0         0         0
         0         0         0         0         0         0         0         0
         0         0         0         0         0         0         0         0
         0         0         0         0         0         0         0         0
         0         0         0         0         0         0         0         0
         0         0         0         0         0         0         0         0
         0         0         0         0         0         0         0         0
         0         0         0         0         0         0         0         0
         0         0         0         0         0         0         0         0
         0         0         0         0         0         0         0         0
         0         0         0         0         0         0         0         0
         0         0         0         0         0         0         0         0
         0         0         0         0         0         0         0         0
         0         0         0         0         0         0         0         0
         0         0         0         0         0         0         0         0
         0         0         0         0         0         0         0         0
         0         0         0         0         0         0         0         0
         0         0         0         0         0         0         0         0
         0         0         0         0         0         0         0         0
         0         0         0         0         0         0         0         0
         0         0         0         0         0         0         0         0
         0         0         0         0         0         0         0         0
         0         0         0         0         0         0         0         0
         0         0         0         0         0         0         0         0
         0         0         0         0         0         0         0         0
         0         0         0         0         0         0         0         0
         0         0         0         0         0         0         0         0
         0         0         0         0         0         0         0         0
         0         0         0         0         0         0         0         0
         0         0         0         0         0         0         0         0
         0         0         0         0         0         0         0         0
         0         0         0         0         0         0         0         0
         0         0         0         0         0         0         0         0
         0         0         0         0         0         0         0         0
         0         0         0         0         0         0         0         0
         0         0         0         0         0         0         0         0
         0         0         0         0         0         0         0         0
         0         0         0         0         0         0         0         0
         0         0         0         0         0         0         0         0
         0         0         0         0         0         0         0         0
         0         0         0         0         0         0         0         0
         0         0         0         0         0         0         0         0
         0         0         0         0         0         0         0         0
         0         0         0         0         0         0         0         0
         0         0         0         0         0         0         0         0
         0         0         0         0         0         0         0         0
         0         0         0         0         0         0         0         0
         0         0         0         0         0         0         0         0
         0         0         0         0         0         0         0         0
         0         0         0         0         0         0         0         0
         0         0         0         0         0         0         0         0
         0         0         0         0         0         0         0         0
         0         0         0         0         0         0         0         0
         0         0         0         0         0         0         0         0
         0         0         0         0         0         0         0         0
         0         0         0         0         0         0         0         0
         0         0         0         0         0         0         0         0
         0         0         0         0         0         0         0         0
         0         0         0         0         0         0         0         0
         0         0         0         0         0         0         0         0
         0         0         0         0         0         0         0         0
         0         0         0         0         0         0         0         0
         0         0         0         0         0         0         0         0
         0         0         0         0         0         0         0         0
         0         0         0         0         0         0         0         0
         0         0         0         0         0         0         0         0
         0         0         0         0         0         0         0         0
         0         0         0         0         0         0         0         0
         0         0         0         0         0         0         0         0
         0         0         0         0         0         0         0         0
         0         0         0         0         0         0         0         0
         0         0         0         0         0         0         0         0
         0         0         0         0         0         0         0         0
         0         0         0         0         0         0         0         0
         0         0         0         0         0         0         0         0
         0         0         0         0         0         0         0         0
         0         0         0         0         0         0         0         0
         0         0         0         0         0         0         0         0
         0         0         0         0         0         0         0         0
         0         0         0         0         0         0         0         0
         0         0         0         0         0         0         0         0
         0         0         0         0         0         0         0         0
         0         0         0         0         0         0         0         0
         0         0         0         0         0         0         0         0
         0         0         0         0         0         0         0         0
         0         0         0         0         0         0         0         0
         0         0         0         0         0         0         0         0
         0         0         0         0         0         0         0         0
         0         0         0         0         0         0         0         0
         0         0         0         0         0         0         0         0
         0         0         0         0         0         0         0         0
         0         0         0         0         0         0         0         0
         0         0         0         0         0         0         0         0
         0         0         0         0         0         0         0         0
         0         0         0         0         0         0         0         0
         0         0         0         0         0         0         0         0
         0         0         0         0         0         0         0         0
         0         0         0         0         0         0         0         0
         0         0         0         0         0         0         0         0
         0         0         0         0         0         0         0         0
         0         0         0         0         0         0         0         0
         0         0         0         0         0         0         0         0
         0         0         0         0         0         0         0         0
         0         0         0         0         0         0         0         0
         0         0         0         0         0         0         0         0
         0         0         0         0         0         0         0         0
         0         0         0         0         0         0         0         0
         0         0         0         0         0         0         0         0
         0         0         0         0         0         0         0         0
         0         0         0         0         0         0         0         0
         0         0         0         0         0         0         0         0
         0         0         0         0         0         0         0         0
         0         0         0         0         0         0         0         0
         0         0         0         0         0         0         0         0
         0         0         0         0         0         0         0         0
         0         0         0         0         0         0         0         0
         0         0         0         0         0         0         0         0
         0         0         0         0         0         0         0         0
         0         0         0         0         0         0         0         0
         0         0         0         0         0         0         0         0
         0         0         0         0         0         0         0         0
         0         0         0         0         0         0         0         0
         0         0         0         0         0         0         0         0
         0         0         0         0         0         0         0         0
         0         0         0         0         0         0         0         0
         0         0         0         0         0         0         0         0
         0         0         0         0         0         0         0         0
         0         0         0         0         0         0         0         0
         0         0         0         0         0         0         0         0
         0         0         0         0         0         0         0         0
         0         0         0         0         0         0         0         0
         0         0         0         0         0         0         0         0
         0         0         0         0         0         0         0         0
         0         0         0         0         0         0         0         0
         0         0         0         0         0         0         0         0
         0         0         0         0         0         0         0         0
         0         0         0         0         0         0         0         0
         0         0         0         0         0         0         0         0
         0         0         0         0         0         0         0         0
         0         0         0         0         0         0         0         0
         0         0         0         0         0         0         0         0
         0         0         0         0         0         0         0         0
         0         0         0         0         0         0         0         0
         0         0         0         0         0         0         0         0
         0         0         0         0         0         0         0         0
         0         0         0         0         0         0         0         0
         0         0         0         0         0         0         0         0
         0         0         0         0         0         0         0         0
         0         0         0         0         0         0         0         0
         0         0         0         0         0         0         0         0
         0         0         0         0         0         0         0         0
         0         0         0         0         0         0         0         0
         0         0         0         0         0         0         0         0
         0         0         0         0         0         0         0         0
         0         0         0         0         0         0         0         0
         0         0         0         0         0         0         0         0
         0         0         0         0         0         0         0         0
         0         0         0         0         0         0         0         0
         0         0         0         0         0         0         0         0
         0         0         0         0         0         0         0         0
         0         0         0         0         0         0         0         0
         0         0         0         0         0         0         0         0
         0         0         0         0         0         0         0         0
         0         0         0         0         0         0         0         0
         0         0         0         0         0         0         0         0
         0         0         0         0         0         0         0         0
         0         0         0         0         0         0         0         0
         0         0         0         0         0         0         0         0
         0         0         0         0         0         0         0         0
         0         0         0         0         0         0         0         0
         0         0         0         0         0         0         0         0
         0         0         0         0         0         0         0         0
         0         0         0         0         0         0         0         0
         0         0         0         0         0         0         0         0
         0         0         0         0         0         0         0         0
         0         0         0         0         0         0         0         0
         0         0         0         0         0         0         0         0
         0         0         0         0         0         0         0         0
         0         0         0         0         0         0         0         0
         0         0         0         0         0         0         0         0
         0         0         0         0         0         0         0         0
         0         0         0         0         0         0         0         0
         0         0         0         0         0         0         0         0
         0         0         0         0         0         0         0         0
         0         0         0         0         0         0         0         0
         0         0         0         0         0         0         0         0
         0         0         0         0         0         0         0         0
         0         0         0         0         0         0         0         0
         0         0         0         0         0         0         0         0
         0         0         0         0         0         0         0         0
         0         0         0         0         0         0         0         0
         0         0         0         0         0         0         0         0
         0         0         0         0         0         0         0         0
         0         0         0         0         0         0         0         0
         0         0         0         0         0         0         0         0
         0         0         0         0         0         0         0         0
         0         0         0         0         0         0         0         0
         0         0         0         0         0         0         0         0
         0         0         0         0         0         0         0         0
         0         0         0         0         0         0         0         0
         0         0         0         0         0         0         0         0
         0         0         0         0         0         0         0         0
         0         0         0         0         0         0         0         0
         0         0         0         0         0         0         0         0
         0         0         0         0         0         0         0         0
         0         0         0         0         0         0         0         0
         0         0         0         0         0         0         0         0
         0         0         0         0         0         0         0         0
         0         0         0         0         0         0         0         0
         0         0         0         0         0         0         0         0
         0         0         0         0         0         0         0         0
         0         0         0         0         0         0         0         0
         0         0         0         0         0         0         0         0
         0         0         0         0         0         0         0         0
         0         0         0         0         0         0         0         0
         0         0         0         0         0         0         0         0
         0         0         0         0         0         0         0         0
         0         0         0         0         0         0         0         0
         0         0         0         0         0         0         0         0
         0         0         0         0         0         0         0         0
         0         0         0         0         0         0         0         0
         0         0         0         0         0         0         0         0
         0         0         0         0         0         0         0         0
         0         0         0         0         0         0         0         0
         0         0         0         0         0         0         0         0
         0         0         0         0         0         0         0         0
         0         0         0         0         0         0         0         0
         0         0         0         0         0         0         0         0
         0         0         0         0         0         0         0         0
         0         0         0         0         0         0         0         0
         0         0         0         0         0         0         0         0
         0         0         0         0         0         0         0         0
         0         0         0         0         0         0         0         0
         0         0         0         0         0         0         0         0
         0         0         0         0         0         0         0         0
         0         0         0         0         0         0         0         0
         0         0         0         0         0         0         0         0
         0         0         0         0         0         0         0         0
         0         0         0         0         0         0         0         0
         0         0         0         0         0         0         0         0
         0         0         0         0         0         0         0         0
         0         0         0         0         0         0         0         0
         0         0         0         0         0         0         0         0
         0         0         0         0         0         0         0         0
         0         0         0         0         0         0         0         0
         0         0         0         0         0         0         0         0
         0         0         0         0         0         0         0         0
         0         0         0         0         0         0         0         0
         0         0         0         0         0         0         0         0
         0         0         0         0         0         0         0         0
         0         0         0         0         0         0         0         0
         0         0         0         0         0         0         0         0
         0         0         0         0         0         0         0         0
         0         0         0         0         0         0         0         0
         0         0         0         0         0         0         0         0
         0         0         0         0         0         0         0         0
         0         0         0         0         0         0         0         0
         0         0         0         0         0         0         0         0
         0         0         0         0         0         0         0         0
         0         0         0         0         0         0         0         0
         0         0         0         0         0         0         0         0
         0         0         0         0         0         0         0         0
         0         0         0         0         0         0         0         0
         0         0         0         0         0         0         0         0
         0         0         0         0         0         0         0         0
         0         0         0         0         0         0         0         0
         0         0         0         0         0         0         0         0
         0         0         0         0         0         0         0         0
         0         0         0         0         0         0         0         0
         0         0         0         0         0         0         0         0
         0         0         0         0         0         0         0         0
         0         0         0         0         0         0         0         0
         0         0         0         0         0         0         0         0
         0         0         0         0         0         0         0         0
         0         0         0         0         0         0         0         0
         0         0         0         0         0         0         0         0
         0         0         0         0         0         0         0         0
         0         0         0         0         0         0         0         0
         0         0         0         0         0         0         0         0
         0         0         0         0         0         0         0         0
         0         0         0         0         0         0         0         0
         0         0         0         0         0         0         0         0
         0         0         0         0         0         0         0         0
         0         0         0         0         0         0         0         0
         0         0         0         0         0         0         0         0
         0         0         0         0         0         0         0         0
         0         0         0         0         0         0         0         0
         0         0         0         0         0         0         0         0
         0         0         0         0         0         0         0         0
         0         0         0         0         0         0         0         0
         0         0         0         0         0         0         0         0
         0         0         0         0         0         0         0         0
         0         0         0         0         0         0         0         0
         0         0         0         0         0         0         0         0
         0         0         0         0         0         0         0         0
         0         0         0         0         0         0         0         0
         0         0         0         0         0         0         0         0
         0         0         0         0         0         0         0         0
         0         0         0         0         0         0         0         0
         0         0         0         0         0         0         0         0
         0         0         0         0         0         0         0         0
         0         0         0         0         0         0         0         0
         0         0         0         0         0         0         0         0
         0         0         0         0         0         0         0         0
         0         0         0         0         0         0         0         0
         0         0         0         0         0         0         0         0
         0         0         0         0         0         0         0         0
         0         0         0         0         0         0         0         0
         0         0         0         0         0         0         0         0
         0         0         0         0         0         0         0         0
         0         0         0         0         0         0         0         0
         0         0         0         0         0         0         0         0
         0         0         0         0         0         0         0         0
         0         0         0         0         0         0         0         0
         0         0         0         0         0         0         0         0
         0         0         0         0         0         0         0         0
         0         0         0         0         0         0         0         0
         0         0         0         0         0         0         0         0
         0         0         0         0         0         0         0         0
         0         0         0         0         0         0         0         0
         0         0         0         0         0         0         0         0
         0         0         0         0         0         0         0         0
         0         0         0         0         0         0         0         0
         0         0         0         0         0         0         0         0
         0         0         0         0         0         0         0         0
         0         0         0         0         0         0         0         0
         0         0         0         0         0         0         0         0
         0         0         0         0         0         0         0         0
         0         0         0         0         0         0         0         0
         0         0         0         0         0         0         0         0
         0         0         0         0         0         0         0         0
         0         0         0         0         0         0         0         0
         0         0         0         0         0         0         0         0
         0         0         0         0         0         0         0         0
         0         0         0         0         0         0         0         0
         0         0         0         0         0         0         0         0
         0         0         0         0         0         0         0         0
         0         0         0         0         0         0         0         0
         0         0         0         0         0         0         0         0
         0         0         0         0         0         0         0         0
         0         0         0         0         0         0         0         0
         0         0         0         0         0         0         0         0
         0         0         0         0         0         0         0         0
         0         0         0         0         0         0         0         0
         0         0         0         0         0         0         0         0
         0         0         0         0         0         0         0         0
         0         0         0         0         0         0         0         0
         0         0         0         0         0         0         0         0
         0         0         0         0         0         0         0         0
         0         0         0         0         0         0         0         0
         0         0         0         0         0         0         0         0
         0         0         0         0         0         0         0         0
         0         0         0         0         0         0         0         0
         0         0         0         0         0         0         0         0
         0         0         0         0         0         0         0         0
         0         0         0         0         0         0         0         0
         0         0         0         0         0         0         0         0
         0         0         0         0         0         0         0         0
         0         0         0         0         0         0         0         0
         0         0         0         0         0         0         0         0
         0         0         0         0         0         0         0         0
         0         0         0         0         0         0         0         0
         0         0         0         0         0         0         0         0
         0         0         0         0         0         0         0         0
         0         0         0         0         0         0         0         0
         0         0         0         0         0         0         0         0
         0         0         0         0         0         0         0         0
         0         0         0         0         0         0         0         0
         0         0         0         0         0         0         0         0
         0         0         0         0         0         0         0         0
         0         0         0         0         0         0         0         0
         0         0         0         0         0         0         0         0
         0         0         0         0         0         0         0         0
         0         0         0         0         0         0         0         0
         0         0         0         0         0         0         0         0
         0         0         0         0         0         0         0         0
         0         0         0         0         0         0         0         0
         0         0         0         0         0         0         0         0
         0         0         0         0         0         0         0         0
         0         0         0         0         0         0         0         0
         0         0         0         0         0         0         0         0
         0         0         0         0         0         0         0         0
         0         0         0         0         0         0         0         0
         0         0         0         0         0         0         0         0
         0         0         0         0         0         0         0         0
         0         0         0         0         0         0         0         0
         0         0         0         0         0         0         0         0
         0         0         0         0         0         0         0         0
         0         0         0         0         0         0         0         0
         0         0         0         0         0         0         0         0
         0         0         0         0         0         0         0         0
         0         0         0         0         0         0         0         0
         0         0         0         0         0         0         0         0
         0         0         0         0         0         0         0         0
         0         0         0         0         0         0         0         0
         0         0         0         0         0         0         0         0
         0         0         0         0         0         0         0         0
         0         0         0         0         0         0         0         0
         0         0         0         0         0         0         0         0
         0         0         0         0         0         0         0         0
         0         0         0         0         0         0         0         0
         0         0         0         0         0         0         0         0
         0         0         0         0         0         0         0         0
         0         0         0         0         0         0         0         0
         0         0         0         0         0         0         0         0
         0         0         0         0         0         0         0         0
         0         0         0         0         0         0         0         0
         0         0         0         0         0         0         0         0
         0         0         0         0         0         0         0         0
         0         0         0         0         0         0         0         0
         0         0         0         0         0         0         0         0
         0         0         0         0         0         0         0         0
         0         0         0         0         0         0         0         0
         0         0         0         0         0         0         0         0
         0         0         0         0         0         0         0         0
         0         0         0         0         0         0         0         0
         0         0         0         0         0         0         0         0
         0         0         0         0         0         0         0         0
         0         0         0         0         0         0         0         0
         0         0         0         0         0         0         0         0
         0         0         0         0         0         0         0         0
         0         0         0         0         0         0         0         0
         0         0         0         0         0         0         0         0
         0         0         0         0         0         0         0         0
         0         0         0         0         0         0         0         0
         0         0         0         0         0         0         0         0
         0         0         0         0         0         0         0         0
         0         0         0         0         0         0         0         0
         0         0         0         0         0         0         0         0
         0         0         0         0         0         0         0         0
         0         0         0         0         0         0         0         0
         0         0         0         0         0         0         0         0
         0         0         0         0         0         0         0         0
         0         0         0         0         0         0         0         0
         0         0         0         0         0         0         0         0
         0         0         0         0         0         0         0         0
         0         0         0         0         0         0         0         0
         0         0         0         0         0         0         0         0
         0         0         0         0         0         0         0         0
         0         0         0         0         0         0         0         0
         0         0         0         0         0         0         0         0
         0         0         0         0         0         0         0         0
         0         0         0         0         0         0         0         0
         0         0         0         0         0         0         0         0
         0         0         0         0         0         0         0         0
         0         0         0         0         0         0         0         0
         0         0         0         0         0         0         0         0
         0         0         0         0         0         0         0         0
         0         0         0         0         0         0         0         0
         0         0         0         0         0         0         0         0
         0         0         0         0         0         0         0         0
         0         0         0         0         0         0         0         0
         0         0         0         0         0         0         0         0
         0         0         0         0         0         0         0         0
         0         0         0         0         0         0         0         0
         0         0         0         0         0         0         0         0
         0         0         0         0         0         0         0         0
         0         0         0         0         0         0         0         0
         0         0         0         0         0         0         0         0
         0         0         0         0         0         0         0         0
         0         0         0         0         0         0         0         0
         0         0         0         0         0         0         0         0
         0         0         0         0         0         0         0         0
         0         0         0         0         0         0         0         0
         0         0         0         0         0         0         0         0
         0         0         0         0         0         0         0         0
         0         0         0         0         0         0         0         0
         0         0         0         0         0         0         0         0
         0         0         0         0         0         0         0         0
         0         0         0         0         0         0         0         0
         0         0         0         0         0         0         0         0
         0         0         0         0         0         0         0         0
         0         0         0         0         0         0         0         0
         0         0         0         0         0         0         0         0
         0         0         0         0         0         0         0         0
         0         0         0         0         0         0         0         0
         0         0         0         0         0         0         0         0
         0         0         0         0         0         0         0         0
         0         0         0         0         0         0         0         0
         0         0         0         0         0         0         0         0
         0         0         0         0         0         0         0         0
         0         0         0         0         0         0         0         0
         0         0         0         0         0         0         0         0
         0         0         0         0         0         0         0         0
         0         0         0         0         0         0         0         0
         0         0         0         0         0         0         0         0
         0         0         0         0         0         0         0         0
         0         0         0         0         0         0         0         0
         0         0         0         0         0         0         0         0
         0         0         0         0         0         0         0         0
         0         0         0         0         0         0         0         0
         0         0         0         0         0         0         0         0
         0         0         0         0         0         0         0         0
         0         0         0         0         0         0         0         0
         0         0         0         0         0         0         0         0
         0         0         0         0         0         0         0         0
         0         0         0         0         0         0         0         0
         0         0         0         0         0         0         0         0
         0         0         0         0         0         0         0         0
         0         0         0         0         0         0         0         0
         0         0         0         0         0         0         0         0
         0         0         0         0         0         0         0         0
         0         0         0         0         0         0         0         0
         0         0         0         0         0         0         0         0
         0         0         0         0         0         0         0         0
         0         0         0         0         0         0         0         0
         0         0         0         0         0         0         0         0
         0         0         0         0         0         0         0         0
         0         0         0         0         0         0         0         0
         0         0         0         0         0         0         0         0
         0         0         0         0         0         0         0         0
         0         0         0         0         0         0         0         0
         0         0         0         0         0         0         0         0
         0         0         0         0         0         0         0         0
         0         0         0         0         0         0         0         0
         0         0         0         0         0         0         0         0
         0         0         0         0         0         0         0         0
         0         0         0         0         0         0         0         0
         0         0         0         0         0         0         0         0
         0         0         0         0         0         0         0         0
         0         0         0         0         0         0         0         0
         0         0         0         0         0         0         0         0
         0         0         0         0         0         0         0         0
         0         0         0         0         0         0         0         0
         0         0         0         0         0         0         0         0
         0         0         0         0         0         0         0         0
         0         0         0         0         0         0         0         0
         0         0         0         0         0         0         0         0
         0         0         0         0         0         0         0         0
         0         0         0         0         0         0         0         0
         0         0         0         0         0         0         0         0
         0         0         0         0         0         0         0         0
         0         0         0         0         0         0         0         0
         0         0         0         0         0         0         0         0
         0         0         0         0         0         0         0         0
         0         0         0         0         0         0         0         0
         0         0         0         0         0         0         0         0
         0         0         0         0         0         0         0         0
         0         0         0         0         0         0         0         0
         0         0         0         0         0         0         0         0
         0         0         0         0         0         0         0         0
         0         0         0         0         0         0         0         0
         0         0         0         0         0         0         0         0
         0         0         0         0         0         0         0         0
         0         0         0         0         0         0         0         0
         0         0         0         0         0         0         0         0
         0         0         0         0         0         0         0         0
         0         0         0         0         0         0         0         0
         0         0         0         0         0         0         0         0
         0         0         0         0         0         0         0         0
         0         0         0         0         0         0         0         0
         0         0         0         0         0         0         0         0
         0         0         0         0         0         0         0         0
         0         0         0         0         0         0         0         0
         0         0         0         0         0         0         0         0
         0         0         0         0         0         0         0         0
         0         0         0         0         0         0         0         0
         0         0         0         0         0         0         0         0
         0         0         0         0         0         0         0         0
         0         0         0         0         0         0         0         0
         0         0         0         0         0         0         0         0
         0         0         0         0         0         0         0         0
         0         0         0         0         0         0         0         0
         0         0         0         0         0         0         0         0
         0         0         0         0         0         0         0         0
         0         0         0         0         0         0         0         0
         0         0         0         0         0         0         0         0
         0         0         0         0         0         0         0         0
         0         0         0         0         0         0         0         0
         0         0         0         0         0         0         0         0
         0         0         0         0         0         0         0         0
         0         0         0         0         0         0         0         0
         0         0         0         0         0         0         0         0
         0         0         0         0         0         0         0         0
         0         0         0         0         0         0         0         0
         0         0         0         0         0         0         0         0
         0         0         0         0         0         0         0         0
         0         0         0         0         0         0         0         0
         0         0         0         0         0         0         0         0
         0         0         0         0         0         0         0         0
         0         0         0         0         0         0         0         0
         0         0         0         0         0         0         0         0
         0         0         0         0         0         0         0         0
         0         0         0         0         0         0         0         0
         0         0         0         0         0         0         0         0
         0         0         0         0         0         0         0         0
         0         0         0         0         0         0         0         0
         0         0         0         0         0         0         0         0
         0         0         0         0         0         0         0         0
         0         0         0         0         0         0         0         0
         0         0         0         0         0         0         0         0
         0         0         0         0         0         0         0         0
         0         0         0         0         0         0         0         0
         0         0         0         0         0         0         0         0
         0         0         0         0         0         0         0         0
         0         0         0         0         0         0         0         0
         0         0         0         0         0         0         0         0
         0         0         0         0         0         0         0         0
         0         0         0         0         0         0         0         0
         0         0         0         0         0         0         0         0
         0         0         0         0         0         0         0         0
         0         0         0         0         0         0         0         0
         0         0         0         0         0         0         0         0
         0         0         0         0         0         0         0         0
         0         0         0         0         0         0         0         0
         0         0         0         0         0         0         0         0
         0         0         0         0         0         0         0         0
         0         0         0         0         0         0         0         0
         0         0         0         0         0         0         0         0
         0         0         0         0         0         0         0         0
         0         0         0         0         0         0         0         0
         0         0         0         0         0         0         0         0
         0         0         0         0         0         0         0         0
         0         0         0         0         0         0         0         0
         0         0         0         0         0         0         0         0
         0         0         0         0         0         0         0         0
         0         0         0         0         0         0         0         0
         0         0         0         0         0         0         0         0
         0         0         0         0         0         0         0         0
         0         0         0         0         0         0         0         0
         0         0         0         0         0         0         0         0
         0         0         0         0         0         0         0         0
         0         0         0         0         0         0         0         0
         0         0         0         0         0         0         0         0
         0         0         0         0         0         0         0         0
         0         0         0         0         0         0         0         0
         0         0         0         0         0         0         0         0
         0         0         0         0         0         0         0         0
         0         0         0         0         0         0         0         0
         0         0         0         0         0         0         0         0
         0         0         0         0         0         0         0         0
         0         0         0         0         0         0         0         0
         0         0         0         0         0         0         0         0
         0         0         0         0         0         0         0         0
         0         0         0         0         0         0         0         0
         0         0         0         0         0         0         0         0
         0         0         0         0         0         0         0         0
         0         0         0         0         0         0         0         0
         0         0         0         0         0         0         0         0
         0         0         0         0         0         0         0         0
         0         0         0         0         0         0         0         0
         0         0         0         0         0         0         0         0
         0         0         0         0         0         0         0         0
         0         0         0         0         0         0         0         0
         0         0         0         0         0         0         0         0
         0         0         0         0         0         0         0         0
         0         0         0         0         0         0         0         0
         0         0         0         0         0         0         0         0
         0         0         0         0         0         0         0         0
         0         0         0         0         0         0         0         0
         0         0         0         0         0         0         0         0
         0         0         0         0         0         0         0         0
         0         0         0         0         0         0         0         0
         0         0         0         0         0         0         0         0
         0         0         0         0         0         0         0         0
         0         0         0         0         0         0         0         0
         0         0         0         0         0         0         0         0
         0         0         0         0         0         0         0         0
         0         0         0         0         0         0         0         0
         0         0         0         0         0         0         0         0
         0         0         0         0         0         0         0         0
         0         0         0         0         0         0         0         0
         0         0         0         0         0         0         0         0
         0         0         0         0         0         0         0         0
         0         0         0         0         0         0         0         0
         0         0         0         0         0         0         0         0
         0         0         0         0         0         0         0         0
         0         0         0         0         0         0         0         0
         0         0         0         0         0         0         0         0
         0         0         0         0         0         0         0         0
         0         0         0         0         0         0         0         0
         0         0         0         0         0         0         0         0
         0         0         0         0         0         0         0         0
         0         0         0         0         0         0         0         0
         0         0         0         0         0         0         0         0
         0         0         0         0         0         0         0         0
         0         0         0         0         0         0         0         0
         0         0         0         0         0         0         0         0
         0         0         0         0         0         0         0         0
         0         0         0         0         0         0         0         0
         0         0         0         0         0         0         0         0
         0         0         0         0         0         0         0         0
         0         0         0         0         0         0         0         0
         0         0         0         0         0         0         0         0
         0         0         0         0         0         0         0         0
         0         0         0         0         0         0         0         0
         0         0         0         0         0         0         0         0
         0         0         0         0         0         0         0         0
         0         0         0         0         0         0         0         0
         0         0         0         0         0         0         0         0
         0         0         0         0         0         0         0         0
         0         0         0         0         0         0         0         0
         0         0         0         0         0         0         0         0
         0         0         0         0         0         0         0         0
         0         0         0         0         0         0         0         0
         0         0         0         0         0         0         0         0
         0         0         0         0         0         0         0         0
         0         0         0         0         0         0         0         0
         0         0         0         0         0         0         0         0
         0         0         0         0         0         0         0         0
         0         0         0         0         0         0         0         0
         0         0         0         0         0         0         0         0
         0         0         0         0         0         0         0         0
         0         0         0         0         0         0         0         0
         0         0         0         0         0         0         0         0
         0         0         0         0         0         0         0         0
         0         0         0         0         0         0         0         0
         0         0         0         0         0         0         0         0
         0         0         0         0         0         0         0         0
         0         0         0         0         0         0         0         0
         0         0         0         0         0         0         0         0
         0         0         0         0         0         0         0         0
         0         0         0         0         0         0         0         0
         0         0         0         0         0         0         0         0
         0         0         0         0         0         0         0         0
         0         0         0         0         0         0         0         0
         0         0         0         0         0         0         0         0
         0         0         0         0         0         0         0         0
         0         0         0         0         0         0         0         0
         0         0         0         0         0         0         0         0
         0         0         0         0         0         0         0         0
         0         0         0         0         0         0         0         0
         0         0         0         0         0         0         0         0
         0         0         0         0         0         0         0         0
         0         0         0         0         0         0         0         0
         0         0         0         0         0         0         0         0
         0         0         0         0         0         0         0         0
         0         0         0         0         0         0         0         0
         0         0         0         0         0         0         0         0
         0         0         0         0         0         0         0         0
         0         0         0         0         0         0         0         0
         0         0         0         0         0         0         0         0
         0         0         0         0         0         0         0         0
         0         0         0         0         0         0         0         0
         0         0         0         0         0         0         0         0
         0         0         0         0         0         0         0         0
         0         0         0         0         0         0         0         0
         0         0         0         0         0         0         0         0
         0         0         0         0         0         0         0         0
         0         0         0         0         0         0         0         0
         0         0         0         0         0         0         0         0
         0         0         0         0         0         0         0         0
         0         0         0         0         0         0         0         0
         0         0         0         0         0         0         0         0
         0         0         0         0         0         0         0         0
         0         0         0         0         0         0         0         0
         0         0         0         0         0         0         0         0
         0         0         0         0         0         0         0         0
         0         0         0         0         0         0         0         0
         0         0         0         0         0         0         0         0
         0         0         0         0         0         0         0         0
         0         0         0         0         0         0         0         0
         0         0         0         0         0         0         0         0
         0         0         0         0         0         0         0         0
         0         0         0         0         0         0         0         0
         0         0         0         0         0         0         0         0
         0         0         0         0         0         0         0         0
         0         0         0         0         0         0         0         0
         0         0         0         0         0         0         0         0
         0         0         0         0         0         0         0         0
         0         0         0         0         0         0         0         0
         0         0         0         0         0         0         0         0
         0         0         0         0         0         0         0         0
         0         0         0         0         0         0         0         0
         0         0         0         0         0         0         0         0
         0         0         0         0         0         0         0         0
         0         0         0         0         0         0         0         0
         0         0         0         0         0         0         0         0
         0         0         0         0         0         0         0         0
         0         0         0         0         0         0         0         0
         0         0         0         0         0         0         0         0
         0         0         0         0         0         0         0         0
         0         0         0         0         0         0         0         0
         0         0         0         0         0         0         0         0
         0         0         0         0         0         0         0         0
         0         0         0         0         0         0         0         0
         0         0         0         0         0         0         0         0
         0         0         0         0         0         0         0         0
         0         0         0         0         0         0         0         0
         0         0         0         0         0         0         0         0
         0         0         0         0         0         0         0         0
         0         0         0         0         0         0         0         0
         0         0         0         0         0         0         0         0
         0         0         0         0         0         0         0         0
         0         0         0         0         0         0         0         0
         0         0         0         0         0         0         0         0
         0         0         0         0         0         0         0         0
         0         0         0         0         0         0         0         0
         0         0         0         0         0         0         0         0
         0         0         0         0         0         0         0         0
         0         0         0         0         0         0         0         0
         0         0         0         0         0         0         0         0
         0         0         0         0         0         0         0         0
         0         0         0         0         0         0         0         0
         0         0         0         0         0         0         0         0
         0         0         0         0         0         0         0         0
         0         0         0         0         0         0         0         0
         0         0         0         0         0         0         0         0
         0         0         0         0         0         0         0         0
         0         0         0         0         0         0         0         0
         0         0         0         0         0         0         0         0
         0         0         0         0         0         0         0         0
         0         0         0         0         0         0         0         0
         0         0         0         0         0         0         0         0
         0         0         0         0         0         0         0         0
         0         0         0         0         0         0         0         0
         0         0         0         0         0         0         0         0
         0         0         0         0         0         0         0         0
         0         0         0         0         0         0         0         0
         0         0         0         0         0         0         0         0
         0         0         0         0         0         0         0         0
         0         0         0         0         0         0         0         0
         0         0         0         0         0         0         0         0
         0         0         0         0         0         0         0         0
         0         0         0         0         0         0         0         0
         0         0         0         0         0         0         0         0
         0         0         0         0         0         0         0         0
         0         0         0         0         0         0         0         0
         0         0         0         0         0         0         0         0
         0         0         0         0         0         0         0         0
         0         0         0         0         0         0         0         0
         0         0         0         0         0         0         0         0
         0         0         0         0         0         0         0         0
         0         0         0         0         0         0         0         0
         0         0         0         0         0         0         0         0
         0         0         0         0         0         0         0         0
         0         0         0         0         0         0         0         0
         0         0         0         0         0         0         0         0
         0         0         0         0         0         0         0         0
         0         0         0         0         0         0         0         0
         0         0         0         0         0         0         0         0
         0         0         0         0         0         0         0         0
         0         0         0         0         0         0         0         0
         0         0         0         0         0         0         0         0
         0         0         0         0         0         0         0         0
         0         0         0         0         0         0         0         0
         0         0         0         0         0         0         0         0
         0         0         0         0         0         0         0         0
         0         0         0         0         0         0         0         0
         0         0         0         0         0         0         0         0
         0         0         0         0         0         0         0         0
         0         0         0         0         0         0         0         0
         0         0         0         0         0         0         0         0
         0         0         0         0         0         0         0         0
         0         0         0         0         0         0         0         0
         0         0         0         0         0         0         0         0
         0         0         0         0         0         0         0         0
         0         0         0         0         0         0         0         0
         0         0         0         0         0         0         0         0
         0         0         0         0         0         0         0         0
         0         0         0         0         0         0         0         0
         0         0         0         0         0         0         0         0
         0         0         0         0         0         0         0         0
         0         0         0         0         0         0         0         0
         0         0         0         0         0         0         0         0
         0         0         0         0         0         0         0         0
         0         0         0         0         0         0         0         0
         0         0         0         0         0         0         0         0
         0         0         0         0         0         0         0         0
         0         0         0         0         0         0         0         0
         0         0         0         0         0         0         0         0
         0         0         0         0         0         0         0         0
         0         0         0         0         0         0         0         0
         0         0         0         0         0         0         0         0
         0         0         0         0         0         0         0         0
         0         0         0         0         0         0         0         0
         0         0         0         0         0         0         0         0
         0         0         0         0         0         0         0         0
         0         0         0         0         0         0         0         0
         0         0         0         0         0         0         0         0
         0         0         0         0         0         0         0         0
         0         0         0         0         0         0         0         0
         0         0         0         0         0         0         0         0
         0         0         0         0         0         0         0         0
         0         0         0         0         0         0         0         0
         0         0         0         0         0         0         0         0
         0         0         0         0         0         0         0         0
         0         0         0         0         0         0         0         0
         0         0         0         0         0         0         0         0
         0         0         0         0         0         0         0         0
         0         0         0         0         0         0         0         0
         0         0         0         0         0         0         0         0
         0         0         0         0         0         0         0         0
         0         0         0         0         0         0         0         0
         0         0         0         0         0         0         0         0
         0         0         0         0         0         0         0         0
         0         0         0         0         0         0         0         0
         0         0         0         0         0         0         0         0
         0         0         0         0         0         0         0         0
         0         0         0         0         0         0         0         0
         0         0         0         0         0         0         0         0
         0         0         0         0         0         0         0         0
         0         0         0         0         0         0         0         0
         0         0         0         0         0         0         0         0
         0         0         0         0         0         0         0         0
         0         0         0         0         0         0         0         0
         0         0         0         0         0         0         0         0
         0         0         0         0         0         0         0         0
         0         0         0         0         0         0         0         0
         0         0         0         0         0         0         0         0
         0         0         0         0         0         0         0         0
         0         0         0         0         0         0         0         0
         0         0         0         0         0         0         0         0
         0         0         0         0         0         0         0         0
         0         0         0         0         0         0         0         0
         0         0         0         0         0         0         0         0
         0         0         0         0         0         0         0         0
         0         0         0         0         0         0         0         0
         0         0         0         0         0         0         0         0
         0         0         0         0         0         0         0         0
         0         0         0         0         0         0         0         0
         0         0         0         0         0         0         0         0
         0         0         0         0         0         0         0         0
         0         0         0         0         0         0         0         0
         0         0         0         0         0         0         0         0
         0         0         0         0         0         0         0         0
         0         0         0         0         0         0         0         0
         0         0         0         0         0         0         0         0
         0         0         0         0         0         0         0         0
         0         0         0         0         0         0         0         0
         0         0         0         0         0         0         0         0
         0         0         0         0         0         0         0         0
         0         0         0         0         0         0         0         0
         0         0         0         0         0         0         0         0
         0         0         0         0         0         0         0         0
         0         0         0         0         0         0         0         0
         0         0         0         0         0         0         0         0
         0         0         0         0         0         0         0         0
         0         0         0         0         0         0         0         0
         0         0         0         0         0         0         0         0
         0         0         0         0         0         0         0         0
         0         0         0         0         0         0         0         0
         0         0         0         0         0         0         0         0
         0         0         0         0         0         0         0         0
         0         0         0         0         0         0         0         0
         0         0         0         0         0         0         0         0
         0         0         0         0         0         0         0         0
         0         0         0         0         0         0         0         0
         0         0         0         0         0         0         0         0
         0         0         0         0         0         0         0         0
         0         0         0         0         0         0         0         0
         0         0         0         0         0         0         0         0
         0         0         0         0         0         0         0         0
         0         0         0         0         0         0         0         0
         0         0         0         0         0         0         0         0
         0         0         0         0         0         0         0         0
         0         0         0         0         0         0         0         0
         0         0         0         0         0         0         0         0
         0         0         0         0         0         0         0         0
         0         0         0         0         0         0         0         0
         0         0         0         0         0         0         0         0
         0         0         0         0         0         0         0         0
         0         0         0         0         0         0         0         0
         0         0         0         0         0         0         0         0
         0         0         0         0         0         0         0         0
         0         0         0         0         0         0         0         0
         0         0         0         0         0         0         0         0
         0         0         0         0         0         0         0         0
         0         0         0         0         0         0         0         0
         0         0         0         0         0         0         0         0
         0         0         0         0         0         0         0         0
         0         0         0         0         0         0         0         0
         0         0         0         0         0         0         0         0
         0         0         0         0         0         0         0         0
         0         0         0         0         0         0         0         0
         0         0         0         0         0         0         0         0
         0         0         0         0         0         0         0         0
         0         0         0         0         0         0         0         0
         0         0         0         0         0         0         0         0
         0         0         0         0         0         0         0         0
         0         0         0         0         0         0         0         0
         0         0         0         0         0         0         0         0
         0         0         0         0         0         0         0         0
         0         0         0         0         0         0         0         0
         0         0         0         0         0         0         0         0
         0         0         0         0         0         0         0         0
         0         0         0         0         0         0         0         0
         0         0         0         0         0         0         0         0
         0         0         0         0         0         0         0         0
         0         0         0         0         0         0         0         0
         0         0         0         0         0         0         0         0
         0         0         0         0         0         0         0         0
         0         0         0         0         0         0         0         0
         0         0         0         0         0         0         0         0
         0         0         0         0         0         0         0         0
         0         0         0         0         0         0         0         0
         0         0         0         0         0         0         0         0
         0         0         0         0         0         0         0         0
         0         0         0         0         0         0         0         0
         0         0         0         0         0         0         0         0
         0         0         0         0         0         0         0         0
         0         0         0         0         0         0         0         0
         0         0         0         0         0         0         0         0
         0         0         0         0         0         0         0         0
         0         0         0         0         0         0         0         0
         0         0         0         0         0         0         0         0
         0         0         0         0         0         0         0         0
         0         0         0         0         0         0         0         0
         0         0         0         0         0         0         0         0
         0         0         0         0         0         0         0         0
         0         0         0         0         0         0         0         0
         0         0         0         0         0         0         0         0
         0         0         0         0         0         0         0         0
         0         0         0         0         0         0         0         0
         0         0         0         0         0         0         0         0
         0         0         0         0         0         0         0         0
         0         0         0         0         0         0         0         0
         0         0         0         0         0         0         0         0
         0         0         0         0         0         0         0         0
         0         0         0         0         0         0         0         0
         0         0         0         0         0         0         0         0
         0         0         0         0         0         0         0         0
         0         0         0         0         0         0         0         0
         0         0         0         0         0         0         0         0
         0         0         0         0         0         0         0         0
         0         0         0         0         0         0         0         0
         0         0         0         0         0         0         0         0
         0         0         0         0         0         0         0         0
         0         0         0         0         0         0         0         0
         0         0         0         0         0         0         0         0
         0         0         0         0         0         0         0         0
         0         0         0         0         0         0         0         0
         0         0         0         0         0         0         0         0
         0         0         0         0         0         0         0         0
         0         0         0         0         0         0         0         0
         0         0         0         0         0         0         0         0
         0         0         0         0         0         0         0         0
         0         0         0         0         0         0         0         0
         0         0         0         0         0         0         0         0
         0         0         0         0         0         0         0         0
         0         0         0         0         0         0         0         0
         0         0         0         0         0         0         0         0
         0         0         0         0         0         0         0         0
         0         0         0         0         0         0         0         0
         0         0         0         0         0         0         0         0
         0         0         0         0         0         0         0         0
         0         0         0         0         0         0         0         0
         0         0         0         0         0         0         0         0
         0         0         0         0         0         0         0         0
         0         0         0         0         0         0         0         0
         0         0         0         0         0         0         0         0
         0         0         0         0         0         0         0         0
         0         0         0         0         0         0         0         0
         0         0         0         0         0         0         0         0
         0         0         0         0         0         0         0         0
         0         0         0         0         0         0         0         0
         0         0         0         0         0         0         0         0
         0         0         0         0         0         0         0         0
         0         0         0         0         0         0         0         0
         0         0         0         0         0         0         0         0
         0         0         0         0         0         0         0         0
         0         0         0         0         0         0         0         0
         0         0         0         0         0         0         0         0
         0         0         0         0         0         0         0         0
         0         0         0         0         0         0         0         0
         0         0         0         0         0         0         0         0
         0         0         0         0         0         0         0         0
         0         0         0         0         0         0         0         0
         0         0         0         0         0         0         0         0
         0         0         0         0         0         0         0         0
         0         0         0         0         0         0         0         0
         0         0         0         0         0         0         0         0
         0         0         0         0         0         0         0         0
         0         0         0         0         0         0         0         0
         0         0         0         0         0         0         0         0
         0         0         0         0         0         0         0         0
         0         0         0         0         0         0         0         0
         0         0         0         0         0         0         0         0
         0         0         0         0         0         0         0         0
         0         0         0         0         0         0         0         0
         0         0         0         0         0         0         0         0
         0         0         0         0         0         0         0         0
         0         0         0         0         0         0         0         0
         0         0         0         0         0         0         0         0
         0         0         0         0         0         0         0         0
         0         0         0         0         0         0         0         0
         0         0         0         0         0         0         0         0
         0         0         0         0         0         0         0         0
         0         0         0         0         0         0         0         0
         0         0         0         0         0         0         0         0
         0         0         0         0         0         0         0         0
         0         0         0         0         0         0         0         0
         0         0         0         0         0         0         0         0
         0         0         0         0         0         0         0         0
         0         0         0         0         0         0         0         0
         0         0         0         0         0         0         0         0
         0         0         0         0         0         0         0         0
         0         0         0         0         0         0         0         0
         0         0         0         0         0         0         0         0
         0         0         0         0         0         0         0         0
         0         0         0         0         0         0         0         0
         0         0         0         0         0         0         0         0
         0         0         0         0         0         0         0         0
         0         0         0         0         0         0         0         0
         0         0         0         0         0         0         0         0
         0         0         0         0         0         0         0         0
         0         0         0         0         0         0         0         0
         0         0         0         0         0         0         0         0
         0         0         0         0         0         0         0         0
         0         0         0         0         0         0         0         0
         0         0         0         0         0         0         0         0
         0         0         0         0         0         0         0         0
         0         0         0         0         0         0         0         0
         0         0         0         0         0         0         0         0
         0         0         0         0         0         0         0         0
         0         0         0         0         0         0         0         0
         0         0         0         0         0         0         0         0
         0         0         0         0         0         0         0         0
         0         0         0         0         0         0         0         0
         0         0         0         0         0         0         0         0
         0         0         0         0         0         0         0         0
         0         0         0         0         0         0         0         0
         0         0         0         0         0         0         0         0
         0         0         0         0         0         0         0         0
         0         0         0         0         0         0         0         0
         0         0         0         0         0         0         0         0
         0         0         0         0         0         0         0         0
         0         0         0         0         0         0         0         0
         0         0         0         0         0         0         0         0
         0         0         0         0         0         0         0         0
         0         0         0         0         0         0         0         0
         0         0         0         0         0         0         0         0
         0         0         0         0         0         0         0         0
         0         0         0         0         0         0         0         0
         0         0         0         0         0         0         0         0
         0         0         0         0         0         0         0         0
         0         0         0         0         0         0         0         0
         0         0         0         0         0         0         0         0
         0         0         0         0         0         0         0         0
         0         0         0         0         0         0         0         0
         0         0         0         0         0         0         0         0
         0         0         0         0         0         0         0         0
         0         0         0         0         0         0         0         0
         0         0         0         0         0         0         0         0
         0         0         0         0         0         0         0         0
         0         0         0         0         0         0         0         0
         0         0         0         0         0         0         0         0
         0         0         0         0         0         0         0         0
         0         0         0         0         0         0         0         0
         0         0         0         0         0         0         0         0
         0         0         0         0         0         0         0         0
         0         0         0         0         0         0         0         0
         0         0         0         0         0         0         0         0
         0         0         0         0         0         0         0         0
         0         0         0         0         0         0         0         0
         0         0         0         0         0         0         0         0
         0         0         0         0         0         0         0         0
         0         0         0         0         0         0         0         0
         0         0         0         0         0         0         0         0
         0         0         0         0         0         0         0         0
         0         0         0         0         0         0         0         0
         0         0         0         0         0         0         0         0
         0         0         0         0         0         0         0         0
         0         0         0         0         0         0         0         0
         0         0         0         0         0         0         0         0
         0         0         0         0         0         0         0         0
         0         0         0         0         0         0         0         0
         0         0         0         0         0         0         0         0
         0         0         0         0         0         0         0         0
         0         0         0         0         0         0         0         0
         0         0         0         0         0         0         0         0
         0         0         0         0         0         0         0         0
         0         0         0         0         0         0         0         0
         0         0         0         0         0         0         0         0
         0         0         0         0         0         0         0         0
         0         0         0         0         0         0         0         0
         0         0         0         0         0         0         0         0
         0         0         0         0         0         0         0         0
         0         0         0         0         0         0         0         0
         0         0         0         0         0         0         0         0
         0         0         0         0         0         0         0         0
         0         0         0         0         0         0         0         0
         0         0         0         0         0         0         0         0
         0         0         0         0         0         0         0         0
         0         0         0         0         0         0         0         0
         0         0         0         0         0         0         0         0
         0         0         0         0         0         0         0         0
         0         0         0         0         0         0         0         0
         0         0         0         0         0         0         0         0
         0         0         0         0         0         0         0         0
         0         0         0         0         0         0         0         0
         0         0         0         0         0         0         0         0
         0         0         0         0         0         0         0         0
         0         0         0         0         0         0         0         0
         0         0         0         0         0         0         0         0
         0         0         0         0         0         0         0         0
         0         0         0         0         0         0         0         0
         0         0         0         0         0         0         0         0
         0         0         0         0         0         0         0         0
         0         0         0         0         0         0         0         0
         0         0         0         0         0         0         0         0
         0         0         0         0         0         0         0         0
         0         0         0         0         0         0         0         0
         0         0         0         0         0         0         0         0
         0         0         0         0         0         0         0         0
         0         0         0         0         0         0         0         0
         0         0         0         0         0         0         0         0
         0         0         0         0         0         0         0         0
         0         0         0         0         0         0         0         0
         0         0         0         0         0         0         0         0
         0         0         0         0         0         0         0         0
         0         0         0         0         0         0         0         0
         0         0         0         0         0         0         0         0
         0         0         0         0         0         0         0         0
         0         0         0         0         0         0         0         0
         0         0         0         0         0         0         0         0
         0         0         0         0         0         0         0         0
         0         0         0         0         0         0         0         0
         0         0         0         0         0         0         0         0
         0         0         0         0         0         0         0         0
         0         0         0         0         0         0         0         0
         0         0         0         0         0         0         0         0
         0         0         0         0         0         0         0         0
         0         0         0         0         0         0         0         0
         0         0         0         0         0         0         0         0
         0         0         0         0         0         0         0         0
         0         0         0         0         0         0         0         0
         0         0         0         0         0         0         0         0
         0         0         0         0         0         0         0         0
         0         0         0         0         0         0         0         0
         0         0         0         0         0         0         0         0
         0         0         0         0         0         0         0         0
         0         0         0         0         0         0         0         0
         0         0         0         0         0         0         0         0
         0         0         0         0         0         0         0         0
         0         0         0         0         0         0         0         0
         0         0         0         0         0         0         0         0
         0         0         0         0         0         0         0         0
         0         0         0         0         0         0         0         0
         0         0         0         0         0         0         0         0
         0         0         0         0         0         0         0         0
         0         0         0         0         0         0         0         0
         0         0         0         0         0         0         0         0
         0         0         0         0         0         0         0         0
         0         0         0         0         0         0         0         0
         0         0         0         0         0         0         0         0
         0         0         0         0         0         0         0         0
         0         0         0         0         0         0         0         0
         0         0         0         0         0         0         0         0
         0         0         0         0         0         0         0         0
         0         0         0         0         0         0         0         0
         0         0         0         0         0         0         0         0
         0         0         0         0         0         0         0         0
         0         0         0         0         0         0         0         0
         0         0         0         0         0         0         0         0
         0         0         0         0         0         0         0         0
         0         0         0         0         0         0         0         0
         0         0         0         0         0         0         0         0
         0         0         0         0         0         0         0         0
         0         0         0         0         0         0         0         0
         0         0         0         0         0         0         0         0
         0         0         0         0         0         0         0         0
         0         0         0         0         0         0         0         0
         0         0         0         0         0         0         0         0
         0         0         0         0         0         0         0         0
         0         0         0         0         0         0         0         0
         0         0         0         0         0         0         0         0
         0         0         0         0         0         0         0         0
         0         0         0         0         0         0         0         0
         0         0         0         0         0         0         0         0
         0         0         0         0         0         0         0         0
         0         0         0         0         0         0         0         0
         0         0         0         0         0         0         0         0
         0         0         0         0         0         0         0         0
         0         0         0         0         0         0         0         0
         0         0         0         0         0         0         0         0
         0         0         0         0         0         0         0         0
         0         0         0         0         0         0         0         0
         0         0         0         0         0         0         0         0
         0         0         0         0         0         0         0         0
         0         0         0         0         0         0         0         0
         0         0         0         0         0         0         0         0
         0         0         0         0         0         0         0         0
         0         0         0         0         0         0         0         0
         0         0         0         0         0         0         0         0
         0         0         0         0         0         0         0         0
         0         0         0         0         0         0         0         0
         0         0         0         0         0         0         0         0
         0         0         0         0         0         0         0         0
         0         0         0         0         0         0         0         0
         0         0         0         0         0         0         0         0
         0         0         0         0         0         0         0         0
         0         0         0         0         0         0         0         0
         0         0         0         0         0         0         0         0
         0         0         0         0         0         0         0         0
         0         0         0         0         0         0         0         0
         0         0         0         0         0         0         0         0
         0         0         0         0         0         0         0         0
         0         0         0         0         0         0         0         0
         0         0         0         0         0         0         0         0
         0         0         0         0         0         0         0         0
         0         0         0         0         0         0         0         0
         0         0         0         0         0         0         0         0
         0         0         0         0         0         0         0         0
         0         0         0         0         0         0         0         0
         0         0         0         0         0         0         0         0
         0         0         0         0         0         0         0         0
         0         0         0         0         0         0         0         0
         0         0         0         0         0         0         0         0
         0         0         0         0         0         0         0         0
         0         0         0         0         0         0         0         0
         0         0         0         0         0         0         0         0
         0         0         0         0         0         0         0         0
         0         0         0         0         0         0         0         0
         0         0         0         0         0         0         0         0
         0         0         0         0         0         0         0         0
         0         0         0         0         0         0         0         0
         0         0         0         0         0         0         0         0
         0         0         0         0         0         0         0         0
         0         0         0         0         0         0         0         0
         0         0         0         0         0         0         0         0
         0         0         0         0         0         0         0         0
         0         0         0         0         0         0         0         0
         0         0         0         0         0         0         0         0
         0         0         0         0         0         0         0         0
         0         0         0         0         0         0         0         0
         0         0         0         0         0         0         0         0
         0         0         0         0         0         0         0         0
         0         0         0         0         0         0         0         0
         0         0         0         0         0         0         0         0
         0         0         0         0         0         0         0         0
         0         0         0         0         0         0         0         0
         0         0         0         0         0         0         0         0
         0         0         0         0         0         0         0         0
         0         0         0         0         0         0         0         0
         0         0         0         0         0         0         0         0
         0         0         0         0         0         0         0         0
         0         0         0         0         0         0         0         0
         0         0         0         0         0         0         0         0
         0         0         0         0         0         0         0         0
         0         0         0         0         0         0         0         0
         0         0         0         0         0         0         0         0
         0         0         0         0         0         0         0         0
         0         0         0         0         0         0         0         0
         0         0         0         0         0         0         0         0
         0         0         0         0         0         0         0         0
         0         0         0         0         0         0         0         0
         0         0         0         0         0         0         0         0
         0         0         0         0         0         0         0         0
         0         0         0         0         0         0         0         0
         0         0         0         0         0         0         0         0
         0         0         0         0         0         0         0         0
         0         0         0         0         0         0         0         0
         0         0         0         0         0         0         0         0
         0         0         0         0         0         0         0         0
         0         0         0         0         0         0         0         0
         0         0         0         0         0         0         0         0
         0         0         0         0         0         0         0         0
         0         0         0         0         0         0         0         0
         0         0         0         0         0         0         0         0
         0         0         0         0         0         0         0         0
         0         0         0         0         0         0         0         0
         0         0         0         0         0         0         0         0
         0         0         0         0         0         0         0         0
         0         0         0         0         0         0         0         0
         0         0         0         0         0         0         0         0
         0         0         0         0         0         0         0         0
         0         0         0         0         0         0         0         0
         0         0         0         0         0         0         0         0
         0         0         0         0         0         0         0         0
         0         0         0         0         0         0         0         0
         0         0         0         0         0         0         0         0
         0         0         0         0         0         0         0         0
         0         0         0         0         0         0         0         0
         0         0         0         0         0         0         0         0
         0         0         0         0         0         0         0         0
         0         0         0         0         0         0         0         0
         0         0         0         0         0         0         0         0
         0         0         0         0         0         0         0         0
         0         0         0         0         0         0         0         0
         0         0         0         0         0         0         0         0
         0         0         0         0         0         0         0         0
         0         0         0         0         0         0         0         0
         0         0         0         0         0         0         0         0
         0         0         0         0         0         0         0         0
         0         0         0         0         0         0         0         0
         0         0         0         0         0         0         0         0
         0         0         0         0         0         0         0         0
         0         0         0         0         0         0         0         0
         0         0         0         0         0         0         0         0
         0         0         0         0         0         0         0         0
         0         0         0         0         0         0         0         0
         0         0         0         0         0         0         0         0
         0         0         0         0         0         0         0         0
         0         0         0         0         0         0         0         0
         0         0         0         0         0         0         0         0
         0         0         0         0         0         0         0         0
         0         0         0         0         0         0         0         0
         0         0         0         0         0         0         0         0
         0         0         0         0         0         0         0         0
         0         0         0         0         0         0         0         0
         0         0         0         0         0         0         0         0
         0         0         0         0         0         0         0         0
         0         0         0         0         0         0         0         0
         0         0         0         0         0         0         0         0
         0         0         0         0         0         0         0         0
         0         0         0         0         0         0         0         0
         0         0         0         0         0         0         0         0
         0         0         0         0         0         0         0         0
         0         0         0         0         0         0         0         0
         0         0         0         0         0         0         0         0
         0         0         0         0         0         0         0         0
         0         0         0         0         0         0         0         0
         0         0         0         0         0         0         0         0
         0         0         0         0         0         0         0         0
         0         0         0         0         0         0         0         0
         0         0         0         0         0         0         0         0
         0         0         0         0         0         0         0         0
         0         0         0         0         0         0         0         0
         0         0         0         0         0         0         0         0
         0         0         0         0         0         0         0         0
         0         0         0         0         0         0         0         0
         0         0         0         0         0         0         0         0
         0         0         0         0         0         0         0         0
         0         0         0         0         0         0         0         0
         0         0         0         0         0         0         0         0
         0         0         0         0         0         0         0         0
         0         0         0         0         0         0         0         0
         0         0         0         0         0         0         0         0
         0         0         0         0         0         0         0         0
         0         0         0         0         0         0         0         0
         0         0         0         0         0         0         0         0
         0         0         0         0         0         0         0         0
         0         0         0         0         0         0         0         0
         0         0         0         0         0         0         0         0
         0         0         0         0         0         0         0         0
         0         0         0         0         0         0         0         0
         0         0         0         0         0         0         0         0
         0         0         0         0         0         0         0         0
         0         0         0         0         0         0         0         0
         0         0         0         0         0         0         0         0
         0         0         0         0         0         0         0         0
         0         0         0         0         0         0         0         0
         0         0         0         0         0         0         0         0
         0         0         0         0         0         0         0         0
         0         0         0         0         0         0         0         0
         0         0         0         0         0         0         0         0
         0         0         0         0         0         0         0         0
         0         0         0         0         0         0         0         0
         0         0         0         0         0         0         0         0
         0         0         0         0         0         0         0         0
         0         0         0         0         0         0         0         0
         0         0         0         0         0         0         0         0
         0         0         0         0         0         0         0         0
         0         0         0         0         0         0         0         0
         0         0         0         0         0         0         0         0
         0         0         0         0         0         0         0         0
         0         0         0         0         0         0         0         0
         0         0         0         0         0         0         0         0
         0         0         0         0         0         0         0         0
         0         0         0         0         0         0         0         0
         0         0         0         0         0         0         0         0
         0         0         0         0         0         0         0         0
         0         0         0         0         0         0         0         0
         0         0         0         0         0         0         0         0
         0         0         0         0         0         0         0         0
         0         0         0         0         0         0         0         0
         0         0         0         0         0         0         0         0
         0         0         0         0         0         0         0         0
         0         0         0         0         0         0         0         0
         0         0         0         0         0         0         0         0
         0         0         0         0         0         0         0         0
         0         0         0         0         0         0         0         0
         0         0         0         0         0         0         0         0
         0         0         0         0         0         0         0         0
         0         0         0         0         0         0         0         0
         0         0         0         0         0         0         0         0
         0         0         0         0         0         0         0         0
         0         0         0         0         0         0         0         0
         0         0         0         0         0         0         0         0
         0         0         0         0         0         0         0         0
         0         0         0         0         0         0         0         0
         0         0         0         0         0         0         0         0
         0         0         0         0         0         0         0         0
         0         0         0         0         0         0         0         0
         0         0         0         0         0         0         0         0
         0         0         0         0         0         0         0         0
         0         0         0         0         0         0         0         0
         0         0         0         0         0         0         0         0
         0         0         0         0         0         0         0         0
         0         0         0         0         0         0         0         0
         0         0         0         0         0         0         0         0
         0         0         0         0         0         0         0         0
         0         0         0         0         0         0         0         0
         0         0         0         0         0         0         0         0
         0         0         0         0         0         0         0         0
         0         0         0         0         0         0         0         0
         0         0         0         0         0         0         0         0
         0         0         0         0         0         0         0         0
         0         0         0         0         0         0         0         0
         0         0         0         0         0         0         0         0
         0         0         0         0         0         0         0         0
         0         0         0         0         0         0         0         0
         0         0         0         0         0         0         0         0
         0         0         0         0         0         0         0         0
         0         0         0         0         0         0         0         0
         0         0         0         0         0         0         0         0
         0         0         0         0         0         0         0         0
         0         0         0         0         0         0         0         0
         0         0         0         0         0         0         0         0
         0         0         0         0         0         0         0         0
         0         0         0         0         0         0         0         0
         0         0         0         0         0         0         0         0
         0         0         0         0         0         0         0         0
         0         0         0         0         0         0         0         0
         0         0         0         0         0         0         0         0
         0         0         0         0         0         0         0         0
         0         0         0         0         0         0         0         0
         0         0         0         0         0         0         0         0
         0         0         0         0         0         0         0         0
         0         0         0         0         0         0         0         0
         0         0         0         0         0         0         0         0
         0         0         0         0         0         0         0         0
         0         0         0         0         0         0         0         0
         0         0         0         0         0         0         0         0
         0         0         0         0         0         0         0         0
         0         0         0         0         0         0         0         0
         0         0         0         0         0         0         0         0
         0         0         0         0         0         0         0         0
         0         0         0         0         0         0         0         0
         0         0         0         0         0         0         0         0
         0         0         0         0         0         0         0         0
         0         0         0         0         0         0         0         0
         0         0         0         0         0         0         0         0
         0         0         0         0         0         0         0         0
         0         0         0         0         0         0         0         0
         0         0         0         0         0         0         0         0
         0         0         0         0         0         0         0         0
         0         0         0         0         0         0         0         0
         0         0         0         0         0         0         0         0
         0         0         0         0         0         0         0         0
         0         0         0         0         0         0         0         0
         0         0         0         0         0         0         0         0
         0         0         0         0         0         0         0         0
         0         0         0         0         0         0         0         0
         0         0         0         0         0         0         0         0
         0         0         0         0         0         0         0         0
         0         0         0         0         0         0         0         0
         0         0         0         0         0         0         0         0
         0         0         0         0         0         0         0         0
         0         0         0         0         0         0         0         0
         0         0         0         0         0         0         0         0
         0         0         0         0         0         0         0         0
         0         0         0         0         0         0         0         0
         0         0         0         0         0         0         0         0
         0         0         0         0         0         0         0         0
         0         0         0         0         0         0         0         0
         0         0         0         0         0         0         0         0
         0         0         0         0         0         0         0         0
         0         0         0         0         0         0         0         0
         0         0         0         0         0         0         0         0
         0         0         0         0         0         0         0         0
         0         0         0         0         0         0         0         0
         0         0         0         0         0         0         0         0
         0         0         0         0         0         0         0         0
         0         0         0         0         0         0         0         0
         0         0         0         0         0         0         0         0
         0         0         0         0         0         0         0         0
         0         0         0         0         0         0         0         0
         0         0         0         0         0         0         0         0
         0         0         0         0         0         0         0         0
         0         0         0         0         0         0         0         0
         0         0         0         0         0         0         0         0
         0         0         0         0         0         0         0         0
         0         0         0         0         0         0         0         0
         0         0         0         0         0         0         0         0
         0         0         0         0         0         0         0         0
         0         0         0         0         0         0         0         0
         0         0         0         0         0         0         0         0
         0         0         0         0         0         0         0         0
         0         0         0         0         0         0         0         0
         0         0         0         0         0         0         0         0
         0         0         0         0         0         0         0         0
         0         0         0         0         0         0         0         0
         0         0         0         0         0         0         0         0
         0         0         0         0         0         0         0         0
         0         0         0         0         0         0         0         0
         0         0         0         0         0         0         0         0
         0         0         0         0         0         0         0         0
         0         0         0         0         0         0         0         0
         0         0         0         0         0         0         0         0
         0         0         0         0         0         0         0         0
         0         0         0         0         0         0         0         0
         0         0         0         0         0         0         0         0
         0         0         0         0         0         0         0         0
         0         0         0         0         0         0         0         0
         0         0         0         0         0         0         0         0
         0         0         0         0         0         0         0         0
         0         0         0         0         0         0         0         0
         0         0         0         0         0         0         0         0
         0         0         0         0         0         0         0         0
         0         0         0         0         0         0         0         0
         0         0         0         0         0         0         0         0
         0         0         0         0         0         0         0         0
         0         0         0         0         0         0         0         0
         0         0         0         0         0         0         0         0
         0         0         0         0         0         0         0         0
         0         0         0         0         0         0         0         0
         0         0         0         0         0         0         0         0
         0         0         0         0         0         0         0         0
         0         0         0         0         0         0         0         0
         0         0         0         0         0         0         0         0
         0         0         0         0         0         0         0         0
         0         0         0         0         0         0         0         0
         0         0         0         0         0         0         0         0
         0         0         0         0         0         0         0         0
         0         0         0         0         0         0         0         0
         0         0         0         0         0         0         0         0
         0         0         0         0         0         0         0         0
         0         0         0         0         0         0         0         0
         0         0         0         0         0         0         0         0
         0         0         0         0         0         0         0         0
         0         0         0         0         0         0         0         0
         0         0         0         0         0         0         0         0
         0         0         0         0         0         0         0         0
         0         0         0         0         0         0         0         0
         0         0         0         0         0         0         0         0
         0         0         0         0         0         0         0         0
         0         0         0         0         0         0         0         0
         0         0         0         0         0         0         0         0
         0         0         0         0         0         0         0         0
         0         0         0         0         0         0         0         0
         0         0         0         0         0         0         0         0
         0         0         0         0         0         0         0         0
         0         0         0         0         0         0         0         0
         0         0         0         0         0         0         0         0
         0         0         0         0         0         0         0         0
         0         0         0         0         0         0         0         0
         0         0         0         0         0         0         0         0
         0         0         0         0         0         0         0         0
         0         0         0         0         0         0         0         0
         0         0         0         0         0         0         0         0
         0         0         0         0         0         0         0         0
         0         0         0         0         0         0         0         0
         0         0         0         0         0         0         0         0
         0         0         0         0         0         0         0         0
         0         0         0         0         0         0         0         0
         0         0         0         0         0         0         0         0
         0         0         0         0         0         0         0         0
         0         0         0         0         0         0         0         0
         0         0         0         0         0         0         0         0
         0         0         0         0         0         0         0         0
         0         0         0         0         0         0         0         0
         0         0         0         0         0         0         0         0
         0         0         0         0         0         0         0         0
         0         0         0         0         0         0         0         0
         0         0         0         0         0         0         0         0
         0         0         0         0         0         0         0         0
         0         0         0         0         0         0         0         0
         0         0         0         0         0         0         0         0
         0         0         0         0         0         0         0         0
         0         0         0         0         0         0         0         0
         0         0         0         0         0         0         0         0
         0         0         0         0         0         0         0         0
         0         0         0         0         0         0         0         0
         0         0         0         0         0         0         0         0
         0         0         0         0         0         0         0         0
         0         0         0         0         0         0         0         0
         0         0         0         0         0         0         0         0
         0         0         0         0         0         0         0         0
         0         0         0         0         0         0         0         0
         0         0         0         0         0         0         0         0
         0         0         0         0         0         0         0         0
         0         0         0         0         0         0         0         0
         0         0         0         0         0         0         0         0
         0         0         0         0         0         0         0         0
         0         0         0         0         0         0         0         0
         0         0         0         0         0         0         0         0
         0         0         0         0         0         0         0         0
         0         0         0         0         0         0         0         0
         0         0         0         0         0         0         0         0
         0         0         0         0         0         0         0         0
         0         0         0         0         0         0         0         0
         0         0         0         0         0         0         0         0
         0         0         0         0         0         0         0         0
         0         0         0         0         0         0         0         0
         0         0         0         0         0         0         0         0
         0         0         0         0         0         0         0         0
         0         0         0         0         0         0         0         0
         0         0         0         0         0         0         0         0
         0         0         0         0         0         0         0         0
         0         0         0         0         0         0         0         0
         0         0         0         0         0         0         0         0
         0         0         0         0         0         0         0         0
         0         0         0         0         0         0         0         0
         0         0         0         0         0         0         0         0
         0         0         0         0         0         0         0         0
         0         0         0         0         0         0         0         0
         0         0         0         0         0         0         0         0
         0         0         0         0         0         0         0         0
         0         0         0         0         0         0         0         0
         0         0         0         0         0         0         0         0
         0         0         0         0         0         0         0         0
         0         0         0         0         0         0         0         0
         0         0         0         0         0         0         0         0
         0         0         0         0         0         0         0         0
         0         0         0         0         0         0         0         0
         0         0         0         0         0         0         0         0
         0         0         0         0         0         0         0         0
         0         0         0         0         0         0         0         0
         0         0         0         0         0         0         0         0
         0         0         0         0         0         0         0         0
         0         0         0         0         0         0         0         0
         0         0         0         0         0         0         0         0
         0         0         0         0         0         0         0         0
         0         0         0         0         0         0         0         0
         0         0         0         0         0         0         0         0
         0         0         0         0         0         0         0         0
         0         0         0         0         0         0         0         0
         0         0         0         0         0         0         0         0
         0         0         0         0         0         0         0         0
         0         0         0         0         0         0         0         0
         0         0         0         0         0         0         0         0
         0         0         0         0         0         0         0         0
         0         0         0         0         0         0         0         0
         0         0         0         0         0         0         0         0
         0         0         0         0         0         0         0         0
         0         0         0         0         0         0         0         0
         0         0         0         0         0         0         0         0
         0         0         0         0         0         0         0         0
         0         0         0         0         0         0         0         0
         0         0         0         0         0         0         0         0
         0         0         0         0         0         0         0         0
         0         0         0         0         0         0         0         0
         0         0         0         0         0         0         0         0
         0         0         0         0         0         0         0         0
         0         0         0         0         0         0         0         0
         0         0         0         0         0         0         0         0
         0         0         0         0         0         0         0         0
         0         0         0         0         0         0         0         0
         0         0         0         0         0         0         0         0
         0         0         0         0         0         0         0         0
         0         0         0         0         0         0         0         0
         0         0         0         0         0         0         0         0
         0         0         0         0         0         0         0         0
         0         0         0         0         0         0         0         0
         0         0         0         0         0         0         0         0
         0         0         0         0         0         0         0         0
         0         0         0         0         0         0         0         0
         0         0         0         0         0         0         0         0
         0         0         0         0         0         0         0         0
         0         0         0         0         0         0         0         0
         0         0         0         0         0         0         0         0
         0         0         0         0         0         0         0         0
         0         0         0         0         0         0         0         0
         0         0         0         0         0         0         0         0
         0         0         0         0         0         0         0         0
         0         0         0         0         0         0         0         0
         0         0         0         0         0         0         0         0
         0         0         0         0         0         0         0         0
         0         0         0         0         0         0         0         0
         0         0         0         0         0         0         0         0
         0         0         0         0         0         0         0         0
         0         0         0         0         0         0         0         0
         0         0         0         0         0         0         0         0
         0         0         0         0         0         0         0         0
         0         0         0         0         0         0         0         0
         0         0         0         0         0         0         0         0
         0         0         0         0         0         0         0         0
         0         0         0         0         0         0         0         0
         0         0         0         0         0         0         0         0
         0         0         0         0         0         0         0         0
         0         0         0         0         0         0         0         0
         0         0         0         0         0         0         0         0
         0         0         0         0         0         0         0         0
         0         0         0         0         0         0         0         0
         0         0         0         0         0         0         0         0
         0         0         0         0         0         0         0         0
         0         0         0         0         0         0         0         0
         0         0         0         0         0         0         0         0
         0         0         0         0         0         0         0         0
         0         0         0         0         0         0         0         0
         0         0         0         0         0         0         0         0
         0         0         0         0         0         0         0         0
         0         0         0         0         0         0         0         0
         0         0         0         0         0         0         0         0
         0         0         0         0         0         0         0         0
         0         0         0         0         0         0         0         0
         0         0         0         0         0         0         0         0
         0         0         0         0         0         0         0         0
         0         0         0         0         0         0         0         0
         0         0         0         0         0         0         0         0
         0         0         0         0         0         0         0         0
         0         0         0         0         0         0         0         0
         0         0         0         0         0         0         0         0
         0         0         0         0         0         0         0         0
         0         0         0         0         0         0         0         0
         0         0         0         0         0         0         0         0
         0         0         0         0         0         0         0         0
         0         0         0         0         0         0         0         0
         0         0         0         0         0         0         0         0
         0         0         0         0         0         0         0         0
         0         0         0         0         0         0         0         0
         0         0         0         0         0         0         0         0
         0         0         0         0         0         0         0         0
         0         0         0         0         0         0         0         0
         0         0         0         0         0         0         0         0
         0         0         0         0         0         0         0         0
         0         0         0         0         0         0         0         0
         0         0         0         0         0         0         0         0
         0         0         0         0         0         0         0         0
         0         0         0         0         0         0         0         0
         0         0         0         0         0         0         0         0
         0         0         0         0         0         0         0         0
         0         0         0         0         0         0         0         0
         0         0         0         0         0         0         0         0
         0         0         0         0         0         0         0         0
         0         0         0         0         0         0         0         0
         0         0         0         0         0         0         0         0
         0         0         0         0         0         0         0         0
         0         0         0         0         0         0         0         0
         0         0         0         0         0         0         0         0
         0         0         0         0         0         0         0         0
         0         0         0         0         0         0         0         0
         0         0         0         0         0         0         0         0
         0         0         0         0         0         0         0         0
         0         0         0         0         0         0         0         0
         0         0         0         0         0         0         0         0
         0         0         0         0         0         0         0         0
         0         0         0         0         0         0         0         0
         0         0         0         0         0         0         0         0
         0         0         0         0         0         0         0         0
         0         0         0         0         0         0         0         0
         0         0         0         0         0         0         0         0
         0         0         0         0         0         0         0         0
         0         0         0         0         0         0         0         0
         0         0         0         0         0         0         0         0
         0         0         0         0         0         0         0         0
         0         0         0         0         0         0         0         0
         0         0         0         0         0         0         0         0
         0         0         0         0         0         0         0         0
         0         0         0         0         0         0         0         0
         0         0         0         0         0         0         0         0
         0         0         0         0         0         0         0         0
         0         0         0         0         0         0         0         0
         0         0         0         0         0         0         0         0
         0         0         0         0         0         0         0         0
         0         0         0         0         0         0         0         0
         0         0         0         0         0         0         0         0
         0         0         0         0         0         0         0         0
         0         0         0         0         0         0         0         0
         0         0         0         0         0         0         0         0
         0         0         0         0         0         0         0         0
         0         0         0         0         0         0         0         0
         0         0         0         0         0         0         0         0
         0         0         0         0         0         0         0         0
         0         0         0         0         0         0         0         0
         0         0         0         0         0         0         0         0
         0         0         0         0         0         0         0         0
         0         0         0         0         0         0         0         0
         0         0         0         0         0         0         0         0
         0         0         0         0         0         0         0         0
         0         0         0         0         0         0         0         0
         0         0         0         0         0         0         0         0
         0         0         0         0         0         0         0         0
         0         0         0         0         0         0         0         0
         0         0         0         0         0         0         0         0
         0         0         0         0         0         0         0         0
         0         0         0         0         0         0         0         0
         0         0         0         0         0         0         0         0
         0         0         0         0         0         0         0         0
         0         0         0         0         0         0         0         0
         0         0         0         0         0         0         0         0
         0         0         0         0         0         0         0         0
         0         0         0         0         0         0         0         0
         0         0         0         0         0         0         0         0
         0         0         0         0         0         0         0         0
         0         0         0         0         0         0         0         0
         0         0         0         0         0         0         0         0
         0         0         0         0         0         0         0         0
         0         0         0         0         0         0         0         0
         0         0         0         0         0         0         0         0
         0         0         0         0         0         0         0         0
         0         0         0         0         0         0         0         0
         0         0         0         0         0         0         0         0
         0         0         0         0         0         0         0         0
         0         0         0         0         0         0         0         0
         0         0         0         0         0         0         0         0
         0         0         0         0         0         0         0         0
         0         0         0         0         0         0         0         0
         0         0         0         0         0         0         0         0
         0         0         0         0         0         0         0         0
         0         0         0         0         0         0         0         0
         0         0         0         0         0         0         0         0
         0         0         0         0         0         0         0         0
         0         0         0         0         0         0         0         0
         0         0         0         0         0         0         0         0
         0         0         0         0         0         0         0         0
         0         0         0         0         0         0         0         0
         0         0         0         0         0         0         0         0
         0         0         0         0         0         0         0         0
         0         0         0         0         0         0         0         0
         0         0         0         0         0         0         0         0
         0         0         0         0         0         0         0         0
         0         0         0         0         0         0         0         0
         0         0         0         0         0         0         0         0
         0         0         0         0         0         0         0         0
         0         0         0         0         0         0         0         0
         0         0         0         0         0         0         0         0
         0         0         0         0         0         0         0         0
         0         0         0         0         0         0         0         0
         0         0         0         0         0         0         0         0
         0         0         0         0         0         0         0         0
         0         0         0         0         0         0         0         0
         0         0         0         0         0         0         0         0
         0         0         0         0         0         0         0         0
         0         0         0         0         0         0         0         0
         0         0         0         0         0         0         0         0
         0         0         0         0         0         0         0         0
         0         0         0         0         0         0         0         0
         0         0         0         0         0         0         0         0
         0         0         0         0         0         0         0         0
         0         0         0         0         0         0         0         0
         0         0         0         0         0         0         0         0
         0         0         0         0         0         0         0         0
         0         0         0         0         0         0         0         0
         0         0         0         0         0         0         0         0
         0         0         0         0         0         0         0         0
         0         0         0         0         0         0         0         0
         0         0         0         0         0         0         0         0
         0         0         0         0         0         0         0         0
         0         0         0         0         0         0         0         0
         0         0         0         0         0         0         0         0
         0         0         0         0         0         0         0         0
         0         0         0         0         0         0         0         0
         0         0         0         0         0         0         0         0
         0         0         0         0         0         0         0         0
         0         0         0         0         0         0         0         0
         0         0         0         0         0         0         0         0
         0         0         0         0         0         0         0         0
         0         0         0         0         0         0         0         0
         0         0         0         0         0         0         0         0
         0         0         0         0         0         0         0         0
         0         0         0         0         0         0         0         0
         0         0         0         0         0         0         0         0
         0         0         0         0         0         0         0         0
         0         0         0         0         0         0         0         0
         0         0         0         0         0         0         0         0
         0         0         0         0         0         0         0         0
         0         0         0         0         0         0         0         0
         0         0         0         0         0         0         0         0
         0         0         0         0         0         0         0         0
         0         0         0         0         0         0         0         0
         0         0         0         0         0         0         0         0
         0         0         0         0         0         0         0         0
         0         0         0         0         0         0         0         0
         0         0         0         0         0         0         0         0
         0         0         0         0         0         0         0         0
         0         0         0         0         0         0         0         0
         0         0         0         0         0         0         0         0
         0         0         0         0         0         0         0         0
         0         0         0         0         0         0         0         0
         0         0         0         0         0         0         0         0
         0         0         0         0         0         0         0         0
         0         0         0         0         0         0         0         0
         0         0         0         0         0         0         0         0
         0         0         0         0         0         0         0         0
         0         0         0         0         0         0         0         0
         0         0         0         0         0         0         0         0
         0         0         0         0         0         0         0         0
         0         0         0         0         0         0         0         0
         0         0         0         0         0         0         0         0
         0         0         0         0         0         0         0         0
         0         0         0         0         0         0         0         0
         0         0         0         0         0         0         0         0
         0         0         0         0         0         0         0         0
         0         0         0         0         0         0         0         0
         0         0         0         0         0         0         0         0
         0         0         0         0         0         0         0         0
         0         0         0         0         0         0         0         0
         0         0         0         0         0         0         0         0
         0         0         0         0         0         0         0         0
         0         0         0         0         0         0         0         0
         0         0         0         0         0         0         0         0
         0         0         0         0         0         0         0         0
         0         0         0         0         0         0         0         0
         0         0         0         0         0         0         0         0
         0         0         0         0         0         0         0         0
         0         0         0         0         0         0         0         0
         0         0         0         0         0         0         0         0
         0         0         0         0         0         0         0         0
         0         0         0         0         0         0         0         0
         0         0         0         0         0         0         0         0
         0         0         0         0         0         0         0         0
         0         0         0         0         0         0         0         0
         0         0         0         0         0         0         0         0
         0         0         0         0         0         0         0         0
         0         0         0         0         0         0         0         0
         0         0         0         0         0         0         0         0
         0         0         0         0         0         0         0         0
         0         0         0         0         0         0         0         0
         0         0         0         0         0         0         0         0
         0         0         0         0         0         0         0         0
         0         0         0         0         0         0         0         0
         0         0         0         0         0         0         0         0
         0         0         0         0         0         0         0         0
         0         0         0         0         0         0         0         0
         0         0         0         0         0         0         0         0
         0         0         0         0         0         0         0         0
         0         0         0         0         0         0         0         0
         0         0         0         0         0         0         0         0
         0         0         0         0         0         0         0         0
         0         0         0         0         0         0         0         0
         0         0         0         0         0         0         0         0
         0         0         0         0         0         0         0         0
         0         0         0         0         0         0         0         0
         0         0         0         0         0         0         0         0
         0         0         0         0         0         0         0         0
         0         0         0         0         0         0         0         0
         0         0         0         0         0         0         0         0
         0         0         0         0         0         0         0         0
         0         0         0         0         0         0         0         0
         0         0         0         0         0         0         0         0
         0         0         0         0         0         0         0         0
         0         0         0         0         0         0         0         0
         0         0         0         0         0         0         0         0
         0         0         0         0         0         0         0         0
         0         0         0         0         0         0         0         0
         0         0         0         0         0         0         0         0
         0         0         0         0         0         0         0         0
         0         0         0         0         0         0         0         0
         0         0         0         0         0         0         0         0
         0         0         0         0         0         0         0         0
         0         0         0         0         0         0         0         0
         0         0         0         0         0         0         0         0
         0         0         0         0         0         0         0         0
         0         0         0         0         0         0         0         0
         0         0         0         0         0         0         0         0
         0         0         0         0         0         0         0         0
         0         0         0         0         0         0         0         0
         0         0         0         0         0         0         0         0
         0         0         0         0         0         0         0         0
         0         0         0         0         0         0         0         0
         0         0         0         0         0         0         0         0
         0         0         0         0         0         0         0         0
         0         0         0         0         0         0         0         0
         0         0         0         0         0         0         0         0
         0         0         0         0         0         0         0         0
         0         0         0         0         0         0         0         0
         0         0         0         0         0         0         0         0
         0         0         0         0         0         0         0         0
         0         0         0         0         0         0         0         0
         0         0         0         0         0         0         0         0
         0         0         0         0         0         0         0         0
         0         0         0         0         0         0         0         0
         0         0         0         0         0         0         0         0
         0         0         0         0         0         0         0         0
         0         0         0         0         0         0         0         0
         0         0         0         0         0         0         0         0
         0         0         0         0         0         0         0         0
         0         0         0         0         0         0         0         0
         0         0         0         0         0         0         0         0
         0         0         0         0         0         0         0         0
         0         0         0         0         0         0         0         0
         0         0         0         0         0         0         0         0
         0         0         0         0         0         0         0         0
         0         0         0         0         0         0         0         0
         0         0         0         0         0         0         0         0
         0         0         0         0         0         0         0         0
         0         0         0         0         0         0         0         0
         0         0         0         0         0         0         0         0
         0         0         0         0         0         0         0         0
         0         0         0         0         0         0         0         0
         0         0         0         0         0         0         0         0
         0         0         0         0         0         0         0         0
         0         0         0         0         0         0         0         0
         0         0         0         0         0         0         0         0
         0         0         0         0         0         0         0         0
         0         0         0         0         0         0         0         0
         0         0         0         0         0         0         0         0
         0         0         0         0         0         0         0         0
         0         0         0         0         0         0         0         0
         0         0         0         0         0         0         0         0
         0         0         0         0         0         0         0         0
         0         0         0         0         0         0         0         0
         0         0         0         0         0         0         0         0
         0         0         0         0         0         0         0         0
         0         0         0         0         0         0         0         0
         0         0         0         0         0         0         0         0
         0         0         0         0         0         0         0         0
         0         0         0         0         0         0         0         0
         0         0         0         0         0         0         0         0
         0         0         0         0         0         0         0         0
         0         0         0         0         0         0         0         0
         0         0         0         0         0         0         0         0
         0         0         0         0         0         0         0         0
         0         0         0         0         0         0         0         0
         0         0         0         0         0         0         0         0
         0         0         0         0         0         0         0         0
         0         0         0         0         0         0         0         0
         0         0         0         0         0         0         0         0
         0         0         0         0         0         0         0         0
         0         0         0         0         0         0         0         0
         0         0         0         0         0         0         0         0
         0         0         0         0         0         0         0         0
         0         0         0         0         0         0         0         0
         0         0         0         0         0         0         0         0
         0         0         0         0         0         0         0         0
         0         0         0         0         0         0         0         0
         0         0         0         0         0         0         0         0
         0         0         0         0         0         0         0         0
         0         0         0         0         0         0         0         0
         0         0         0         0         0         0         0         0
         0         0         0         0         0         0         0         0
         0         0         0         0         0         0         0         0
         0         0         0         0         0         0         0         0
         0         0         0         0         0         0         0         0
         0         0         0         0         0         0         0         0
         0         0         0         0         0         0         0         0
         0         0         0         0         0         0         0         0
         0         0         0         0         0         0         0         0
         0         0         0         0         0         0         0         0
         0         0         0         0         0         0         0         0
         0         0         0         0         0         0         0         0
         0         0         0         0         0         0         0         0
         0         0         0         0         0         0         0         0
         0         0         0         0         0         0         0         0
         0         0         0         0         0         0         0         0
         0         0         0         0         0         0         0         0
         0         0         0         0         0         0         0         0
         0         0         0         0         0         0         0         0
         0         0         0         0         0         0         0         0
         0         0         0         0         0         0         0         0
         0         0         0         0         0         0         0         0
         0         0         0         0         0         0         0         0
         0         0         0         0         0         0         0         0
         0         0         0         0         0         0         0         0
         0         0         0         0         0         0         0         0
         0         0         0         0         0         0         0         0
         0         0         0         0         0         0         0         0
         0         0         0         0         0         0         0         0
         0         0         0         0         0         0         0         0
         0         0         0         0         0         0         0         0
         0         0         0         0         0         0         0         0
         0         0         0         0         0         0         0         0
         0         0         0         0         0         0         0         0
         0         0         0         0         0         0         0         0
         0         0         0         0         0         0         0         0
         0         0         0         0         0         0         0         0
         0         0         0         0         0         0         0         0
         0         0         0         0         0         0         0         0
         0         0         0         0         0         0         0         0
         0         0         0         0         0         0         0         0
         0         0         0         0         0         0         0         0
         0         0         0         0         0         0         0         0
         0         0         0         0         0         0         0         0
         0         0         0         0         0         0         0         0
         0         0         0         0         0         0         0         0
         0         0         0         0         0         0         0         0
         0         0         0         0         0         0         0         0
         0         0         0         0         0         0         0         0
         0         0         0         0         0         0         0         0
         0         0         0         0         0         0         0         0
         0         0         0         0         0         0         0         0
         0         0         0         0         0         0         0         0
         0         0         0         0         0         0         0         0
         0         0         0         0         0         0         0         0
         0         0         0         0         0         0         0         0
         0         0         0         0         0         0         0         0
         0         0         0         0         0         0         0         0
         0         0         0         0         0         0         0         0
         0         0         0         0         0         0         0         0
         0         0         0         0         0         0         0         0
         0         0         0         0         0         0         0         0
         0         0         0         0         0         0         0         0
         0         0         0         0         0         0         0         0
         0         0         0         0         0         0         0         0
         0         0         0         0         0         0         0         0
         0         0         0         0         0         0         0         0
         0         0         0         0         0         0         0         0
         0         0         0         0         0         0         0         0
         0         0         0         0         0         0         0         0
         0         0         0         0         0         0         0         0
         0         0         0         0         0         0         0         0
         0         0         0         0         0         0         0         0
         0         0         0         0         0         0         0         0
         0         0         0         0         0         0         0         0
         0         0         0         0         0         0         0         0
         0         0         0         0         0         0         0         0
         0         0         0         0         0         0         0         0
         0         0         0         0         0         0         0         0
         0         0         0         0         0         0         0         0
         0         0         0         0         0         0         0         0
         0         0         0         0         0         0         0         0
         0         0         0         0         0         0         0         0
         0         0         0         0         0         0         0         0
         0         0         0         0         0         0         0         0
         0         0         0         0         0         0         0         0
         0         0         0         0         0         0         0         0
         0         0         0         0         0         0         0         0
         0         0         0         0         0         0         0         0
         0         0         0         0         0         0         0         0
         0         0         0         0         0         0         0         0
         0         0         0         0         0         0         0         0
         0         0         0         0         0         0         0         0
         0         0         0         0         0         0         0         0
         0         0         0         0         0         0         0         0
         0         0         0         0         0         0         0         0
         0         0         0         0         0         0         0         0
         0         0         0         0         0         0         0         0
         0         0         0         0         0         0         0         0
         0         0         0         0         0         0         0         0
         0         0         0         0         0         0         0         0
         0         0         0         0         0         0         0         0
         0         0         0         0         0         0         0         0
         0         0         0         0         0         0         0         0
         0         0         0         0         0         0         0         0
         0         0         0         0         0         0         0         0
         0         0         0         0         0         0         0         0
         0         0         0         0         0         0         0         0
         0         0         0         0         0         0         0         0
         0         0         0         0         0         0         0         0
         0         0         0         0         0         0         0         0
         0         0         0         0         0         0         0         0
         0         0         0         0         0         0         0         0
         0         0         0         0         0         0         0         0
         0         0         0         0         0         0         0         0
         0         0         0         0         0         0         0         0
         0         0         0         0         0         0         0         0
         0         0         0         0         0         0         0         0
         0         0         0         0         0         0         0         0
         0         0         0         0         0         0         0         0
         0         0         0         0         0         0         0         0
         0         0         0         0         0         0         0         0
         0         0         0         0         0         0         0         0
         0         0         0         0         0         0         0         0
         0         0         0         0         0         0         0         0
         0         0         0         0         0         0         0         0
         0         0         0         0         0         0         0         0
         0         0         0         0         0         0         0         0
         0         0         0         0         0         0         0         0
         0         0         0         0         0         0         0         0
         0         0         0         0         0         0         0         0
         0         0         0         0         0         0         0         0
         0         0         0         0         0         0         0         0
         0         0         0         0         0         0         0         0
         0         0         0         0         0         0         0         0
         0         0         0         0         0         0         0         0
         0         0         0         0         0         0         0         0
         0         0         0         0         0         0         0         0
         0         0         0         0         0         0         0         0
         0         0         0         0         0         0         0         0
         0         0         0         0         0         0         0         0
         0         0         0         0         0         0         0         0
         0         0         0         0         0         0         0         0
         0         0         0         0         0         0         0         0
         0         0         0         0         0         0         0         0
         0         0         0         0         0         0         0         0
         0         0         0         0         0         0         0         0
         0         0         0         0         0         0         0         0
         0         0         0         0         0         0         0         0
         0         0         0         0         0         0         0         0
         0         0         0         0         0         0         0         0
         0         0         0         0         0         0         0         0
         0         0         0         0         0         0         0         0
         0         0         0         0         0         0         0         0
         0         0         0         0         0         0         0         0
         0         0         0         0         0         0         0         0
         0         0         0         0         0         0         0         0
         0         0         0         0         0         0         0         0
         0         0         0         0         0         0         0         0
         0         0         0         0         0         0         0         0
         0         0         0         0         0         0         0         0
         0         0         0         0         0         0         0         0
         0         0         0         0         0         0         0         0
         0         0         0         0         0         0         0         0
         0         0         0         0         0         0         0         0
         0         0         0         0         0         0         0         0
         0         0         0         0         0         0         0         0
         0         0         0         0         0         0         0         0
         0         0         0         0         0         0         0         0
         0         0         0         0         0         0         0         0
         0         0         0         0         0         0         0         0
         0         0         0         0         0         0         0         0
         0         0         0         0         0         0         0         0
         0         0         0         0         0         0         0         0
         0         0         0         0         0         0         0         0
         0         0         0         0         0         0         0         0
         0         0         0         0         0         0         0         0
         0         0         0         0         0         0         0         0
         0         0         0         0         0         0         0         0
         0         0         0         0         0         0         0         0
         0         0         0         0         0         0         0         0
         0         0         0         0         0         0         0         0
         0         0         0         0         0         0         0         0
         0         0         0         0         0         0         0         0
         0         0         0         0         0         0         0         0
         0         0         0         0         0         0         0         0
         0         0         0         0         0         0         0         0
         0         0         0         0         0         0         0         0
         0         0         0         0         0         0         0         0
         0         0         0         0         0         0         0         0
         0         0         0         0         0         0         0         0
         0         0         0         0         0         0         0         0
         0         0         0         0         0         0         0         0
         0         0         0         0         0         0         0         0
         0         0         0         0         0         0         0         0
         0         0         0         0         0         0         0         0
         0         0         0         0         0         0         0         0
         0         0         0         0         0         0         0         0
         0         0         0         0         0         0         0         0
         0         0         0         0         0         0         0         0
         0         0         0         0         0         0         0         0
         0         0         0         0         0         0         0         0
         0         0         0         0         0         0         0         0
         0         0         0         0         0         0         0         0
         0         0         0         0         0         0         0         0
         0         0         0         0         0         0         0         0
         0         0         0         0         0         0         0         0
         0         0         0         0         0         0         0         0
         0         0         0         0         0         0         0         0
         0         0         0         0         0         0         0         0
         0         0         0         0         0         0         0         0
         0         0         0         0         0         0         0         0
         0         0         0         0         0         0         0         0
         0         0         0         0         0         0         0         0
         0         0         0         0         0         0         0         0
         0         0         0         0         0         0         0         0
         0         0         0         0         0         0         0         0
         0         0         0         0         0         0         0         0
         0         0         0         0         0         0         0         0
         0         0         0         0         0         0         0         0
         0         0         0         0         0         0         0         0
         0         0         0         0         0         0         0         0
         0         0         0         0         0         0         0         0
         0         0         0         0         0         0         0         0
         0         0         0         0         0         0         0         0
         0         0         0         0         0         0         0         0
         0         0         0         0         0         0         0         0
         0         0         0         0         0         0         0         0
         0         0         0         0         0         0         0         0
         0         0         0         0         0         0         0         0
         0         0         0         0         0         0         0         0
         0         0         0         0         0         0         0         0
         0         0         0         0         0         0         0         0
         0         0         0         0         0         0         0         0
         0         0         0         0         0         0         0         0
         0         0         0         0         0         0         0         0
         0         0         0         0         0         0         0         0
         0         0         0         0         0         0         0         0
         0         0         0         0         0         0         0         0
         0         0         0         0         0         0         0         0
         0         0         0         0         0         0         0         0
         0         0         0         0         0         0         0         0
         0         0         0         0         0         0         0         0
         0         0         0         0         0         0         0         0
         0         0         0         0         0         0         0         0
         0         0         0         0         0         0         0         0
         0         0         0         0         0         0         0         0
         0         0         0         0         0         0         0         0
         0         0         0         0         0         0         0         0
         0         0         0         0         0         0         0         0
         0         0         0         0         0         0         0         0
         0         0         0         0         0         0         0         0
         0         0         0         0         0         0         0         0
         0         0         0         0         0         0         0         0
         0         0         0         0         0         0         0         0
         0         0         0         0         0         0         0         0
         0         0         0         0         0         0         0         0
         0         0         0         0         0         0         0         0
         0         0         0         0         0         0         0         0
         0         0         0         0         0         0         0         0
         0         0         0         0         0         0         0         0
         0         0         0         0         0         0         0         0
         0         0         0         0         0         0         0         0
         0         0         0         0         0         0         0         0
         0         0         0         0         0         0         0         0
         0         0         0         0         0         0         0         0
         0         0         0         0         0         0         0         0
         0         0         0         0         0         0         0         0
         0         0         0         0         0         0         0         0
         0         0         0         0         0         0         0         0
         0         0         0         0         0         0         0         0
         0         0         0         0         0         0         0         0
         0         0         0         0         0         0         0         0
         0         0         0         0         0         0         0         0
         0         0         0         0         0         0         0         0
         0         0         0         0         0         0         0         0
         0         0         0         0         0         0         0         0
         0         0         0         0         0         0         0         0
         0         0         0         0         0         0         0         0
         0         0         0         0         0         0         0         0
         0         0         0         0         0         0         0         0
         0         0         0         0         0         0         0         0
         0         0         0         0         0         0         0         0
         0         0         0         0         0         0         0         0
         0         0         0         0         0         0         0         0
         0         0         0         0         0         0         0         0
         0         0         0         0         0         0         0         0
         0         0         0         0         0         0         0         0
         0         0         0         0         0         0         0         0
         0         0         0         0         0         0         0         0
         0         0         0         0         0         0         0         0
         0         0         0         0         0         0         0         0
         0         0         0         0         0         0         0         0
         0         0         0         0         0         0         0         0
         0         0         0         0         0         0         0         0
         0         0         0         0         0         0         0         0
         0         0         0         0         0         0         0         0
         0         0         0         0         0         0         0         0
         0         0         0         0         0         0         0         0
         0         0         0         0         0         0         0         0
         0         0         0         0         0         0         0         0
         0         0         0         0         0         0         0         0
         0         0         0         0         0         0         0         0
         0         0         0         0         0         0         0         0
         0         0         0         0         0         0         0         0
         0         0         0         0         0         0         0         0
         0         0         0         0         0         0         0         0
         0         0         0         0         0         0         0         0
         0         0         0         0         0         0         0         0
         0         0         0         0         0         0         0         0
         0         0         0         0         0         0         0         0
         0         0         0         0         0         0         0         0
         0         0         0         0         0         0         0         0
         0         0         0         0         0         0         0         0
         0         0         0         0         0         0         0         0
         0         0         0         0         0         0         0         0
         0         0         0         0         0         0         0         0
         0         0         0         0         0         0         0         0
         0         0         0         0         0         0         0         0
         0         0         0         0         0         0         0         0
         0         0         0         0         0         0         0         0
         0         0         0         0         0         0         0         0
         0         0         0         0         0         0         0         0
         0         0         0         0         0         0         0         0
         0         0         0         0         0         0         0         0
         0         0         0         0         0         0         0         0
         0         0         0         0         0         0         0         0
         0         0         0         0         0         0         0         0
         0         0         0         0         0         0         0         0
         0         0         0         0         0         0         0         0
         0         0         0         0         0         0         0         0
         0         0         0         0         0         0         0         0
         0         0         0         0         0         0         0         0
         0         0         0         0         0         0         0         0
         0         0         0         0         0         0         0         0
         0         0         0         0         0         0         0         0
         0         0         0         0         0         0         0         0
         0         0         0         0         0         0         0         0
         0         0         0         0         0         0         0         0
         0         0         0         0         0         0         0         0
         0         0         0         0         0         0         0         0
         0         0         0         0         0         0         0         0
         0         0         0         0         0         0         0         0
         0         0         0         0         0         0         0         0
         0         0         0         0         0         0         0         0
         0         0         0         0         0         0         0         0
         0         0         0         0         0         0         0         0
         0         0         0         0         0         0         0         0
         0         0         0         0         0         0         0         0
         0         0         0         0         0         0         0         0
         0         0         0         0         0         0         0         0
         0         0         0         0         0         0         0         0
         0         0         0         0         0         0         0         0
         0         0         0         0         0         0         0         0
         0         0         0         0         0         0         0         0
         0         0         0         0         0         0         0         0
         0         0         0         0         0         0         0         0
         0         0         0         0         0         0         0         0
         0         0         0         0         0         0         0         0
         0         0         0         0         0         0         0         0
         0         0         0         0         0         0         0         0
         0         0         0         0         0         0         0         0
         0         0         0         0         0         0         0         0
         0         0         0         0         0         0         0         0
         0         0         0         0         0         0         0         0
         0         0         0         0         0         0         0         0
         0         0         0         0         0         0         0         0
         0         0         0         0         0         0         0         0
         0         0         0         0         0         0         0         0
         0         0         0         0         0         0         0         0
         0         0         0         0         0         0         0         0
         0         0         0         0         0         0         0         0
         0         0         0         0         0         0         0         0
         0         0         0         0         0         0         0         0
         0         0         0         0         0         0         0         0
         0         0         0         0         0         0         0         0
         0         0         0         0         0         0         0         0
         0         0         0         0         0         0         0         0
         0         0         0         0         0         0         0         0
         0         0         0         0         0         0         0         0
         0         0         0         0         0         0         0         0
         0         0         0         0         0         0         0         0
         0         0         0         0         0         0         0         0
         0         0         0         0         0         0         0         0
         0         0         0         0         0         0         0         0
         0         0         0         0         0         0         0         0
         0         0         0         0         0         0         0         0
         0         0         0         0         0         0         0         0
         0         0         0         0         0         0         0         0
         0         0         0         0         0         0         0         0
         0         0         0         0         0         0         0         0
         0         0         0         0         0         0         0         0
         0         0         0         0         0         0         0         0
         0         0         0         0         0         0         0         0
         0         0         0         0         0         0         0         0
         0         0         0         0         0         0         0         0
         0         0         0         0         0         0         0         0
         0         0         0         0         0         0         0         0
         0         0         0         0         0         0         0         0
         0         0         0         0         0         0         0         0
         0         0         0         0         0         0         0         0
         0         0         0         0         0         0         0         0
         0         0         0         0         0         0         0         0
         0         0         0         0         0         0         0         0
         0         0         0         0         0         0         0         0
         0         0         0         0         0         0         0         0
         0         0         0         0         0         0         0         0
         0         0         0         0         0         0         0         0
         0         0         0         0         0         0         0         0
         0         0         0         0         0         0         0         0
         0         0         0         0         0         0         0         0
         0         0         0         0         0         0         0         0
         0         0         0         0         0         0         0         0
         0         0         0         0         0         0         0         0
         0         0         0         0         0         0         0         0
         0         0         0         0         0         0         0         0
         0         0         0         0         0         0         0         0
         0         0         0         0         0         0         0         0
         0         0         0         0         0         0         0         0
         0         0         0         0         0         0         0         0
         0         0         0         0         0         0         0         0
         0         0         0         0         0         0         0         0
         0         0         0         0         0         0         0         0
         0         0         0         0         0         0         0         0
         0         0         0         0         0         0         0         0
         0         0         0         0         0         0         0         0
         0         0         0         0         0         0         0         0
         0         0         0         0         0         0         0         0
         0         0         0         0         0         0         0         0
         0         0         0         0         0         0         0         0
         0         0         0         0         0         0         0         0
         0         0         0         0         0         0         0         0
         0         0         0         0         0         0         0         0
         0         0         0         0         0         0         0         0
         0         0         0         0         0         0         0         0
         0         0         0         0         0         0         0         0
         0         0         0         0         0         0         0         0
         0         0         0         0         0         0         0         0
         0         0         0         0         0         0         0         0
         0         0         0         0         0         0         0         0
         0         0         0         0         0         0         0         0
         0         0         0         0         0         0         0         0
         0         0         0         0         0         0         0         0
         0         0         0         0         0         0         0         0
         0         0         0         0         0         0         0         0
         0         0         0         0         0         0         0         0
         0         0         0         0         0         0         0         0
         0         0         0         0         0         0         0         0
         0         0         0         0         0         0         0         0
         0         0         0         0         0         0         0         0
         0         0         0         0         0         0         0         0
         0         0         0         0         0         0         0         0
         0         0         0         0         0         0         0         0
         0         0         0         0         0         0         0         0
         0         0         0         0         0         0         0         0
         0         0         0         0         0         0         0         0
         0         0         0         0         0         0         0         0
         0         0         0         0         0         0         0         0
         0         0         0         0         0         0         0         0
         0         0         0         0         0         0         0         0
         0         0         0         0         0         0         0         0
         0         0         0         0         0         0         0         0
         0         0         0         0         0         0         0         0
         0         0         0         0         0         0         0         0
         0         0         0         0         0         0         0         0
         0         0         0         0         0         0         0         0
         0         0         0         0         0         0         0         0
         0         0         0         0         0         0         0         0
         0         0         0         0         0         0         0         0
         0         0         0         0         0         0         0         0
         0         0         0         0         0         0         0         0
         0         0         0         0         0         0         0         0
         0         0         0         0         0         0         0         0
         0         0         0         0         0         0         0         0
         0         0         0         0         0         0         0         0
         0         0         0         0         0         0         0         0
         0         0         0         0         0         0         0         0
         0         0         0         0         0         0         0         0
         0         0         0         0         0         0         0         0
         0         0         0         0         0         0         0         0
         0         0         0         0         0         0         0         0
         0         0         0         0         0         0         0         0
         0         0         0         0         0         0         0         0
         0         0         0         0         0         0         0         0
         0         0         0         0         0         0         0         0
         0         0         0         0         0         0         0         0
         0         0         0         0         0         0         0         0
         0         0         0         0         0         0         0         0
         0         0         0         0         0         0         0         0
         0         0         0         0         0         0         0         0
         0         0         0         0         0         0         0         0
         0         0         0         0         0         0         0         0
         0         0         0         0         0         0         0         0
         0         0         0         0         0         0         0         0
         0         0         0         0         0         0         0         0
         0         0         0         0         0         0         0         0
         0         0         0         0         0         0         0         0
         0         0         0         0         0         0         0         0
         0         0         0         0         0         0         0         0
         0         0         0         0         0         0         0         0
         0         0         0         0         0         0         0         0
         0         0         0         0         0         0         0         0
         0         0         0         0         0         0         0         0
         0         0         0         0         0         0         0         0
         0         0         0         0         0         0         0         0
         0         0         0         0         0         0         0         0
         0         0         0         0         0         0         0         0
         0         0         0         0         0         0         0         0
         0         0         0         0         0         0         0         0
         0         0         0         0         0         0         0         0
         0         0         0         0         0         0         0         0
         0         0         0         0         0         0         0         0
         0         0         0         0         0         0         0         0
         0         0         0         0         0         0         0         0
         0         0         0         0         0         0         0         0
         0         0         0         0         0         0         0         0
         0         0         0         0         0         0         0         0
         0         0         0         0         0         0         0         0
         0         0         0         0         0         0         0         0
         0         0         0         0         0         0         0         0
         0         0         0         0         0         0         0         0
         0         0         0         0         0         0         0         0
         0         0         0         0         0         0         0         0
         0         0         0         0         0         0         0         0
         0         0         0         0         0         0         0         0
         0         0         0         0         0         0         0         0
         0         0         0         0         0         0         0         0
         0         0         0         0         0         0         0         0
         0         0         0         0         0         0         0         0
         0         0         0         0         0         0         0         0
         0         0         0         0         0         0         0         0
         0         0         0         0         0         0         0         0
         0         0         0         0         0         0         0         0
         0         0         0         0         0         0         0         0
         0         0         0         0         0         0         0         0
         0         0         0         0         0         0         0         0
         0         0         0         0         0         0         0         0
         0         0         0         0         0         0         0         0
         0         0         0         0         0         0         0         0
         0         0         0         0         0         0         0         0
         0         0         0         0         0         0         0         0
         0         0         0         0         0         0         0         0
         0         0         0         0         0         0         0         0
         0         0         0         0         0         0         0         0
         0         0         0         0         0         0         0         0
         0         0         0         0         0         0         0         0
         0         0         0         0         0         0         0         0
         0         0         0         0         0         0         0         0
         0         0         0         0         0         0         0         0
         0         0         0         0         0         0         0         0
         0         0         0         0         0         0         0         0
         0         0         0         0         0         0         0         0
         0         0         0         0         0         0         0         0
         0         0         0         0         0         0         0         0
         0         0         0         0         0         0         0         0
         0         0         0         0         0         0         0         0
         0         0         0         0         0         0         0         0
         0         0         0         0         0         0         0         0
         0         0         0         0         0         0         0         0
         0         0         0         0         0         0         0         0
         0         0         0         0         0         0         0         0
         0         0         0         0         0         0         0         0
         0         0         0         0         0         0         0         0
         0         0         0         0         0         0         0         0
         0         0         0         0         0         0         0         0
         0         0         0         0         0         0         0         0
         0         0         0         0         0         0         0         0
         0         0         0         0         0         0         0         0
         0         0         0         0         0         0         0         0
         0         0         0         0         0         0         0         0
         0         0         0         0         0         0         0         0
         0         0         0         0         0         0         0         0
         0         0         0         0         0         0         0         0
         0         0         0         0         0         0         0         0
         0         0         0         0         0         0         0         0
         0         0         0         0         0         0         0         0
         0         0         0         0         0         0         0         0
         0         0         0         0         0         0         0         0
         0         0         0         0         0         0         0         0
         0         0         0         0         0         0         0         0
         0         0         0         0         0         0         0         0
         0         0         0         0         0         0         0         0
         0         0         0         0         0         0         0         0
         0         0         0         0         0         0         0         0
         0         0         0         0         0         0         0         0
         0         0         0         0         0         0         0         0
         0         0         0         0         0         0         0         0
         0         0         0         0         0         0         0         0
         0         0         0         0         0         0         0         0
         0         0         0         0         0         0         0         0
         0         0         0         0         0         0         0         0
         0         0         0         0         0         0         0         0
         0         0         0         0         0         0         0         0
         0         0         0         0         0         0         0         0
         0         0         0         0         0         0         0         0
         0         0         0         0         0         0         0         0
         0         0         0         0         0         0         0         0
         0         0         0         0         0         0         0         0
         0         0         0         0         0         0         0         0
         0         0         0         0         0         0         0         0
         0         0         0         0         0         0         0         0
         0         0         0         0         0         0         0         0
         0         0         0         0         0         0         0         0
         0         0         0         0         0         0         0         0
         0         0         0         0         0         0         0         0
         0         0         0         0         0         0         0         0
         0         0         0         0         0         0         0         0
         0         0         0         0         0         0         0         0
         0         0         0         0         0         0         0         0
         0         0         0         0         0         0         0         0
         0         0         0         0         0         0         0         0
         0         0         0         0         0         0         0         0
         0         0         0         0         0         0         0         0
         0         0         0         0         0         0         0         0
         0         0         0         0         0         0         0         0
         0         0         0         0         0         0         0         0
         0         0         0         0         0         0         0         0
         0         0         0         0         0         0         0         0
         0         0         0         0         0         0         0         0
         0         0         0         0         0         0         0         0
         0         0         0         0         0         0         0         0
         0         0         0         0         0         0         0         0
         0         0         0         0         0         0         0         0
         0         0         0         0         0         0         0         0
         0         0         0         0         0         0         0         0
         0         0         0         0         0         0         0         0
         0         0         0         0         0         0         0         0
         0         0         0         0         0         0         0         0
         0         0         0         0         0         0         0         0
         0         0         0         0         0         0         0         0
         0         0         0         0         0         0         0         0
         0         0         0         0         0         0         0         0
         0         0         0         0         0         0         0         0
         0         0         0         0         0         0         0         0
         0         0         0         0         0         0         0         0
         0         0         0         0         0         0         0         0
         0         0         0         0         0         0         0         0
         0         0         0         0         0         0         0         0
         0         0         0         0         0         0         0         0
         0         0         0         0         0         0         0         0
         0         0         0         0         0         0         0         0
         0         0         0         0         0         0         0         0
         0         0         0         0         0         0         0         0
         0         0         0         0         0         0         0         0
         0         0         0         0         0         0         0         0
         0         0         0         0         0         0         0         0
         0         0         0         0         0         0         0         0
         0         0         0         0         0         0         0         0
         0         0         0         0         0         0         0         0
         0         0         0         0         0         0         0         0
         0         0         0         0         0         0         0         0
         0         0         0         0         0         0         0         0
         0         0         0         0         0         0         0         0
         0         0         0         0         0         0         0         0
         0         0         0         0         0         0         0         0
         0         0         0         0         0         0         0         0
         0         0         0         0         0         0         0         0
         0         0         0         0         0         0         0         0
         0         0         0         0         0         0         0         0
         0         0         0         0         0         0         0         0
         0         0         0         0         0         0         0         0
         0         0         0         0         0         0         0         0
         0         0         0         0         0         0         0         0
         0         0         0         0         0         0         0         0
         0         0         0         0         0         0         0         0
         0         0         0         0         0         0         0         0
         0         0         0         0         0         0         0         0
         0         0         0         0         0         0         0         0
         0         0         0         0         0         0         0         0
         0         0         0         0         0         0         0         0
         0         0         0         0         0         0         0         0
         0         0         0         0         0         0         0         0
         0         0         0         0         0         0         0         0
         0         0         0         0         0         0         0         0
         0         0         0         0         0         0         0         0
         0         0         0         0         0         0         0         0
         0         0         0         0         0         0         0         0
         0         0         0         0         0         0         0         0
         0         0         0         0         0         0         0         0
         0         0         0         0         0         0         0         0
         0         0         0         0         0         0         0         0
         0         0         0         0         0         0         0         0
         0         0         0         0         0         0         0         0
         0         0         0         0         0         0         0         0
         0         0         0         0         0         0         0         0
         0         0         0         0         0         0         0         0
         0         0         0         0         0         0         0         0
         0         0         0         0         0         0         0         0
         0         0         0         0         0         0         0         0
         0         0         0         0         0         0         0         0
         0         0         0         0         0         0         0         0
         0         0         0         0         0         0         0         0
         0         0         0         0         0         0         0         0
         0         0         0         0         0         0         0         0
         0         0         0         0         0         0         0         0
         0         0         0         0         0         0         0         0
         0         0         0         0         0         0         0         0
         0         0         0         0         0         0         0         0
         0         0         0         0         0         0         0         0
         0         0         0         0         0         0         0         0
         0         0         0         0         0         0         0         0
         0         0         0         0         0         0         0         0
         0         0         0         0         0         0         0         0
         0         0         0         0         0         0         0         0
         0         0         0         0         0         0         0         0
         0         0         0         0         0         0         0         0
         0         0         0         0         0         0         0         0
         0         0         0         0         0         0         0         0
         0         0         0         0         0         0         0         0
         0         0         0         0         0         0         0         0
         0         0         0         0         0         0         0         0
         0         0         0         0         0         0         0         0
         0         0         0         0         0         0         0         0
         0         0         0         0         0         0         0         0
         0         0         0         0         0         0         0         0
         0         0         0         0         0         0         0         0
         0         0         0         0         0         0         0         0
         0         0         0         0         0         0         0         0
         0         0         0         0         0         0         0         0
         0         0         0         0         0         0         0         0
         0         0         0         0         0         0         0         0
         0         0         0         0         0         0         0         0
         0         0         0         0         0         0         0         0
         0         0         0         0         0         0         0         0
         0         0         0         0         0         0         0         0
         0         0         0         0         0         0         0         0
         0         0         0         0         0         0         0         0
         0         0         0         0         0         0         0         0
         0         0         0         0         0         0         0         0
         0         0         0         0         0         0         0         0
         0         0         0         0         0         0         0         0
         0         0         0         0         0         0         0         0
         0         0         0         0         0         0         0         0
         0         0         0         0         0         0         0         0
         0         0         0         0         0         0         0         0
         0         0         0         0         0         0         0         0
         0         0         0         0         0         0         0         0
         0         0         0         0         0         0         0         0
         0         0         0         0         0         0         0         0
         0         0         0         0         0         0         0         0
         0         0         0         0         0         0         0         0
         0         0         0         0         0         0         0         0
         0         0         0         0         0         0         0         0
         0         0         0         0         0         0         0         0
         0         0         0         0         0         0         0         0
         0         0         0         0         0         0         0         0
         0         0         0         0         0         0         0         0
         0         0         0         0         0         0         0         0
         0         0         0         0         0         0         0         0
         0         0         0         0         0         0         0         0
         0         0         0         0         0         0         0         0
         0         0         0         0         0         0         0         0
         0         0         0         0         0         0         0         0
         0         0         0         0         0         0         0         0
         0         0         0         0         0         0         0         0
         0         0         0         0         0         0         0         0
         0         0         0         0         0         0         0         0
         0         0         0         0         0         0         0         0
         0         0         0         0         0         0         0         0
         0         0         0         0         0         0         0         0
         0         0         0         0         0         0         0         0
         0         0         0         0         0         0         0         0
         0         0         0         0         0         0         0         0
         0         0         0         0         0         0         0         0
         0         0         0         0         0         0         0         0
         0         0         0         0         0         0         0         0
         0         0         0         0         0         0         0         0
         0         0         0         0         0         0         0         0
         0         0         0         0         0         0         0         0
         0         0         0         0         0         0         0         0
         0         0         0         0         0         0         0         0
         0         0         0         0         0         0         0         0
         0         0         0         0         0         0         0         0
         0         0         0         0         0         0         0         0
         0         0         0         0         0         0         0         0
         0         0         0         0         0         0         0         0
         0         0         0         0         0         0         0         0
         0         0         0         0         0         0         0         0
         0         0         0         0         0         0         0         0
         0         0         0         0         0         0         0         0
         0         0         0         0         0         0         0         0
         0         0         0         0         0         0         0         0
         0         0         0         0         0         0         0         0
         0         0         0         0         0         0         0         0
         0         0         0         0         0         0         0         0
         0         0         0         0         0         0         0         0
         0         0         0         0         0         0         0         0
         0         0         0         0         0         0         0         0
         0         0         0         0         0         0         0         0
         0         0         0         0         0         0         0         0
         0         0         0         0         0         0         0         0
         0         0         0         0         0         0         0         0
         0         0         0         0         0         0         0         0
         0         0         0         0         0         0         0         0
         0         0         0         0         0         0         0         0
         0         0         0         0         0         0         0         0
         0         0         0         0         0         0         0         0
         0         0         0         0         0         0         0         0
         0         0         0         0         0         0         0         0
         0         0         0         0         0         0         0         0
         0         0         0         0         0         0         0         0
         0         0         0         0         0         0         0         0
         0         0         0         0         0         0         0         0
         0         0         0         0         0         0         0         0
         0         0         0         0         0         0         0         0
         0         0         0         0         0         0         0         0
         0         0         0         0         0         0         0         0
         0         0         0         0         0         0         0         0
         0         0         0         0         0         0         0         0
         0         0         0         0         0         0         0         0
         0         0         0         0         0         0         0         0
         0         0         0         0         0         0         0         0
         0         0         0         0         0         0         0         0
         0         0         0         0         0         0         0         0
         0         0         0         0         0         0         0         0
         0         0         0         0         0         0         0         0
         0         0         0         0         0         0         0         0
         0         0         0         0         0         0         0         0
         0         0         0         0         0         0         0         0
         0         0         0         0         0         0         0         0
         0         0         0         0         0         0         0         0
         0         0         0         0         0         0         0         0
         0         0         0         0         0         0         0         0
         0         0         0         0         0         0         0         0
         0         0         0         0         0         0         0         0
         0         0         0         0         0         0         0         0
         0         0         0         0         0         0         0         0
         0         0         0         0         0         0         0         0
         0         0         0         0         0         0         0         0
         0         0         0         0         0         0         0         0
         0         0         0         0         0         0         0         0
         0         0         0         0         0         0         0         0
         0         0         0         0         0         0         0         0
         0         0         0         0         0         0         0         0
         0         0         0         0         0         0         0         0
         0         0         0         0         0         0         0         0
         0         0         0         0         0         0         0         0
         0         0         0         0         0         0         0         0
         0         0         0         0         0         0         0         0
         0         0         0         0         0         0         0         0
         0         0         0         0         0         0         0         0
         0         0         0         0         0         0         0         0
         0         0         0         0         0         0         0         0
         0         0         0         0         0         0         0         0
         0         0         0         0         0         0         0         0
         0         0         0         0         0         0         0         0
         0         0         0         0         0         0         0         0
         0         0         0         0         0         0         0         0
         0         0         0         0         0         0         0         0
         0         0         0         0         0         0         0         0
         0         0         0         0         0         0         0         0
         0         0         0         0         0         0         0         0
         0         0         0         0         0         0         0         0
         0         0         0         0         0         0         0         0
         0         0         0         0         0         0         0         0
         0         0         0         0         0         0         0         0
         0         0         0         0         0         0         0         0
         0         0         0         0         0         0         0         0
         0         0         0         0         0         0         0         0
         0         0         0         0         0         0         0         0
         0         0         0         0         0         0         0         0
         0         0         0         0         0         0         0         0
         0         0         0         0         0         0         0         0
         0         0         0         0         0         0         0         0
         0         0         0         0         0         0         0         0
         0         0         0         0         0         0         0         0
         0         0         0         0         0         0         0         0
         0         0         0         0         0         0         0         0
         0         0         0         0         0         0         0         0
         0         0         0         0         0         0         0         0
         0         0         0         0         0         0         0         0
         0         0         0         0         0         0         0         0
         0         0         0         0         0         0         0         0
         0         0         0         0         0         0         0         0
         0         0         0         0         0         0         0         0
         0         0         0         0         0         0         0         0
         0         0         0         0         0         0         0         0
         0         0         0         0         0         0         0         0
         0         0         0         0         0         0         0         0
         0         0         0         0         0         0         0         0
         0         0         0         0         0         0         0         0
         0         0         0         0         0         0         0         0
         0         0         0         0         0         0         0         0
         0         0         0         0         0         0         0         0
         0         0         0         0         0         0         0         0
         0         0         0         0         0         0         0         0
         0         0         0         0         0         0         0         0
         0         0         0         0         0         0         0         0
         0         0         0         0         0         0         0         0
         0         0         0         0         0         0         0         0
         0         0         0         0         0         0         0         0
         0         0         0         0         0         0         0         0
         0         0         0         0         0         0         0         0
         0         0         0         0         0         0         0         0
         0         0         0         0         0         0         0         0
         0         0         0         0         0         0         0         0
         0         0         0         0         0         0         0         0
         0         0         0         0         0         0         0         0
         0         0         0         0         0         0         0         0
         0         0         0         0         0         0         0         0
         0         0         0         0         0         0         0         0
         0         0         0         0         0         0         0         0
         0         0         0         0         0         0         0         0
         0         0         0         0         0         0         0         0
         0         0         0         0         0         0         0         0
         0         0         0         0         0         0         0         0
         0         0         0         0         0         0         0         0
         0         0         0         0         0         0         0         0
         0         0         0         0         0         0         0         0
         0         0         0         0         0         0         0         0
         0         0         0         0         0         0         0         0
         0         0         0         0         0         0         0         0
         0         0         0         0         0         0         0         0
         0         0         0         0         0         0         0         0
         0         0         0         0         0         0         0         0
         0         0         0         0         0         0         0         0
         0         0         0         0         0         0         0         0
         0         0         0         0         0         0         0         0
         0         0         0         0         0         0         0         0
         0         0         0         0         0         0         0         0
         0         0         0         0         0         0         0         0
         0         0         0         0         0         0         0         0
         0         0         0         0         0         0         0         0
         0         0         0         0         0         0         0         0
         0         0         0         0         0         0         0         0
         0         0         0         0         0         0         0         0
         0         0         0         0         0         0         0         0
         0         0         0         0         0         0         0         0
         0         0         0         0         0         0         0         0
         0         0         0         0         0         0         0         0
         0         0         0         0         0         0         0         0
         0         0         0         0         0         0         0         0
         0         0         0         0         0         0         0         0
         0         0         0         0         0         0         0         0
         0         0         0         0         0         0         0         0
         0         0         0         0         0         0         0         0
         0         0         0         0         0         0         0         0
         0         0         0         0         0         0         0         0
         0         0         0         0         0         0         0         0
         0         0         0         0         0         0         0         0
         0         0         0         0         0         0         0         0
         0         0         0         0         0         0         0         0
         0         0         0         0         0         0         0         0
         0         0         0         0         0         0         0         0
         0         0         0         0         0         0         0         0
         0         0         0         0         0         0         0         0
         0         0         0         0         0         0         0         0
         0         0         0         0         0         0         0         0
         0         0         0         0         0         0         0         0
         0         0         0         0         0         0         0         0
         0         0         0         0         0         0         0         0
         0         0         0         0         0         0         0         0
         0         0         0         0         0         0         0         0
         0         0         0         0         0         0         0         0
         0         0         0         0         0         0         0         0
         0         0         0         0         0         0         0         0
         0         0         0         0         0         0         0         0
         0         0         0         0         0         0         0         0
         0         0         0         0         0         0         0         0
         0         0         0         0         0         0         0         0
         0         0         0         0         0         0         0         0
         0         0         0         0         0         0         0         0
         0         0         0         0         0         0         0         0
         0         0         0         0         0         0         0         0
         0         0         0         0         0         0         0         0
         0         0         0         0         0         0         0         0
         0         0         0         0         0         0         0         0
         0         0         0         0         0         0         0         0
         0         0         0         0         0         0         0         0
         0         0         0         0         0         0         0         0
         0         0         0         0         0         0         0         0
         0         0         0         0         0         0         0         0
         0         0         0         0         0         0         0         0
         0         0         0         0         0         0         0         0
         0         0         0         0         0         0         0         0
         0         0         0         0         0         0         0         0
         0         0         0         0         0         0         0         0
         0         0         0         0         0         0         0         0
         0         0         0         0         0         0         0         0
         0         0         0         0         0         0         0         0
         0         0         0         0         0         0         0         0
         0         0         0         0         0         0         0         0
         0         0         0         0         0         0         0         0
         0         0         0         0         0         0         0         0
         0         0         0         0         0         0         0         0
         0         0         0         0         0         0         0         0
         0         0         0         0         0         0         0         0
         0         0         0         0         0         0         0         0
         0         0         0         0         0         0         0         0
         0         0         0         0         0         0         0         0
         0         0         0         0         0         0         0         0
         0         0         0         0         0         0         0         0
         0         0         0         0         0         0         0         0
         0         0         0         0         0         0         0         0
         0         0         0         0         0         0         0         0
         0         0         0         0         0         0         0         0
         0         0         0         0         0         0         0         0
         0         0         0         0         0         0         0         0
         0         0         0         0         0         0         0         0
         0         0         0         0         0         0         0         0
         0         0         0         0         0         0         0         0
         0         0         0         0         0         0         0         0
         0         0         0         0         0         0         0         0
         0         0         0         0         0         0         0         0
         0         0         0         0         0         0         0         0
         0         0         0         0         0         0         0         0
         0         0         0         0         0         0         0         0
         0         0         0         0         0         0         0         0
         0         0         0         0         0         0         0         0
         0         0         0         0         0         0         0         0
         0         0         0         0         0         0         0         0
         0         0         0         0         0         0         0         0
         0         0         0         0         0         0         0         0
         0         0         0         0         0         0         0         0
         0         0         0         0         0         0         0         0
         0         0         0         0         0         0         0         0
         0         0         0         0         0         0         0         0
         0         0         0         0         0         0         0         0
         0         0         0         0         0         0         0         0
         0         0         0         0         0         0         0         0
         0         0         0         0         0         0         0         0
         0         0         0         0         0         0         0         0
         0         0         0         0         0         0         0         0
         0         0         0         0         0         0         0         0
         0         0         0         0         0         0         0         0
         0         0         0         0         0         0         0         0
         0         0         0         0         0         0         0         0
         0         0         0         0         0         0         0         0
         0         0         0         0         0         0         0         0
         0         0         0         0         0         0         0         0
         0         0         0         0         0         0         0         0
         0         0         0         0         0         0         0         0
         0         0         0         0         0         0         0         0
         0         0         0         0         0         0         0         0
         0         0         0         0         0         0         0         0
         0         0         0         0         0         0         0         0
         0         0         0         0         0         0         0         0
         0         0         0         0         0         0         0         0
         0         0         0         0         0         0         0         0
         0         0         0         0         0         0         0         0
         0         0         0         0         0         0         0         0
         0         0         0         0         0         0         0         0
         0         0         0         0         0         0         0         0
         0         0         0         0         0         0         0         0
         0         0         0         0         0         0         0         0
         0         0         0         0         0         0         0         0
         0         0         0         0         0         0         0         0
         0         0         0         0         0         0         0         0
         0         0         0         0         0         0         0         0
         0         0         0         0         0         0         0         0
         0         0         0         0         0         0         0         0
         0         0         0         0         0         0         0         0
         0         0         0         0         0         0         0         0
         0         0         0         0         0         0         0         0
         0         0         0         0         0         0         0         0
         0         0         0         0         0         0         0         0
         0         0         0         0         0         0         0         0
         0         0         0         0         0         0         0         0
         0         0         0         0         0         0         0         0
         0         0         0         0         0         0         0         0
         0         0         0         0         0         0         0         0
         0         0         0         0         0         0         0         0
         0         0         0         0         0         0         0         0
         0         0         0         0         0         0         0         0
         0         0         0         0         0         0         0         0
         0         0         0         0         0         0         0         0
         0         0         0         0         0         0         0         0
         0         0         0         0         0         0         0         0
         0         0         0         0         0         0         0         0
         0         0         0         0         0         0         0         0
         0         0         0         0         0         0         0         0
         0         0         0         0         0         0         0         0
         0         0         0         0         0         0         0         0
         0         0         0         0         0         0         0         0
         0         0         0         0         0         0         0         0
         0         0         0         0         0         0         0         0
         0         0         0         0         0         0         0         0
         0         0         0         0         0         0         0         0
         0         0         0         0         0         0         0         0
         0         0         0         0         0         0         0         0
         0         0         0         0         0         0         0         0
         0         0         0         0         0         0         0         0
         0         0         0         0         0         0         0         0
         0         0         0         0         0         0         0         0
         0         0         0         0         0         0         0         0
         0         0         0         0         0         0         0         0
         0         0         0         0         0         0         0         0
         0         0         0         0         0         0         0         0
         0         0         0         0         0         0         0         0
         0         0         0         0         0         0         0         0
         0         0         0         0         0         0         0         0
         0         0         0         0         0         0         0         0
         0         0         0         0         0         0         0         0
         0         0         0         0         0         0         0         0
         0         0         0         0         0         0         0         0
         0         0         0         0         0         0         0         0
         0         0         0         0         0         0         0         0
         0         0         0         0         0         0         0         0
         0         0         0         0         0         0         0         0
         0         0         0         0         0         0         0         0
         0         0         0         0         0         0         0         0
         0         0         0         0         0         0         0         0
         0         0         0         0         0         0         0         0
         0         0         0         0         0         0         0         0
         0         0         0         0         0         0         0         0
         0         0         0         0         0         0         0         0
         0         0         0         0         0         0         0         0
         0         0         0         0         0         0         0         0
         0         0         0         0         0         0         0         0
         0         0         0         0         0         0         0         0
         0         0         0         0         0         0         0         0
         0         0         0         0         0         0         0         0
         0         0         0         0         0         0         0         0
         0         0         0         0         0         0         0         0
         0         0         0         0         0         0         0         0
         0         0         0         0         0         0         0         0
         0         0         0         0         0         0         0         0
         0         0         0         0         0         0         0         0
         0         0         0         0         0         0         0         0
         0         0         0         0         0         0         0         0
         0         0         0         0         0         0         0         0
         0         0         0         0         0         0         0         0
         0         0         0         0         0         0         0         0
         0         0         0         0         0         0         0         0
         0         0         0         0         0         0         0         0
         0         0         0         0         0         0         0         0
         0         0         0         0         0         0         0         0
         0         0         0         0         0         0         0         0
         0         0         0         0         0         0         0         0
         0         0         0         0         0         0         0         0
         0         0         0         0         0         0         0         0
         0         0         0         0         0         0         0         0
         0         0         0         0         0         0         0         0
         0         0         0         0         0         0         0         0
         0         0         0         0         0         0         0         0
         0         0         0         0         0         0         0         0
         0         0         0         0         0         0         0         0
         0         0         0         0         0         0         0         0
         0         0         0         0         0         0         0         0
         0         0         0         0         0         0         0         0
         0         0         0         0         0         0         0         0
         0         0         0         0         0         0         0         0
         0         0         0         0         0         0         0         0
         0         0         0         0         0         0         0         0
         0         0         0         0         0         0         0         0
         0         0         0         0         0         0         0         0
         0         0         0         0         0         0         0         0
         0         0         0         0         0         0         0         0
         0         0         0         0         0         0         0         0
         0         0         0         0         0         0         0         0
         0         0         0         0         0         0         0         0
         0         0         0         0         0         0         0         0
         0         0         0         0         0         0         0         0
         0         0         0         0         0         0         0         0
         0         0         0         0         0         0         0         0
         0         0         0         0         0         0         0         0
         0         0         0         0         0         0         0         0
         0         0         0         0         0         0         0         0
         0         0         0         0         0         0         0         0
         0         0         0         0         0         0         0         0
         0         0         0         0         0         0         0         0
         0         0         0         0         0         0         0         0
         0         0         0         0         0         0         0         0
         0         0         0         0         0         0         0         0
         0         0         0         0         0         0         0         0
         0         0         0         0         0         0         0         0
         0         0         0         0         0         0         0         0
         0         0         0         0         0         0         0         0
         0         0         0         0         0         0         0         0
         0         0         0         0         0         0         0         0
         0         0         0         0         0         0         0         0
         0         0         0         0         0         0         0         0
         0         0         0         0         0         0         0         0
         0         0         0         0         0         0         0         0
         0         0         0         0         0         0         0         0
         0         0         0         0         0         0         0         0
         0         0         0         0         0         0         0         0
         0         0         0         0         0         0         0         0
         0         0         0         0         0         0         0         0
         0         0         0         0         0         0         0         0
         0         0         0         0         0         0         0         0
         0         0         0         0         0         0         0         0
         0         0         0         0         0         0         0         0
         0         0         0         0         0         0         0         0
         0         0         0         0         0         0         0         0
         0         0         0         0         0         0         0         0
         0         0         0         0         0         0         0         0
         0         0         0         0         0         0         0         0
         0         0         0         0         0         0         0         0
         0         0         0         0         0         0         0         0
         0         0         0         0         0         0         0         0
         0         0         0         0         0         0         0         0
         0         0         0         0         0         0         0         0
         0         0         0         0         0         0         0         0
         0         0         0         0         0         0         0         0
         0         0         0         0         0         0         0         0
         0         0         0         0         0         0         0         0
         0         0         0         0         0         0         0         0
         0         0         0         0         0         0         0         0
         0         0         0         0         0         0         0         0
         0         0         0         0         0         0         0         0
         0         0         0         0         0         0         0         0
         0         0         0         0         0         0         0         0
         0         0         0         0         0         0         0         0
         0         0         0         0         0         0         0         0
         0         0         0         0         0         0         0         0
         0         0         0         0         0         0         0         0
         0         0         0         0         0         0         0         0
         0         0         0         0         0         0         0         0
         0         0         0         0         0         0         0         0
         0         0         0         0         0         0         0         0
         0         0         0         0         0         0         0         0
         0         0         0         0         0         0         0         0
         0         0         0         0         0         0         0         0
         0         0         0         0         0         0         0         0
         0         0         0         0         0         0         0         0
         0         0         0         0         0         0         0         0
         0         0         0         0         0         0         0         0
         0         0         0         0         0         0         0         0
         0         0         0         0         0         0         0         0
         0         0         0         0         0         0         0         0
         0         0         0         0         0         0         0         0
         0         0         0         0         0         0         0         0
         0         0         0         0         0         0         0         0
         0         0         0         0         0         0         0         0
         0         0         0         0         0         0         0         0
         0         0         0         0         0         0         0         0
         0         0         0         0         0         0         0         0
         0         0         0         0         0         0         0         0
         0         0         0         0         0         0         0         0
         0         0         0         0         0         0         0         0
         0         0         0         0         0         0         0         0
         0         0         0         0         0         0         0         0
         0         0         0         0         0         0         0         0
         0         0         0         0         0         0         0         0
         0         0         0         0         0         0         0         0
         0         0         0         0         0         0         0         0
         0         0         0         0         0         0         0         0
         0         0         0         0         0         0         0         0
         0         0         0         0         0         0         0         0
         0         0         0         0         0         0         0         0
         0         0         0         0         0         0         0         0
         0         0         0         0         0         0         0         0
         0         0         0         0         0         0         0         0
         0         0         0         0         0         0         0         0
         0         0         0         0         0         0         0         0
         0         0         0         0         0         0         0         0
         0         0         0         0         0         0         0         0
         0         0         0         0         0         0         0         0
         0         0         0         0         0         0         0         0
         0         0         0         0         0         0         0         0
         0         0         0         0         0         0         0         0
         0         0         0         0         0         0         0         0
         0         0         0         0         0         0         0         0
         0         0         0         0         0         0         0         0
         0         0         0         0         0         0         0         0
         0         0         0         0         0         0         0         0
         0         0         0         0         0         0         0         0
         0         0         0         0         0         0         0         0
         0         0         0         0         0         0         0         0
         0         0         0         0         0         0         0         0
         0         0         0         0         0         0         0         0
         0         0         0         0         0         0         0         0
         0         0         0         0         0         0         0         0
         0         0         0         0         0         0         0         0
         0         0         0         0         0         0         0         0
         0         0         0         0         0         0         0         0
         0         0         0         0         0         0         0         0
         0         0         0         0         0         0         0         0
         0         0         0         0         0         0         0         0
         0         0         0         0         0         0         0         0
         0         0         0         0         0         0         0         0
         0         0         0         0         0         0         0         0
         0         0         0         0         0         0         0         0
         0         0         0         0         0         0         0         0
         0         0         0         0         0         0         0         0
         0         0         0         0         0         0         0         0
         0         0         0         0         0         0         0         0
         0         0         0         0         0         0         0         0
         0         0         0         0         0         0         0         0
         0         0         0         0         0         0         0         0
         0         0         0         0         0         0         0         0
         0         0         0         0         0         0         0         0
         0         0         0         0         0         0         0         0
         0         0         0         0         0         0         0         0
         0         0         0         0         0         0         0         0
         0         0         0         0         0         0         0         0
         0         0         0         0         0         0         0         0
         0         0         0         0         0         0         0         0
         0         0         0         0         0         0         0         0
         0         0         0         0         0         0         0         0
         0         0         0         0         0         0         0         0
         0         0         0         0         0         0         0         0
         0         0         0         0         0         0         0         0
         0         0         0         0         0         0         0         0
         0         0         0         0         0         0         0         0
         0         0         0         0         0         0         0         0
         0         0         0         0         0         0         0         0
         0         0         0         0         0         0         0         0
         0         0         0         0         0         0         0         0
         0         0         0         0         0         0         0         0
         0         0         0         0         0         0         0         0
         0         0         0         0         0         0         0         0
         0         0         0         0         0         0         0         0
         0         0         0         0         0         0         0         0
         0         0         0         0         0         0         0         0
         0         0         0         0         0         0         0         0
         0         0         0         0         0         0         0         0
         0         0         0         0         0         0         0         0
         0         0         0         0         0         0         0         0
         0         0         0         0         0         0         0         0
         0         0         0         0         0         0         0         0
         0         0         0         0         0         0         0         0
         0         0         0         0         0         0         0         0
         0         0         0         0         0         0         0         0
         0         0         0         0         0         0         0         0
         0         0         0         0         0         0         0         0
         0         0         0         0         0         0         0         0
         0         0         0         0         0         0         0         0
         0         0         0         0         0         0         0         0
         0         0         0         0         0         0         0         0
         0         0         0         0         0         0         0         0
         0         0         0         0         0         0         0         0
         0         0         0         0         0         0         0         0
         0         0         0         0         0         0         0         0
         0         0         0         0         0         0         0         0
         0         0         0         0         0         0         0         0
         0         0         0         0         0         0         0         0
         0         0         0         0         0         0         0         0
         0         0         0         0         0         0         0         0
         0         0         0         0         0         0         0         0
         0         0         0         0         0         0         0         0
         0         0         0         0         0         0         0         0
         0         0         0         0         0         0         0         0
         0         0         0         0         0         0         0         0
         0         0         0         0         0         0         0         0
         0         0         0         0         0         0         0         0
         0         0         0         0         0         0         0         0
         0         0         0         0         0         0         0         0
         0         0         0         0         0         0         0         0
         0         0         0         0         0         0         0         0
         0         0         0         0         0         0         0         0
         0         0         0         0         0         0         0         0
         0         0         0         0         0         0         0         0
         0         0         0         0         0         0         0         0
         0         0         0         0         0         0         0         0
         0         0         0         0         0         0         0         0
         0         0         0         0         0         0         0         0
         0         0         0         0         0         0         0         0
         0         0         0         0         0         0         0         0
         0         0         0         0         0         0         0         0
         0         0         0         0         0         0         0         0
         0         0         0         0         0         0         0         0
         0         0         0         0         0         0         0         0
         0         0         0         0         0         0         0         0
         0         0         0         0         0         0         0         0
         0         0         0         0         0         0         0         0
         0         0         0         0         0         0         0         0
         0         0         0         0         0         0         0         0
         0         0         0         0         0         0         0         0
         0         0         0         0         0         0         0         0
         0         0         0         0         0         0         0         0
         0         0         0         0         0         0         0         0
         0         0         0         0         0         0         0         0
         0         0         0         0         0         0         0         0
         0         0         0         0         0         0         0         0
         0         0         0         0         0         0         0         0
         0         0         0         0         0         0         0         0
         0         0         0         0         0         0         0         0
         0         0         0         0         0         0         0         0
         0         0         0         0         0         0         0         0
         0         0         0         0         0         0         0         0
         0         0         0         0         0         0         0         0
         0         0         0         0         0         0         0         0
         0         0         0         0         0         0         0         0
         0         0         0         0         0         0         0         0
         0         0         0         0         0         0         0         0
         0         0         0         0         0         0         0         0
         0         0         0         0         0         0         0         0
         0         0         0         0         0         0         0         0
         0         0         0         0         0         0         0         0
         0         0         0         0         0         0         0         0
         0         0         0         0         0         0         0         0
         0         0         0         0         0         0         0         0
         0         0         0         0         0         0         0         0
         0         0         0         0         0         0         0         0
         0         0         0         0         0         0         0         0
         0         0         0         0         0         0         0         0
         0         0         0         0         0         0         0         0
         0         0         0         0         0         0         0         0
         0         0         0         0         0         0         0         0
         0         0         0         0         0         0         0         0
         0         0         0         0         0         0         0         0
         0         0         0         0         0         0         0         0
         0         0         0         0         0         0         0         0
         0         0         0         0         0         0         0         0
         0         0         0         0         0         0         0         0
         0         0         0         0         0         0         0         0
         0         0         0         0         0         0         0         0
         0         0         0         0         0         0         0         0
         0         0         0         0         0         0         0         0
         0         0         0         0         0         0         0         0
         0         0         0         0         0         0         0         0
         0         0         0         0         0         0         0         0
         0         0         0         0         0         0         0         0
         0         0         0         0         0         0         0         0
         0         0         0         0         0         0         0         0
         0         0         0         0         0         0         0         0
         0         0         0         0         0         0         0         0
         0         0         0         0         0         0         0         0
         0         0         0         0         0         0         0         0
         0         0         0         0         0         0         0         0
         0         0         0         0         0         0         0         0
         0         0         0         0         0         0         0         0
         0         0         0         0         0         0         0         0
         0         0         0         0         0         0         0         0
         0         0         0         0         0         0         0         0
         0         0         0         0         0         0         0         0
         0         0         0         0         0         0         0         0
         0         0         0         0         0         0         0         0
         0         0         0         0         0         0         0         0
         0         0         0         0         0         0         0         0
         0         0         0         0         0         0         0         0
         0         0         0         0         0         0         0         0
         0         0         0         0         0         0         0         0
         0         0         0         0         0         0         0         0
         0         0         0         0         0         0         0         0
         0         0         0         0         0         0         0         0
         0         0         0         0         0         0         0         0
         0         0         0         0         0         0         0         0
         0         0         0         0         0         0         0         0
         0         0         0         0         0         0         0         0
         0         0         0         0         0         0         0         0
         0         0         0         0         0         0         0         0
         0         0         0         0         0         0         0         0
         0         0         0         0         0         0         0         0
         0         0         0         0         0         0         0         0
         0         0         0         0         0         0         0         0
         0         0         0         0         0         0         0         0
         0         0         0         0         0         0         0         0
         0         0         0         0         0         0         0         0
         0         0         0         0         0         0         0         0
         0         0         0         0         0         0         0         0
         0         0         0         0         0         0         0         0
         0         0         0         0         0         0         0         0
         0         0         0         0         0         0         0         0
         0         0         0         0         0         0         0         0
         0         0         0         0         0         0         0         0
         0         0         0         0         0         0         0         0
         0         0         0         0         0         0         0         0
         0         0         0         0         0         0         0         0
         0         0         0         0         0         0         0         0
         0         0         0         0         0         0         0         0
         0         0         0         0         0         0         0         0
         0         0         0         0         0         0         0         0
         0         0         0         0         0         0         0         0
         0         0         0         0         0         0         0         0
         0         0         0         0         0         0         0         0
         0         0         0         0         0         0         0         0
         0         0         0         0         0         0         0         0
         0         0         0         0         0         0         0         0
         0         0         0         0         0         0         0         0
         0         0         0         0         0         0         0         0
         0         0         0         0         0         0         0         0
         0         0         0         0         0         0         0         0
         0         0         0         0         0         0         0         0
         0         0         0         0         0         0         0         0
         0         0         0         0         0         0         0         0
         0         0         0         0         0         0         0         0
         0         0         0         0         0         0         0         0
         0         0         0         0         0         0         0         0
         0         0         0         0         0         0         0         0
         0         0         0         0         0         0         0         0
         0         0         0         0         0         0         0         0
         0         0         0         0         0         0         0         0
         0         0         0         0         0         0         0         0
         0         0         0         0         0         0         0         0
         0         0         0         0         0         0         0         0
         0         0         0         0         0         0         0         0
         0         0         0         0         0         0         0         0
         0         0         0         0         0         0         0         0
         0         0         0         0         0         0         0         0
         0         0         0         0         0         0         0         0
         0         0         0         0         0         0         0         0
         0         0         0         0         0         0         0         0
         0         0         0         0         0         0         0         0
         0         0         0         0         0         0         0         0
         0         0         0         0         0         0         0         0
         0         0         0         0         0         0         0         0
         0         0         0         0         0         0         0         0
         0         0         0         0         0         0         0         0
         0         0         0         0         0         0         0         0
         0         0         0         0         0         0         0         0
         0         0         0         0         0         0         0         0
         0         0         0         0         0         0         0         0
         0         0         0         0         0         0         0         0
         0         0         0         0         0         0         0         0
         0         0         0         0         0         0         0         0
         0         0         0         0         0         0         0         0
         0         0         0         0         0         0         0         0
         0         0         0         0         0         0         0         0
         0         0         0         0         0         0         0         0
         0         0         0         0         0         0         0         0
         0         0         0         0         0         0         0         0
         0         0         0         0         0         0         0         0
         0         0         0         0         0         0         0         0
         0         0         0         0         0         0         0         0
         0         0         0         0         0         0         0         0
         0         0         0         0         0         0         0         0
         0         0         0         0         0         0         0         0
         0         0         0         0         0         0         0         0
         0         0         0         0         0         0         0         0
         0         0         0         0         0         0         0         0
         0         0         0         0         0         0         0         0
         0         0         0         0         0         0         0         0
         0         0         0         0         0         0         0         0
         0         0         0         0         0         0         0         0
         0         0         0         0         0         0         0         0
         0         0         0         0         0         0         0         0
         0         0         0         0         0         0         0         0
         0         0         0         0         0         0         0         0
         0         0         0         0         0         0         0         0
         0         0         0         0         0         0         0         0
         0         0         0         0         0         0         0         0
         0         0         0         0         0         0         0         0
         0         0         0         0         0         0         0         0
         0         0         0         0         0         0         0         0
         0         0         0         0         0         0         0         0
         0         0         0         0         0         0         0         0
         0         0         0         0         0         0         0         0
         0         0         0         0         0         0         0         0
         0         0         0         0         0         0         0         0
         0         0         0         0         0         0         0         0
         0         0         0         0         0         0         0         0
         0         0         0         0         0         0         0         0
         0         0         0         0         0         0         0         0
         0         0         0         0         0         0         0         0
         0         0         0         0         0         0         0         0
         0         0         0         0         0         0         0         0
         0         0         0         0         0         0         0         0
         0         0         0         0         0         0         0         0
         0         0         0         0         0         0         0         0
         0         0         0         0         0         0         0         0
         0         0         0         0         0         0         0         0
         0         0         0         0         0         0         0         0
         0         0         0         0         0         0         0         0
         0         0         0         0         0         0         0         0
         0         0         0         0         0         0         0         0
         0         0         0         0         0         0         0         0
         0         0         0         0         0         0         0         0
         0         0         0         0         0         0         0         0
         0         0         0         0         0         0         0         0
         0         0         0         0         0         0         0         0
         0         0         0         0         0         0         0         0
         0         0         0         0         0         0         0         0
         0         0         0         0         0         0         0         0
         0         0         0         0         0         0         0         0
         0         0         0         0         0         0         0         0
         0         0         0         0         0         0         0         0
         0         0         0         0         0         0         0         0
         0         0         0         0         0         0         0         0
         0         0         0         0         0         0         0         0
         0         0         0         0         0         0         0         0
         0         0         0         0         0         0         0         0
         0         0         0         0         0         0         0         0
         0         0         0         0         0         0         0         0
         0         0         0         0         0         0         0         0
         0         0         0         0         0         0         0         0
         0         0         0         0         0         0         0         0
         0         0         0         0         0         0         0         0
         0         0         0         0         0         0         0         0
         0         0         0         0         0         0         0         0
         0         0         0         0         0         0         0         0
         0         0         0         0         0         0         0         0
         0         0         0         0         0         0         0         0
         0         0         0         0         0         0         0         0
         0         0         0         0         0         0         0         0
         0         0         0         0         0         0         0         0
         0         0         0         0         0         0         0         0
         0         0         0         0         0         0         0         0
         0         0         0         0         0         0         0         0
         0         0         0         0         0         0         0         0
         0         0         0         0         0         0         0         0
         0         0         0         0         0         0         0         0
         0         0         0         0         0         0         0         0
         0         0         0         0         0         0         0         0
         0         0         0         0         0         0         0         0
         0         0         0         0         0         0         0         0
         0         0         0         0         0         0         0         0
         0         0         0         0         0         0         0         0
         0         0         0         0         0         0         0         0
         0         0         0         0         0         0         0         0
         0         0         0         0         0         0         0         0
         0         0         0         0         0         0         0         0
         0         0         0         0         0         0         0         0
         0         0         0         0         0         0         0         0
         0         0         0         0         0         0         0         0
         0         0         0         0         0         0         0         0
         0         0         0         0         0         0         0         0
         0         0         0         0         0         0         0         0
         0         0         0         0         0         0         0         0
         0         0         0         0         0         0         0         0
         0         0         0         0         0         0         0         0
         0         0         0         0         0         0         0         0
         0         0         0         0         0         0         0         0
         0         0         0         0         0         0         0         0
         0         0         0         0         0         0         0         0
         0         0         0         0         0         0         0         0
         0         0         0         0         0         0         0         0
         0         0         0         0         0         0         0         0
         0         0         0         0         0         0         0         0
         0         0         0         0         0         0         0         0
         0         0         0         0         0         0         0         0
         0         0         0         0         0         0         0         0
         0         0         0         0         0         0         0         0
         0         0         0         0         0         0         0         0
         0         0         0         0         0         0         0         0
         0         0         0         0         0         0         0         0
         0         0         0         0         0         0         0         0
         0         0         0         0         0         0         0         0
         0         0         0         0         0         0         0         0
         0         0         0         0         0         0         0         0
         0         0         0         0         0         0         0         0
         0         0         0         0         0         0         0         0
         0         0         0         0         0         0         0         0
         0         0         0         0         0         0         0         0
         0         0         0         0         0         0         0         0
         0         0         0         0         0         0         0         0
         0         0         0         0         0         0         0         0
         0         0         0         0         0         0         0         0
         0         0         0         0         0         0         0         0
         0         0         0         0         0         0         0         0
         0         0         0         0         0         0         0         0
         0         0         0         0         0         0         0         0
         0         0         0         0         0         0         0         0
         0         0         0         0         0         0         0         0
         0         0         0         0         0         0         0         0
         0         0         0         0         0         0         0         0
         0         0         0         0         0         0         0         0
         0         0         0         0         0         0         0         0
         0         0         0         0         0         0         0         0
         0         0         0         0         0         0         0         0
         0         0         0         0         0         0         0         0
         0         0         0         0         0         0         0         0
         0         0         0         0         0         0         0         0
         0         0         0         0         0         0         0         0
         0         0         0         0         0         0         0         0
         0         0         0         0         0         0         0         0
         0         0         0         0         0         0         0         0
         0         0         0         0         0         0         0         0
         0         0         0         0         0         0         0         0
         0         0         0         0         0         0         0         0
         0         0         0         0         0         0         0         0
         0         0         0         0         0         0         0         0
         0         0         0         0         0         0         0         0
         0         0         0         0         0         0         0         0
         0         0         0         0         0         0         0         0
         0         0         0         0         0         0         0         0
         0         0         0         0         0         0         0         0
         0         0         0         0         0         0         0         0
         0         0         0         0         0         0         0         0
         0         0         0         0         0         0         0         0
         0         0         0         0         0         0         0         0
         0         0         0         0         0         0         0         0
         0         0         0         0         0         0         0         0
         0         0         0         0         0         0         0         0
         0         0         0         0         0         0         0         0
         0         0         0         0         0         0         0         0
         0         0         0         0         0         0         0         0
         0         0         0         0         0         0         0         0
         0         0         0         0         0         0         0         0
         0         0         0         0         0         0         0         0
         0         0         0         0         0         0         0         0
         0         0         0         0         0         0         0         0
         0         0         0         0         0         0         0         0
         0         0         0         0         0         0         0         0
         0         0         0         0         0         0         0         0
         0         0         0         0         0         0         0         0
         0         0         0         0         0         0         0         0
         0         0         0         0         0         0         0         0
         0         0         0         0         0         0         0         0
         0         0         0         0         0         0         0         0
         0         0         0         0         0         0         0         0
         0         0         0         0         0         0         0         0
         0         0         0         0         0         0         0         0
         0         0         0         0         0         0         0         0
         0         0         0         0         0         0         0         0
         0         0         0         0         0         0         0         0
         0         0         0         0         0         0         0         0
         0         0         0         0         0         0         0         0
         0         0         0         0         0         0         0         0
         0         0         0         0         0         0         0         0
         0         0         0         0         0         0         0         0
         0         0         0         0         0         0         0         0
         0         0         0         0         0         0         0         0
         0         0         0         0         0         0         0         0
         0         0         0         0         0         0         0         0
         0         0         0         0         0         0         0         0
         0         0         0         0         0         0         0         0
         0         0         0         0         0         0         0         0
         0         0         0         0         0         0         0         0
         0         0         0         0         0         0         0         0
         0         0         0         0         0         0         0         0
         0         0         0         0         0         0         0         0
         0         0         0         0         0         0         0         0
         0         0         0         0         0         0         0         0
         0         0         0         0         0         0         0         0
         0         0         0         0         0         0         0         0
         0         0         0         0         0         0         0         0
         0         0         0         0         0         0         0         0
         0         0         0         0         0         0         0         0
         0         0         0         0         0         0         0         0
         0         0         0         0         0         0         0         0
         0         0         0         0         0         0         0         0
         0         0         0         0         0         0         0         0
         0         0         0         0         0         0         0         0
         0         0         0         0         0         0         0         0
         0         0         0         0         0         0         0         0
         0         0         0         0         0         0         0         0
         0         0         0         0         0         0         0         0
         0         0         0         0         0         0         0         0
         0         0         0         0         0         0         0         0
         0         0         0         0         0         0         0         0
         0         0         0         0         0         0         0         0
         0         0         0         0         0         0         0         0
         0         0         0         0         0         0         0         0
         0         0         0         0         0         0         0         0
         0         0         0         0         0         0         0         0
         0         0         0         0         0         0         0         0
         0         0         0         0         0         0         0         0
         0         0         0         0         0         0         0         0
         0         0         0         0         0         0         0         0
         0         0         0         0         0         0         0         0
         0         0         0         0         0         0         0         0
         0         0         0         0         0         0         0         0
         0         0         0         0         0         0         0         0
         0         0         0         0         0         0         0         0
         0         0         0         0         0         0         0         0
         0         0         0         0         0         0         0         0
         0         0         0         0         0         0         0         0
         0         0         0         0         0         0         0         0
         0         0         0         0         0         0         0         0
         0         0         0         0         0         0         0         0
         0         0         0         0         0         0         0         0
         0         0         0         0         0         0         0         0
         0         0         0         0         0         0         0         0
         0         0         0         0         0         0         0         0
         0         0         0         0         0         0         0         0
         0         0         0         0         0         0         0         0
         0         0         0         0         0         0         0         0
         0         0         0         0         0         0         0         0
         0         0         0         0         0         0         0         0
         0         0         0         0         0         0         0         0
         0         0         0         0         0         0         0         0
         0         0         0         0         0         0         0         0
         0         0         0         0         0         0         0         0
         0         0         0         0         0         0         0         0
         0         0         0         0         0         0         0         0
         0         0         0         0         0         0         0         0
         0         0         0         0         0         0         0         0
         0         0         0         0         0         0         0         0
         0         0         0         0         0         0         0         0
         0         0         0         0         0         0         0         0
         0         0         0         0         0         0         0         0
         0         0         0         0         0         0         0         0
         0         0         0         0         0         0         0         0
         0         0         0         0         0         0         0         0
         0         0         0         0         0         0         0         0
         0         0         0         0         0         0         0         0
         0         0         0         0         0         0         0         0
         0         0         0         0         0         0         0         0
         0         0         0         0         0         0         0         0
         0         0         0         0         0         0         0         0
         0         0         0         0         0         0         0         0
         0         0         0         0         0         0         0         0
         0         0         0         0         0         0         0         0
         0         0         0         0         0         0         0         0
         0         0         0         0         0         0         0         0
         0         0         0         0         0         0         0         0
         0         0         0         0         0         0         0         0
         0         0         0         0         0         0         0         0
         0         0         0         0         0         0         0         0
         0         0         0         0         0         0         0         0
         0         0         0         0         0         0         0         0
         0         0         0         0         0         0         0         0
         0         0         0         0         0         0         0         0
         0         0         0         0         0         0         0         0
         0         0         0         0         0         0         0         0
         0         0         0         0         0         0         0         0
         0         0         0         0         0         0         0         0
         0         0         0         0         0         0         0         0
         0         0         0         0         0         0         0         0
         0         0         0         0         0         0         0         0
         0         0         0         0         0         0         0         0
         0         0         0         0         0         0         0         0
         0         0         0         0         0         0         0         0
         0         0         0         0         0         0         0         0
         0         0         0         0         0         0         0         0
         0         0         0         0         0         0         0         0
         0         0         0         0         0         0         0         0
         0         0         0         0         0         0         0         0
         0         0         0         0         0         0         0         0
         0         0         0         0         0         0         0         0
         0         0         0         0         0         0         0         0
         0         0         0         0         0         0         0         0
         0         0         0         0         0         0         0         0
         0         0         0         0         0         0         0         0
         0         0         0         0         0         0         0         0
         0         0         0         0         0         0         0         0
         0         0         0         0         0         0         0         0
         0         0         0         0         0         0         0         0
         0         0         0         0         0         0         0         0
         0         0         0         0         0         0         0         0
         0         0         0         0         0         0         0         0
         0         0         0         0         0         0         0         0
         0         0         0         0         0         0         0         0
         0         0         0         0         0         0         0         0
         0         0         0         0         0         0         0         0
         0         0         0         0         0         0         0         0
         0         0         0         0         0         0         0         0
         0         0         0         0         0         0         0         0
         0         0         0         0         0         0         0         0
         0         0         0         0         0         0         0         0
         0         0         0         0         0         0         0         0
         0         0         0         0         0         0         0         0
         0         0         0         0         0         0         0         0
         0         0         0         0         0         0         0         0
         0         0         0         0         0         0         0         0
         0         0         0         0         0         0         0         0
         0         0         0         0         0         0         0         0
         0         0         0         0         0         0         0         0
         0         0         0         0         0         0         0         0
         0         0         0         0         0         0         0         0
         0         0         0         0         0         0         0         0
         0         0         0         0         0         0         0         0
         0         0         0         0         0         0         0         0
         0         0         0         0         0         0         0         0
         0         0         0         0         0         0         0         0
         0         0         0         0         0         0         0         0
         0         0         0         0         0         0         0         0
         0         0         0         0         0         0         0         0
         0         0         0         0         0         0         0         0
         0         0         0         0         0         0         0         0
         0         0         0         0         0         0         0         0
         0         0         0         0         0         0         0         0
         0         0         0         0         0         0         0         0
         0         0         0         0         0         0         0         0
         0         0         0         0         0         0         0         0
         0         0         0         0         0         0         0         0
         0         0         0         0         0         0         0         0
         0         0         0         0         0         0         0         0
         0         0         0         0         0         0         0         0
         0         0         0         0         0         0         0         0
         0         0         0         0         0         0         0         0
         0         0         0         0         0         0         0         0
         0         0         0         0         0         0         0         0
         0         0         0         0         0         0         0         0
         0         0         0         0         0         0         0         0
         0         0         0         0         0         0         0         0
         0         0         0         0         0         0         0         0
         0         0         0         0         0         0         0         0
         0         0         0         0         0         0         0         0
         0         0         0         0         0         0         0         0
         0         0         0         0         0         0         0         0
         0         0         0         0         0         0         0         0
         0         0         0         0         0         0         0         0
         0         0         0         0         0         0         0         0
         0         0         0         0         0         0         0         0
         0         0         0         0         0         0         0         0
         0         0         0         0         0         0         0         0
         0         0         0         0         0         0         0         0
         0         0         0         0         0         0         0         0
         0         0         0         0         0         0         0         0
         0         0         0         0         0         0         0         0
         0         0         0         0         0         0         0         0
         0         0         0         0         0         0         0         0
         0         0         0         0         0         0         0         0
         0         0         0         0         0         0         0         0
         0         0         0         0         0         0         0         0
         0         0         0         0         0         0         0         0
         0         0         0         0         0         0         0         0
         0         0         0         0         0         0         0         0
         0         0         0         0         0         0         0         0
         0         0         0         0         0         0         0         0
         0         0         0         0         0         0         0         0
         0         0         0         0         0         0         0         0
         0         0         0         0         0         0         0         0
         0         0         0         0         0         0         0         0
         0         0         0         0         0         0         0         0
         0         0         0         0         0         0         0         0
         0         0         0         0         0         0         0         0
         0         0         0         0         0         0         0         0
         0         0         0         0         0         0         0         0
         0         0         0         0         0         0         0         0
         0         0         0         0         0         0         0         0
         0         0         0         0         0         0         0         0
         0         0         0         0         0         0         0         0
         0         0         0         0         0         0         0         0
         0         0         0         0         0         0         0         0
         0         0         0         0         0         0         0         0
         0         0         0         0         0         0         0         0
         0         0         0         0         0         0         0         0
         0         0         0         0         0         0         0         0
         0         0         0         0         0         0         0         0
         0         0         0         0         0         0         0         0
         0         0         0         0         0         0         0         0
         0         0         0         0         0         0         0         0
         0         0         0         0         0         0         0         0
         0         0         0         0         0         0         0         0
         0         0         0         0         0         0         0         0
         0         0         0         0         0         0         0         0
         0         0         0         0         0         0         0         0
         0         0         0         0         0         0         0         0
         0         0         0         0         0         0         0         0
         0         0         0         0         0         0         0         0
         0         0         0         0         0         0         0         0
         0         0         0         0         0         0         0         0
         0         0         0         0         0         0         0         0
         0         0         0         0         0         0         0         0
         0         0         0         0         0         0         0         0
         0         0         0         0         0         0         0         0
         0         0         0         0         0         0         0         0
         0         0         0         0         0         0         0         0
         0         0         0         0         0         0         0         0
         0         0         0         0         0         0         0         0
         0         0         0         0         0         0         0         0
         0         0         0         0         0         0         0         0
         0         0         0         0         0         0         0         0
         0         0         0         0         0         0         0         0
         0         0         0         0         0         0         0         0
         0         0         0         0         0         0         0         0
         0         0         0         0         0         0         0         0
         0         0         0         0         0         0         0         0
         0         0         0         0         0         0         0         0
         0         0         0         0         0         0         0         0
         0         0         0         0         0         0         0         0
         0         0         0         0         0         0         0         0
         0         0         0         0         0         0         0         0
         0         0         0         0         0         0         0         0
         0         0         0         0         0         0         0         0
         0         0         0         0         0         0         0         0
         0         0         0         0         0         0         0         0
         0         0         0         0         0         0         0         0
         0         0         0         0         0         0         0         0
         0         0         0         0         0         0         0         0
         0         0         0         0         0         0         0         0
         0         0         0         0         0         0         0         0
         0         0         0         0         0         0         0         0
         0         0         0         0         0         0         0         0
         0         0         0         0         0         0         0         0
         0         0         0         0         0         0         0         0
         0         0         0         0         0         0         0         0
         0         0         0         0         0         0         0         0
         0         0         0         0         0         0         0         0
         0         0         0         0         0         0         0         0
         0         0         0         0         0         0         0         0
         0         0         0         0         0         0         0         0
         0         0         0         0         0         0         0         0
         0         0         0         0         0         0         0         0
         0         0         0         0         0         0         0         0
         0         0         0         0         0         0         0         0
         0         0         0         0         0         0         0         0
         0         0         0         0         0         0         0         0
         0         0         0         0         0         0         0         0
         0         0         0         0         0         0         0         0
         0         0         0         0         0         0         0         0
         0         0         0         0         0         0         0         0
         0         0         0         0         0         0         0         0
         0         0         0         0         0         0         0         0
         0         0         0         0         0         0         0         0
         0         0         0         0         0         0         0         0
         0         0         0         0         0         0         0         0
         0         0         0         0         0         0         0         0
         0         0         0         0         0         0         0         0
         0         0         0         0         0         0         0         0
         0         0         0         0         0         0         0         0
         0         0         0         0         0         0         0         0
         0         0         0         0         0         0         0         0
         0         0         0         0         0         0         0         0
         0         0         0         0         0         0         0         0
         0         0         0         0         0         0         0         0
         0         0         0         0         0         0         0         0
         0         0         0         0         0         0         0         0
         0         0         0         0         0         0         0         0
         0         0         0         0         0         0         0         0
         0         0         0         0         0         0         0         0
         0         0         0         0         0         0         0         0
         0         0         0         0         0         0         0         0
         0         0         0         0         0         0         0         0
         0         0         0         0         0         0         0         0
         0         0         0         0         0         0         0         0
         0         0         0         0         0         0         0         0
         0         0         0         0         0         0         0         0
         0         0         0         0         0         0         0         0
         0         0         0         0         0         0         0         0
         0         0         0         0         0         0         0         0
         0         0         0         0         0         0         0         0
         0         0         0         0         0         0         0         0
         0         0         0         0         0         0         0         0
         0         0         0         0         0         0         0         0
         0         0         0         0         0         0         0         0
         0         0         0         0         0         0         0         0
         0         0         0         0         0         0         0         0
         0         0         0         0         0         0         0         0
         0         0         0         0         0         0         0         0
         0         0         0         0         0         0         0         0
         0         0         0         0         0         0         0         0
         0         0         0         0         0         0         0         0
         0         0         0         0         0         0         0         0
         0         0         0         0         0         0         0         0
         0         0         0         0         0         0         0         0
         0         0         0         0         0         0         0         0
         0         0         0         0         0         0         0         0
         0         0         0         0         0         0         0         0
         0         0         0         0         0         0         0         0
         0         0         0         0         0         0         0         0
         0         0         0         0         0         0         0         0
         0         0         0         0         0         0         0         0
         0         0         0         0         0         0         0         0
         0         0         0         0         0         0         0         0
         0         0         0         0         0         0         0         0
         0         0         0         0         0         0         0         0
         0         0         0         0         0         0         0         0
         0         0         0         0         0         0         0         0
         0         0         0         0         0         0         0         0
         0         0         0         0         0         0         0         0
         0         0         0         0         0         0         0         0
         0         0         0         0         0         0         0         0
         0         0         0         0         0         0         0         0
         0         0         0         0         0         0         0         0
         0         0         0         0         0         0         0         0
         0         0         0         0         0         0         0         0
         0         0         0         0         0         0         0         0
         0         0         0         0         0         0         0         0
         0         0         0         0         0         0         0         0
         0         0         0         0         0         0         0         0
         0         0         0         0         0         0         0         0
         0         0         0         0         0         0         0         0
         0         0         0         0         0         0         0         0
         0         0         0         0         0         0         0         0
         0         0         0         0         0         0         0         0
         0         0         0         0         0         0         0         0
         0         0         0         0         0         0         0         0
         0         0         0         0         0         0         0         0
         0         0         0         0         0         0         0         0
         0         0         0         0         0         0         0         0
         0         0         0         0         0         0         0         0
         0         0         0         0         0         0         0         0
         0         0         0         0         0         0         0         0
         0         0         0         0         0         0         0         0
         0         0         0         0         0         0         0         0
         0         0         0         0         0         0         0         0
         0         0         0         0         0         0         0         0
         0         0         0         0         0         0         0         0
         0         0         0         0         0         0         0         0
         0         0         0         0         0         0         0         0
         0         0         0         0         0         0         0         0
         0         0         0         0         0         0         0         0
         0         0         0         0         0         0         0         0
         0         0         0         0         0         0         0         0
         0         0         0         0         0         0         0         0
         0         0         0         0         0         0         0         0
         0         0         0         0         0         0         0         0
         0         0         0         0         0         0         0         0
         0         0         0         0         0         0         0         0
         0         0         0         0         0         0         0         0
         0         0         0         0         0         0         0         0
         0         0         0         0         0         0         0         0
         0         0         0         0         0         0         0         0
         0         0         0         0         0         0         0         0
         0         0         0         0         0         0         0         0
         0         0         0         0         0         0         0         0
         0         0         0         0         0         0         0         0
         0         0         0         0         0         0         0         0
         0         0         0         0         0         0         0         0
         0         0         0         0         0         0         0         0
         0         0         0         0         0         0         0         0
         0         0         0         0         0         0         0         0
         0         0         0         0         0         0         0         0
         0         0         0         0         0         0         0         0
         0         0         0         0         0         0         0         0
         0         0         0         0         0         0         0         0
         0         0         0         0         0         0         0         0
         0         0         0         0         0         0         0         0
         0         0         0         0         0         0         0         0
         0         0         0         0         0         0         0         0
         0         0         0         0         0         0         0         0
         0         0         0         0         0         0         0         0
         0         0         0         0         0         0         0         0
         0         0         0         0         0         0         0         0
         0         0         0         0         0         0         0         0
         0         0         0         0         0         0         0         0
         0         0         0         0         0         0         0         0
         0         0         0         0         0         0         0         0
         0         0         0         0         0         0         0         0
         0         0         0         0         0         0         0         0
         0         0         0         0         0         0         0         0
         0         0         0         0         0         0         0         0
         0         0         0         0         0         0         0         0
         0         0         0         0         0         0         0         0
         0         0         0         0         0         0         0         0
         0         0         0         0         0         0         0         0
         0         0         0         0         0         0         0         0
         0         0         0         0         0         0         0         0
         0         0         0         0         0         0         0         0
         0         0         0         0         0         0         0         0
         0         0         0         0         0         0         0         0
         0         0         0         0         0         0         0         0
         0         0         0         0         0         0         0         0
         0         0         0         0         0         0         0         0
         0         0         0         0         0         0         0         0
         0         0         0         0         0         0         0         0
         0         0         0         0         0         0         0         0
         0         0         0         0         0         0         0         0
         0         0         0         0         0         0         0         0
         0         0         0         0         0         0         0         0
         0         0         0         0         0         0         0         0
         0         0         0         0         0         0         0         0
         0         0         0         0         0         0         0         0
         0         0         0         0         0         0         0         0
         0         0         0         0         0         0         0         0
         0         0         0         0         0         0         0         0
         0         0         0         0         0         0         0         0
         0         0         0         0         0         0         0         0
         0         0         0         0         0         0         0         0
         0         0         0         0         0         0         0         0
         0         0         0         0         0         0         0         0
         0         0         0         0         0         0         0         0
         0         0         0         0         0         0         0         0
         0         0         0         0         0         0         0         0
         0         0         0         0         0         0         0         0
         0         0         0         0         0         0         0         0
         0         0         0         0         0         0         0         0
         0         0         0         0         0         0         0         0
         0         0         0         0         0         0         0         0
         0         0         0         0         0         0         0         0
         0         0         0         0         0         0         0         0
         0         0         0         0         0         0         0         0
         0         0         0         0         0         0         0         0
         0         0         0         0         0         0         0         0
         0         0         0         0         0         0         0         0
         0         0         0         0         0         0         0         0
         0         0         0         0         0         0         0         0
         0         0         0         0         0         0         0         0
         0         0         0         0         0         0         0         0
         0         0         0         0         0         0         0         0
         0         0         0         0         0         0         0         0
         0         0         0         0         0         0         0         0
         0         0         0         0         0         0         0         0
         0         0         0         0         0         0         0         0
         0         0         0         0         0         0         0         0
         0         0         0         0         0         0         0         0
         0         0         0         0         0         0         0         0
         0         0         0         0         0         0         0         0
         0         0         0         0         0         0         0         0
         0         0         0         0         0         0         0         0
         0         0         0         0         0         0         0         0
         0         0         0         0         0         0         0         0
         0         0         0         0         0         0         0         0
         0         0         0         0         0         0         0         0
         0         0         0         0         0         0         0         0
         0         0         0         0         0         0         0         0
         0         0         0         0         0         0         0         0
         0         0         0         0         0         0         0         0
         0         0         0         0         0         0         0         0
         0         0         0         0         0         0         0         0
         0         0         0         0         0         0         0         0
         0         0         0         0         0         0         0         0
         0         0         0         0         0         0         0         0
         0         0         0         0         0         0         0         0
         0         0         0         0         0         0         0         0
         0         0         0         0         0         0         0         0
         0         0         0         0         0         0         0         0
         0         0         0         0         0         0         0         0
         0         0         0         0         0         0         0         0
         0         0         0         0         0         0         0         0
         0         0         0         0         0         0         0         0
         0         0         0         0         0         0         0         0
         0         0         0         0         0         0         0         0
         0         0         0         0         0         0         0         0
         0         0         0         0         0         0         0         0
         0         0         0         0         0         0         0         0
         0         0         0         0         0         0         0         0
         0         0         0         0         0         0         0         0
         0         0         0         0         0         0         0         0
         0         0         0         0         0         0         0         0
         0         0         0         0         0         0         0         0
         0         0         0         0         0         0         0         0
         0         0         0         0         0         0         0         0
         0         0         0         0         0         0         0         0
         0         0         0         0         0         0         0         0
         0         0         0         0         0         0         0         0
         0         0         0         0         0         0         0         0
         0         0         0         0         0         0         0         0
         0         0         0         0         0         0         0         0
         0         0         0         0         0         0         0         0
         0         0         0         0         0         0         0         0
         0         0         0         0         0         0         0         0
         0         0         0         0         0         0         0         0
         0         0         0         0         0         0         0         0
         0         0         0         0         0         0         0         0
         0         0         0         0         0         0         0         0
         0         0         0         0         0         0         0         0
         0         0         0         0         0         0         0         0
         0         0         0         0         0         0         0         0
         0         0         0         0         0         0         0         0
         0         0         0         0         0         0         0         0
         0         0         0         0         0         0         0         0
         0         0         0         0         0         0         0         0
         0         0         0         0         0         0         0         0
         0         0         0         0         0         0         0         0
         0         0         0         0         0         0         0         0
         0         0         0         0         0         0         0         0
         0         0         0         0         0         0         0         0
         0         0         0         0         0         0         0         0
         0         0         0         0         0         0         0         0
         0         0         0         0         0         0         0         0
         0         0         0         0         0         0         0         0
         0         0         0         0         0         0         0         0
         0         0         0         0         0         0         0         0
         0         0         0         0         0         0         0         0
         0         0         0         0         0         0         0         0
         0         0         0         0         0         0         0         0
         0         0         0         0         0         0         0         0
         0         0         0         0         0         0         0         0
         0         0         0         0         0         0         0         0
         0         0         0         0         0         0         0         0
         0         0         0         0         0         0         0         0
         0         0         0         0         0         0         0         0
         0         0         0         0         0         0         0         0
         0         0         0         0         0         0         0         0
         0         0         0         0         0         0         0         0
         0         0         0         0         0         0         0         0
         0         0         0         0         0         0         0         0
         0         0         0         0         0         0         0         0
         0         0         0         0         0         0         0         0
         0         0         0         0         0         0         0         0
         0         0         0         0         0         0         0         0
         0         0         0         0         0         0         0         0
         0         0         0         0         0         0         0         0
         0         0         0         0         0         0         0         0
         0         0         0         0         0         0         0         0
         0         0         0         0         0         0         0         0
         0         0         0         0         0         0         0         0
         0         0         0         0         0         0         0         0
         0         0         0         0         0         0         0         0
         0         0         0         0         0         0         0         0
         0         0         0         0         0         0         0         0
         0         0         0         0         0         0         0         0
         0         0         0         0         0         0         0         0
         0         0         0         0         0         0         0         0
         0         0         0         0         0         0         0         0
         0         0         0         0         0         0         0         0
         0         0         0         0         0         0         0         0
         0         0         0         0         0         0         0         0
         0         0         0         0         0         0         0         0
         0         0         0         0         0         0         0         0
         0         0         0         0         0         0         0         0
         0         0         0         0         0         0         0         0
         0         0         0         0         0         0         0         0
         0         0         0         0         0         0         0         0
         0         0         0         0         0         0         0         0
         0         0         0         0         0         0         0         0
         0         0         0         0         0         0         0         0
         0         0         0         0         0         0         0         0
         0         0         0
         0         0         0         0         0         0         0         0
         0         0         0         0         0         0         0         0
         0         0         0         0         0         0         0         0
         0         0         0         0         0         0         0         0
         0         0         0         0         0         0         0         0
         0         0         0         0         0         0         0         0
         0         0         0         0         0         0         0         0
         0         0         0         0         0         0         0         0
         0         0         0         0         0         0         0         0
         0         0         0         0         0         0         0         0
         0         0         0         0         0         0         0         0
         0         0         0         0         0         0         0         0
         0         0         0         0         0         0         0         0
         0         0         0         0         0         0         0         0
         0         0         0         0         0         0         0         0
         0         0         0         0         0         0         0         0
         0         0         0         0         0         0         0         0
         0         0         0         0         0         0         0         0
         0         0         0         0         0         0         0         0
         0         0         0         0         0         0         0         0
         0         0         0         0         0         0         0         0
         0         0         0         0         0         0         0         0
         0         0         0         0         0         0         0         0
         0         0         0         0         0         0         0         0
         0         0         0         0         0         0         0         0
         0         0         0         0         0         0         0         0
         0         0         0         0         0         0         0         0
         0         0         0         0         0         0         0         0
         0         0         0         0         0         0         0         0
         0         0         0         0         0         0         0         0
         0         0         0         0         0         0         0         0
         0         0         0         0         0         0         0         0
         0         0         0         0         0         0         0         0
         0         0         0         0         0         0         0         0
         0         0         0         0         0         0         0         0
         0         0         0         0         0         0         0         0
         0         0         0         0         0         0         0         0
         0         0         0         0         0         0         0         0
         0         0         0         0         0         0         0         0
         0         0         0         0         0         0         0         0
         0         0         0         0         0         0         0         0
         0         0         0         0         0         0         0         0
         0         0         0         0         0         0         0         0
         0         0         0         0         0         0         0         0
         0         0         0         0         0         0         0         0
         0         0         0         0         0         0         0         0
         0         0         0         0         0         0         0         0
         0         0         0         0         0         0         0         0
         0         0         0         0         0         0         0         0
         0         0         0         0         0         0         0         0
         0         0         0         0         0         0         0         0
         0         0         0         0         0         0         0         0
         0         0         0         0         0         0         0         0
         0         0         0         0         0         0         0         0
         0         0         0         0         0         0         0         0
         0         0         0         0         0         0         0         0
         0         0         0         0         0         0         0         0
         0         0         0         0         0         0         0         0
         0         0         0         0         0         0         0         0
         0         0         0         0         0         0         0         0
         0         0         0         0         0         0         0         0
         0         0         0         0         0         0         0         0
         0         0         0         0         0         0         0         0
         0         0         0         0         0         0         0         0
         0         0         0         0         0         0         0         0
         0         0         0         0         0         0         0         0
         0         0         0         0         0         0         0         0
         0         0         0         0         0         0         0         0
         0         0         0         0         0         0         0         0
         0         0         0         0         0         0         0         0
         0         0         0         0         0         0         0         0
         0         0         0         0         0         0         0         0
         0         0         0         0         0         0         0         0
         0         0         0         0         0         0         0         0
         0         0         0         0         0         0         0         0
         0         0         0         0         0         0         0         0
         0         0         0         0         0         0         0         0
         0         0         0         0         0         0         0         0
         0         0         0         0         0         0         0         0
         0         0         0         0         0         0         0         0
         0         0         0         0         0         0         0         0
         0         0         0         0         0         0         0         0
         0         0         0         0         0         0         0         0
         0         0         0         0         0         0         0         0
         0         0         0         0         0         0         0         0
         0         0         0         0         0         0         0         0
         0         0         0         0         0         0         0         0
         0         0         0         0         0         0         0         0
         0         0         0         0         0         0         0         0
         0         0         0         0         0         0         0         0
         0         0         0         0         0         0         0         0
         0         0         0         0         0         0         0         0
         0         0         0         0         0         0         0         0
         0         0         0         0         0         0         0         0
         0         0         0         0         0         0         0         0
         0         0         0         0         0         0         0         0
         0         0         0         0         0         0         0         0
         0         0         0         0         0         0         0         0
         0         0         0         0         0         0         0         0
         0         0         0         0         0         0         0         0
         0         0         0         0         0         0         0         0
         0         0         0         0         0         0         0         0
         0         0         0         0         0         0         0         0
         0         0         0         0         0         0         0         0
         0         0         0         0         0         0         0         0
         0         0         0         0         0         0         0         0
         0         0         0         0         0         0         0         0
         0         0         0         0         0         0         0         0
         0         0         0         0         0         0         0         0
         0         0         0         0         0         0         0         0
         0         0         0         0         0         0         0         0
         0         0         0         0         0         0         0         0
         0         0         0         0         0         0         0         0
         0         0         0         0         0         0         0         0
         0         0         0         0         0         0         0         0
         0         0         0         0         0         0         0         0
         0         0         0         0         0         0         0         0
         0         0         0         0         0         0         0         0
         0         0         0         0         0         0         0         0
         0         0         0         0         0         0         0         0
         0         0         0         0         0         0         0         0
         0         0         0         0         0         0         0         0
         0         0         0         0         0         0         0         0
         0         0         0         0         0         0         0         0
         0         0         0         0         0         0         0         0
         0         0         0         0         0         0         0         0
         0         0         0         0         0         0         0         0
         0         0         0         0         0         0         0         0
         0         0         0         0         0         0         0         0
         0         0         0         0         0         0         0         0
         0         0         0         0         0         0         0         0
         0         0         0         0         0         0         0         0
         0         0         0         0         0         0         0         0
         0         0         0         0         0         0         0         0
         0         0         0         0         0         0         0         0
         0         0         0         0         0         0         0         0
         0         0         0         0         0         0         0         0
         0         0         0         0         0         0         0         0
         0         0         0         0         0         0         0         0
         0         0         0         0         0         0         0         0
         0         0         0         0         0         0         0         0
         0         0         0         0         0         0         0         0
         0         0         0         0         0         0         0         0
         0         0         0         0         0         0         0         0
         0         0         0         0         0         0         0         0
         0         0         0         0         0         0         0         0
         0         0         0         0         0         0         0         0
         0         0         0         0         0         0         0         0
         0         0         0         0         0         0         0         0
         0         0         0         0         0         0         0         0
         0         0         0         0         0         0         0         0
         0         0         0         0         0         0         0         0
         0         0         0         0         0         0         0         0
         0         0         0         0         0         0         0         0
         0         0         0         0         0         0         0         0
         0         0         0         0         0         0         0         0
         0         0         0         0         0         0         0         0
         0         0         0         0         0         0         0         0
         0         0         0         0         0         0         0         0
         0         0         0         0         0         0         0         0
         0         0         0         0         0         0         0         0
         0         0         0         0         0         0         0         0
         0         0         0         0         0         0         0         0
         0         0         0         0         0         0         0         0
         0         0         0         0         0         0         0         0
         0         0         0         0         0         0         0         0
         0         0         0         0         0         0         0         0
         0         0         0         0         0         0         0         0
         0         0         0         0         0         0         0         0
         0         0         0         0         0         0         0         0
         0         0         0         0         0         0         0         0
         0         0         0         0         0         0         0         0
         0         0         0         0         0         0         0         0
         0         0         0         0         0         0         0         0
         0         0         0         0         0         0         0         0
         0         0         0         0         0         0         0         0
         0         0         0         0         0         0         0         0
         0         0         0         0         0         0         0         0
         0         0         0         0         0         0         0         0
         0         0         0         0         0         0         0         0
         0         0         0         0         0         0         0         0
         0         0         0         0         0         0         0         0
         0         0         0         0         0         0         0         0
         0         0         0         0         0         0         0         0
         0         0         0         0         0         0         0         0
         0         0         0         0         0         0         0         0
         0         0         0         0         0         0         0         0
         0         0         0         0         0         0         0         0
         0         0         0         0         0         0         0         0
         0         0         0         0         0         0         0         0
         0         0         0         0         0         0         0         0
         0         0         0         0         0         0         0         0
         0         0         0         0         0         0         0         0
         0         0         0         0         0         0         0         0
         0         0         0         0         0         0         0         0
         0         0         0         0         0         0         0         0
         0         0         0         0         0         0         0         0
         0         0         0         0         0         0         0         0
         0         0         0         0         0         0         0         0
         0         0         0         0         0         0         0         0
         0         0         0         0         0         0         0         0
         0         0         0         0         0         0         0         0
         0         0         0         0         0         0         0         0
         0         0         0         0         0         0         0         0
         0         0         0         0         0         0         0         0
         0         0         0         0         0         0         0         0
         0         0         0         0         0         0         0         0
         0         0         0         0         0         0         0         0
         0         0         0         0         0         0         0         0
         0         0         0         0         0         0         0         0
         0         0         0         0         0         0         0         0
         0         0         0         0         0         0         0         0
         0         0         0         0         0         0         0         0
         0         0         0         0         0         0         0         0
         0         0         0         0         0         0         0         0
         0         0         0         0         0         0         0         0
         0         0         0         0         0         0         0         0
         0         0         0         0         0         0         0         0
         0         0         0         0         0         0         0         0
         0         0         0         0         0         0         0         0
         0         0         0         0         0         0         0         0
         0         0         0         0         0         0         0         0
         0         0         0         0         0         0         0         0
         0         0         0         0         0         0         0         0
         0         0         0         0         0         0         0         0
         0         0         0         0         0         0         0         0
         0         0         0         0         0         0         0         0
         0         0         0         0         0         0         0         0
         0         0         0         0         0         0         0         0
         0         0         0         0         0         0         0         0
         0         0         0         0         0         0         0         0
         0         0         0         0         0         0         0         0
         0         0         0         0         0         0         0         0
         0         0         0         0         0         0         0         0
         0         0         0         0         0         0         0         0
         0         0         0         0         0         0         0         0
         0         0         0         0         0         0         0         0
         0         0         0         0         0         0         0         0
         0         0         0         0         0         0         0         0
         0         0         0         0         0         0         0         0
         0         0         0         0         0         0         0         0
         0         0         0         0         0         0         0         0
         0         0         0         0         0         0         0         0
         0         0         0         0         0         0         0         0
         0         0         0         0         0         0         0         0
         0         0         0         0         0         0         0         0
         0         0         0         0         0         0         0         0
         0         0         0         0         0         0         0         0
         0         0         0         0         0         0         0         0
         0         0         0         0         0         0         0         0
         0         0         0         0         0         0         0         0
         0         0         0         0         0         0         0         0
         0         0         0         0         0         0         0         0
         0         0         0         0         0         0         0         0
         0         0         0         0         0         0         0         0
         0         0         0         0         0         0         0         0
         0         0         0         0         0         0         0         0
         0         0         0         0         0         0         0         0
         0         0         0         0         0         0         0         0
         0         0         0         0         0         0         0         0
         0         0         0         0         0         0         0         0
         0         0         0         0         0         0         0         0
         0         0         0         0         0         0         0         0
         0         0         0         0         0         0         0         0
         0         0         0         0         0         0         0         0
         0         0         0         0         0         0         0         0
         0         0         0         0         0         0         0         0
         0         0         0         0         0         0         0         0
         0         0         0         0         0         0         0         0
         0         0         0         0         0         0         0         0
         0         0         0         0         0         0         0         0
         0         0         0         0         0         0         0         0
         0         0         0         0         0         0         0         0
         0         0         0         0         0         0         0         0
         0         0         0         0         0         0         0         0
         0         0         0         0         0         0         0         0
         0         0         0         0         0         0         0         0
         0         0         0         0         0         0         0         0
         0         0         0         0         0         0         0         0
         0         0         0         0         0         0         0         0
         0         0         0         0         0         0         0         0
         0         0         0         0         0         0         0         0
         0         0         0         0         0         0         0         0
         0         0         0         0         0         0         0         0
         0         0         0         0         0         0         0         0
         0         0         0         0         0         0         0         0
         0         0         0         0         0         0         0         0
         0         0         0         0         0         0         0         0
         0         0         0         0         0         0         0         0
         0         0         0         0         0         0         0         0
         0         0         0         0         0         0         0         0
         0         0         0         0         0         0         0         0
         0         0         0         0         0         0         0         0
         0         0         0         0         0         0         0         0
         0         0         0         0         0         0         0         0
         0         0         0         0         0         0         0         0
         0         0         0         0         0         0         0         0
         0         0         0         0         0         0         0         0
         0         0         0         0         0         0         0         0
         0         0         0         0         0         0         0         0
         0         0         0         0         0         0         0         0
         0         0         0         0         0         0         0         0
         0         0         0         0         0         0         0         0
         0         0         0         0         0         0         0         0
         0         0         0         0         0         0         0         0
         0         0         0         0         0         0         0         0
         0         0         0         0         0         0         0         0
         0         0         0         0         0         0         0         0
         0         0         0         0         0         0         0         0
         0         0         0         0         0         0         0         0
         0         0         0         0         0         0         0         0
         0         0         0         0         0         0         0         0
         0         0         0         0         0         0         0         0
         0         0         0         0         0         0         0         0
         0         0         0         0         0         0         0         0
         0         0         0         0         0         0         0         0
         0         0         0         0         0         0         0         0
         0         0         0         0         0         0         0         0
         0         0         0         0         0         0         0         0
         0         0         0         0         0         0         0         0
         0         0         0         0         0         0         0         0
         0         0         0         0         0         0         0         0
         0         0         0         0         0         0         0         0
         0         0         0         0         0         0         0         0
         0         0         0         0         0         0         0         0
         0         0         0         0         0         0         0         0
         0         0         0         0         0         0         0         0
         0         0         0         0         0         0         0         0
         0         0         0         0         0         0         0         0
         0         0         0         0         0         0         0         0
         0         0         0         0         0         0         0         0
         0         0         0         0         0         0         0         0
         0         0         0         0         0         0         0         0
         0         0         0         0         0         0         0         0
         0         0         0         0         0         0         0         0
         0         0         0         0         0         0         0         0
         0         0         0         0         0         0         0         0
         0         0         0         0         0         0         0         0
         0         0         0         0         0         0         0         0
         0         0         0         0         0         0         0         0
         0         0         0         0         0         0         0         0
         0         0         0         0         0         0         0         0
         0         0         0         0         0         0         0         0
         0         0         0         0         0         0         0         0
         0         0         0         0         0         0         0         0
         0         0         0         0         0         0         0         0
         0         0         0         0         0         0         0         0
         0         0         0         0         0         0         0         0
         0         0         0         0         0         0         0         0
         0         0         0         0         0         0         0         0
         0         0         0         0         0         0         0         0
         0         0         0         0         0         0         0         0
         0         0         0         0         0         0         0         0
         0         0         0         0         0         0         0         0
         0         0         0         0         0         0         0         0
         0         0         0         0         0         0         0         0
         0         0         0         0         0         0         0         0
         0         0         0         0         0         0         0         0
         0         0         0         0         0         0         0         0
         0         0         0         0         0         0         0         0
         0         0         0         0         0         0         0         0
         0         0         0         0         0         0         0         0
         0         0         0         0         0         0         0         0
         0         0         0         0         0         0         0         0
         0         0         0         0         0         0         0         0
         0         0         0         0         0         0         0         0
         0         0         0         0         0         0         0         0
         0         0         0         0         0         0         0         0
         0         0         0         0         0         0         0         0
         0         0         0         0         0         0         0         0
         0         0         0         0         0         0         0         0
         0         0         0         0         0         0         0         0
         0         0         0         0         0         0         0         0
         0         0         0         0         0         0         0         0
         0         0         0         0         0         0         0         0
         0         0         0         0         0         0         0         0
         0         0         0         0         0         0         0         0
         0         0         0         0         0         0         0         0
         0         0         0         0         0         0         0         0
         0         0         0         0         0         0         0         0
         0         0         0         0         0         0         0         0
         0         0         0         0         0         0         0         0
         0         0         0         0         0         0         0         0
         0         0         0         0         0         0         0         0
         0         0         0         0         0         0         0         0
         0         0         0         0         0         0         0         0
         0         0         0         0         0         0         0         0
         0         0         0         0         0         0         0         0
         0         0         0         0         0         0         0         0
         0         0         0         0         0         0         0         0
         0         0         0         0         0         0         0         0
         0         0         0         0         0         0         0         0
         0         0         0         0         0         0         0         0
         0         0         0         0         0         0         0         0
         0         0         0         0         0         0         0         0
         0         0         0         0         0         0         0         0
         0         0         0         0         0         0         0         0
         0         0         0         0         0         0         0         0
         0         0         0         0         0         0         0         0
         0         0         0         0         0         0         0         0
         0         0         0         0         0         0         0         0
         0         0         0         0         0         0         0         0
         0         0         0         0         0         0         0         0
         0         0         0         0         0         0         0         0
         0         0         0         0         0         0         0         0
         0         0         0         0         0         0         0         0
         0         0         0         0         0         0         0         0
         0         0         0         0         0         0         0         0
         0         0         0         0         0         0         0         0
         0         0         0         0         0         0         0         0
         0         0         0         0         0         0         0         0
         0         0         0         0         0         0         0         0
         0         0         0         0         0         0         0         0
         0         0         0         0         0         0         0         0
         0         0         0         0         0         0         0         0
         0         0         0         0         0         0         0         0
         0         0         0         0         0         0         0         0
         0         0         0         0         0         0         0         0
         0         0         0         0         0         0         0         0
         0         0         0         0         0         0         0         0
         0         0         0         0         0         0         0         0
         0         0         0         0         0         0         0         0
         0         0         0         0         0         0         0         0
         0         0         0         0         0         0         0         0
         0         0         0         0         0         0         0         0
         0         0         0         0         0         0         0         0
         0         0         0         0         0         0         0         0
         0         0         0         0         0         0         0         0
         0         0         0         0         0         0         0         0
         0         0         0         0         0         0         0         0
         0         0         0         0         0         0         0         0
         0         0         0         0         0         0         0         0
         0         0         0         0         0         0         0         0
         0         0         0         0         0         0         0         0
         0         0         0         0         0         0         0         0
         0         0         0         0         0         0         0         0
         0         0         0         0         0         0         0         0
         0         0         0         0         0         0         0         0
         0         0         0         0         0         0         0         0
         0         0         0         0         0         0         0         0
         0         0         0         0         0         0         0         0
         0         0         0         0         0         0         0         0
         0         0         0         0         0         0         0         0
         0         0         0         0         0         0         0         0
         0         0         0         0         0         0         0         0
         0         0         0         0         0         0         0         0
         0         0         0         0         0         0         0         0
         0         0         0         0         0         0         0         0
         0         0         0         0         0         0         0         0
         0         0         0         0         0         0         0         0
         0         0         0         0         0         0         0         0
         0         0         0         0         0         0         0         0
         0         0         0         0         0         0         0         0
         0         0         0         0         0         0         0         0
         0         0         0         0         0         0         0         0
         0         0         0         0         0         0         0         0
         0         0         0         0         0         0         0         0
         0         0         0         0         0         0         0         0
         0         0         0         0         0         0         0         0
         0         0         0         0         0         0         0         0
         0         0         0         0         0         0         0         0
         0         0         0         0         0         0         0         0
         0         0         0         0         0         0         0         0
         0         0         0         0         0         0         0         0
         0         0         0         0         0         0         0         0
         0         0         0         0         0         0         0         0
         0         0         0         0         0         0         0         0
         0         0         0         0         0         0         0         0
         0         0         0         0         0         0         0         0
         0         0         0         0         0         0         0         0
         0         0         0         0         0         0         0         0
         0         0         0         0         0         0         0         0
         0         0         0         0         0         0         0         0
         0         0         0         0         0         0         0         0
         0         0         0         0         0         0         0         0
         0         0         0         0         0         0         0         0
         0         0         0         0         0         0         0         0
         0         0         0         0         0         0         0         0
         0         0         0         0         0         0         0         0
         0         0         0         0         0         0         0         0
         0         0         0         0         0         0         0         0
         0         0         0         0         0         0         0         0
         0         0         0         0         0         0         0         0
         0         0         0         0         0         0         0         0
         0         0         0         0         0         0         0         0
         0         0         0         0         0         0         0         0
         0         0         0         0         0         0         0         0
         0         0         0         0         0         0         0         0
         0         0         0         0         0         0         0         0
         0         0         0         0         0         0         0         0
         0         0         0         0         0         0         0         0
         0         0         0         0         0         0         0         0
         0         0         0         0         0         0         0         0
         0         0         0         0         0         0         0         0
         0         0         0         0         0         0         0         0
         0         0         0         0         0         0         0         0
         0         0         0         0         0         0         0         0
         0         0         0         0         0         0         0         0
         0         0         0         0         0         0         0         0
         0         0         0         0         0         0         0         0
         0         0         0         0         0         0         0         0
         0         0         0         0         0         0         0         0
         0         0         0         0         0         0         0         0
         0         0         0         0         0         0         0         0
         0         0         0         0         0         0         0         0
         0         0         0         0         0         0         0         0
         0         0         0         0         0         0         0         0
         0         0         0         0         0         0         0         0
         0         0         0         0         0         0         0         0
         0         0         0         0         0         0         0         0
         0         0         0         0         0         0         0         0
         0         0         0         0         0         0         0         0
         0         0         0         0         0         0         0         0
         0         0         0         0         0         0         0         0
         0         0         0         0         0         0         0         0
         0         0         0         0         0         0         0         0
         0         0         0         0         0         0         0         0
         0         0         0         0         0         0         0         0
         0         0         0         0         0         0         0         0
         0         0         0         0         0         0         0         0
         0         0         0         0         0         0         0         0
         0         0         0         0         0         0         0         0
         0         0         0         0         0         0         0         0
         0         0         0         0         0         0         0         0
         0         0         0         0         0         0         0         0
         0         0         0         0         0         0         0         0
         0         0         0         0         0         0         0         0
         0         0         0         0         0         0         0         0
         0         0         0         0         0         0         0         0
         0         0         0         0         0         0         0         0
         0         0         0         0         0         0         0         0
         0         0         0         0         0         0         0         0
         0         0         0         0         0         0         0         0
         0         0         0         0         0         0         0         0
         0         0         0         0         0         0         0         0
         0         0         0         0         0         0         0         0
         0         0         0         0         0         0         0         0
         0         0         0         0         0         0         0         0
         0         0         0         0         0         0         0         0
         0         0         0         0         0         0         0         0
         0         0         0         0         0         0         0         0
         0         0         0         0         0         0         0         0
         0         0         0         0         0         0         0         0
         0         0         0         0         0         0         0         0
         0         0         0         0         0         0         0         0
         0         0         0         0         0         0         0         0
         0         0         0         0         0         0         0         0
         0         0         0         0         0         0         0         0
         0         0         0         0         0         0         0         0
         0         0         0         0         0         0         0         0
         0         0         0         0         0         0         0         0
         0         0         0         0         0         0         0         0
         0         0         0         0         0         0         0         0
         0         0         0         0         0         0         0         0
         0         0         0         0         0         0         0         0
         0         0         0         0         0         0         0         0
         0         0         0         0         0         0         0         0
         0         0         0         0         0         0         0         0
         0         0         0         0         0         0         0         0
         0         0         0         0         0         0         0         0
         0         0         0         0         0         0         0         0
         0         0         0         0         0         0         0         0
         0         0         0         0         0         0         0         0
         0         0         0         0         0         0         0         0
         0         0         0         0         0         0         0         0
         0         0         0         0         0         0         0         0
         0         0         0         0         0         0         0         0
         0         0         0         0         0         0         0         0
         0         0         0         0         0         0         0         0
         0         0         0         0         0         0         0         0
         0         0         0         0         0         0         0         0
         0         0         0         0         0         0         0         0
         0         0         0         0         0         0         0         0
         0         0         0         0         0         0         0         0
         0         0         0         0         0         0         0         0
         0         0         0         0         0         0         0         0
         0         0         0         0         0         0         0         0
         0         0         0         0         0         0         0         0
         0         0         0         0         0         0         0         0
         0         0         0         0         0         0         0         0
         0         0         0         0         0         0         0         0
         0         0         0         0         0         0         0         0
         0         0         0         0         0         0         0         0
         0         0         0         0         0         0         0         0
         0         0         0         0         0         0         0         0
         0         0         0         0         0         0         0         0
         0         0         0         0         0         0         0         0
         0         0         0         0         0         0         0         0
         0         0         0         0         0         0         0         0
         0         0         0         0         0         0         0         0
         0         0         0         0         0         0         0         0
         0         0         0         0         0         0         0         0
         0         0         0         0         0         0         0         0
         0         0         0         0         0         0         0         0
         0         0         0         0         0         0         0         0
         0         0         0         0         0         0         0         0
         0         0         0         0         0         0         0         0
         0         0         0         0         0         0         0         0
         0         0         0         0         0         0         0         0
         0         0         0         0         0         0         0         0
         0         0         0         0         0         0         0         0
         0         0         0         0         0         0         0         0
         0         0         0         0         0         0         0         0
         0         0         0         0         0         0         0         0
         0         0         0         0         0         0         0         0
         0         0         0         0         0         0         0         0
         0         0         0         0         0         0         0         0
         0         0         0         0         0         0         0         0
         0         0         0         0         0         0         0         0
         0         0         0         0         0         0         0         0
         0         0         0         0         0         0         0         0
         0         0         0         0         0         0         0         0
         0         0         0         0         0         0         0         0
         0         0         0         0         0         0         0         0
         0         0         0         0         0         0         0         0
         0         0         0         0         0         0         0         0
         0         0         0         0         0         0         0         0
         0         0         0         0         0         0         0         0
         0         0         0         0         0         0         0         0
         0         0         0         0         0         0         0         0
         0         0         0         0         0         0         0         0
         0         0         0         0         0         0         0         0
         0         0         0         0         0         0         0         0
         0         0         0         0         0         0         0         0
         0         0         0         0         0         0         0         0
         0         0         0         0         0         0         0         0
         0         0         0         0         0         0         0         0
         0         0         0         0         0         0         0         0
         0         0         0         0         0         0         0         0
         0         0         0         0         0         0         0         0
         0         0         0         0         0         0         0         0
         0         0         0         0         0         0         0         0
         0         0         0         0         0         0         0         0
         0         0         0         0         0         0         0         0
         0         0         0         0         0         0         0         0
         0         0         0         0         0         0         0         0
         0         0         0         0         0         0         0         0
         0         0         0         0         0         0         0         0
         0         0         0         0         0         0         0         0
         0         0         0         0         0         0         0         0
         0         0         0         0         0         0         0         0
         0         0         0         0         0         0         0         0
         0         0         0         0         0         0         0         0
         0         0         0         0         0         0         0         0
         0         0         0         0         0         0         0         0
         0         0         0         0         0         0         0         0
         0         0         0         0         0         0         0         0
         0         0         0         0         0         0         0         0
         0         0         0         0         0         0         0         0
         0         0         0         0         0         0         0         0
         0         0         0         0         0         0         0         0
         0         0         0         0         0         0         0         0
         0         0         0         0         0         0         0         0
         0         0         0         0         0         0         0         0
         0         0         0         0         0         0         0         0
         0         0         0         0         0         0         0         0
         0         0         0         0         0         0         0         0
         0         0         0         0         0         0         0         0
         0         0         0         0         0         0         0         0
         0         0         0         0         0         0         0         0
         0         0         0         0         0         0         0         0
         0         0         0         0         0         0         0         0
         0         0         0         0         0         0         0         0
         0         0         0         0         0         0         0         0
         0         0         0         0         0         0         0         0
         0         0         0         0         0         0         0         0
         0         0         0         0         0         0         0         0
         0         0         0         0         0         0         0         0
         0         0         0         0         0         0         0         0
         0         0         0         0         0         0         0         0
         0         0         0         0         0         0         0         0
         0         0         0         0         0         0         0         0
         0         0         0         0         0         0         0         0
         0         0         0         0         0         0         0         0
         0         0         0         0         0         0         0         0
         0         0         0         0         0         0         0         0
         0         0         0         0         0         0         0         0
         0         0         0         0         0         0         0         0
         0         0         0         0         0         0         0         0
         0         0         0         0         0         0         0         0
         0         0         0         0         0         0         0         0
         0         0         0         0         0         0         0         0
         0         0         0         0         0         0         0         0
         0         0         0         0         0         0         0         0
         0         0         0         0         0         0         0         0
         0         0         0         0         0         0         0         0
         0         0         0         0         0         0         0         0
         0         0         0         0         0         0         0         0
         0         0         0         0         0         0         0         0
         0         0         0         0         0         0         0         0
         0         0         0         0         0         0         0         0
         0         0         0         0         0         0         0         0
         0         0         0         0         0         0         0         0
         0         0         0         0         0         0         0         0
         0         0         0         0         0         0         0         0
         0         0         0         0         0         0         0         0
         0         0         0         0         0         0         0         0
         0         0         0         0         0         0         0         0
         0         0         0         0         0         0         0         0
         0         0         0         0         0         0         0         0
         0         0         0         0         0         0         0         0
         0         0         0         0         0         0         0         0
         0         0         0         0         0         0         0         0
         0         0         0         0         0         0         0         0
         0         0         0         0         0         0         0         0
         0         0         0         0         0         0         0         0
         0         0         0         0         0         0         0         0
         0         0         0         0         0         0         0         0
         0         0         0         0         0         0         0         0
         0         0         0         0         0         0         0         0
         0         0         0         0         0         0         0         0
         0         0         0         0         0         0         0         0
         0         0         0         0         0         0         0         0
         0         0         0         0         0         0         0         0
         0         0         0         0         0         0         0         0
         0         0         0         0         0         0         0         0
         0         0         0         0         0         0         0         0
         0         0         0         0         0         0         0         0
         0         0         0         0         0         0         0         0
         0         0         0         0         0         0         0         0
         0         0         0         0         0         0         0         0
         0         0         0         0         0         0         0         0
         0         0         0         0         0         0         0         0
         0         0         0         0         0         0         0         0
         0         0         0         0         0         0         0         0
         0         0         0         0         0         0         0         0
         0         0         0         0         0         0         0         0
         0         0         0         0         0         0         0         0
         0         0         0         0         0         0         0         0
         0         0         0         0         0         0         0         0
         0         0         0         0         0         0         0         0
         0         0         0         0         0         0         0         0
         0         0         0         0         0         0         0         0
         0         0         0         0         0         0         0         0
         0         0         0         0         0         0         0         0
         0         0         0         0         0         0         0         0
         0         0         0         0         0         0         0         0
         0         0         0         0         0         0         0         0
         0         0         0         0         0         0         0         0
         0         0         0         0         0         0         0         0
         0         0         0         0         0         0         0         0
         0         0         0         0         0         0         0         0
         0         0         0         0         0         0         0         0
         0         0         0         0         0         0         0         0
         0         0         0         0         0         0         0         0
         0         0         0         0         0         0         0         0
         0         0         0         0         0         0         0         0
         0         0         0         0         0         0         0         0
         0         0         0         0         0         0         0         0
         0         0         0         0         0         0         0         0
         0         0         0         0         0         0         0         0
         0         0         0         0         0         0         0         0
         0         0         0         0         0         0         0         0
         0         0         0         0         0         0         0         0
         0         0         0         0         0         0         0         0
         0         0         0         0         0         0         0         0
         0         0         0         0         0         0         0         0
         0         0         0         0         0         0         0         0
         0         0         0         0         0         0         0         0
         0         0         0         0         0         0         0         0
         0         0         0         0         0         0         0         0
         0         0         0         0         0         0         0         0
         0         0         0         0         0         0         0         0
         0         0         0         0         0         0         0         0
         0         0         0         0         0         0         0         0
         0         0         0         0         0         0         0         0
         0         0         0         0         0         0         0         0
         0         0         0         0         0         0         0         0
         0         0         0         0         0         0         0         0
         0         0         0         0         0         0         0         0
         0         0         0         0         0         0         0         0
         0         0         0         0         0         0         0         0
         0         0         0         0         0         0         0         0
         0         0         0         0         0         0         0         0
         0         0         0         0         0         0         0         0
         0         0         0         0         0         0         0         0
         0         0         0         0         0         0         0         0
         0         0         0         0         0         0         0         0
         0         0         0         0         0         0         0         0
         0         0         0         0         0         0         0         0
         0         0         0         0         0         0         0         0
         0         0         0         0         0         0         0         0
         0         0         0         0         0         0         0         0
         0         0         0         0         0         0         0         0
         0         0         0         0         0         0         0         0
         0         0         0         0         0         0         0         0
         0         0         0         0         0         0         0         0
         0         0         0         0         0         0         0         0
         0         0         0         0         0         0         0         0
         0         0         0         0         0         0         0         0
         0         0         0         0         0         0         0         0
         0         0         0         0         0         0         0         0
         0         0         0         0         0         0         0         0
         0         0         0         0         0         0         0         0
         0         0         0         0         0         0         0         0
         0         0         0         0         0         0         0         0
         0         0         0         0         0         0         0         0
         0         0         0         0         0         0         0         0
         0         0         0         0         0         0         0         0
         0         0         0         0         0         0         0         0
         0         0         0         0         0         0         0         0
         0         0         0         0         0         0         0         0
         0         0         0         0         0         0         0         0
         0         0         0         0         0         0         0         0
         0         0         0         0         0         0         0         0
         0         0         0         0         0         0         0         0
         0         0         0         0         0         0         0         0
         0         0         0         0         0         0         0         0
         0         0         0         0         0         0         0         0
         0         0         0         0         0         0         0         0
         0         0         0         0         0         0         0         0
         0         0         0         0         0         0         0         0
         0         0         0         0         0         0         0         0
         0         0         0         0         0         0         0         0
         0         0         0         0         0         0         0         0
         0         0         0         0         0         0         0         0
         0         0         0         0         0         0         0         0
         0         0         0         0         0         0         0         0
         0         0         0         0         0         0         0         0
         0         0         0         0         0         0         0         0
         0         0         0         0         0         0         0         0
         0         0         0         0         0         0         0         0
         0         0         0         0         0         0         0         0
         0         0         0         0         0         0         0         0
         0         0         0         0         0         0         0         0
         0         0         0         0         0         0         0         0
         0         0         0         0         0         0         0         0
         0         0         0         0         0         0         0         0
         0         0         0         0         0         0         0         0
         0         0         0         0         0         0         0         0
         0         0         0         0         0         0         0         0
         0         0         0         0         0         0         0         0
         0         0         0         0         0         0         0         0
         0         0         0         0         0         0         0         0
         0         0         0         0         0         0         0         0
         0         0         0         0         0         0         0         0
         0         0         0         0         0         0         0         0
         0         0         0         0         0         0         0         0
         0         0         0         0         0         0         0         0
         0         0         0         0         0         0         0         0
         0         0         0         0         0         0         0         0
         0         0         0         0         0         0         0         0
         0         0         0         0         0         0         0         0
         0         0         0         0         0         0         0         0
         0         0         0         0         0         0         0         0
         0         0         0         0         0         0         0         0
         0         0         0         0         0         0         0         0
         0         0         0         0         0         0         0         0
         0         0         0         0         0         0         0         0
         0         0         0         0         0         0         0         0
         0         0         0         0         0         0         0         0
         0         0         0         0         0         0         0         0
         0         0         0         0         0         0         0         0
         0         0         0         0         0         0         0         0
         0         0         0         0         0         0         0         0
         0         0         0         0         0         0         0         0
         0         0         0         0         0         0         0         0
         0         0         0         0         0         0         0         0
         0         0         0         0         0         0         0         0
         0         0         0         0         0         0         0         0
         0         0         0         0         0         0         0         0
         0         0         0         0         0         0         0         0
         0         0         0         0         0         0         0         0
         0         0         0         0         0         0         0         0
         0         0         0         0         0         0         0         0
         0         0         0         0         0         0         0         0
         0         0         0         0         0         0         0         0
         0         0         0         0         0         0         0         0
         0         0         0         0         0         0         0         0
         0         0         0         0         0         0         0         0
         0         0         0         0         0         0         0         0
         0         0         0         0         0         0         0         0
         0         0         0         0         0         0         0         0
         0         0         0         0         0         0         0         0
         0         0         0         0         0         0         0         0
         0         0         0         0         0         0         0         0
         0         0         0         0         0         0         0         0
         0         0         0         0         0         0         0         0
         0         0         0         0         0         0         0         0
         0         0         0         0         0         0         0         0
         0         0         0         0         0         0         0         0
         0         0         0         0         0         0         0         0
         0         0         0         0         0         0         0         0
         0         0         0         0         0         0         0         0
         0         0         0         0         0         0         0         0
         0         0         0         0         0         0         0         0
         0         0         0         0         0         0         0         0
         0         0         0         0         0         0         0         0
         0         0         0         0         0         0         0         0
         0         0         0         0         0         0         0         0
         0         0         0         0         0         0         0         0
         0         0         0         0         0         0         0         0
         0         0         0         0         0         0         0         0
         0         0         0         0         0         0         0         0
         0         0         0         0         0         0         0         0
         0         0         0         0         0         0         0         0
         0         0         0         0         0         0         0         0
         0         0         0         0         0         0         0         0
         0         0         0         0         0         0         0         0
         0         0         0         0         0         0         0         0
         0         0         0         0         0         0         0         0
         0         0         0         0         0         0         0         0
         0         0         0         0         0         0         0         0
         0         0         0         0         0         0         0         0
         0         0         0         0         0         0         0         0
         0         0         0         0         0         0         0         0
         0         0         0         0         0         0         0         0
         0         0         0         0         0         0         0         0
         0         0         0         0         0         0         0         0
         0         0         0         0         0         0         0         0
         0         0         0         0         0         0         0         0
         0         0         0         0         0         0         0         0
         0         0         0         0         0         0         0         0
         0         0         0         0         0         0         0         0
         0         0         0         0         0         0         0         0
         0         0         0         0         0         0         0         0
         0         0         0         0         0         0         0         0
         0         0         0         0         0         0         0         0
         0         0         0         0         0         0         0         0
         0         0         0         0         0         0         0         0
         0         0         0         0         0         0         0         0
         0         0         0         0         0         0         0         0
         0         0         0         0         0         0         0         0
         0         0         0         0         0         0         0         0
         0         0         0         0         0         0         0         0
         0         0         0         0         0         0         0         0
         0         0         0         0         0         0         0         0
         0         0         0         0         0         0         0         0
         0         0         0         0         0         0         0         0
         0         0         0         0         0         0         0         0
         0         0         0         0         0         0         0         0
         0         0         0         0         0         0         0         0
         0         0         0         0         0         0         0         0
         0         0         0         0         0         0         0         0
         0         0         0         0         0         0         0         0
         0         0         0         0         0         0         0         0
         0         0         0         0         0         0         0         0
         0         0         0         0         0         0         0         0
         0         0         0         0         0         0         0         0
         0         0         0         0         0         0         0         0
         0         0         0         0         0         0         0         0
         0         0         0         0         0         0         0         0
         0         0         0         0         0         0         0         0
         0         0         0         0         0         0         0         0
         0         0         0         0         0         0         0         0
         0         0         0         0         0         0         0         0
         0         0         0         0         0         0         0         0
         0         0         0         0         0         0         0         0
         0         0         0         0         0         0         0         0
         0         0         0         0         0         0         0         0
         0         0         0         0         0         0         0         0
         0         0         0         0         0         0         0         0
         0         0         0         0         0         0         0         0
         0         0         0         0         0         0         0         0
         0         0         0         0         0         0         0         0
         0         0         0         0         0         0         0         0
         0         0         0         0         0         0         0         0
         0         0         0         0         0         0         0         0
         0         0         0         0         0         0         0         0
         0         0         0         0         0         0         0         0
         0         0         0         0         0         0         0         0
         0         0         0         0         0         0         0         0
         0         0         0         0         0         0         0         0
         0         0         0         0         0         0         0         0
         0         0         0         0         0         0         0         0
         0         0         0         0         0         0         0         0
         0         0         0         0         0         0         0         0
         0         0         0         0         0         0         0         0
         0         0         0         0         0         0         0         0
         0         0         0         0         0         0         0         0
         0         0         0         0         0         0         0         0
         0         0         0         0         0         0         0         0
         0         0         0         0         0         0         0         0
         0         0         0         0         0         0         0         0
         0         0         0         0         0         0         0         0
         0         0         0         0         0         0         0         0
         0         0         0         0         0         0         0         0
         0         0         0         0         0         0         0         0
         0         0         0         0         0         0         0         0
         0         0         0         0         0         0         0         0
         0         0         0         0         0         0         0         0
         0         0         0         0         0         0         0         0
         0         0         0         0         0         0         0         0
         0         0         0         0         0         0         0         0
         0         0         0         0         0         0         0         0
         0         0         0         0         0         0         0         0
         0         0         0         0         0         0         0         0
         0         0         0         0         0         0         0         0
         0         0         0         0         0         0         0         0
         0         0         0         0         0         0         0         0
         0         0         0         0         0         0         0         0
         0         0         0         0         0         0         0         0
         0         0         0         0         0         0         0         0
         0         0         0         0         0         0         0         0
         0         0         0         0         0         0         0         0
         0         0         0         0         0         0         0         0
         0         0         0         0         0         0         0         0
         0         0         0         0         0         0         0         0
         0         0         0         0         0         0         0         0
         0         0         0         0         0         0         0         0
         0         0         0         0         0         0         0         0
         0         0         0         0         0         0         0         0
         0         0         0         0         0         0         0         0
         0         0         0         0         0         0         0         0
         0         0         0         0         0         0         0         0
         0         0         0         0         0         0         0         0
         0         0         0         0         0         0         0         0
         0         0         0         0         0         0         0         0
         0         0         0         0         0         0         0         0
         0         0         0         0         0         0         0         0
         0         0         0         0         0         0         0         0
         0         0         0         0         0         0         0         0
         0         0         0         0         0         0         0         0
         0         0         0         0         0         0         0         0
         0         0         0         0         0         0         0         0
         0         0         0         0         0         0         0         0
         0         0         0         0         0         0         0         0
         0         0         0         0         0         0         0         0
         0         0         0         0         0         0         0         0
         0         0         0         0         0         0         0         0
         0         0         0         0         0         0         0         0
         0         0         0         0         0         0         0         0
         0         0         0         0         0         0         0         0
         0         0         0         0         0         0         0         0
         0         0         0         0         0         0         0         0
         0         0         0         0         0         0         0         0
         0         0         0         0         0         0         0         0
         0         0         0         0         0         0         0         0
         0         0         0         0         0         0         0         0
         0         0         0         0         0         0         0         0
         0         0         0         0         0         0         0         0
         0         0         0         0         0         0         0         0
         0         0         0         0         0         0         0         0
         0         0         0         0         0         0         0         0
         0         0         0         0         0         0         0         0
         0         0         0         0         0         0         0         0
         0         0         0         0         0         0         0         0
         0         0         0         0         0         0         0         0
         0         0         0         0         0         0         0         0
         0         0         0         0         0         0         0         0
         0         0         0         0         0         0         0         0
         0         0         0         0         0         0         0         0
         0         0         0         0         0         0         0         0
         0         0         0         0         0         0         0         0
         0         0         0         0         0         0         0         0
         0         0         0         0         0         0         0         0
         0         0         0         0         0         0         0         0
         0         0         0         0         0         0         0         0
         0         0         0         0         0         0         0         0
         0         0         0         0         0         0         0         0
         0         0         0         0         0         0         0         0
         0         0         0         0         0         0         0         0
         0         0         0         0         0         0         0         0
         0         0         0         0         0         0         0         0
         0         0         0         0         0         0         0         0
         0         0         0         0         0         0         0         0
         0         0         0         0         0         0         0         0
         0         0         0         0         0         0         0         0
         0         0         0         0         0         0         0         0
         0         0         0         0         0         0         0         0
         0         0         0         0         0         0         0         0
         0         0         0         0         0         0         0         0
         0         0         0         0         0         0         0         0
         0         0         0         0         0         0         0         0
         0         0         0         0         0         0         0         0
         0         0         0         0         0         0         0         0
         0         0         0         0         0         0         0         0
         0         0         0         0         0         0         0         0
         0         0         0         0         0         0         0         0
         0         0         0         0         0         0         0         0
         0         0         0         0         0         0         0         0
         0         0         0         0         0         0         0         0
         0         0         0         0         0         0         0         0
         0         0         0         0         0         0         0         0
         0         0         0         0         0         0         0         0
         0         0         0         0         0         0         0         0
         0         0         0         0         0         0         0         0
         0         0         0         0         0         0         0         0
         0         0         0         0         0         0         0         0
         0         0         0         0         0         0         0         0
         0         0         0         0         0         0         0         0
         0         0         0         0         0         0         0         0
         0         0         0         0         0         0         0         0
         0         0         0         0         0         0         0         0
         0         0         0         0         0         0         0         0
         0         0         0         0         0         0         0         0
         0         0         0         0         0         0         0         0
         0         0         0         0         0         0         0         0
         0         0         0         0         0         0         0         0
         0         0         0         0         0         0         0         0
         0         0         0         0         0         0         0         0
         0         0         0         0         0         0         0         0
         0         0         0         0         0         0         0         0
         0         0         0         0         0         0         0         0
         0         0         0         0         0         0         0         0
         0         0         0         0         0         0         0         0
         0         0         0         0         0         0         0         0
         0         0         0         0         0         0         0         0
         0         0         0         0         0         0         0         0
         0         0         0         0         0         0         0         0
         0         0         0         0         0         0         0         0
         0         0         0         0         0         0         0         0
         0         0         0         0         0         0         0         0
         0         0         0         0         0         0         0         0
         0         0         0         0         0         0         0         0
         0         0         0         0         0         0         0         0
         0         0         0         0         0         0         0         0
         0         0         0         0         0         0         0         0
         0         0         0         0         0         0         0         0
         0         0         0         0         0         0         0         0
         0         0         0         0         0         0         0         0
         0         0         0         0         0         0         0         0
         0         0         0         0         0         0         0         0
         0         0         0         0         0         0         0         0
         0         0         0         0         0         0         0         0
         0         0         0         0         0         0         0         0
         0         0         0         0         0         0         0         0
         0         0         0         0         0         0         0         0
         0         0         0         0         0         0         0         0
         0         0         0         0         0         0         0         0
         0         0         0         0         0         0         0         0
         0         0         0         0         0         0         0         0
         0         0         0         0         0         0         0         0
         0         0         0         0         0         0         0         0
         0         0         0         0         0         0         0         0
         0         0         0         0         0         0         0         0
         0         0         0         0         0         0         0         0
         0         0         0         0         0         0         0         0
         0         0         0         0         0         0         0         0
         0         0         0         0         0         0         0         0
         0         0         0         0         0         0         0         0
         0         0         0         0         0         0         0         0
         0         0         0         0         0         0         0         0
         0         0         0         0         0         0         0         0
         0         0         0         0         0         0         0         0
         0         0         0         0         0         0         0         0
         0         0         0         0         0         0         0         0
         0         0         0         0         0         0         0         0
         0         0         0         0         0         0         0         0
         0         0         0         0         0         0         0         0
         0         0         0         0         0         0         0         0
         0         0         0         0         0         0         0         0
         0         0         0         0         0         0         0         0
         0         0         0         0         0         0         0         0
         0         0         0         0         0         0         0         0
         0         0         0         0         0         0         0         0
         0         0         0         0         0         0         0         0
         0         0         0         0         0         0         0         0
         0         0         0         0         0         0         0         0
         0         0         0         0         0         0         0         0
         0         0         0         0         0         0         0         0
         0         0         0         0         0         0         0         0
         0         0         0         0         0         0         0         0
         0         0         0         0         0         0         0         0
         0         0         0         0         0         0         0         0
         0         0         0         0         0         0         0         0
         0         0         0         0         0         0         0         0
         0         0         0         0         0         0         0         0
         0         0         0         0         0         0         0         0
         0         0         0         0         0         0         0         0
         0         0         0         0         0         0         0         0
         0         0         0         0         0         0         0         0
         0         0         0         0         0         0         0         0
         0         0         0         0         0         0         0         0
         0         0         0         0         0         0         0         0
         0         0         0         0         0         0         0         0
         0         0         0         0         0         0         0         0
         0         0         0         0         0         0         0         0
         0         0         0         0         0         0         0         0
         0         0         0         0         0         0         0         0
         0         0         0         0         0         0         0         0
         0         0         0         0         0         0         0         0
         0         0         0         0         0         0         0         0
         0         0         0         0         0         0         0         0
         0         0         0         0         0         0         0         0
         0         0         0         0         0         0         0         0
         0         0         0         0         0         0         0         0
         0         0         0         0         0         0         0         0
         0         0         0         0         0         0         0         0
         0         0         0         0         0         0         0         0
         0         0         0         0         0         0         0         0
         0         0         0         0         0         0         0         0
         0         0         0         0         0         0         0         0
         0         0         0         0         0         0         0         0
         0         0         0         0         0         0         0         0
         0         0         0         0         0         0         0         0
         0         0         0         0         0         0         0         0
         0         0         0         0         0         0         0         0
         0         0         0         0         0         0         0         0
         0         0         0         0         0         0         0         0
         0         0         0         0         0         0         0         0
         0         0         0         0         0         0         0         0
         0         0         0         0         0         0         0         0
         0         0         0         0         0         0         0         0
         0         0         0         0         0         0         0         0
         0         0         0         0         0         0         0         0
         0         0         0         0         0         0         0         0
         0         0         0         0         0         0         0         0
         0         0         0         0         0         0         0         0
         0         0         0         0         0         0         0         0
         0         0         0         0         0         0         0         0
         0         0         0         0         0         0         0         0
         0         0         0         0         0         0         0         0
         0         0         0         0         0         0         0         0
         0         0         0         0         0         0         0         0
         0         0         0         0         0         0         0         0
         0         0         0         0         0         0         0         0
         0         0         0         0         0         0         0         0
         0         0         0         0         0         0         0         0
         0         0         0         0         0         0         0         0
         0         0         0         0         0         0         0         0
         0         0         0         0         0         0         0         0
         0         0         0         0         0         0         0         0
         0         0         0         0         0         0         0         0
         0         0         0         0         0         0         0         0
         0         0         0         0         0         0         0         0
         0         0         0         0         0         0         0         0
         0         0         0         0         0         0         0         0
         0         0         0         0         0         0         0         0
         0         0         0         0         0         0         0         0
         0         0         0         0         0         0         0         0
         0         0         0         0         0         0         0         0
         0         0         0         0         0         0         0         0
         0         0         0         0         0         0         0         0
         0         0         0         0         0         0         0         0
         0         0         0         0         0         0         0         0
         0         0         0         0         0         0         0         0
         0         0         0         0         0         0         0         0
         0         0         0         0         0         0         0         0
         0         0         0         0         0         0         0         0
         0         0         0         0         0         0         0         0
         0         0         0         0         0         0         0         0
         0         0         0         0         0         0         0         0
         0         0         0         0         0         0         0         0
         0         0         0         0         0         0         0         0
         0         0         0         0         0         0         0         0
         0         0         0         0         0         0         0         0
         0         0         0         0         0         0         0         0
         0         0         0         0         0         0         0         0
         0         0         0         0         0         0         0         0
         0         0         0         0         0         0         0         0
         0         0         0         0         0         0         0         0
         0         0         0         0         0         0         0         0
         0         0         0         0         0         0         0         0
         0         0         0         0         0         0         0         0
         0         0         0         0         0         0         0         0
         0         0         0         0         0         0         0         0
         0         0         0         0         0         0         0         0
         0         0         0         0         0         0         0         0
         0         0         0         0         0         0         0         0
         0         0         0         0         0         0         0         0
         0         0         0         0         0         0         0         0
         0         0         0         0         0         0         0         0
         0         0         0         0         0         0         0         0
         0         0         0         0         0         0         0         0
         0         0         0         0         0         0         0         0
         0         0         0         0         0         0         0         0
         0         0         0         0         0         0         0         0
         0         0         0         0         0         0         0         0
         0         0         0         0         0         0         0         0
         0         0         0         0         0         0         0         0
         0         0         0         0         0         0         0         0
         0         0         0         0         0         0         0         0
         0         0         0         0         0         0         0         0
         0         0         0         0         0         0         0         0
         0         0         0         0         0         0         0         0
         0         0         0         0         0         0         0         0
         0         0         0         0         0         0         0         0
         0         0         0         0         0         0         0         0
         0         0         0         0         0         0         0         0
         0         0         0         0         0         0         0         0
         0         0         0         0         0         0         0         0
         0         0         0         0         0         0         0         0
         0         0         0         0         0         0         0         0
         0         0         0         0         0         0         0         0
         0         0         0         0         0         0         0         0
         0         0         0         0         0         0         0         0
         0         0         0         0         0         0         0         0
         0         0         0         0         0         0         0         0
         0         0         0         0         0         0         0         0
         0         0         0         0         0         0         0         0
         0         0         0         0         0         0         0         0
         0         0         0         0         0         0         0         0
         0         0         0         0         0         0         0         0
         0         0         0         0         0         0         0         0
         0         0         0         0         0         0         0         0
         0         0         0         0         0         0         0         0
         0         0         0         0         0         0         0         0
         0         0         0         0         0         0         0         0
         0         0         0         0         0         0         0         0
         0         0         0         0         0         0         0         0
         0         0         0         0         0         0         0         0
         0         0         0         0         0         0         0         0
         0         0         0         0         0         0         0         0
         0         0         0         0         0         0         0         0
         0         0         0         0         0         0         0         0
         0         0         0         0         0         0         0         0
         0         0         0         0         0         0         0         0
         0         0         0         0         0         0         0         0
         0         0         0         0         0         0         0         0
         0         0         0         0         0         0         0         0
         0         0         0         0         0         0         0         0
         0         0         0         0         0         0         0         0
         0         0         0         0         0         0         0         0
         0         0         0         0         0         0         0         0
         0         0         0         0         0         0         0         0
         0         0         0         0         0         0         0         0
         0         0         0         0         0         0         0         0
         0         0         0         0         0         0         0         0
         0         0         0         0         0         0         0         0
         0         0         0         0         0         0         0         0
         0         0         0         0         0         0         0         0
         0         0         0         0         0         0         0         0
         0         0         0         0         0         0         0         0
         0         0         0         0         0         0         0         0
         0         0         0         0         0         0         0         0
         0         0         0         0         0         0         0         0
         0         0         0         0         0         0         0         0
         0         0         0         0         0         0         0         0
         0         0         0         0         0         0         0         0
         0         0         0         0         0         0         0         0
         0         0         0         0         0         0         0         0
         0         0         0         0         0         0         0         0
         0         0         0         0         0         0         0         0
         0         0         0         0         0         0         0         0
         0         0         0         0         0         0         0         0
         0         0         0         0         0         0         0         0
         0         0         0         0         0         0         0         0
         0         0         0         0         0         0         0         0
         0         0         0         0         0         0         0         0
         0         0         0         0         0         0         0         0
         0         0         0         0         0         0         0         0
         0         0         0         0         0         0         0         0
         0         0         0         0         0         0         0         0
         0         0         0         0         0         0         0         0
         0         0         0         0         0         0         0         0
         0         0         0         0         0         0         0         0
         0         0         0         0         0         0         0         0
         0         0         0         0         0         0         0         0
         0         0         0         0         0         0         0         0
         0         0         0         0         0         0         0         0
         0         0         0         0         0         0         0         0
         0         0         0         0         0         0         0         0
         0         0         0         0         0         0         0         0
         0         0         0         0         0         0         0         0
         0         0         0         0         0         0         0         0
         0         0         0         0         0         0         0         0
         0         0         0         0         0         0         0         0
         0         0         0         0         0         0         0         0
         0         0         0         0         0         0         0         0
         0         0         0         0         0         0         0         0
         0         0         0         0         0         0         0         0
         0         0         0         0         0         0         0         0
         0         0         0         0         0         0         0         0
         0         0         0         0         0         0         0         0
         0         0         0         0         0         0         0         0
         0         0         0         0         0         0         0         0
         0         0         0         0         0         0         0         0
         0         0         0         0         0         0         0         0
         0         0         0         0         0         0         0         0
         0         0         0         0         0         0         0         0
         0         0         0         0         0         0         0         0
         0         0         0         0         0         0         0         0
         0         0         0         0         0         0         0         0
         0         0         0         0         0         0         0         0
         0         0         0         0         0         0         0         0
         0         0         0         0         0         0         0         0
         0         0         0         0         0         0         0         0
         0         0         0         0         0         0         0         0
         0         0         0         0         0         0         0         0
         0         0         0         0         0         0         0         0
         0         0         0         0         0         0         0         0
         0         0         0         0         0         0         0         0
         0         0         0         0         0         0         0         0
         0         0         0         0         0         0         0         0
         0         0         0         0         0         0         0         0
         0         0         0         0         0         0         0         0
         0         0         0         0         0         0         0         0
         0         0         0         0         0         0         0         0
         0         0         0         0         0         0         0         0
         0         0         0         0         0         0         0         0
         0         0         0         0         0         0         0         0
         0         0         0         0         0         0         0         0
         0         0         0         0         0         0         0         0
         0         0         0         0         0         0         0         0
         0         0         0         0         0         0         0         0
         0         0         0         0         0         0         0         0
         0         0         0         0         0         0         0         0
         0         0         0         0         0         0         0         0
         0         0         0         0         0         0         0         0
         0         0         0         0         0         0         0         0
         0         0         0         0         0         0         0         0
         0         0         0         0         0         0         0         0
         0         0         0         0         0         0         0         0
         0         0         0         0         0         0         0         0
         0         0         0         0         0         0         0         0
         0         0         0         0         0         0         0         0
         0         0         0         0         0         0         0         0
         0         0         0         0         0         0         0         0
         0         0         0         0         0         0         0         0
         0         0         0         0         0         0         0         0
         0         0         0         0         0         0         0         0
         0         0         0         0         0         0         0         0
         0         0         0         0         0         0         0         0
         0         0         0         0         0         0         0         0
         0         0         0         0         0         0         0         0
         0         0         0         0         0         0         0         0
         0         0         0         0         0         0         0         0
         0         0         0         0         0         0         0         0
         0         0         0         0         0         0         0         0
         0         0         0         0         0         0         0         0
         0         0         0         0         0         0         0         0
         0         0         0         0         0         0         0         0
         0         0         0         0         0         0         0         0
         0         0         0         0         0         0         0         0
         0         0         0         0         0         0         0         0
         0         0         0         0         0         0         0         0
         0         0         0         0         0         0         0         0
         0         0         0         0         0         0         0         0
         0         0         0         0         0         0         0         0
         0         0         0         0         0         0         0         0
         0         0         0         0         0         0         0         0
         0         0         0         0         0         0         0         0
         0         0         0         0         0         0         0         0
         0         0         0         0         0         0         0         0
         0         0         0         0         0         0         0         0
         0         0         0         0         0         0         0         0
         0         0         0         0         0         0         0         0
         0         0         0         0         0         0         0         0
         0         0         0         0         0         0         0         0
         0         0         0         0         0         0         0         0
         0         0         0         0         0         0         0         0
         0         0         0         0         0         0         0         0
         0         0         0         0         0         0         0         0
         0         0         0         0         0         0         0         0
         0         0         0         0         0         0         0         0
         0         0         0         0         0         0         0         0
         0         0         0         0         0         0         0         0
         0         0         0         0         0         0         0         0
         0         0         0         0         0         0         0         0
         0         0         0         0         0         0         0         0
         0         0         0         0         0         0         0         0
         0         0         0         0         0         0         0         0
         0         0         0         0         0         0         0         0
         0         0         0         0         0         0         0         0
         0         0         0         0         0         0         0         0
         0         0         0         0         0         0         0         0
         0         0         0         0         0         0         0         0
         0         0         0         0         0         0         0         0
         0         0         0         0         0         0         0         0
         0         0         0         0         0         0         0         0
         0         0         0         0         0         0         0         0
         0         0         0         0         0         0         0         0
         0         0         0         0         0         0         0         0
         0         0         0         0         0         0         0         0
         0         0         0         0         0         0         0         0
         0         0         0         0         0         0         0         0
         0         0         0         0         0         0         0         0
         0         0         0         0         0         0         0         0
         0         0         0         0         0         0         0         0
         0         0         0         0         0         0         0         0
         0         0         0         0         0         0         0         0
         0         0         0         0         0         0         0         0
         0         0         0         0         0         0         0         0
         0         0         0         0         0         0         0         0
         0         0         0         0         0         0         0         0
         0         0         0         0         0         0         0         0
         0         0         0         0         0         0         0         0
         0         0         0         0         0         0         0         0
         0         0         0         0         0         0         0         0
         0         0         0         0         0         0         0         0
         0         0         0         0         0         0         0         0
         0         0         0         0         0         0         0         0
         0         0         0         0         0         0         0         0
         0         0         0         0         0         0         0         0
         0         0         0         0         0         0         0         0
         0         0         0         0         0         0         0         0
         0         0         0         0         0         0         0         0
         0         0         0         0         0         0         0         0
         0         0         0         0         0         0         0         0
         0         0         0         0         0         0         0         0
         0         0         0         0         0         0         0         0
         0         0         0         0         0         0         0         0
         0         0         0         0         0         0         0         0
         0         0         0         0         0         0         0         0
         0         0         0         0         0         0         0         0
         0         0         0         0         0         0         0         0
         0         0         0         0         0         0         0         0
         0         0         0         0         0         0         0         0
         0         0         0         0         0         0         0         0
         0         0         0         0         0         0         0         0
         0         0         0         0         0         0         0         0
         0         0         0         0         0         0         0         0
         0         0         0         0         0         0         0         0
         0         0         0         0         0         0         0         0
         0         0         0         0         0         0         0         0
         0         0         0         0         0         0         0         0
         0         0         0         0         0         0         0         0
         0         0         0         0         0         0         0         0
         0         0         0         0         0         0         0         0
         0         0         0         0         0         0         0         0
         0         0         0         0         0         0         0         0
         0         0         0         0         0         0         0         0
         0         0         0         0         0         0         0         0
         0         0         0         0         0         0         0         0
         0         0         0         0         0         0         0         0
         0         0         0         0         0         0         0         0
         0         0         0         0         0         0         0         0
         0         0         0         0         0         0         0         0
         0         0         0         0         0         0         0         0
         0         0         0         0         0         0         0         0
         0         0         0         0         0         0         0         0
         0         0         0         0         0         0         0         0
         0         0         0         0         0         0         0         0
         0         0         0         0         0         0         0         0
         0         0         0         0         0         0         0         0
         0         0         0         0         0         0         0         0
         0         0         0         0         0         0         0         0
         0         0         0         0         0         0         0         0
         0         0         0         0         0         0         0         0
         0         0         0         0         0         0         0         0
         0         0         0         0         0         0         0         0
         0         0         0         0         0         0         0         0
         0         0         0         0         0         0         0         0
         0         0         0         0         0         0         0         0
         0         0         0         0         0         0         0         0
         0         0         0         0         0         0         0         0
         0         0         0         0         0         0         0         0
         0         0         0         0         0         0         0         0
         0         0         0         0         0         0         0         0
         0         0         0         0         0         0         0         0
         0         0         0         0         0         0         0         0
         0         0         0         0         0         0         0         0
         0         0         0         0         0         0         0         0
         0         0         0         0         0         0         0         0
         0         0         0         0         0         0         0         0
         0         0         0         0         0         0         0         0
         0         0         0         0         0         0         0         0
         0         0         0         0         0         0         0         0
         0         0         0         0         0         0         0         0
         0         0         0         0         0         0         0         0
         0         0         0         0         0         0         0         0
         0         0         0         0         0         0         0         0
         0         0         0         0         0         0         0         0
         0         0         0         0         0         0         0         0
         0         0         0         0         0         0         0         0
         0         0         0         0         0         0         0         0
         0         0         0         0         0         0         0         0
         0         0         0         0         0         0         0         0
         0         0         0         0         0         0         0         0
         0         0         0         0         0         0         0         0
         0         0         0         0         0         0         0         0
         0         0         0         0         0         0         0         0
         0         0         0         0         0         0         0         0
         0         0         0         0         0         0         0         0
         0         0         0         0         0         0         0         0
         0         0         0         0         0         0         0         0
         0         0         0         0         0         0         0         0
         0         0         0         0         0         0         0         0
         0         0         0         0         0         0         0         0
         0         0         0         0         0         0         0         0
         0         0         0         0         0         0         0         0
         0         0         0         0         0         0         0         0
         0         0         0         0         0         0         0         0
         0         0         0         0         0         0         0         0
         0         0         0         0         0         0         0         0
         0         0         0         0         0         0         0         0
         0         0         0         0         0         0         0         0
         0         0         0         0         0         0         0         0
         0         0         0         0         0         0         0         0
         0         0         0         0         0         0         0         0
         0         0         0         0         0         0         0         0
         0         0         0         0         0         0         0         0
         0         0         0         0         0         0         0         0
         0         0         0         0         0         0         0         0
         0         0         0         0         0         0         0         0
         0         0         0         0         0         0         0         0
         0         0         0         0         0         0         0         0
         0         0         0         0         0         0         0         0
         0         0         0         0         0         0         0         0
         0         0         0         0         0         0         0         0
         0         0         0         0         0         0         0         0
         0         0         0         0         0         0         0         0
         0         0         0         0         0         0         0         0
         0         0         0         0         0         0         0         0
         0         0         0         0         0         0         0         0
         0         0         0         0         0         0         0         0
         0         0         0         0         0         0         0         0
         0         0         0         0         0         0         0         0
         0         0         0         0         0         0         0         0
         0         0         0         0         0         0         0         0
         0         0         0         0         0         0         0         0
         0         0         0         0         0         0         0         0
         0         0         0         0         0         0         0         0
         0         0         0         0         0         0         0         0
         0         0         0         0         0         0         0         0
         0         0         0         0         0         0         0         0
         0         0         0         0         0         0         0         0
         0         0         0         0         0         0         0         0
         0         0         0         0         0         0         0         0
         0         0         0         0         0         0         0         0
         0         0         0         0         0         0         0         0
         0         0         0         0         0         0         0         0
         0         0         0         0         0         0         0         0
         0         0         0         0         0         0         0         0
         0         0         0         0         0         0         0         0
         0         0         0         0         0         0         0         0
         0         0         0         0         0         0         0         0
         0         0         0         0         0         0         0         0
         0         0         0         0         0         0         0         0
         0         0         0         0         0         0         0         0
         0         0         0         0         0         0         0         0
         0         0         0         0         0         0         0         0
         0         0         0         0         0         0         0         0
         0         0         0         0         0         0         0         0
         0         0         0         0         0         0         0         0
         0         0         0         0         0         0         0         0
         0         0         0         0         0         0         0         0
         0         0         0         0         0         0         0         0
         0         0         0         0         0         0         0         0
         0         0         0         0         0         0         0         0
         0         0         0         0         0         0         0         0
         0         0         0         0         0         0         0         0
         0         0         0         0         0         0         0         0
         0         0         0         0         0         0         0         0
         0         0         0         0         0         0         0         0
         0         0         0         0         0         0         0         0
         0         0         0         0         0         0         0         0
         0         0         0         0         0         0         0         0
         0         0         0         0         0         0         0         0
         0         0         0         0         0         0         0         0
         0         0         0         0         0         0         0         0
         0         0         0         0         0         0         0         0
         0         0         0         0         0         0         0         0
         0         0         0         0         0         0         0         0
         0         0         0         0         0         0         0         0
         0         0         0         0         0         0         0         0
         0         0         0         0         0         0         0         0
         0         0         0         0         0         0         0         0
         0         0         0         0         0         0         0         0
         0         0         0         0         0         0         0         0
         0         0         0         0         0         0         0         0
         0         0         0         0         0         0         0         0
         0         0         0         0         0         0         0         0
         0         0         0         0         0         0         0         0
         0         0         0         0         0         0         0         0
         0         0         0         0         0         0         0         0
         0         0         0         0         0         0         0         0
         0         0         0         0         0         0         0         0
         0         0         0         0         0         0         0         0
         0         0         0         0         0         0         0         0
         0         0         0         0         0         0         0         0
         0         0         0         0         0         0         0         0
         0         0         0         0         0         0         0         0
         0         0         0         0         0         0         0         0
         0         0         0         0         0         0         0         0
         0         0         0         0         0         0         0         0
         0         0         0         0         0         0         0         0
         0         0         0         0         0         0         0         0
         0         0         0         0         0         0         0         0
         0         0         0         0         0         0         0         0
         0         0         0         0         0         0         0         0
         0         0         0         0         0         0         0         0
         0         0         0         0         0         0         0         0
         0         0         0         0         0         0         0         0
         0         0         0         0         0         0         0         0
         0         0         0         0         0         0         0         0
         0         0         0         0         0         0         0         0
         0         0         0         0         0         0         0         0
         0         0         0         0         0         0         0         0
         0         0         0         0         0         0         0         0
         0         0         0         0         0         0         0         0
         0         0         0         0         0         0         0         0
         0         0         0         0         0         0         0         0
         0         0         0         0         0         0         0         0
         0         0         0         0         0         0         0         0
         0         0         0         0         0         0         0         0
         0         0         0         0         0         0         0         0
         0         0         0         0         0         0         0         0
         0         0         0         0         0         0         0         0
         0         0         0         0         0         0         0         0
         0         0         0         0         0         0         0         0
         0         0         0         0         0         0         0         0
         0         0         0         0         0         0         0         0
         0         0         0         0         0         0         0         0
         0         0         0         0         0         0         0         0
         0         0         0         0         0         0         0         0
         0         0         0         0         0         0         0         0
         0         0         0         0         0         0         0         0
         0         0         0         0         0         0         0         0
         0         0         0         0         0         0         0         0
         0         0         0         0         0         0         0         0
         0         0         0         0         0         0         0         0
         0         0         0         0         0         0         0         0
         0         0         0         0         0         0         0         0
         0         0         0         0         0         0         0         0
         0         0         0         0         0         0         0         0
         0         0         0         0         0         0         0         0
         0         0         0         0         0         0         0         0
         0         0         0         0         0         0         0         0
         0         0         0         0         0         0         0         0
         0         0         0         0         0         0         0         0
         0         0         0         0         0         0         0         0
         0         0         0         0         0         0         0         0
         0         0         0         0         0         0         0         0
         0         0         0         0         0         0         0         0
         0         0         0         0         0         0         0         0
         0         0         0         0         0         0         0         0
         0         0         0         0         0         0         0         0
         0         0         0         0         0         0         0         0
         0         0         0         0         0         0         0         0
         0         0         0         0         0         0         0         0
         0         0         0         0         0         0         0         0
         0         0         0         0         0         0         0         0
         0         0         0         0         0         0         0         0
         0         0         0         0         0         0         0         0
         0         0         0         0         0         0         0         0
         0         0         0         0         0         0         0         0
         0         0         0         0         0         0         0         0
         0         0         0         0         0         0         0         0
         0         0         0         0         0         0         0         0
         0         0         0         0         0         0         0         0
         0         0         0         0         0         0         0         0
         0         0         0         0         0         0         0         0
         0         0         0         0         0         0         0         0
         0         0         0         0         0         0         0         0
         0         0         0         0         0         0         0         0
         0         0         0         0         0         0         0         0
         0         0         0         0         0         0         0         0
         0         0         0         0         0         0         0         0
         0         0         0         0         0         0         0         0
         0         0         0         0         0         0         0         0
         0         0         0         0         0         0         0         0
         0         0         0         0         0         0         0         0
         0         0         0         0         0         0         0         0
         0         0         0         0         0         0         0         0
         0         0         0         0         0         0         0         0
         0         0         0         0         0         0         0         0
         0         0         0         0         0         0         0         0
         0         0         0         0         0         0         0         0
         0         0         0         0         0         0         0         0
         0         0         0         0         0         0         0         0
         0         0         0         0         0         0         0         0
         0         0         0         0         0         0         0         0
         0         0         0         0         0         0         0         0
         0         0         0         0         0         0         0         0
         0         0         0         0         0         0         0         0
         0         0         0         0         0         0         0         0
         0         0         0         0         0         0         0         0
         0         0         0         0         0         0         0         0
         0         0         0         0         0         0         0         0
         0         0         0         0         0         0         0         0
         0         0         0         0         0         0         0         0
         0         0         0         0         0         0         0         0
         0         0         0         0         0         0         0         0
         0         0         0         0         0         0         0         0
         0         0         0         0         0         0         0         0
         0         0         0         0         0         0         0         0
         0         0         0         0         0         0         0         0
         0         0         0         0         0         0         0         0
         0         0         0         0         0         0         0         0
         0         0         0         0         0         0         0         0
         0         0         0         0         0         0         0         0
         0         0         0         0         0         0         0         0
         0         0         0         0         0         0         0         0
         0         0         0         0         0         0         0         0
         0         0         0         0         0         0         0         0
         0         0         0         0         0         0         0         0
         0         0         0         0         0         0         0         0
         0         0         0         0         0         0         0         0
         0         0         0         0         0         0         0         0
         0         0         0         0         0         0         0         0
         0         0         0         0         0         0         0         0
         0         0         0         0         0         0         0         0
         0         0         0         0         0         0         0         0
         0         0         0         0         0         0         0         0
         0         0         0         0         0         0         0         0
         0         0         0         0         0         0         0         0
         0         0         0         0         0         0         0         0
         0         0         0         0         0         0         0         0
         0         0         0         0         0         0         0         0
         0         0         0         0         0         0         0         0
         0         0         0         0         0         0         0         0
         0         0         0         0         0         0         0         0
         0         0         0         0         0         0         0         0
         0         0         0         0         0         0         0         0
         0         0         0         0         0         0         0         0
         0         0         0         0         0         0         0         0
         0         0         0         0         0         0         0         0
         0         0         0         0         0         0         0         0
         0         0         0         0         0         0         0         0
         0         0         0         0         0         0         0         0
         0         0         0         0         0         0         0         0
         0         0         0         0         0         0         0         0
         0         0         0         0         0         0         0         0
         0         0         0         0         0         0         0         0
         0         0         0         0         0         0         0         0
         0         0         0         0         0         0         0         0
         0         0         0         0         0         0         0         0
         0         0         0         0         0         0         0         0
         0         0         0         0         0         0         0         0
         0         0         0         0         0         0         0         0
         0         0         0         0         0         0         0         0
         0         0         0         0         0         0         0         0
         0         0         0         0         0         0         0         0
         0         0         0         0         0         0         0         0
         0         0         0         0         0         0         0         0
         0         0         0         0         0         0         0         0
         0         0         0         0         0         0         0         0
         0         0         0         0         0         0         0         0
         0         0         0         0         0         0         0         0
         0         0         0         0         0         0         0         0
         0         0         0         0         0         0         0         0
         0         0         0         0         0         0         0         0
         0         0         0         0         0         0         0         0
         0         0         0         0         0         0         0         0
         0         0         0         0         0         0         0         0
         0         0         0         0         0         0         0         0
         0         0         0         0         0         0         0         0
         0         0         0         0         0         0         0         0
         0         0         0         0         0         0         0         0
         0         0         0         0         0         0         0         0
         0         0         0         0         0         0         0         0
         0         0         0         0         0         0         0         0
         0         0         0         0         0         0         0         0
         0         0         0         0         0         0         0         0
         0         0         0         0         0         0         0         0
         0         0         0         0         0         0         0         0
         0         0         0         0         0         0         0         0
         0         0         0         0         0         0         0         0
         0         0         0         0         0         0         0         0
         0         0         0         0         0         0         0         0
         0         0         0         0         0         0         0         0
         0         0         0         0         0         0         0         0
         0         0         0         0         0         0         0         0
         0         0         0         0         0         0         0         0
         0         0         0         0         0         0         0         0
         0         0         0         0         0         0         0         0
         0         0         0         0         0         0         0         0
         0         0         0         0         0         0         0         0
         0         0         0         0         0         0         0         0
         0         0         0         0         0         0         0         0
         0         0         0         0         0         0         0         0
         0         0         0         0         0         0         0         0
         0         0         0         0         0         0         0         0
         0         0         0         0         0         0         0         0
         0         0         0         0         0         0         0         0
         0         0         0         0         0         0         0         0
         0         0         0         0         0         0         0         0
         0         0         0         0         0         0         0         0
         0         0         0         0         0         0         0         0
         0         0         0         0         0         0         0         0
         0         0         0         0         0         0         0         0
         0         0         0         0         0         0         0         0
         0         0         0         0         0         0         0         0
         0         0         0         0         0         0         0         0
         0         0         0         0         0         0         0         0
         0         0         0         0         0         0         0         0
         0         0         0         0         0         0         0         0
         0         0         0         0         0         0         0         0
         0         0         0         0         0         0         0         0
         0         0         0         0         0         0         0         0
         0         0         0         0         0         0         0         0
         0         0         0         0         0         0         0         0
         0         0         0         0         0         0         0         0
         0         0         0         0         0         0         0         0
         0         0         0         0         0         0         0         0
         0         0         0         0         0         0         0         0
         0         0         0         0         0         0         0         0
         0         0         0         0         0         0         0         0
         0         0         0         0         0         0         0         0
         0         0         0         0         0         0         0         0
         0         0         0         0         0         0         0         0
         0         0         0         0         0         0         0         0
         0         0         0         0         0         0         0         0
         0         0         0         0         0         0         0         0
         0         0         0         0         0         0         0         0
         0         0         0         0         0         0         0         0
         0         0         0         0         0         0         0         0
         0         0         0         0         0         0         0         0
         0         0         0         0         0         0         0         0
         0         0         0         0         0         0         0         0
         0         0         0         0         0         0         0         0
         0         0         0         0         0         0         0         0
         0         0         0         0         0         0         0         0
         0         0         0         0         0         0         0         0
         0         0         0         0         0         0         0         0
         0         0         0         0         0         0         0         0
         0         0         0         0         0         0         0         0
         0         0         0         0         0         0         0         0
         0         0         0         0         0         0         0         0
         0         0         0         0         0         0         0         0
         0         0         0         0         0         0         0         0
         0         0         0         0         0         0         0         0
         0         0         0         0         0         0         0         0
         0         0         0         0         0         0         0         0
         0         0         0         0         0         0         0         0
         0         0         0         0         0         0         0         0
         0         0         0         0         0         0         0         0
         0         0         0         0         0         0         0         0
         0         0         0         0         0         0         0         0
         0         0         0         0         0         0         0         0
         0         0         0         0         0         0         0         0
         0         0         0         0         0         0         0         0
         0         0         0         0         0         0         0         0
         0         0         0         0         0         0         0         0
         0         0         0         0         0         0         0         0
         0         0         0         0         0         0         0         0
         0         0         0         0         0         0         0         0
         0         0         0         0         0         0         0         0
         0         0         0         0         0         0         0         0
         0         0         0         0         0         0         0         0
         0         0         0         0         0         0         0         0
         0         0         0         0         0         0         0         0
         0         0         0         0         0         0         0         0
         0         0         0         0         0         0         0         0
         0         0         0         0         0         0         0         0
         0         0         0         0         0         0         0         0
         0         0         0         0         0         0         0         0
         0         0         0         0         0         0         0         0
         0         0         0         0         0         0         0         0
         0         0         0         0         0         0         0         0
         0         0         0         0         0         0         0         0
         0         0         0         0         0         0         0         0
         0         0         0         0         0         0         0         0
         0         0         0         0         0         0         0         0
         0         0         0         0         0         0         0         0
         0         0         0         0         0         0         0         0
         0         0         0         0         0         0         0         0
         0         0         0         0         0         0         0         0
         0         0         0         0         0         0         0         0
         0         0         0         0         0         0         0         0
         0         0         0         0         0         0         0         0
         0         0         0         0         0         0         0         0
         0         0         0         0         0         0         0         0
         0         0         0         0         0         0         0         0
         0         0         0         0         0         0         0         0
         0         0         0         0         0         0         0         0
         0         0         0         0         0         0         0         0
         0         0         0         0         0         0         0         0
         0         0         0         0         0         0         0         0
         0         0         0         0         0         0         0         0
         0         0         0         0         0         0         0         0
         0         0         0         0         0         0         0         0
         0         0         0         0         0         0         0         0
         0         0         0         0         0         0         0         0
         0         0         0         0         0         0         0         0
         0         0         0         0         0         0         0         0
         0         0         0         0         0         0         0         0
         0         0         0         0         0         0         0         0
         0         0         0         0         0         0         0         0
         0         0         0         0         0         0         0         0
         0         0         0         0         0         0         0         0
         0         0         0         0         0         0         0         0
         0         0         0         0         0         0         0         0
         0         0         0         0         0         0         0         0
         0         0         0         0         0         0         0         0
         0         0         0         0         0         0         0         0
         0         0         0         0         0         0         0         0
         0         0         0         0         0         0         0         0
         0         0         0         0         0         0         0         0
         0         0         0         0         0         0         0         0
         0         0         0         0         0         0         0         0
         0         0         0         0         0         0         0         0
         0         0         0         0         0         0         0         0
         0         0         0         0         0         0         0         0
         0         0         0         0         0         0         0         0
         0         0         0         0         0         0         0         0
         0         0         0         0         0         0         0         0
         0         0         0         0         0         0         0         0
         0         0         0         0         0         0         0         0
         0         0         0         0         0         0         0         0
         0         0         0         0         0         0         0         0
         0         0         0         0         0         0         0         0
         0         0         0         0         0         0         0         0
         0         0         0         0         0         0         0         0
         0         0         0         0         0         0         0         0
         0         0         0         0         0         0         0         0
         0         0         0         0         0         0         0         0
         0         0         0         0         0         0         0         0
         0         0         0         0         0         0         0         0
         0         0         0         0         0         0         0         0
         0         0         0         0         0         0         0         0
         0         0         0         0         0         0         0         0
         0         0         0         0         0         0         0         0
         0         0         0         0         0         0         0         0
         0         0         0         0         0         0         0         0
         0         0         0         0         0         0         0         0
         0         0         0         0         0         0         0         0
         0         0         0         0         0         0         0         0
         0         0         0         0         0         0         0         0
         0         0         0         0         0         0         0         0
         0         0         0         0         0         0         0         0
         0         0         0         0         0         0         0         0
         0         0         0         0         0         0         0         0
         0         0         0         0         0         0         0         0
         0         0         0         0         0         0         0         0
         0         0         0         0         0         0         0         0
         0         0         0         0         0         0         0         0
         0         0         0         0         0         0         0         0
         0         0         0         0         0         0         0         0
         0         0         0         0         0         0         0         0
         0         0         0         0         0         0         0         0
         0         0         0         0         0         0         0         0
         0         0         0         0         0         0         0         0
         0         0         0         0         0         0         0         0
         0         0         0         0         0         0         0         0
         0         0         0         0         0         0         0         0
         0         0         0         0         0         0         0         0
         0         0         0         0         0         0         0         0
         0         0         0         0         0         0         0         0
         0         0         0         0         0         0         0         0
         0         0         0         0         0         0         0         0
         0         0         0         0         0         0         0         0
         0         0         0         0         0         0         0         0
         0         0         0         0         0         0         0         0
         0         0         0         0         0         0         0         0
         0         0         0         0         0         0         0         0
         0         0         0         0         0         0         0         0
         0         0         0         0         0         0         0         0
         0         0         0         0         0         0         0         0
         0         0         0         0         0         0         0         0
         0         0         0         0         0         0         0         0
         0         0         0         0         0         0         0         0
         0         0         0         0         0         0         0         0
         0         0         0         0         0         0         0         0
         0         0         0         0         0         0         0         0
         0         0         0         0         0         0         0         0
         0         0         0         0         0         0         0         0
         0         0         0         0         0         0         0         0
         0         0         0         0         0         0         0         0
         0         0         0         0         0         0         0         0
         0         0         0         0         0         0         0         0
         0         0         0         0         0         0         0         0
         0         0         0         0         0         0         0         0
         0         0         0         0         0         0         0         0
         0         0         0         0         0         0         0         0
         0         0         0         0         0         0         0         0
         0         0         0         0         0         0         0         0
         0         0         0         0         0         0         0         0
         0         0         0         0         0         0         0         0
         0         0         0         0         0         0         0         0
         0         0         0         0         0         0         0         0
         0         0         0         0         0         0         0         0
         0         0         0         0         0         0         0         0
         0         0         0         0         0         0         0         0
         0         0         0         0         0         0         0         0
         0         0         0         0         0         0         0         0
         0         0         0         0         0         0         0         0
         0         0         0         0         0         0         0         0
         0         0         0         0         0         0         0         0
         0         0         0         0         0         0         0         0
         0         0         0         0         0         0         0         0
         0         0         0         0         0         0         0         0
         0         0         0         0         0         0         0         0
         0         0         0         0         0         0         0         0
         0         0         0         0         0         0         0         0
         0         0         0         0         0         0         0         0
         0         0         0         0         0         0         0         0
         0         0         0         0         0         0         0         0
         0         0         0         0         0         0         0         0
         0         0         0         0         0         0         0         0
         0         0         0         0         0         0         0         0
         0         0         0         0         0         0         0         0
         0         0         0         0         0         0         0         0
         0         0         0         0         0         0         0         0
         0         0         0         0         0         0         0         0
         0         0         0         0         0         0         0         0
         0         0         0         0         0         0         0         0
         0         0         0         0         0         0         0         0
         0         0         0         0         0         0         0         0
         0         0         0         0         0         0         0         0
         0         0         0         0         0         0         0         0
         0         0         0         0         0         0         0         0
         0         0         0         0         0         0         0         0
         0         0         0         0         0         0         0         0
         0         0         0         0         0         0         0         0
         0         0         0         0         0         0         0         0
         0         0         0         0         0         0         0         0
         0         0         0         0         0         0         0         0
         0         0         0         0         0         0         0         0
         0         0         0         0         0         0         0         0
         0         0         0         0         0         0         0         0
         0         0         0         0         0         0         0         0
         0         0         0         0         0         0         0         0
         0         0         0         0         0         0         0         0
         0         0         0         0         0         0         0         0
         0         0         0         0         0         0         0         0
         0         0         0         0         0         0         0         0
         0         0         0         0         0         0         0         0
         0         0         0         0         0         0         0         0
         0         0         0         0         0         0         0         0
         0         0         0         0         0         0         0         0
         0         0         0         0         0         0         0         0
         0         0         0         0         0         0         0         0
         0         0         0         0         0         0         0         0
         0         0         0         0         0         0         0         0
         0         0         0         0         0         0         0         0
         0         0         0         0         0         0         0         0
         0         0         0         0         0         0         0         0
         0         0         0         0         0         0         0         0
         0         0         0         0         0         0         0         0
         0         0         0         0         0         0         0         0
         0         0         0         0         0         0         0         0
         0         0         0         0         0         0         0         0
         0         0         0         0         0         0         0         0
         0         0         0         0         0         0         0         0
         0         0         0         0         0         0         0         0
         0         0         0         0         0         0         0         0
         0         0         0         0         0         0         0         0
         0         0         0         0         0         0         0         0
         0         0         0         0         0         0         0         0
         0         0         0         0         0         0         0         0
         0         0         0         0         0         0         0         0
         0         0         0         0         0         0         0         0
         0         0         0         0         0         0         0         0
         0         0         0         0         0         0         0         0
         0         0         0         0         0         0         0         0
         0         0         0         0         0         0         0         0
         0         0         0         0         0         0         0         0
         0         0         0         0         0         0         0         0
         0         0         0         0         0         0         0         0
         0         0         0         0         0         0         0         0
         0         0         0         0         0         0         0         0
         0         0         0         0         0         0         0         0
         0         0         0         0         0         0         0         0
         0         0         0         0         0         0         0         0
         0         0         0         0         0         0         0         0
         0         0         0         0         0         0         0         0
         0         0         0         0         0         0         0         0
         0         0         0         0         0         0         0         0
         0         0         0         0         0         0         0         0
         0         0         0         0         0         0         0         0
         0         0         0         0         0         0         0         0
         0         0         0         0         0         0         0         0
         0         0         0         0         0         0         0         0
         0         0         0         0         0         0         0         0
         0         0         0         0         0         0         0         0
         0         0         0         0         0         0         0         0
         0         0         0         0         0         0         0         0
         0         0         0         0         0         0         0         0
         0         0         0         0         0         0         0         0
         0         0         0         0         0         0         0         0
         0         0         0         0         0         0         0         0
         0         0         0         0         0         0         0         0
         0         0         0         0         0         0         0         0
         0         0         0         0         0         0         0         0
         0         0         0         0         0         0         0         0
         0         0         0         0         0         0         0         0
         0         0         0         0         0         0         0         0
         0         0         0         0         0         0         0         0
         0         0         0         0         0         0         0         0
         0         0         0         0         0         0         0         0
         0         0         0         0         0         0         0         0
         0         0         0         0         0         0         0         0
         0         0         0         0         0         0         0         0
         0         0         0         0         0         0         0         0
         0         0         0         0         0         0         0         0
         0         0         0         0         0         0         0         0
         0         0         0         0         0         0         0         0
         0         0         0         0         0         0         0         0
         0         0         0         0         0         0         0         0
         0         0         0         0         0         0         0         0
         0         0         0         0         0         0         0         0
         0         0         0         0         0         0         0         0
         0         0         0         0         0         0         0         0
         0         0         0         0         0         0         0         0
         0         0         0         0         0         0         0         0
         0         0         0         0         0         0         0         0
         0         0         0         0         0         0         0         0
         0         0         0         0         0         0         0         0
         0         0         0         0         0         0         0         0
         0         0         0         0         0         0         0         0
         0         0         0         0         0         0         0         0
         0         0         0         0         0         0         0         0
         0         0         0         0         0         0         0         0
         0         0         0         0         0         0         0         0
         0         0         0         0         0         0         0         0
         0         0         0         0         0         0         0         0
         0         0         0         0         0         0         0         0
         0         0         0         0         0         0         0         0
         0         0         0         0         0         0         0         0
         0         0         0         0         0         0         0         0
         0         0         0         0         0         0         0         0
         0         0         0         0         0         0         0         0
         0         0         0         0         0         0         0         0
         0         0         0         0         0         0         0         0
         0         0         0         0         0         0         0         0
         0         0         0         0         0         0         0         0
         0         0         0         0         0         0         0         0
         0         0         0         0         0         0         0         0
         0         0         0         0         0         0         0         0
         0         0         0         0         0         0         0         0
         0         0         0         0         0         0         0         0
         0         0         0         0         0         0         0         0
         0         0         0         0         0         0         0         0
         0         0         0         0         0         0         0         0
         0         0         0         0         0         0         0         0
         0         0         0         0         0         0         0         0
         0         0         0         0         0         0         0         0
         0         0         0         0         0         0         0         0
         0         0         0         0         0         0         0         0
         0         0         0         0         0         0         0         0
         0         0         0         0         0         0         0         0
         0         0         0         0         0         0         0         0
         0         0         0         0         0         0         0         0
         0         0         0         0         0         0         0         0
         0         0         0         0         0         0         0         0
         0         0         0         0         0         0         0         0
         0         0         0         0         0         0         0         0
         0         0         0         0         0         0         0         0
         0         0         0         0         0         0         0         0
         0         0         0         0         0         0         0         0
         0         0         0         0         0         0         0         0
         0         0         0         0         0         0         0         0
         0         0         0         0         0         0         0         0
         0         0         0         0         0         0         0         0
         0         0         0         0         0         0         0         0
         0         0         0         0         0         0         0         0
         0         0         0         0         0         0         0         0
         0         0         0         0         0         0         0         0
         0         0         0         0         0         0         0         0
         0         0         0         0         0         0         0         0
         0         0         0         0         0         0         0         0
         0         0         0         0         0         0         0         0
         0         0         0         0         0         0         0         0
         0         0         0         0         0         0         0         0
         0         0         0         0         0         0         0         0
         0         0         0         0         0         0         0         0
         0         0         0         0         0         0         0         0
         0         0         0         0         0         0         0         0
         0         0         0         0         0         0         0         0
         0         0         0         0         0         0         0         0
         0         0         0         0         0         0         0         0
         0         0         0         0         0         0         0         0
         0         0         0         0         0         0         0         0
         0         0         0         0         0         0         0         0
         0         0         0         0         0         0         0         0
         0         0         0         0         0         0         0         0
         0         0         0         0         0         0         0         0
         0         0         0         0         0         0         0         0
         0         0         0         0         0         0         0         0
         0         0         0         0         0         0         0         0
         0         0         0         0         0         0         0         0
         0         0         0         0         0         0         0         0
         0         0         0         0         0         0         0         0
         0         0         0         0         0         0         0         0
         0         0         0         0         0         0         0         0
         0         0         0         0         0         0         0         0
         0         0         0         0         0         0         0         0
         0         0         0         0         0         0         0         0
         0         0         0         0         0         0         0         0
         0         0         0         0         0         0         0         0
         0         0         0         0         0         0         0         0
         0         0         0         0         0         0         0         0
         0         0         0         0         0         0         0         0
         0         0         0         0         0         0         0         0
         0         0         0         0         0         0         0         0
         0         0         0         0         0         0         0         0
         0         0         0         0         0         0         0         0
         0         0         0         0         0         0         0         0
         0         0         0         0         0         0         0         0
         0         0         0         0         0         0         0         0
         0         0         0         0         0         0         0         0
         0         0         0         0         0         0         0         0
         0         0         0         0         0         0         0         0
         0         0         0         0         0         0         0         0
         0         0         0         0         0         0         0         0
         0         0         0         0         0         0         0         0
         0         0         0         0         0         0         0         0
         0         0         0         0         0         0         0         0
         0         0         0         0         0         0         0         0
         0         0         0         0         0         0         0         0
         0         0         0         0         0         0         0         0
         0         0         0         0         0         0         0         0
         0         0         0         0         0         0         0         0
         0         0         0         0         0         0         0         0
         0         0         0         0         0         0         0         0
         0         0         0         0         0         0         0         0
         0         0         0         0         0         0         0         0
         0         0         0         0         0         0         0         0
         0         0         0         0         0         0         0         0
         0         0         0         0         0         0         0         0
         0         0         0         0         0         0         0         0
         0         0         0         0         0         0         0         0
         0         0         0         0         0         0         0         0
         0         0         0         0         0         0         0         0
         0         0         0         0         0         0         0         0
         0         0         0         0         0         0         0         0
         0         0         0         0         0         0         0         0
         0         0         0         0         0         0         0         0
         0         0         0         0         0         0         0         0
         0         0         0         0         0         0         0         0
         0         0         0         0         0         0         0         0
         0         0         0         0         0         0         0         0
         0         0         0         0         0         0         0         0
         0         0         0         0         0         0         0         0
         0         0         0         0         0         0         0         0
         0         0         0         0         0         0         0         0
         0         0         0         0         0         0         0         0
         0         0         0         0         0         0         0         0
         0         0         0         0         0         0         0         0
         0         0         0         0         0         0         0         0
         0         0         0         0         0         0         0         0
         0         0         0         0         0         0         0         0
         0         0         0         0         0         0         0         0
         0         0         0         0         0         0         0         0
         0         0         0         0         0         0         0         0
         0         0         0         0         0         0         0         0
         0         0         0         0         0         0         0         0
         0         0         0         0         0         0         0         0
         0         0         0         0         0         0         0         0
         0         0         0         0         0         0         0         0
         0         0         0         0         0         0         0         0
         0         0         0         0         0         0         0         0
         0         0         0         0         0         0         0         0
         0         0         0         0         0         0         0         0
         0         0         0         0         0         0         0         0
         0         0         0         0         0         0         0         0
         0         0         0         0         0         0         0         0
         0         0         0         0         0         0         0         0
         0         0         0         0         0         0         0         0
         0         0         0         0         0         0         0         0
         0         0         0         0         0         0         0         0
         0         0         0         0         0         0         0         0
         0         0         0         0         0         0         0         0
         0         0         0         0         0         0         0         0
         0         0         0         0         0         0         0         0
         0         0         0         0         0         0         0         0
         0         0         0         0         0         0         0         0
         0         0         0         0         0         0         0         0
         0         0         0         0         0         0         0         0
         0         0         0         0         0         0         0         0
         0         0         0         0         0         0         0         0
         0         0         0         0         0         0         0         0
         0         0         0         0         0         0         0         0
         0         0         0         0         0         0         0         0
         0         0         0         0         0         0         0         0
         0         0         0         0         0         0         0         0
         0         0         0         0         0         0         0         0
         0         0         0         0         0         0         0         0
         0         0         0         0         0         0         0         0
         0         0         0         0         0         0         0         0
         0         0         0         0         0         0         0         0
         0         0         0         0         0         0         0         0
         0         0         0         0         0         0         0         0
         0         0         0         0         0         0         0         0
         0         0         0         0         0         0         0         0
         0         0         0         0         0         0         0         0
         0         0         0         0         0         0         0         0
         0         0         0         0         0         0         0         0
         0         0         0         0         0         0         0         0
         0         0         0         0         0         0         0         0
         0         0         0         0         0         0         0         0
         0         0         0         0         0         0         0         0
         0         0         0         0         0         0         0         0
         0         0         0         0         0         0         0         0
         0         0         0         0         0         0         0         0
         0         0         0         0         0         0         0         0
         0         0         0         0         0         0         0         0
         0         0         0         0         0         0         0         0
         0         0         0         0         0         0         0         0
         0         0         0         0         0         0         0         0
         0         0         0         0         0         0         0         0
         0         0         0         0         0         0         0         0
         0         0         0         0         0         0         0         0
         0         0         0         0         0         0         0         0
         0         0         0         0         0         0         0         0
         0         0         0         0         0         0         0         0
         0         0         0         0         0         0         0         0
         0         0         0         0         0         0         0         0
         0         0         0         0         0         0         0         0
         0         0         0         0         0         0         0         0
         0         0         0         0         0         0         0         0
         0         0         0         0         0         0         0         0
         0         0         0         0         0         0         0         0
         0         0         0         0         0         0         0         0
         0         0         0         0         0         0         0         0
         0         0         0         0         0         0         0         0
         0         0         0         0         0         0         0         0
         0         0         0         0         0         0         0         0
         0         0         0         0         0         0         0         0
         0         0         0         0         0         0         0         0
         0         0         0         0         0         0         0         0
         0         0         0         0         0         0         0         0
         0         0         0         0         0         0         0         0
         0         0         0         0         0         0         0         0
         0         0         0         0         0         0         0         0
         0         0         0         0         0         0         0         0
         0         0         0         0         0         0         0         0
         0         0         0         0         0         0         0         0
         0         0         0         0         0         0         0         0
         0         0         0         0         0         0         0         0
         0         0         0         0         0         0         0         0
         0         0         0         0         0         0         0         0
         0         0         0         0         0         0         0         0
         0         0         0         0         0         0         0         0
         0         0         0         0         0         0         0         0
         0         0         0         0         0         0         0         0
         0         0         0         0         0         0         0         0
         0         0         0         0         0         0         0         0
         0         0         0         0         0         0         0         0
         0         0         0         0         0         0         0         0
         0         0         0         0         0         0         0         0
         0         0         0         0         0         0         0         0
         0         0         0         0         0         0         0         0
         0         0         0         0         0         0         0         0
         0         0         0         0         0         0         0         0
         0         0         0         0         0         0         0         0
         0         0         0         0         0         0         0         0
         0         0         0         0         0         0         0         0
         0         0         0         0         0         0         0         0
         0         0         0         0         0         0         0         0
         0         0         0         0         0         0         0         0
         0         0         0         0         0         0         0         0
         0         0         0         0         0         0         0         0
         0         0         0         0         0         0         0         0
         0         0         0         0         0         0         0         0
         0         0         0         0         0         0         0         0
         0         0         0         0         0         0         0         0
         0         0         0         0         0         0         0         0
         0         0         0         0         0         0         0         0
         0         0         0         0         0         0         0         0
         0         0         0         0         0         0         0         0
         0         0         0         0         0         0         0         0
         0         0         0         0         0         0         0         0
         0         0         0         0         0         0         0         0
         0         0         0         0         0         0         0         0
         0         0         0         0         0         0         0         0
         0         0         0         0         0         0         0         0
         0         0         0         0         0         0         0         0
         0         0         0         0         0         0         0         0
         0         0         0         0         0         0         0         0
         0         0         0         0         0         0         0         0
         0         0         0         0         0         0         0         0
         0         0         0         0         0         0         0         0
         0         0         0         0         0         0         0         0
         0         0         0         0         0         0         0         0
         0         0         0         0         0         0         0         0
         0         0         0         0         0         0         0         0
         0         0         0         0         0         0         0         0
         0         0         0         0         0         0         0         0
         0         0         0         0         0         0         0         0
         0         0         0         0         0         0         0         0
         0         0         0         0         0         0         0         0
         0         0         0         0         0         0         0         0
         0         0         0         0         0         0         0         0
         0         0         0         0         0         0         0         0
         0         0         0         0         0         0         0         0
         0         0         0         0         0         0         0         0
         0         0         0         0         0         0         0         0
         0         0         0         0         0         0         0         0
         0         0         0         0         0         0         0         0
         0         0         0         0         0         0         0         0
         0         0         0         0         0         0         0         0
         0         0         0         0         0         0         0         0
         0         0         0         0         0         0         0         0
         0         0         0         0         0         0         0         0
         0         0         0         0         0         0         0         0
         0         0         0         0         0         0         0         0
         0         0         0         0         0         0         0         0
         0         0         0         0         0         0         0         0
         0         0         0         0         0         0         0         0
         0         0         0         0         0         0         0         0
         0         0         0         0         0         0         0         0
         0         0         0         0         0         0         0         0
         0         0         0         0         0         0         0         0
         0         0         0         0         0         0         0         0
         0         0         0         0         0         0         0         0
         0         0         0         0         0         0         0         0
         0         0         0         0         0         0         0         0
         0         0         0         0         0         0         0         0
         0         0         0         0         0         0         0         0
         0         0         0         0         0         0         0         0
         0         0         0         0         0         0         0         0
         0         0         0         0         0         0         0         0
         0         0         0         0         0         0         0         0
         0         0         0         0         0         0         0         0
         0         0         0         0         0         0         0         0
         0         0         0         0         0         0         0         0
         0         0         0         0         0         0         0         0
         0         0         0         0         0         0         0         0
         0         0         0         0         0         0         0         0
         0         0         0         0         0         0         0         0
         0         0         0         0         0         0         0         0
         0         0         0         0         0         0         0         0
         0         0         0         0         0         0         0         0
         0         0         0         0         0         0         0         0
         0         0         0         0         0         0         0         0
         0         0         0         0         0         0         0         0
         0         0         0         0         0         0         0         0
         0         0         0         0         0         0         0         0
         0         0         0         0         0         0         0         0
         0         0         0         0         0         0         0         0
         0         0         0         0         0         0         0         0
         0         0         0         0         0         0         0         0
         0         0         0         0         0         0         0         0
         0         0         0         0         0         0         0         0
         0         0         0         0         0         0         0         0
         0         0         0         0         0         0         0         0
         0         0         0         0         0         0         0         0
         0         0         0         0         0         0         0         0
         0         0         0         0         0         0         0         0
         0         0         0         0         0         0         0         0
         0         0         0         0         0         0         0         0
         0         0         0         0         0         0         0         0
         0         0         0         0         0         0         0         0
         0         0         0         0         0         0         0         0
         0         0         0         0         0         0         0         0
         0         0         0         0         0         0         0         0
         0         0         0         0         0         0         0         0
         0         0         0         0         0         0         0         0
         0         0         0         0         0         0         0         0
         0         0         0         0         0         0         0         0
         0         0         0         0         0         0         0         0
         0         0         0         0         0         0         0         0
         0         0         0         0         0         0         0         0
         0         0         0         0         0         0         0         0
         0         0         0         0         0         0         0         0
         0         0         0         0         0         0         0         0
         0         0         0         0         0         0         0         0
         0         0         0         0         0         0         0         0
         0         0         0         0         0         0         0         0
         0         0         0         0         0         0         0         0
         0         0         0         0         0         0         0         0
         0         0         0         0         0         0         0         0
         0         0         0         0         0         0         0         0
         0         0         0         0         0         0         0         0
         0         0         0         0         0         0         0         0
         0         0         0         0         0         0         0         0
         0         0         0         0         0         0         0         0
         0         0         0         0         0         0         0         0
         0         0         0         0         0         0         0         0
         0         0         0         0         0         0         0         0
         0         0         0         0         0         0         0         0
         0         0         0         0         0         0         0         0
         0         0         0         0         0         0         0         0
         0         0         0         0         0         0         0         0
         0         0         0         0         0         0         0         0
         0         0         0         0         0         0         0         0
         0         0         0         0         0         0         0         0
         0         0         0         0         0         0         0         0
         0         0         0         0         0         0         0         0
         0         0         0         0         0         0         0         0
         0         0         0         0         0         0         0         0
         0         0         0         0         0         0         0         0
         0         0         0         0         0         0         0         0
         0         0         0         0         0         0         0         0
         0         0         0         0         0         0         0         0
         0         0         0         0         0         0         0         0
         0         0         0         0         0         0         0         0
         0         0         0         0         0         0         0         0
         0         0         0         0         0         0         0         0
         0         0         0         0         0         0         0         0
         0         0         0         0         0         0         0         0
         0         0         0         0         0         0         0         0
         0         0         0         0         0         0         0         0
         0         0         0         0         0         0         0         0
         0         0         0         0         0         0         0         0
         0         0         0         0         0         0         0         0
         0         0         0         0         0         0         0         0
         0         0         0         0         0         0         0         0
         0         0         0         0         0         0         0         0
         0         0         0         0         0         0         0         0
         0         0         0         0         0         0         0         0
         0         0         0         0         0         0         0         0
         0         0         0         0         0         0         0         0
         0         0         0         0         0         0         0         0
         0         0         0         0         0         0         0         0
         0         0         0         0         0         0         0         0
         0         0         0         0         0         0         0         0
         0         0         0         0         0         0         0         0
         0         0         0         0         0         0         0         0
         0         0         0         0         0         0         0         0
         0         0         0         0         0         0         0         0
         0         0         0         0         0         0         0         0
         0         0         0         0         0         0         0         0
         0         0         0         0         0         0         0         0
         0         0         0         0         0         0         0         0
         0         0         0         0         0         0         0         0
         0         0         0         0         0         0         0         0
         0         0         0         0         0         0         0         0
         0         0         0         0         0         0         0         0
         0         0         0         0         0         0         0         0
         0         0         0         0         0         0         0         0
         0         0         0         0         0         0         0         0
         0         0         0         0         0         0         0         0
         0         0         0         0         0         0         0         0
         0         0         0         0         0         0         0         0
         0         0         0         0         0         0         0         0
         0         0         0         0         0         0         0         0
         0         0         0         0         0         0         0         0
         0         0         0         0         0         0         0         0
         0         0         0         0         0         0         0         0
         0         0         0         0         0         0         0         0
         0         0         0         0         0         0         0         0
         0         0         0         0         0         0         0         0
         0         0         0         0         0         0         0         0
         0         0         0         0         0         0         0         0
         0         0         0         0         0         0         0         0
         0         0         0         0         0         0         0         0
         0         0         0         0         0         0         0         0
         0         0         0         0         0         0         0         0
         0         0         0         0         0         0         0         0
         0         0         0         0         0         0         0         0
         0         0         0         0         0         0         0         0
         0         0         0         0         0         0         0         0
         0         0         0         0         0         0         0         0
         0         0         0         0         0         0         0         0
         0         0         0         0         0         0         0         0
         0         0         0         0         0         0         0         0
         0         0         0         0         0         0         0         0
         0         0         0         0         0         0         0         0
         0         0         0         0         0         0         0         0
         0         0         0         0         0         0         0         0
         0         0         0         0         0         0         0         0
         0         0         0         0         0         0         0         0
         0         0         0         0         0         0         0         0
         0         0         0         0         0         0         0         0
         0         0         0         0         0         0         0         0
         0         0         0         0         0         0         0         0
         0         0         0         0         0         0         0         0
         0         0         0         0         0         0         0         0
         0         0         0         0         0         0         0         0
         0         0         0         0         0         0         0         0
         0         0         0         0         0         0         0         0
         0         0         0         0         0         0         0         0
         0         0         0         0         0         0         0         0
         0         0         0         0         0         0         0         0
         0         0         0         0         0         0         0         0
         0         0         0         0         0         0         0         0
         0         0         0         0         0         0         0         0
         0         0         0         0         0         0         0         0
         0         0         0         0         0         0         0         0
         0         0         0         0         0         0         0         0
         0         0         0         0         0         0         0         0
         0         0         0         0         0         0         0         0
         0         0         0         0         0         0         0         0
         0         0         0         0         0         0         0         0
         0         0         0         0         0         0         0         0
         0         0         0         0         0         0         0         0
         0         0         0         0         0         0         0         0
         0         0         0         0         0         0         0         0
         0         0         0         0         0         0         0         0
         0         0         0         0         0         0         0         0
         0         0         0         0         0         0         0         0
         0         0         0         0         0         0         0         0
         0         0         0         0         0         0         0         0
         0         0         0         0         0         0         0         0
         0         0         0         0         0         0         0         0
         0         0         0         0         0         0         0         0
         0         0         0         0         0         0         0         0
         0         0         0         0         0         0         0         0
         0         0         0         0         0         0         0         0
         0         0         0         0         0         0         0         0
         0         0         0         0         0         0         0         0
         0         0         0         0         0         0         0         0
         0         0         0         0         0         0         0         0
         0         0         0         0         0         0         0         0
         0         0         0         0         0         0         0         0
         0         0         0         0         0         0         0         0
         0         0         0         0         0         0         0         0
         0         0         0         0         0         0         0         0
         0         0         0         0         0         0         0         0
         0         0         0         0         0         0         0         0
         0         0         0         0         0         0         0         0
         0         0         0         0         0         0         0         0
         0         0         0         0         0         0         0         0
         0         0         0         0         0         0         0         0
         0         0         0         0         0         0         0         0
         0         0         0         0         0         0         0         0
         0         0         0         0         0         0         0         0
         0         0         0         0         0         0         0         0
         0         0         0         0         0         0         0         0
         0         0         0         0         0         0         0         0
         0         0         0         0         0         0         0         0
         0         0         0         0         0         0         0         0
         0         0         0         0         0         0         0         0
         0         0         0         0         0         0         0         0
         0         0         0         0         0         0         0         0
         0         0         0         0         0         0         0         0
         0         0         0         0         0         0         0         0
         0         0         0         0         0         0         0         0
         0         0         0         0         0         0         0         0
         0         0         0         0         0         0         0         0
         0         0         0         0         0         0         0         0
         0         0         0         0         0         0         0         0
         0         0         0         0         0         0         0         0
         0         0         0         0         0         0         0         0
         0         0         0         0         0         0         0         0
         0         0         0         0         0         0         0         0
         0         0         0         0         0         0         0         0
         0         0         0         0         0         0         0         0
         0         0         0         0         0         0         0         0
         0         0         0         0         0         0         0         0
         0         0         0         0         0         0         0         0
         0         0         0         0         0         0         0         0
         0         0         0         0         0         0         0         0
         0         0         0         0         0         0         0         0
         0         0         0         0         0         0         0         0
         0         0         0         0         0         0         0         0
         0         0         0         0         0         0         0         0
         0         0         0         0         0         0         0         0
         0         0         0         0         0         0         0         0
         0         0         0         0         0         0         0         0
         0         0         0         0         0         0         0         0
         0         0         0         0         0         0         0         0
         0         0         0         0         0         0         0         0
         0         0         0         0         0         0         0         0
         0         0         0         0         0         0         0         0
         0         0         0         0         0         0         0         0
         0         0         0         0         0         0         0         0
         0         0         0         0         0         0         0         0
         0         0         0         0         0         0         0         0
         0         0         0         0         0         0         0         0
         0         0         0         0         0         0         0         0
         0         0         0         0         0         0         0         0
         0         0         0         0         0         0         0         0
         0         0         0         0         0         0         0         0
         0         0         0         0         0         0         0         0
         0         0         0         0         0         0         0         0
         0         0         0         0         0         0         0         0
         0         0         0         0         0         0         0         0
         0         0         0         0         0         0         0         0
         0         0         0         0         0         0         0         0
         0         0         0         0         0         0         0         0
         0         0         0         0         0         0         0         0
         0         0         0         0         0         0         0         0
         0         0         0         0         0         0         0         0
         0         0         0         0         0         0         0         0
         0         0         0         0         0         0         0         0
         0         0         0         0         0         0         0         0
         0         0         0         0         0         0         0         0
         0         0         0         0         0         0         0         0
         0         0         0         0         0         0         0         0
         0         0         0         0         0         0         0         0
         0         0         0         0         0         0         0         0
         0         0         0         0         0         0         0         0
         0         0         0         0         0         0         0         0
         0         0         0         0         0         0         0         0
         0         0         0         0         0         0         0         0
         0         0         0         0         0         0         0         0
         0         0         0         0         0         0         0         0
         0         0         0         0         0         0         0         0
         0         0         0         0         0         0         0         0
         0         0         0         0         0         0         0         0
         0         0         0         0         0         0         0         0
         0         0         0         0         0         0         0         0
         0         0         0         0         0         0         0         0
         0         0         0         0         0         0         0         0
         0         0         0         0         0         0         0         0
         0         0         0         0         0         0         0         0
         0         0         0         0         0         0         0         0
         0         0         0         0         0         0         0         0
         0         0         0         0         0         0         0         0
         0         0         0         0         0         0         0         0
         0         0         0         0         0         0         0         0
         0         0         0         0         0         0         0         0
         0         0         0         0         0         0         0         0
         0         0         0         0         0         0         0         0
         0         0         0         0         0         0         0         0
         0         0         0         0         0         0         0         0
         0         0         0         0         0         0         0         0
         0         0         0         0         0         0         0         0
         0         0         0         0         0         0         0         0
         0         0         0         0         0         0         0         0
         0         0         0         0         0         0         0         0
         0         0         0         0         0         0         0         0
         0         0         0         0         0         0         0         0
         0         0         0         0         0         0         0         0
         0         0         0         0         0         0         0         0
         0         0         0         0         0         0         0         0
         0         0         0         0         0         0         0         0
         0         0         0         0         0         0         0         0
         0         0         0         0         0         0         0         0
         0         0         0         0         0         0         0         0
         0         0         0         0         0         0         0         0
         0         0         0         0         0         0         0         0
         0         0         0         0         0         0         0         0
         0         0         0         0         0         0         0         0
         0         0         0         0         0         0         0         0
         0         0         0         0         0         0         0         0
         0         0         0         0         0         0         0         0
         0         0         0         0         0         0         0         0
         0         0         0         0         0         0         0         0
         0         0         0         0         0         0         0         0
         0         0         0         0         0         0         0         0
         0         0         0         0         0         0         0         0
         0         0         0         0         0         0         0         0
         0         0         0         0         0         0         0         0
         0         0         0         0         0         0         0         0
         0         0         0         0         0         0         0         0
         0         0         0         0         0         0         0         0
         0         0         0         0         0         0         0         0
         0         0         0         0         0         0         0         0
         0         0         0         0         0         0         0         0
         0         0         0         0         0         0         0         0
         0         0         0         0         0         0         0         0
         0         0         0         0         0         0         0         0
         0         0         0         0         0         0         0         0
         0         0         0         0         0         0         0         0
         0         0         0         0         0         0         0         0
         0         0         0         0         0         0         0         0
         0         0         0         0         0         0         0         0
         0         0         0         0         0         0         0         0
         0         0         0         0         0         0         0         0
         0         0         0         0         0         0         0         0
         0         0         0         0         0         0         0         0
         0         0         0         0         0         0         0         0
         0         0         0         0         0         0         0         0
         0         0         0         0         0         0         0         0
         0         0         0         0         0         0         0         0
         0         0         0         0         0         0         0         0
         0         0         0         0         0         0         0         0
         0         0         0         0         0         0         0         0
         0         0         0         0         0         0         0         0
         0         0         0         0         0         0         0         0
         0         0         0         0         0         0         0         0
         0         0         0         0         0         0         0         0
         0         0         0         0         0         0         0         0
         0         0         0         0         0         0         0         0
         0         0         0         0         0         0         0         0
         0         0         0         0         0         0         0         0
         0         0         0         0         0         0         0         0
         0         0         0         0         0         0         0         0
         0         0         0         0         0         0         0         0
         0         0         0         0         0         0         0         0
         0         0         0         0         0         0         0         0
         0         0         0         0         0         0         0         0
         0         0         0         0         0         0         0         0
         0         0         0         0         0         0         0         0
         0         0         0         0         0         0         0         0
         0         0         0         0         0         0         0         0
         0         0         0         0         0         0         0         0
         0         0         0         0         0         0         0         0
         0         0         0         0         0         0         0         0
         0         0         0         0         0         0         0         0
         0         0         0         0         0         0         0         0
         0         0         0         0         0         0         0         0
         0         0         0         0         0         0         0         0
         0         0         0         0         0         0         0         0
         0         0         0         0         0         0         0         0
         0         0         0         0         0         0         0         0
         0         0         0         0         0         0         0         0
         0         0         0         0         0         0         0         0
         0         0         0         0         0         0         0         0
         0         0         0         0         0         0         0         0
         0         0         0         0         0         0         0         0
         0         0         0         0         0         0         0         0
         0         0         0         0         0         0         0         0
         0         0         0         0         0         0         0         0
         0         0         0         0         0         0         0         0
         0         0         0         0         0         0         0         0
         0         0         0         0         0         0         0         0
         0         0         0         0         0         0         0         0
         0         0         0         0         0         0         0         0
         0         0         0         0         0         0         0         0
         0         0         0         0         0         0         0         0
         0         0         0         0         0         0         0         0
         0         0         0         0         0         0         0         0
         0         0         0         0         0         0         0         0
         0         0         0         0         0         0         0         0
         0         0         0         0         0         0         0         0
         0         0         0         0         0         0         0         0
         0         0         0         0         0         0         0         0
         0         0         0         0         0         0         0         0
         0         0         0         0         0         0         0         0
         0         0         0         0         0         0         0         0
         0         0         0         0         0         0         0         0
         0         0         0         0         0         0         0         0
         0         0         0         0         0         0         0         0
         0         0         0         0         0         0         0         0
         0         0         0         0         0         0         0         0
         0         0         0         0         0         0         0         0
         0         0         0         0         0         0         0         0
         0         0         0         0         0         0         0         0
         0         0         0         0         0         0         0         0
         0         0         0         0         0         0         0         0
         0         0         0         0         0         0         0         0
         0         0         0         0         0         0         0         0
         0         0         0         0         0         0         0         0
         0         0         0         0         0         0         0         0
         0         0         0         0         0         0         0         0
         0         0         0         0         0         0         0         0
         0         0         0         0         0         0         0         0
         0         0         0         0         0         0         0         0
         0         0         0         0         0         0         0         0
         0         0         0         0         0         0         0         0
         0         0         0         0         0         0         0         0
         0         0         0         0         0         0         0         0
         0         0         0         0         0         0         0         0
         0         0         0         0         0         0         0         0
         0         0         0         0         0         0         0         0
         0         0         0         0         0         0         0         0
         0         0         0         0         0         0         0         0
         0         0         0         0         0         0         0         0
         0         0         0         0         0         0         0         0
         0         0         0         0         0         0         0         0
         0         0         0         0         0         0         0         0
         0         0         0         0         0         0         0         0
         0         0         0         0         0         0         0         0
         0         0         0         0         0         0         0         0
         0         0         0         0         0         0         0         0
         0         0         0         0         0         0         0         0
         0         0         0         0         0         0         0         0
         0         0         0         0         0         0         0         0
         0         0         0         0         0         0         0         0
         0         0         0         0         0         0         0         0
         0         0         0         0         0         0         0         0
         0         0         0         0         0         0         0         0
         0         0         0         0         0         0         0         0
         0         0         0         0         0         0         0         0
         0         0         0         0         0         0         0         0
         0         0         0         0         0         0         0         0
         0         0         0         0         0         0         0         0
         0         0         0         0         0         0         0         0
         0         0         0         0         0         0         0         0
         0         0         0         0         0         0         0         0
         0         0         0         0         0         0         0         0
         0         0         0         0         0         0         0         0
         0         0         0         0         0         0         0         0
         0         0         0         0         0         0         0         0
         0         0         0         0         0         0         0         0
         0         0         0         0         0         0         0         0
         0         0         0         0         0         0         0         0
         0         0         0         0         0         0         0         0
         0         0         0         0         0         0         0         0
         0         0         0         0         0         0         0         0
         0         0         0         0         0         0         0         0
         0         0         0         0         0         0         0         0
         0         0         0         0         0         0         0         0
         0         0         0         0         0         0         0         0
         0         0         0         0         0         0         0         0
         0         0         0         0         0         0         0         0
         0         0         0         0         0         0         0         0
         0         0         0         0         0         0         0         0
         0         0         0         0         0         0         0         0
         0         0         0         0         0         0         0         0
         0         0         0         0         0         0         0         0
         0         0         0         0         0         0         0         0
         0         0         0         0         0         0         0         0
         0         0         0         0         0         0         0         0
         0         0         0         0         0         0         0         0
         0         0         0         0         0         0         0         0
         0         0         0         0         0         0         0         0
         0         0         0         0         0         0         0         0
         0         0         0         0         0         0         0         0
         0         0         0         0         0         0         0         0
         0         0         0         0         0         0         0         0
         0         0         0         0         0         0         0         0
         0         0         0         0         0         0         0         0
         0         0         0         0         0         0         0         0
         0         0         0         0         0         0         0         0
         0         0         0         0         0         0         0         0
         0         0         0         0         0         0         0         0
         0         0         0         0         0         0         0         0
         0         0         0         0         0         0         0         0
         0         0         0         0         0         0         0         0
         0         0         0         0         0         0         0         0
         0         0         0         0         0         0         0         0
         0         0         0         0         0         0         0         0
         0         0         0         0         0         0         0         0
         0         0         0         0         0         0         0         0
         0         0         0         0         0         0         0         0
         0         0         0         0         0         0         0         0
         0         0         0         0         0         0         0         0
         0         0         0         0         0         0         0         0
         0         0         0         0         0         0         0         0
         0         0         0         0         0         0         0         0
         0         0         0         0         0         0         0         0
         0         0         0         0         0         0         0         0
         0         0         0         0         0         0         0         0
         0         0         0         0         0         0         0         0
         0         0         0         0         0         0         0         0
         0         0         0         0         0         0         0         0
         0         0         0         0         0         0         0         0
         0         0         0         0         0         0         0         0
         0         0         0         0         0         0         0         0
         0         0         0         0         0         0         0         0
         0         0         0         0         0         0         0         0
         0         0         0         0         0         0         0         0
         0         0         0         0         0         0         0         0
         0         0         0         0         0         0         0         0
         0         0         0         0         0         0         0         0
         0         0         0         0         0         0         0         0
         0         0         0         0         0         0         0         0
         0         0         0         0         0         0         0         0
         0         0         0         0         0         0         0         0
         0         0         0         0         0         0         0         0
         0         0         0         0         0         0         0         0
         0         0         0         0         0         0         0         0
         0         0         0         0         0         0         0         0
         0         0         0         0         0         0         0         0
         0         0         0         0         0         0         0         0
         0         0         0         0         0         0         0         0
         0         0         0         0         0         0         0         0
         0         0         0         0         0         0         0         0
         0         0         0         0         0         0         0         0
         0         0         0         0         0         0         0         0
         0         0         0         0         0         0         0         0
         0         0         0         0         0         0         0         0
         0         0         0         0         0         0         0         0
         0         0         0         0         0         0         0         0
         0         0         0         0         0         0         0         0
         0         0         0         0         0         0         0         0
         0         0         0         0         0         0         0         0
         0         0         0         0         0         0         0         0
         0         0         0         0         0         0         0         0
         0         0         0         0         0         0         0         0
         0         0         0         0         0         0         0         0
         0         0         0         0         0         0         0         0
         0         0         0         0         0         0         0         0
         0         0         0         0         0         0         0         0
         0         0         0         0         0         0         0         0
         0         0         0         0         0         0         0         0
         0         0         0         0         0         0         0         0
         0         0         0         0         0         0         0         0
         0         0         0         0         0         0         0         0
         0         0         0         0         0         0         0         0
         0         0         0         0         0         0         0         0
         0         0         0         0         0         0         0         0
         0         0         0         0         0         0         0         0
         0         0         0         0         0         0         0         0
         0         0         0         0         0         0         0         0
         0         0         0         0         0         0         0         0
         0         0         0         0         0         0         0         0
         0         0         0         0         0         0         0         0
         0         0         0         0         0         0         0         0
         0         0         0         0         0         0         0         0
         0         0         0         0         0         0         0         0
         0         0         0         0         0         0         0         0
         0         0         0         0         0         0         0         0
         0         0         0         0         0         0         0         0
         0         0         0         0         0         0         0         0
         0         0         0         0         0         0         0         0
         0         0         0         0         0         0         0         0
         0         0         0         0         0         0         0         0
         0         0         0         0         0         0         0         0
         0         0         0         0         0         0         0         0
         0         0         0         0         0         0         0         0
         0         0         0         0         0         0         0         0
         0         0         0         0         0         0         0         0
         0         0         0         0         0         0         0         0
         0         0         0         0         0         0         0         0
         0         0         0         0         0         0         0         0
         0         0         0         0         0         0         0         0
         0         0         0         0         0         0         0         0
         0         0         0         0         0         0         0         0
         0         0         0         0         0         0         0         0
         0         0         0         0         0         0         0         0
         0         0         0         0         0         0         0         0
         0         0         0         0         0         0         0         0
         0         0         0         0         0         0         0         0
         0         0         0         0         0         0         0         0
         0         0         0         0         0         0         0         0
         0         0         0         0         0         0         0         0
         0         0         0         0         0         0         0         0
         0         0         0         0         0         0         0         0
         0         0         0         0         0         0         0         0
         0         0         0         0         0         0         0         0
         0         0         0         0         0         0         0         0
         0         0         0         0         0         0         0         0
         0         0         0         0         0         0         0         0
         0         0         0         0         0         0         0         0
         0         0         0         0         0         0         0         0
         0         0         0         0         0         0         0         0
         0         0         0         0         0         0         0         0
         0         0         0         0         0         0         0         0
         0         0         0         0         0         0         0         0
         0         0         0         0         0         0         0         0
         0         0         0         0         0         0         0         0
         0         0         0         0         0         0         0         0
         0         0         0         0         0         0         0         0
         0         0         0         0         0         0         0         0
         0         0         0         0         0         0         0         0
         0         0         0         0         0         0         0         0
         0         0         0         0         0         0         0         0
         0         0         0         0         0         0         0         0
         0         0         0         0         0         0         0         0
         0         0         0         0         0         0         0         0
         0         0         0         0         0         0         0         0
         0         0         0         0         0         0         0         0
         0         0         0         0         0         0         0         0
         0         0         0         0         0         0         0         0
         0         0         0         0         0         0         0         0
         0         0         0         0         0         0         0         0
         0         0         0         0         0         0         0         0
         0         0         0         0         0         0         0         0
         0         0         0         0         0         0         0         0
         0         0         0         0         0         0         0         0
         0         0         0         0         0         0         0         0
         0         0         0         0         0         0         0         0
         0         0         0         0         0         0         0         0
         0         0         0         0         0         0         0         0
         0         0         0         0         0         0         0         0
         0         0         0         0         0         0         0         0
         0         0         0         0         0         0         0         0
         0         0         0         0         0         0         0         0
         0         0         0         0         0         0         0         0
         0         0         0         0         0         0         0         0
         0         0         0         0         0         0         0         0
         0         0         0         0         0         0         0         0
         0         0         0         0         0         0         0         0
         0         0         0         0         0         0         0         0
         0         0         0         0         0         0         0         0
         0         0         0         0         0         0         0         0
         0         0         0         0         0         0         0         0
         0         0         0         0         0         0         0         0
         0         0         0         0         0         0         0         0
         0         0         0         0         0         0         0         0
         0         0         0         0         0         0         0         0
         0         0         0         0         0         0         0         0
         0         0         0         0         0         0         0         0
         0         0         0         0         0         0         0         0
         0         0         0         0         0         0         0         0
         0         0         0         0         0         0         0         0
         0         0         0         0         0         0         0         0
         0         0         0         0         0         0         0         0
         0         0         0         0         0         0         0         0
         0         0         0         0         0         0         0         0
         0         0         0         0         0         0         0         0
         0         0         0         0         0         0         0         0
         0         0         0         0         0         0         0         0
         0         0         0         0         0         0         0         0
         0         0         0         0         0         0         0         0
         0         0         0         0         0         0         0         0
         0         0         0         0         0         0         0         0
         0         0         0         0         0         0         0         0
         0         0         0         0         0         0         0         0
         0         0         0         0         0         0         0         0
         0         0         0         0         0         0         0         0
         0         0         0         0         0         0         0         0
         0         0         0         0         0         0         0         0
         0         0         0         0         0         0         0         0
         0         0         0         0         0         0         0         0
         0         0         0         0         0         0         0         0
         0         0         0         0         0         0         0         0
         0         0         0         0         0         0         0         0
         0         0         0         0         0         0         0         0
         0         0         0         0         0         0         0         0
         0         0         0         0         0         0         0         0
         0         0         0         0         0         0         0         0
         0         0         0         0         0         0         0         0
         0         0         0         0         0         0         0         0
         0         0         0         0         0         0         0         0
         0         0         0         0         0         0         0         0
         0         0         0         0         0         0         0         0
         0         0         0         0         0         0         0         0
         0         0         0         0         0         0         0         0
         0         0         0         0         0         0         0         0
         0         0         0         0         0         0         0         0
         0         0         0         0         0         0         0         0
         0         0         0         0         0         0         0         0
         0         0         0         0         0         0         0         0
         0         0         0         0         0         0         0         0
         0         0         0         0         0         0         0         0
         0         0         0         0         0         0         0         0
         0         0         0         0         0         0         0         0
         0         0         0         0         0         0         0         0
         0         0         0         0         0         0         0         0
         0         0         0         0         0         0         0         0
         0         0         0         0         0         0         0         0
         0         0         0         0         0         0         0         0
         0         0         0         0         0         0         0         0
         0         0         0         0         0         0         0         0
         0         0         0         0         0         0         0         0
         0         0         0         0         0         0         0         0
         0         0         0         0         0         0         0         0
         0         0         0         0         0         0         0         0
         0         0         0         0         0         0         0         0
         0         0         0         0         0         0         0         0
         0         0         0         0         0         0         0         0
         0         0         0         0         0         0         0         0
         0         0         0         0         0         0         0         0
         0         0         0         0         0         0         0         0
         0         0         0         0         0         0         0         0
         0         0         0         0         0         0         0         0
         0         0         0         0         0         0         0         0
         0         0         0         0         0         0         0         0
         0         0         0         0         0         0         0         0
         0         0         0         0         0         0         0         0
         0         0         0         0         0         0         0         0
         0         0         0         0         0         0         0         0
         0         0         0         0         0         0         0         0
         0         0         0         0         0         0         0         0
         0         0         0         0         0         0         0         0
         0         0         0         0         0         0         0         0
         0         0         0         0         0         0         0         0
         0         0         0         0         0         0         0         0
         0         0         0         0         0         0         0         0
         0         0         0         0         0         0         0         0
         0         0         0         0         0         0         0         0
         0         0         0         0         0         0         0         0
         0         0         0         0         0         0         0         0
         0         0         0         0         0         0         0         0
         0         0         0         0         0         0         0         0
         0         0         0         0         0         0         0         0
         0         0         0         0         0         0         0         0
         0         0         0         0         0         0         0         0
         0         0         0         0         0         0         0         0
         0         0         0         0         0         0         0         0
         0         0         0         0         0         0         0         0
         0         0         0         0         0         0         0         0
         0         0         0         0         0         0         0         0
         0         0         0         0         0         0         0         0
         0         0         0         0         0         0         0         0
         0         0         0         0         0         0         0         0
         0         0         0         0         0         0         0         0
         0         0         0         0         0         0         0         0
         0         0         0         0         0         0         0         0
         0         0         0         0         0         0         0         0
         0         0         0         0         0         0         0         0
         0         0         0         0         0         0         0         0
         0         0         0         0         0         0         0         0
         0         0         0         0         0         0         0         0
         0         0         0         0         0         0         0         0
         0         0         0         0         0         0         0         0
         0         0         0         0         0         0         0         0
         0         0         0         0         0         0         0         0
         0         0         0         0         0         0         0         0
         0         0         0         0         0         0         0         0
         0         0         0         0         0         0         0         0
         0         0         0         0         0         0         0         0
         0         0         0         0         0         0         0         0
         0         0         0         0         0         0         0         0
         0         0         0         0         0         0         0         0
         0         0         0         0         0         0         0         0
         0         0         0         0         0         0         0         0
         0         0         0         0         0         0         0         0
         0         0         0         0         0         0         0         0
         0         0         0         0         0         0         0         0
         0         0         0         0         0         0         0         0
         0         0         0         0         0         0         0         0
         0         0         0         0         0         0         0         0
         0         0         0         0         0         0         0         0
         0         0         0         0         0         0         0         0
         0         0         0         0         0         0         0         0
         0         0         0         0         0         0         0         0
         0         0         0         0         0         0         0         0
         0         0         0         0         0         0         0         0
         0         0         0         0         0         0         0         0
         0         0         0         0         0         0         0         0
         0         0         0         0         0         0         0         0
         0         0         0         0         0         0         0         0
         0         0         0         0         0         0         0         0
         0         0         0         0         0         0         0         0
         0         0         0         0         0         0         0         0
         0         0         0         0         0         0         0         0
         0         0         0         0         0         0         0         0
         0         0         0         0         0         0         0         0
         0         0         0         0         0         0         0         0
         0         0         0         0         0         0         0         0
         0         0         0         0         0         0         0         0
         0         0         0         0         0         0         0         0
         0         0         0         0         0         0         0         0
         0         0         0         0         0         0         0         0
         0         0         0         0         0         0         0         0
         0         0         0         0         0         0         0         0
         0         0         0         0         0         0         0         0
         0         0         0         0         0         0         0         0
         0         0         0         0         0         0         0         0
         0         0         0         0         0         0         0         0
         0         0         0         0         0         0         0         0
         0         0         0         0         0         0         0         0
         0         0         0         0         0         0         0         0
         0         0         0         0         0         0         0         0
         0         0         0         0         0         0         0         0
         0         0         0         0         0         0         0         0
         0         0         0         0         0         0         0         0
         0         0         0         0         0         0         0         0
         0         0         0         0         0         0         0         0
         0         0         0         0         0         0         0         0
         0         0         0         0         0         0         0         0
         0         0         0         0         0         0         0         0
         0         0         0         0         0         0         0         0
         0         0         0         0         0         0         0         0
         0         0         0         0         0         0         0         0
         0         0         0         0         0         0         0         0
         0         0         0         0         0         0         0         0
         0         0         0         0         0         0         0         0
         0         0         0         0         0         0         0         0
         0         0         0         0         0         0         0         0
         0         0         0         0         0         0         0         0
         0         0         0         0         0         0         0         0
         0         0         0         0         0         0         0         0
         0         0         0         0         0         0         0         0
         0         0         0         0         0         0         0         0
         0         0         0         0         0         0         0         0
         0         0         0         0         0         0         0         0
         0         0         0         0         0         0         0         0
         0         0         0         0         0         0         0         0
         0         0         0         0         0         0         0         0
         0         0         0         0         0         0         0         0
         0         0         0         0         0         0         0         0
         0         0         0         0         0         0         0         0
         0         0         0         0         0         0         0         0
         0         0         0         0         0         0         0         0
         0         0         0         0         0         0         0         0
         0         0         0         0         0         0         0         0
         0         0         0         0         0         0         0         0
         0         0         0         0         0         0         0         0
         0         0         0         0         0         0         0         0
         0         0         0         0         0         0         0         0
         0         0         0         0         0         0         0         0
         0         0         0         0         0         0         0         0
         0         0         0         0         0         0         0         0
         0         0         0         0         0         0         0         0
         0         0         0         0         0         0         0         0
         0         0         0         0         0         0         0         0
         0         0         0         0         0         0         0         0
         0         0         0         0         0         0         0         0
         0         0         0         0         0         0         0         0
         0         0         0         0         0         0         0         0
         0         0         0         0         0         0         0         0
         0         0         0         0         0         0         0         0
         0         0         0         0         0         0         0         0
         0         0         0         0         0         0         0         0
         0         0         0         0         0         0         0         0
         0         0         0         0         0         0         0         0
         0         0         0         0         0         0         0         0
         0         0         0         0         0         0         0         0
         0         0         0         0         0         0         0         0
         0         0         0         0         0         0         0         0
         0         0         0         0         0         0         0         0
         0         0         0         0         0         0         0         0
         0         0         0         0         0         0         0         0
         0         0         0         0         0         0         0         0
         0         0         0         0         0         0         0         0
         0         0         0         0         0         0         0         0
         0         0         0         0         0         0         0         0
         0         0         0         0         0         0         0         0
         0         0         0         0         0         0         0         0
         0         0         0         0         0         0         0         0
         0         0         0         0         0         0         0         0
         0         0         0         0         0         0         0         0
         0         0         0         0         0         0         0         0
         0         0         0         0         0         0         0         0
         0         0         0         0         0         0         0         0
         0         0         0         0         0         0         0         0
         0         0         0         0         0         0         0         0
         0         0         0         0         0         0         0         0
         0         0         0         0         0         0         0         0
         0         0         0         0         0         0         0         0
         0         0         0         0         0         0         0         0
         0         0         0         0         0         0         0         0
         0         0         0         0         0         0         0         0
         0         0         0         0         0         0         0         0
         0         0         0         0         0         0         0         0
         0         0         0         0         0         0         0         0
         0         0         0         0         0         0         0         0
         0         0         0         0         0         0         0         0
         0         0         0         0         0         0         0         0
         0         0         0         0         0         0         0         0
         0         0         0         0         0         0         0         0
         0         0         0         0         0         0         0         0
         0         0         0         0         0         0         0         0
         0         0         0         0         0         0         0         0
         0         0         0         0         0         0         0         0
         0         0         0         0         0         0         0         0
         0         0         0         0         0         0         0         0
         0         0         0         0         0         0         0         0
         0         0         0         0         0         0         0         0
         0         0         0         0         0         0         0         0
         0         0         0         0         0         0         0         0
         0         0         0         0         0         0         0         0
         0         0         0         0         0         0         0         0
         0         0         0         0         0         0         0         0
         0         0         0         0         0         0         0         0
         0         0         0         0         0         0         0         0
         0         0         0         0         0         0         0         0
         0         0         0         0         0         0         0         0
         0         0         0         0         0         0         0         0
         0         0         0         0         0         0         0         0
         0         0         0         0         0         0         0         0
         0         0         0         0         0         0         0         0
         0         0         0         0         0         0         0         0
         0         0         0         0         0         0         0         0
         0         0         0         0         0         0         0         0
         0         0         0         0         0         0         0         0
         0         0         0         0         0         0         0         0
         0         0         0         0         0         0         0         0
         0         0         0         0         0         0         0         0
         0         0         0         0         0         0         0         0
         0         0         0         0         0         0         0         0
         0         0         0         0         0         0         0         0
         0         0         0         0         0         0         0         0
         0         0         0         0         0         0         0         0
         0         0         0         0         0         0         0         0
         0         0         0         0         0         0         0         0
         0         0         0         0         0         0         0         0
         0         0         0         0         0         0         0         0
         0         0         0         0         0         0         0         0
         0         0         0         0         0         0         0         0
         0         0         0         0         0         0         0         0
         0         0         0         0         0         0         0         0
         0         0         0         0         0         0         0         0
         0         0         0         0         0         0         0         0
         0         0         0         0         0         0         0         0
         0         0         0         0         0         0         0         0
         0         0         0         0         0         0         0         0
         0         0         0         0         0         0         0         0
         0         0         0         0         0         0         0         0
         0         0         0         0         0         0         0         0
         0         0         0         0         0         0         0         0
         0         0         0         0         0         0         0         0
         0         0         0         0         0         0         0         0
         0         0         0         0         0         0         0         0
         0         0         0         0         0         0         0         0
         0         0         0         0         0         0         0         0
         0         0         0         0         0         0         0         0
         0         0         0         0         0         0         0         0
         0         0         0         0         0         0         0         0
         0         0         0         0         0         0         0         0
         0         0         0         0         0         0         0         0
         0         0         0         0         0         0         0         0
         0         0         0         0         0         0         0         0
         0         0         0         0         0         0         0         0
         0         0         0         0         0         0         0         0
         0         0         0         0         0         0         0         0
         0         0         0         0         0         0         0         0
         0         0         0         0         0         0         0         0
         0         0         0         0         0         0         0         0
         0         0         0         0         0         0         0         0
         0         0         0         0         0         0         0         0
         0         0         0         0         0         0         0         0
         0         0         0         0         0         0         0         0
         0         0         0         0         0         0         0         0
         0         0         0         0         0         0         0         0
         0         0         0         0         0         0         0         0
         0         0         0         0         0         0         0         0
         0         0         0         0         0         0         0         0
         0         0         0         0         0         0         0         0
         0         0         0         0         0         0         0         0
         0         0         0         0         0         0         0         0
         0         0         0         0         0         0         0         0
         0         0         0         0         0         0         0         0
         0         0         0         0         0         0         0         0
         0         0         0         0         0         0         0         0
         0         0         0         0         0         0         0         0
         0         0         0         0         0         0         0         0
         0         0         0         0         0         0         0         0
         0         0         0         0         0         0         0         0
         0         0         0         0         0         0         0         0
         0         0         0         0         0         0         0         0
         0         0         0         0         0         0         0         0
         0         0         0         0         0         0         0         0
         0         0         0         0         0         0         0         0
         0         0         0         0         0         0         0         0
         0         0         0         0         0         0         0         0
         0         0         0         0         0         0         0         0
         0         0         0         0         0         0         0         0
         0         0         0         0         0         0         0         0
         0         0         0         0         0         0         0         0
         0         0         0         0         0         0         0         0
         0         0         0         0         0         0         0         0
         0         0         0         0         0         0         0         0
         0         0         0         0         0         0         0         0
         0         0         0         0         0         0         0         0
         0         0         0         0         0         0         0         0
         0         0         0         0         0         0         0         0
         0         0         0         0         0         0         0         0
         0         0         0         0         0         0         0         0
         0         0         0         0         0         0         0         0
         0         0         0         0         0         0         0         0
         0         0         0         0         0         0         0         0
         0         0         0         0         0         0         0         0
         0         0         0         0         0         0         0         0
         0         0         0         0         0         0         0         0
         0         0         0         0         0         0         0         0
         0         0         0         0         0         0         0         0
         0         0         0         0         0         0         0         0
         0         0         0         0         0         0         0         0
         0         0         0         0         0         0         0         0
         0         0         0         0         0         0         0         0
         0         0         0         0         0         0         0         0
         0         0         0         0         0         0         0         0
         0         0         0         0         0         0         0         0
         0         0         0         0         0         0         0         0
         0         0         0         0         0         0         0         0
         0         0         0         0         0         0         0         0
         0         0         0         0         0         0         0         0
         0         0         0         0         0         0         0         0
         0         0         0         0         0         0         0         0
         0         0         0         0         0         0         0         0
         0         0         0         0         0         0         0         0
         0         0         0         0         0         0         0         0
         0         0         0         0         0         0         0         0
         0         0         0         0         0         0         0         0
         0         0         0         0         0         0         0         0
         0         0         0         0         0         0         0         0
         0         0         0         0         0         0         0         0
         0         0         0         0         0         0         0         0
         0         0         0         0         0         0         0         0
         0         0         0         0         0         0         0         0
         0         0         0         0         0         0         0         0
         0         0         0         0         0         0         0         0
         0         0         0         0         0         0         0         0
         0         0         0         0         0         0         0         0
         0         0         0         0         0         0         0         0
         0         0         0         0         0         0         0         0
         0         0         0         0         0         0         0         0
         0         0         0         0         0         0         0         0
         0         0         0         0         0         0         0         0
         0         0         0         0         0         0         0         0
         0         0         0         0         0         0         0         0
         0         0         0         0         0         0         0         0
         0         0         0         0         0         0         0         0
         0         0         0         0         0         0         0         0
         0         0         0         0         0         0         0         0
         0         0         0         0         0         0         0         0
         0         0         0         0         0         0         0         0
         0         0         0         0         0         0         0         0
         0         0         0         0         0         0         0         0
         0         0         0         0         0         0         0         0
         0         0         0         0         0         0         0         0
         0         0         0         0         0         0         0         0
         0         0         0         0         0         0         0         0
         0         0         0         0         0         0         0         0
         0         0         0         0         0         0         0         0
         0         0         0         0         0         0         0         0
         0         0         0         0         0         0         0         0
         0         0         0         0         0         0         0         0
         0         0         0         0         0         0         0         0
         0         0         0         0         0         0         0         0
         0         0         0         0         0         0         0         0
         0         0         0         0         0         0         0         0
         0         0         0         0         0         0         0         0
         0         0         0         0         0         0         0         0
         0         0         0         0         0         0         0         0
         0         0         0         0         0         0         0         0
         0         0         0         0         0         0         0         0
         0         0         0         0         0         0         0         0
         0         0         0         0         0         0         0         0
         0         0         0         0         0         0         0         0
         0         0         0         0         0         0         0         0
         0         0         0         0         0         0         0         0
         0         0         0         0         0         0         0         0
         0         0         0         0         0         0         0         0
         0         0         0         0         0         0         0         0
         0         0         0         0         0         0         0         0
         0         0         0         0         0         0         0         0
         0         0         0         0         0         0         0         0
         0         0         0         0         0         0         0         0
         0         0         0         0         0         0         0         0
         0         0         0         0         0         0         0         0
         0         0         0         0         0         0         0         0
         0         0         0         0         0         0         0         0
         0         0         0         0         0         0         0         0
         0         0         0         0         0         0         0         0
         0         0         0         0         0         0         0         0
         0         0         0         0         0         0         0         0
         0         0         0         0         0         0         0         0
         0         0         0         0         0         0         0         0
         0         0         0         0         0         0         0         0
         0         0         0         0         0         0         0         0
         0         0         0         0         0         0         0         0
         0         0         0         0         0         0         0         0
         0         0         0         0         0         0         0         0
         0         0         0         0         0         0         0         0
         0         0         0         0         0         0         0         0
         0         0         0         0         0         0         0         0
         0         0         0         0         0         0         0         0
         0         0         0         0         0         0         0         0
         0         0         0         0         0         0         0         0
         0         0         0         0         0         0         0         0
         0         0         0         0         0         0         0         0
         0         0         0         0         0         0         0         0
         0         0         0         0         0         0         0         0
         0         0         0         0         0         0         0         0
         0         0         0         0         0         0         0         0
         0         0         0         0         0         0         0         0
         0         0         0         0         0         0         0         0
         0         0         0         0         0         0         0         0
         0         0         0         0         0         0         0         0
         0         0         0         0         0         0         0         0
         0         0         0         0         0         0         0         0
         0         0         0         0         0         0         0         0
         0         0         0         0         0         0         0         0
         0         0         0         0         0         0         0         0
         0         0         0         0         0         0         0         0
         0         0         0         0         0         0         0         0
         0         0         0         0         0         0         0         0
         0         0         0         0         0         0         0         0
         0         0         0         0         0         0         0         0
         0         0         0         0         0         0         0         0
         0         0         0         0         0         0         0         0
         0         0         0         0         0         0         0         0
         0         0         0         0         0         0         0         0
         0         0         0         0         0         0         0         0
         0         0         0         0         0         0         0         0
         0         0         0         0         0         0         0         0
         0         0         0         0         0         0         0         0
         0         0         0         0         0         0         0         0
         0         0         0         0         0         0         0         0
         0         0         0         0         0         0         0         0
         0         0         0         0         0         0         0         0
         0         0         0         0         0         0         0         0
         0         0         0         0         0         0         0         0
         0         0         0         0         0         0         0         0
         0         0         0         0         0         0         0         0
         0         0         0         0         0         0         0         0
         0         0         0         0         0         0         0         0
         0         0         0         0         0         0         0         0
         0         0         0         0         0         0         0         0
         0         0         0         0         0         0         0         0
         0         0         0         0         0         0         0         0
         0         0         0         0         0         0         0         0
         0         0         0         0         0         0         0         0
         0         0         0         0         0         0         0         0
         0         0         0         0         0         0         0         0
         0         0         0         0         0         0         0         0
         0         0         0         0         0         0         0         0
         0         0         0         0         0         0         0         0
         0         0         0         0         0         0         0         0
         0         0         0         0         0         0         0         0
         0         0         0         0         0         0         0         0
         0         0         0         0         0         0         0         0
         0         0         0         0         0         0         0         0
         0         0         0         0         0         0         0         0
         0         0         0         0         0         0         0         0
         0         0         0         0         0         0         0         0
         0         0         0         0         0         0         0         0
         0         0         0         0         0         0         0         0
         0         0         0         0         0         0         0         0
         0         0         0         0         0         0         0         0
         0         0         0         0         0         0         0         0
         0         0         0         0         0         0         0         0
         0         0         0         0         0         0         0         0
         0         0         0         0         0         0         0         0
         0         0         0         0         0         0         0         0
         0         0         0         0         0         0         0         0
         0         0         0         0         0         0         0         0
         0         0         0         0         0         0         0         0
         0         0         0         0         0         0         0         0
         0         0         0         0         0         0         0         0
         0         0         0         0         0         0         0         0
         0         0         0         0         0         0         0         0
         0         0         0         0         0         0         0         0
         0         0         0         0         0         0         0         0
         0         0         0         0         0         0         0         0
         0         0         0         0         0         0         0         0
         0         0         0         0         0         0         0         0
         0         0         0         0         0         0         0         0
         0         0         0         0         0         0         0         0
         0         0         0         0         0         0         0         0
         0         0         0         0         0         0         0         0
         0         0         0         0         0         0         0         0
         0         0         0         0         0         0         0         0
         0         0         0         0         0         0         0         0
         0         0         0         0         0         0         0         0
         0         0         0         0         0         0         0         0
         0         0         0         0         0         0         0         0
         0         0         0         0         0         0         0         0
         0         0         0         0         0         0         0         0
         0         0         0         0         0         0         0         0
         0         0         0         0         0         0         0         0
         0         0         0         0         0         0         0         0
         0         0         0         0         0         0         0         0
         0         0         0         0         0         0         0         0
         0         0         0         0         0         0         0         0
         0         0         0         0         0         0         0         0
         0         0         0         0         0         0         0         0
         0         0         0         0         0         0         0         0
         0         0         0         0         0         0         0         0
         0         0         0         0         0         0         0         0
         0         0         0         0         0         0         0         0
         0         0         0         0         0         0         0         0
         0         0         0         0         0         0         0         0
         0         0         0         0         0         0         0         0
         0         0         0         0         0         0         0         0
         0         0         0         0         0         0         0         0
         0         0         0         0         0         0         0         0
         0         0         0         0         0         0         0         0
         0         0         0         0         0         0         0         0
         0         0         0         0         0         0         0         0
         0         0         0         0         0         0         0         0
         0         0         0         0         0         0         0         0
         0         0         0         0         0         0         0         0
         0         0         0         0         0         0         0         0
         0         0         0         0         0         0         0         0
         0         0         0         0         0         0         0         0
         0         0         0         0         0         0         0         0
         0         0         0         0         0         0         0         0
         0         0         0         0         0         0         0         0
         0         0         0         0         0         0         0         0
         0         0         0         0         0         0         0         0
         0         0         0         0         0         0         0         0
         0         0         0         0         0         0         0         0
         0         0         0         0         0         0         0         0
         0         0         0         0         0         0         0         0
         0         0         0         0         0         0         0         0
         0         0         0         0         0         0         0         0
         0         0         0         0         0         0         0         0
         0         0         0         0         0         0         0         0
         0         0         0         0         0         0         0         0
         0         0         0         0         0         0         0         0
         0         0         0         0         0         0         0         0
         0         0         0         0         0         0         0         0
         0         0         0         0         0         0         0         0
         0         0         0         0         0         0         0         0
         0         0         0         0         0         0         0         0
         0         0         0         0         0         0         0         0
         0         0         0         0         0         0         0         0
         0         0         0         0         0         0         0         0
         0         0         0         0         0         0         0         0
         0         0         0         0         0         0         0         0
         0         0         0         0         0         0         0         0
         0         0         0         0         0         0         0         0
         0         0         0         0         0         0         0         0
         0         0         0         0         0         0         0         0
         0         0         0         0         0         0         0         0
         0         0         0         0         0         0         0         0
         0         0         0         0         0         0         0         0
         0         0         0         0         0         0         0         0
         0         0         0         0         0         0         0         0
         0         0         0         0         0         0         0         0
         0         0         0         0         0         0         0         0
         0         0         0         0         0         0         0         0
         0         0         0         0         0         0         0         0
         0         0         0         0         0         0         0         0
         0         0         0         0         0         0         0         0
         0         0         0         0         0         0         0         0
         0         0         0         0         0         0         0         0
         0         0         0         0         0         0         0         0
         0         0         0         0         0         0         0         0
         0         0         0         0         0         0         0         0
         0         0         0         0         0         0         0         0
         0         0         0         0         0         0         0         0
         0         0         0         0         0         0         0         0
         0         0         0         0         0         0         0         0
         0         0         0         0         0         0         0         0
         0         0         0         0         0         0         0         0
         0         0         0         0         0         0         0         0
         0         0         0         0         0         0         0         0
         0         0         0         0         0         0         0         0
         0         0         0         0         0         0         0         0
         0         0         0         0         0         0         0         0
         0         0         0         0         0         0         0         0
         0         0         0         0         0         0         0         0
         0         0         0         0         0         0         0         0
         0         0         0         0         0         0         0         0
         0         0         0         0         0         0         0         0
         0         0         0         0         0         0         0         0
         0         0         0         0         0         0         0         0
         0         0         0         0         0         0         0         0
         0         0         0         0         0         0         0         0
         0         0         0         0         0         0         0         0
         0         0         0         0         0         0         0         0
         0         0         0         0         0         0         0         0
         0         0         0         0         0         0         0         0
         0         0         0         0         0         0         0         0
         0         0         0         0         0         0         0         0
         0         0         0         0         0         0         0         0
         0         0         0         0         0         0         0         0
         0         0         0         0         0         0         0         0
         0         0         0         0         0         0         0         0
         0         0         0         0         0         0         0         0
         0         0         0         0         0         0         0         0
         0         0         0         0         0         0         0         0
         0         0         0         0         0         0         0         0
         0         0         0         0         0         0         0         0
         0         0         0         0         0         0         0         0
         0         0         0         0         0         0         0         0
         0         0         0         0         0         0         0         0
         0         0         0         0         0         0         0         0
         0         0         0         0         0         0         0         0
         0         0         0         0         0         0         0         0
         0         0         0         0         0         0         0         0
         0         0         0         0         0         0         0         0
         0         0         0         0         0         0         0         0
         0         0         0         0         0         0         0         0
         0         0         0         0         0         0         0         0
         0         0         0         0         0         0         0         0
         0         0         0         0         0         0         0         0
         0         0         0         0         0         0         0         0
         0         0         0         0         0         0         0         0
         0         0         0         0         0         0         0         0
         0         0         0         0         0         0         0         0
         0         0         0         0         0         0         0         0
         0         0         0         0         0         0         0         0
         0         0         0         0         0         0         0         0
         0         0         0         0         0         0         0         0
         0         0         0         0         0         0         0         0
         0         0         0         0         0         0         0         0
         0         0         0         0         0         0         0         0
         0         0         0         0         0         0         0         0
         0         0         0         0         0         0         0         0
         0         0         0         0         0         0         0         0
         0         0         0         0         0         0         0         0
         0         0         0         0         0         0         0         0
         0         0         0         0         0         0         0         0
         0         0         0         0         0         0         0         0
         0         0         0         0         0         0         0         0
         0         0         0         0         0         0         0         0
         0         0         0         0         0         0         0         0
         0         0         0         0         0         0         0         0
         0         0         0         0         0         0         0         0
         0         0         0         0         0         0         0         0
         0         0         0         0         0         0         0         0
         0         0         0         0         0         0         0         0
         0         0         0         0         0         0         0         0
         0         0         0         0         0         0         0         0
         0         0         0         0         0         0         0         0
         0         0         0         0         0         0         0         0
         0         0         0         0         0         0         0         0
         0         0         0         0         0         0         0         0
         0         0         0         0         0         0         0         0
         0         0         0         0         0         0         0         0
         0         0         0         0         0         0         0         0
         0         0         0         0         0         0         0         0
         0         0         0         0         0         0         0         0
         0         0         0         0         0         0         0         0
         0         0         0         0         0         0         0         0
         0         0         0         0         0         0         0         0
         0         0         0         0         0         0         0         0
         0         0         0         0         0         0         0         0
         0         0         0         0         0         0         0         0
         0         0         0         0         0         0         0         0
         0         0         0         0         0         0         0         0
         0         0         0         0         0         0         0         0
         0         0         0         0         0         0         0         0
         0         0         0         0         0         0         0         0
         0         0         0         0         0         0         0         0
         0         0         0         0         0         0         0         0
         0         0         0         0         0         0         0         0
         0         0         0         0         0         0         0         0
         0         0         0         0         0         0         0         0
         0         0         0         0         0         0         0         0
         0         0         0         0         0         0         0         0
         0         0         0         0         0         0         0         0
         0         0         0         0         0         0         0         0
         0         0         0         0         0         0         0         0
         0         0         0         0         0         0         0         0
         0         0         0         0         0         0         0         0
         0         0         0         0         0         0         0         0
         0         0         0         0         0         0         0         0
         0         0         0         0         0         0         0         0
         0         0         0         0         0         0         0         0
         0         0         0         0         0         0         0         0
         0         0         0         0         0         0         0         0
         0         0         0         0         0         0         0         0
         0         0         0         0         0         0         0         0
         0         0         0         0         0         0         0         0
         0         0         0         0         0         0         0         0
         0         0         0         0         0         0         0         0
         0         0         0         0         0         0         0         0
         0         0         0         0         0         0         0         0
         0         0         0         0         0         0         0         0
         0         0         0         0         0         0         0         0
         0         0         0         0         0         0         0         0
         0         0         0         0         0         0         0         0
         0         0         0         0         0         0         0         0
         0         0         0         0         0         0         0         0
         0         0         0         0         0         0         0         0
         0         0         0         0         0         0         0         0
         0         0         0         0         0         0         0         0
         0         0         0         0         0         0         0         0
         0         0         0         0         0         0         0         0
         0         0         0         0         0         0         0         0
         0         0         0         0         0         0         0         0
         0         0         0         0         0         0         0         0
         0         0         0         0         0         0         0         0
         0         0         0         0         0         0         0         0
         0         0         0         0         0         0         0         0
         0         0         0         0         0         0         0         0
         0         0         0         0         0         0         0         0
         0         0         0         0         0         0         0         0
         0         0         0         0         0         0         0         0
         0         0         0         0         0         0         0         0
         0         0         0         0         0         0         0         0
         0         0         0         0         0         0         0         0
         0         0         0         0         0         0         0         0
         0         0         0         0         0         0         0         0
         0         0         0         0         0         0         0         0
         0         0         0         0         0         0         0         0
         0         0         0         0         0         0         0         0
         0         0         0         0         0         0         0         0
         0         0         0         0         0         0         0         0
         0         0         0         0         0         0         0         0
         0         0         0         0         0         0         0         0
         0         0         0         0         0         0         0         0
         0         0         0         0         0         0         0         0
         0         0         0         0         0         0         0         0
         0         0         0         0         0         0         0         0
         0         0         0         0         0         0         0         0
         0         0         0         0         0         0         0         0
         0         0         0         0         0         0         0         0
         0         0         0         0         0         0         0         0
         0         0         0         0         0         0         0         0
         0         0         0         0         0         0         0         0
         0         0         0         0         0         0         0         0
         0         0         0         0         0         0         0         0
         0         0         0         0         0         0         0         0
         0         0         0         0         0         0         0         0
         0         0         0         0         0         0         0         0
         0         0         0         0         0         0         0         0
         0         0         0         0         0         0         0         0
         0         0         0         0         0         0         0         0
         0         0         0         0         0         0         0         0
         0         0         0         0         0         0         0         0
         0         0         0         0         0         0         0         0
         0         0         0         0         0         0         0         0
         0         0         0         0         0         0         0         0
         0         0         0         0         0         0         0         0
         0         0         0         0         0         0         0         0
         0         0         0         0         0         0         0         0
         0         0         0         0         0         0         0         0
         0         0         0         0         0         0         0         0
         0         0         0         0         0         0         0         0
         0         0         0         0         0         0         0         0
         0         0         0         0         0         0         0         0
         0         0         0         0         0         0         0         0
         0         0         0         0         0         0         0         0
         0         0         0         0         0         0         0         0
         0         0         0         0         0         0         0         0
         0         0         0         0         0         0         0         0
         0         0         0         0         0         0         0         0
         0         0         0         0         0         0         0         0
         0         0         0         0         0         0         0         0
         0         0         0         0         0         0         0         0
         0         0         0         0         0         0         0         0
         0         0         0         0         0         0         0         0
         0         0         0         0         0         0         0         0
         0         0         0         0         0         0         0         0
         0         0         0         0         0         0         0         0
         0         0         0         0         0         0         0         0
         0         0         0         0         0         0         0         0
         0         0         0         0         0         0         0         0
         0         0         0         0         0         0         0         0
         0         0         0         0         0         0         0         0
         0         0         0         0         0         0         0         0
         0         0         0         0         0         0         0         0
         0         0         0         0         0         0         0         0
         0         0         0         0         0         0         0         0
         0         0         0         0         0         0         0         0
         0         0         0         0         0         0         0         0
         0         0         0         0         0         0         0         0
         0         0         0         0         0         0         0         0
         0         0         0         0         0         0         0         0
         0         0         0         0         0         0         0         0
         0         0         0         0         0         0         0         0
         0         0         0         0         0         0         0         0
         0         0         0         0         0         0         0         0
         0         0         0         0         0         0         0         0
         0         0         0         0         0         0         0         0
         0         0         0         0         0         0         0         0
         0         0         0         0         0         0         0         0
         0         0         0         0         0         0         0         0
         0         0         0         0         0         0         0         0
         0         0         0         0         0         0         0         0
         0         0         0         0         0         0         0         0
         0         0         0         0         0         0         0         0
         0         0         0         0         0         0         0         0
         0         0         0         0         0         0         0         0
         0         0         0         0         0         0         0         0
         0         0         0         0         0         0         0         0
         0         0         0         0         0         0         0         0
         0         0         0         0         0         0         0         0
         0         0         0         0         0         0         0         0
         0         0         0         0         0         0         0         0
         0         0         0         0         0         0         0         0
         0         0         0         0         0         0         0         0
         0         0         0         0         0         0         0         0
         0         0         0         0         0         0         0         0
         0         0         0         0         0         0         0         0
         0         0         0         0         0         0         0         0
         0         0         0         0         0         0         0         0
         0         0         0         0         0         0         0         0
         0         0         0         0         0         0         0         0
         0         0         0         0         0         0         0         0
         0         0         0         0         0         0         0         0
         0         0         0         0         0         0         0         0
         0         0         0         0         0         0         0         0
         0         0         0         0         0         0         0         0
         0         0         0         0         0         0         0         0
         0         0         0         0         0         0         0         0
         0         0         0         0         0         0         0         0
         0         0         0         0         0         0         0         0
         0         0         0         0         0         0         0         0
         0         0         0         0         0         0         0         0
         0         0         0         0         0         0         0         0
         0         0         0         0         0         0         0         0
         0         0         0         0         0         0         0         0
         0         0         0         0         0         0         0         0
         0         0         0         0         0         0         0         0
         0         0         0         0         0         0         0         0
         0         0         0         0         0         0         0         0
         0         0         0         0         0         0         0         0
         0         0         0         0         0         0         0         0
         0         0         0         0         0         0         0         0
         0         0         0         0         0         0         0         0
         0         0         0         0         0         0         0         0
         0         0         0         0         0         0         0         0
         0         0         0         0         0         0         0         0
         0         0         0         0         0         0         0         0
         0         0         0         0         0         0         0         0
         0         0         0         0         0         0         0         0
         0         0         0         0         0         0         0         0
         0         0         0         0         0         0         0         0
         0         0         0         0         0         0         0         0
         0         0         0         0         0         0         0         0
         0         0         0         0         0         0         0         0
         0         0         0         0         0         0         0         0
         0         0         0         0         0         0         0         0
         0         0         0         0         0         0         0         0
         0         0         0         0         0         0         0         0
         0         0         0         0         0         0         0         0
         0         0         0         0         0         0         0         0
         0         0         0         0         0         0         0         0
         0         0         0         0         0         0         0         0
         0         0         0         0         0         0         0         0
         0         0         0         0         0         0         0         0
         0         0         0         0         0         0         0         0
         0         0         0         0         0         0         0         0
         0         0         0         0         0         0         0         0
         0         0         0         0         0         0         0         0
         0         0         0         0         0         0         0         0
         0         0         0         0         0         0         0         0
         0         0         0         0         0         0         0         0
         0         0         0         0         0         0         0         0
         0         0         0         0         0         0         0         0
         0         0         0         0         0         0         0         0
         0         0         0         0         0         0         0         0
         0         0         0         0         0         0         0         0
         0         0         0         0         0         0         0         0
         0         0         0         0         0         0         0         0
         0         0         0         0         0         0         0         0
         0         0         0         0         0         0         0         0
         0         0         0         0         0         0         0         0
         0         0         0         0         0         0         0         0
         0         0         0         0         0         0         0         0
         0         0         0         0         0         0         0         0
         0         0         0         0         0         0         0         0
         0         0         0         0         0         0         0         0
         0         0         0         0         0         0         0         0
         0         0         0         0         0         0         0         0
         0         0         0         0         0         0         0         0
         0         0         0         0         0         0         0         0
         0         0         0         0         0         0         0         0
         0         0         0         0         0         0         0         0
         0         0         0         0         0         0         0         0
         0         0         0         0         0         0         0         0
         0         0         0         0         0         0         0         0
         0         0         0         0         0         0         0         0
         0         0         0         0         0         0         0         0
         0         0         0         0         0         0         0         0
         0         0         0         0         0         0         0         0
         0         0         0         0         0         0         0         0
         0         0         0         0         0         0         0         0
         0         0         0         0         0         0         0         0
         0         0         0         0         0         0         0         0
         0         0         0         0         0         0         0         0
         0         0         0         0         0         0         0         0
         0         0         0         0         0         0         0         0
         0         0         0         0         0         0         0         0
         0         0         0         0         0         0         0         0
         0         0         0         0         0         0         0         0
         0         0         0         0         0         0         0         0
         0         0         0         0         0         0         0         0
         0         0         0         0         0         0         0         0
         0         0         0         0         0         0         0         0
         0         0         0         0         0         0         0         0
         0         0         0         0         0         0         0         0
         0         0         0         0         0         0         0         0
         0         0         0         0         0         0         0         0
         0         0         0         0         0         0         0         0
         0         0         0         0         0         0         0         0
         0         0         0         0         0         0         0         0
         0         0         0         0         0         0         0         0
         0         0         0         0         0         0         0         0
         0         0         0         0         0         0         0         0
         0         0         0         0         0         0         0         0
         0         0         0         0         0         0         0         0
         0         0         0         0         0         0         0         0
         0         0         0         0         0         0         0         0
         0         0         0         0         0         0         0         0
         0         0         0         0         0         0         0         0
         0         0         0         0         0         0         0         0
         0         0         0         0         0         0         0         0
         0         0         0         0         0         0         0         0
         0         0         0         0         0         0         0         0
         0         0         0         0         0         0         0         0
         0         0         0         0         0         0         0         0
         0         0         0         0         0         0         0         0
         0         0         0         0         0         0         0         0
         0         0         0         0         0         0         0         0
         0         0         0         0         0         0         0         0
         0         0         0         0         0         0         0         0
         0         0         0         0         0         0         0         0
         0         0         0         0         0         0         0         0
         0         0         0         0         0         0         0         0
         0         0         0         0         0         0         0         0
         0         0         0         0         0         0         0         0
         0         0         0         0         0         0         0         0
         0         0         0         0         0         0         0         0
         0         0         0         0         0         0         0         0
         0         0         0         0         0         0         0         0
         0         0         0         0         0         0         0         0
         0         0         0         0         0         0         0         0
         0         0         0         0         0         0         0         0
         0         0         0         0         0         0         0         0
         0         0         0         0         0         0         0         0
         0         0         0         0         0         0         0         0
         0         0         0         0         0         0         0         0
         0         0         0         0         0         0         0         0
         0         0         0         0         0         0         0         0
         0         0         0         0         0         0         0         0
         0         0         0         0         0         0         0         0
         0         0         0         0         0         0         0         0
         0         0         0         0         0         0         0         0
         0         0         0         0         0         0         0         0
         0         0         0         0         0         0         0         0
         0         0         0         0         0         0         0         0
         0         0         0         0         0         0         0         0
         0         0         0         0         0         0         0         0
         0         0         0         0         0         0         0         0
         0         0         0         0         0         0         0         0
         0         0         0         0         0         0         0         0
         0         0         0         0         0         0         0         0
         0         0         0         0         0         0         0         0
         0         0         0         0         0         0         0         0
         0         0         0         0         0         0         0         0
         0         0         0         0         0         0         0         0
         0         0         0         0         0         0         0         0
         0         0         0         0         0         0         0         0
         0         0         0         0         0         0         0         0
         0         0         0         0         0         0         0         0
         0         0         0         0         0         0         0         0
         0         0         0         0         0         0         0         0
         0         0         0         0         0         0         0         0
         0         0         0         0         0         0         0         0
         0         0         0         0         0         0         0         0
         0         0         0         0         0         0         0         0
         0         0         0         0         0         0         0         0
         0         0         0         0         0         0         0         0
         0         0         0         0         0         0         0         0
         0         0         0         0         0         0         0         0
         0         0         0         0         0         0         0         0
         0         0         0         0         0         0         0         0
         0         0         0         0         0         0         0         0
         0         0         0         0         0         0         0         0
         0         0         0         0         0         0         0         0
         0         0         0         0         0         0         0         0
         0         0         0         0         0         0         0         0
         0         0         0         0         0         0         0         0
         0         0         0         0         0         0         0         0
         0         0         0         0         0         0         0         0
         0         0         0         0         0         0         0         0
         0         0         0         0         0         0         0         0
         0         0         0         0         0         0         0         0
         0         0         0         0         0         0         0         0
         0         0         0         0         0         0         0         0
         0         0         0         0         0         0         0         0
         0         0         0         0         0         0         0         0
         0         0         0         0         0         0         0         0
         0         0         0         0         0         0         0         0
         0         0         0         0         0         0         0         0
         0         0         0         0         0         0         0         0
         0         0         0         0         0         0         0         0
         0         0         0         0         0         0         0         0
         0         0         0         0         0         0         0         0
         0         0         0         0         0         0         0         0
         0         0         0         0         0         0         0         0
         0         0         0         0         0         0         0         0
         0         0         0         0         0         0         0         0
         0         0         0         0         0         0         0         0
         0         0         0         0         0         0         0         0
         0         0         0         0         0         0         0         0
         0         0         0         0         0         0         0         0
         0         0         0         0         0         0         0         0
         0         0         0         0         0         0         0         0
         0         0         0         0         0         0         0         0
         0         0         0         0         0         0         0         0
         0         0         0         0         0         0         0         0
         0         0         0         0         0         0         0         0
         0         0         0         0         0         0         0         0
         0         0         0         0         0         0         0         0
         0         0         0         0         0         0         0         0
         0         0         0         0         0         0         0         0
         0         0         0         0         0         0         0         0
         0         0         0         0         0         0         0         0
         0         0         0         0         0         0         0         0
         0         0         0         0         0         0         0         0
         0         0         0         0         0         0         0         0
         0         0         0         0         0         0         0         0
         0         0         0         0         0         0         0         0
         0         0         0         0         0         0         0         0
         0         0         0         0         0         0         0         0
         0         0         0         0         0         0         0         0
         0         0         0         0         0         0         0         0
         0         0         0         0         0         0         0         0
         0         0         0         0         0         0         0         0
         0         0         0         0         0         0         0         0
         0         0         0         0         0         0         0         0
         0         0         0         0         0         0         0         0
         0         0         0         0         0         0         0         0
         0         0         0         0         0         0         0         0
         0         0         0         0         0         0         0         0
         0         0         0         0         0         0         0         0
         0         0         0         0         0         0         0         0
         0         0         0         0         0         0         0         0
         0         0         0         0         0         0         0         0
         0         0         0         0         0         0         0         0
         0         0         0         0         0         0         0         0
         0         0         0         0         0         0         0         0
         0         0         0         0         0         0         0         0
         0         0         0         0         0         0         0         0
         0         0         0         0         0         0         0         0
         0         0         0         0         0         0         0         0
         0         0         0         0         0         0         0         0
         0         0         0         0         0         0         0         0
         0         0         0         0         0         0         0         0
         0         0         0         0         0         0         0         0
         0         0         0         0         0         0         0         0
         0         0         0         0         0         0         0         0
         0         0         0         0         0         0         0         0
         0         0         0         0         0         0         0         0
         0         0         0         0         0         0         0         0
         0         0         0         0         0         0         0         0
         0         0         0         0         0         0         0         0
         0         0         0         0         0         0         0         0
         0         0         0         0         0         0         0         0
         0         0         0         0         0         0         0         0
         0         0         0         0         0         0         0         0
         0         0         0         0         0         0         0         0
         0         0         0         0         0         0         0         0
         0         0         0         0         0         0         0         0
         0         0         0         0         0         0         0         0
         0         0         0         0         0         0         0         0
         0         0         0         0         0         0         0         0
         0         0         0         0         0         0         0         0
         0         0         0         0         0         0         0         0
         0         0         0         0         0         0         0         0
         0         0         0         0         0         0         0         0
         0         0         0         0         0         0         0         0
         0         0         0         0         0         0         0         0
         0         0         0         0         0         0         0         0
         0         0         0         0         0         0         0         0
         0         0         0         0         0         0         0         0
         0         0         0         0         0         0         0         0
         0         0         0         0         0         0         0         0
         0         0         0         0         0         0         0         0
         0         0         0         0         0         0         0         0
         0         0         0         0         0         0         0         0
         0         0         0         0         0         0         0         0
         0         0         0         0         0         0         0         0
         0         0         0         0         0         0         0         0
         0         0         0         0         0         0         0         0
         0         0         0         0         0         0         0         0
         0         0         0         0         0         0         0         0
         0         0         0         0         0         0         0         0
         0         0         0         0         0         0         0         0
         0         0         0         0         0         0         0         0
         0         0         0         0         0         0         0         0
         0         0         0         0         0         0         0         0
         0         0         0         0         0         0         0         0
         0         0         0         0         0         0         0         0
         0         0         0         0         0         0         0         0
         0         0         0         0         0         0         0         0
         0         0         0         0         0         0         0         0
         0         0         0         0         0         0         0         0
         0         0         0         0         0         0         0         0
         0         0         0         0         0         0         0         0
         0         0         0         0         0         0         0         0
         0         0         0         0         0         0         0         0
         0         0         0         0         0         0         0         0
         0         0         0         0         0         0         0         0
         0         0         0         0         0         0         0         0
         0         0         0         0         0         0         0         0
         0         0         0         0         0         0         0         0
         0         0         0         0         0         0         0         0
         0         0         0         0         0         0         0         0
         0         0         0         0         0         0         0         0
         0         0         0         0         0         0         0         0
         0         0         0         0         0         0         0         0
         0         0         0         0         0         0         0         0
         0         0         0         0         0         0         0         0
         0         0         0         0         0         0         0         0
         0         0         0         0         0         0         0         0
         0         0         0         0         0         0         0         0
         0         0         0         0         0         0         0         0
         0         0         0         0         0         0         0         0
         0         0         0         0         0         0         0         0
         0         0         0         0         0         0         0         0
         0         0         0         0         0         0         0         0
         0         0         0         0         0         0         0         0
         0         0         0         0         0         0         0         0
         0         0         0         0         0         0         0         0
         0         0         0         0         0         0         0         0
         0         0         0         0         0         0         0         0
         0         0         0         0         0         0         0         0
         0         0         0         0         0         0         0         0
         0         0         0         0         0         0         0         0
         0         0         0         0         0         0         0         0
         0         0         0         0         0         0         0         0
         0         0         0         0         0         0         0         0
         0         0         0         0         0         0         0         0
         0         0         0         0         0         0         0         0
         0         0         0         0         0         0         0         0
         0         0         0         0         0         0         0         0
         0         0         0         0         0         0         0         0
         0         0         0         0         0         0         0         0
         0         0         0         0         0         0         0         0
         0         0         0         0         0         0         0         0
         0         0         0         0         0         0         0         0
         0         0         0         0         0         0         0         0
         0         0         0         0         0         0         0         0
         0         0         0         0         0         0         0         0
         0         0         0         0         0         0         0         0
         0         0         0         0         0         0         0         0
         0         0         0         0         0         0         0         0
         0         0         0         0         0         0         0         0
         0         0         0         0         0         0         0         0
         0         0         0         0         0         0         0         0
         0         0         0         0         0         0         0         0
         0         0         0         0         0         0         0         0
         0         0         0         0         0         0         0         0
         0         0         0         0         0         0         0         0
         0         0         0         0         0         0         0         0
         0         0         0         0         0         0         0         0
         0         0         0         0         0         0         0         0
         0         0         0         0         0         0         0         0
         0         0         0         0         0         0         0         0
         0         0         0         0         0         0         0         0
         0         0         0         0         0         0         0         0
         0         0         0         0         0         0         0         0
         0         0         0         0         0         0         0         0
         0         0         0         0         0         0         0         0
         0         0         0         0         0         0         0         0
         0         0         0         0         0         0         0         0
         0         0         0         0         0         0         0         0
         0         0         0         0         0         0         0         0
         0         0         0         0         0         0         0         0
         0         0         0         0         0         0         0         0
         0         0         0         0         0         0         0         0
         0         0         0         0         0         0         0         0
         0         0         0         0         0         0         0         0
         0         0         0         0         0         0         0         0
         0         0         0         0         0         0         0         0
         0         0         0         0         0         0         0         0
         0         0         0         0         0         0         0         0
         0         0         0         0         0         0         0         0
         0         0         0         0         0         0         0         0
         0         0         0         0         0         0         0         0
         0         0         0         0         0         0         0         0
         0         0         0         0         0         0         0         0
         0         0         0         0         0         0         0         0
         0         0         0         0         0         0         0         0
         0         0         0         0         0         0         0         0
         0         0         0         0         0         0         0         0
         0         0         0         0         0         0         0         0
         0         0         0         0         0         0         0         0
         0         0         0         0         0         0         0         0
         0         0         0         0         0         0         0         0
         0         0         0         0         0         0         0         0
         0         0         0         0         0         0         0         0
         0         0         0         0         0         0         0         0
         0         0         0         0         0         0         0         0
         0         0         0         0         0         0         0         0
         0         0         0         0         0         0         0         0
         0         0         0         0         0         0         0         0
         0         0         0         0         0         0         0         0
         0         0         0         0         0         0         0         0
         0         0         0         0         0         0         0         0
         0         0         0         0         0         0         0         0
         0         0         0         0         0         0         0         0
         0         0         0         0         0         0         0         0
         0         0         0         0         0         0         0         0
         0         0         0         0         0         0         0         0
         0         0         0         0         0         0         0         0
         0         0         0         0         0         0         0         0
         0         0         0         0         0         0         0         0
         0         0         0         0         0         0         0         0
         0         0         0         0         0         0         0         0
         0         0         0         0         0         0         0         0
         0         0         0         0         0         0         0         0
         0         0         0         0         0         0         0         0
         0         0         0         0         0         0         0         0
         0         0         0         0         0         0         0         0
         0         0         0         0         0         0         0         0
         0         0         0         0         0         0         0         0
         0         0         0         0         0         0         0         0
         0         0         0         0         0         0         0         0
         0         0         0         0         0         0         0         0
         0         0         0         0         0         0         0         0
         0         0         0         0         0         0         0         0
         0         0         0         0         0         0         0         0
         0         0         0         0         0         0         0         0
         0         0         0         0         0         0         0         0
         0         0         0         0         0         0         0         0
         0         0         0         0         0         0         0         0
         0         0         0         0         0         0         0         0
         0         0         0         0         0         0         0         0
         0         0         0         0         0         0         0         0
         0         0         0         0         0         0         0         0
         0         0         0         0         0         0         0         0
         0         0         0         0         0         0         0         0
         0         0         0         0         0         0         0         0
         0         0         0         0         0         0         0         0
         0         0         0         0         0         0         0         0
         0         0         0         0         0         0         0         0
         0         0         0         0         0         0         0         0
         0         0         0         0         0         0         0         0
         0         0         0         0         0         0         0         0
         0         0         0         0         0         0         0         0
         0         0         0         0         0         0         0         0
         0         0         0         0         0         0         0         0
         0         0         0         0         0         0         0         0
         0         0         0         0         0         0         0         0
         0         0         0         0         0         0         0         0
         0         0         0         0         0         0         0         0
         0         0         0         0         0         0         0         0
         0         0         0         0         0         0         0         0
         0         0         0         0         0         0         0         0
         0         0         0         0         0         0         0         0
         0         0         0         0         0         0         0         0
         0         0         0         0         0         0         0         0
         0         0         0         0         0         0         0         0
         0         0         0         0         0         0         0         0
         0         0         0         0         0         0         0         0
         0         0         0         0         0         0         0         0
         0         0         0         0         0         0         0         0
         0         0         0         0         0         0         0         0
         0         0         0         0         0         0         0         0
         0         0         0         0         0         0         0         0
         0         0         0         0         0         0         0         0
         0         0         0         0         0         0         0         0
         0         0         0         0         0         0         0         0
         0         0         0         0         0         0         0         0
         0         0         0         0         0         0         0         0
         0         0         0         0         0         0         0         0
         0         0         0         0         0         0         0         0
         0         0         0         0         0         0         0         0
         0         0         0         0         0         0         0         0
         0         0         0         0         0         0         0         0
         0         0         0         0         0         0         0         0
         0         0         0         0         0         0         0         0
         0         0         0         0         0         0         0         0
         0         0         0         0         0         0         0         0
         0         0         0         0         0         0         0         0
         0         0         0         0         0         0         0         0
         0         0         0         0         0         0         0         0
         0         0         0         0         0         0         0         0
         0         0         0         0         0         0         0         0
         0         0         0         0         0         0         0         0
         0         0         0         0         0         0         0         0
         0         0         0         0         0         0         0         0
         0         0         0         0         0         0         0         0
         0         0         0         0         0         0         0         0
         0         0         0         0         0         0         0         0
         0         0         0         0         0         0         0         0
         0         0         0         0         0         0         0         0
         0         0         0         0         0         0         0         0
         0         0         0         0         0         0         0         0
         0         0         0         0         0         0         0         0
         0         0         0         0         0         0         0         0
         0         0         0         0         0         0         0         0
         0         0         0         0         0         0         0         0
         0         0         0         0         0         0         0         0
         0         0         0         0         0         0         0         0
         0         0         0         0         0         0         0         0
         0         0         0         0         0         0         0         0
         0         0         0         0         0         0         0         0
         0         0         0         0         0         0         0         0
         0         0         0         0         0         0         0         0
         0         0         0         0         0         0         0         0
         0         0         0         0         0         0         0         0
         0         0         0         0         0         0         0         0
         0         0         0         0         0         0         0         0
         0         0         0         0         0         0         0         0
         0         0         0         0         0         0         0         0
         0         0         0         0         0         0         0         0
         0         0         0         0         0         0         0         0
         0         0         0         0         0         0         0         0
         0         0         0         0         0         0         0         0
         0         0         0         0         0         0         0         0
         0         0         0         0         0         0         0         0
         0         0         0         0         0         0         0         0
         0         0         0         0         0         0         0         0
         0         0         0         0         0         0         0         0
         0         0         0         0         0         0         0         0
         0         0         0         0         0         0         0         0
         0         0         0         0         0         0         0         0
         0         0         0         0         0         0         0         0
         0         0         0         0         0         0         0         0
         0         0         0         0         0         0         0         0
         0         0         0         0         0         0         0         0
         0         0         0         0         0         0         0         0
         0         0         0         0         0         0         0         0
         0         0         0         0         0         0         0         0
         0         0         0         0         0         0         0         0
         0         0         0         0         0         0         0         0
         0         0         0         0         0         0         0         0
         0         0         0         0         0         0         0         0
         0         0         0         0         0         0         0         0
         0         0         0         0         0         0         0         0
         0         0         0         0         0         0         0         0
         0         0         0         0         0         0         0         0
         0         0         0         0         0         0         0         0
         0         0         0         0         0         0         0         0
         0         0         0         0         0         0         0         0
         0         0         0         0         0         0         0         0
         0         0         0         0         0         0         0         0
         0         0         0         0         0         0         0         0
         0         0         0         0         0         0         0         0
         0         0         0         0         0         0         0         0
         0         0         0         0         0         0         0         0
         0         0         0         0         0         0         0         0
         0         0         0         0         0         0         0         0
         0         0         0         0         0         0         0         0
         0         0         0         0         0         0         0         0
         0         0         0         0         0         0         0         0
         0         0         0         0         0         0         0         0
         0         0         0         0         0         0         0         0
         0         0         0         0         0         0         0         0
         0         0         0         0         0         0         0         0
         0         0         0         0         0         0         0         0
         0         0         0         0         0         0         0         0
         0         0         0         0         0         0         0         0
         0         0         0         0         0         0         0         0
         0         0         0         0         0         0         0         0
         0         0         0         0         0         0         0         0
         0         0         0         0         0         0         0         0
         0         0         0         0         0         0         0         0
         0         0         0         0         0         0         0         0
         0         0         0         0         0         0         0         0
         0         0         0         0         0         0         0         0
         0         0         0         0         0         0         0         0
         0         0         0         0         0         0         0         0
         0         0         0         0         0         0         0         0
         0         0         0         0         0         0         0         0
         0         0         0         0         0         0         0         0
         0         0         0         0         0         0         0         0
         0         0         0         0         0         0         0         0
         0         0         0         0         0         0         0         0
         0         0         0         0         0         0         0         0
         0         0         0         0         0         0         0         0
         0         0         0         0         0         0         0         0
         0         0         0         0         0         0         0         0
         0         0         0         0         0         0         0         0
         0         0         0         0         0         0         0         0
         0         0         0         0         0         0         0         0
         0         0         0         0         0         0         0         0
         0         0         0         0         0         0         0         0
         0         0         0         0         0         0         0         0
         0         0         0         0         0         0         0         0
         0         0         0         0         0         0         0         0
         0         0         0         0         0         0         0         0
         0         0         0         0         0         0         0         0
         0         0         0         0         0         0         0         0
         0         0         0         0         0         0         0         0
         0         0         0         0         0         0         0         0
         0         0         0         0         0         0         0         0
         0         0         0         0         0         0         0         0
         0         0         0         0         0         0         0         0
         0         0         0         0         0         0         0         0
         0         0         0         0         0         0         0         0
         0         0         0         0         0         0         0         0
         0         0         0         0         0         0         0         0
         0         0         0         0         0         0         0         0
         0         0         0         0         0         0         0         0
         0         0         0         0         0         0         0         0
         0         0         0         0         0         0         0         0
         0         0         0         0         0         0         0         0
         0         0         0         0         0         0         0         0
         0         0         0         0         0         0         0         0
         0         0         0         0         0         0         0         0
         0         0         0         0         0         0         0         0
         0         0         0         0         0         0         0         0
         0         0         0         0         0         0         0         0
         0         0         0         0         0         0         0         0
         0         0         0         0         0         0         0         0
         0         0         0         0         0         0         0         0
         0         0         0         0         0         0         0         0
         0         0         0         0         0         0         0         0
         0         0         0         0         0         0         0         0
         0         0         0         0         0         0         0         0
         0         0         0         0         0         0         0         0
         0         0         0         0         0         0         0         0
         0         0         0         0         0         0         0         0
         0         0         0         0         0         0         0         0
         0         0         0         0         0         0         0         0
         0         0         0         0         0         0         0         0
         0         0         0         0         0         0         0         0
         0         0         0         0         0         0         0         0
         0         0         0         0         0         0         0         0
         0         0         0         0         0         0         0         0
         0         0         0         0         0         0         0         0
         0         0         0         0         0         0         0         0
         0         0         0         0         0         0         0         0
         0         0         0         0         0         0         0         0
         0         0         0         0         0         0         0         0
         0         0         0         0         0         0         0         0
         0         0         0         0         0         0         0         0
         0         0         0         0         0         0         0         0
         0         0         0         0         0         0         0         0
         0         0         0         0         0         0         0         0
         0         0         0         0         0         0         0         0
         0         0         0         0         0         0         0         0
         0         0         0         0         0         0         0         0
         0         0         0         0         0         0         0         0
         0         0         0         0         0         0         0         0
         0         0         0         0         0         0         0         0
         0         0         0         0         0         0         0         0
         0         0         0         0         0         0         0         0
         0         0         0         0         0         0         0         0
         0         0         0         0         0         0         0         0
         0         0         0         0         0         0         0         0
         0         0         0         0         0         0         0         0
         0         0         0         0         0         0         0         0
         0         0         0         0         0         0         0         0
         0         0         0         0         0         0         0         0
         0         0         0         0         0         0         0         0
         0         0         0         0         0         0         0         0
         0         0         0         0         0         0         0         0
         0         0         0         0         0         0         0         0
         0         0         0         0         0         0         0         0
         0         0         0         0         0         0         0         0
         0         0         0         0         0         0         0         0
         0         0         0         0         0         0         0         0
         0         0         0         0         0         0         0         0
         0         0         0         0         0         0         0         0
         0         0         0         0         0         0         0         0
         0         0         0         0         0         0         0         0
         0         0         0         0         0         0         0         0
         0         0         0         0         0         0         0         0
         0         0         0         0         0         0         0         0
         0         0         0         0         0         0         0         0
         0         0         0         0         0         0         0         0
         0         0         0         0         0         0         0         0
         0         0         0         0         0         0         0         0
         0         0         0         0         0         0         0         0
         0         0         0         0         0         0         0         0
         0         0         0         0         0         0         0         0
         0         0         0         0         0         0         0         0
         0         0         0         0         0         0         0         0
         0         0         0         0         0         0         0         0
         0         0         0         0         0         0         0         0
         0         0         0         0         0         0         0         0
         0         0         0         0         0         0         0         0
         0         0         0         0         0         0         0         0
         0         0         0         0         0         0         0         0
         0         0         0         0         0         0         0         0
         0         0         0         0         0         0         0         0
         0         0         0         0         0         0         0         0
         0         0         0         0         0         0         0         0
         0         0         0         0         0         0         0         0
         0         0         0         0         0         0         0         0
         0         0         0         0         0         0         0         0
         0         0         0         0         0         0         0         0
         0         0         0         0         0         0         0         0
         0         0         0         0         0         0         0         0
         0         0         0         0         0         0         0         0
         0         0         0         0         0         0         0         0
         0         0         0         0         0         0         0         0
         0         0         0         0         0         0         0         0
         0         0         0         0         0         0         0         0
         0         0         0         0         0         0         0         0
         0         0         0         0         0         0         0         0
         0         0         0         0         0         0         0         0
         0         0         0         0         0         0         0         0
         0         0         0         0         0         0         0         0
         0         0         0         0         0         0         0         0
         0         0         0         0         0         0         0         0
         0         0         0         0         0         0         0         0
         0         0         0         0         0         0         0         0
         0         0         0         0         0         0         0         0
         0         0         0         0         0         0         0         0
         0         0         0         0         0         0         0         0
         0         0         0         0         0         0         0         0
         0         0         0         0         0         0         0         0
         0         0         0         0         0         0         0         0
         0         0         0         0         0         0         0         0
         0         0         0         0         0         0         0         0
         0         0         0         0         0         0         0         0
         0         0         0         0         0         0         0         0
         0         0         0         0         0         0         0         0
         0         0         0         0         0         0         0         0
         0         0         0         0         0         0         0         0
         0         0         0         0         0         0         0         0
         0         0         0         0         0         0         0         0
         0         0         0         0         0         0         0         0
         0         0         0         0         0         0         0         0
         0         0         0         0         0         0         0         0
         0         0         0         0         0         0         0         0
         0         0         0         0         0         0         0         0
         0         0         0         0         0         0         0         0
         0         0         0         0         0         0         0         0
         0         0         0         0         0         0         0         0
         0         0         0         0         0         0         0         0
         0         0         0         0         0         0         0         0
         0         0         0         0         0         0         0         0
         0         0         0         0         0         0         0         0
         0         0         0         0         0         0         0         0
         0         0         0         0         0         0         0         0
         0         0         0         0         0         0         0         0
         0         0         0         0         0         0         0         0
         0         0         0         0         0         0         0         0
         0         0         0         0         0         0         0         0
         0         0         0         0         0         0         0         0
         0         0         0         0         0         0         0         0
         0         0         0         0         0         0         0         0
         0         0         0         0         0         0         0         0
         0         0         0         0         0         0         0         0
         0         0         0         0         0         0         0         0
         0         0         0         0         0         0         0         0
         0         0         0         0         0         0         0         0
         0         0         0         0         0         0         0         0
         0         0         0         0         0         0         0         0
         0         0         0         0         0         0         0         0
         0         0         0         0         0         0         0         0
         0         0         0         0         0         0         0         0
         0         0         0         0         0         0         0         0
         0         0         0         0         0         0         0         0
         0         0         0         0         0         0         0         0
         0         0         0         0         0         0         0         0
         0         0         0         0         0         0         0         0
         0         0         0         0         0         0         0         0
         0         0         0         0         0         0         0         0
         0         0         0         0         0         0         0         0
         0         0         0         0         0         0         0         0
         0         0         0         0         0         0         0         0
         0         0         0         0         0         0         0         0
         0         0         0         0         0         0         0         0
         0         0         0         0         0         0         0         0
         0         0         0         0         0         0         0         0
         0         0         0         0         0         0         0         0
         0         0         0         0         0         0         0         0
         0         0         0         0         0         0         0         0
         0         0         0         0         0         0         0         0
         0         0         0         0         0         0         0         0
         0         0         0         0         0         0         0         0
         0         0         0         0         0         0         0         0
         0         0         0         0         0         0         0         0
         0         0         0         0         0         0         0         0
         0         0         0         0         0         0         0         0
         0         0         0         0         0         0         0         0
         0         0         0         0         0         0         0         0
         0         0         0         0         0         0         0         0
         0         0         0         0         0         0         0         0
         0         0         0         0         0         0         0         0
         0         0         0         0         0         0         0         0
         0         0         0         0         0         0         0         0
         0         0         0         0         0         0         0         0
         0         0         0         0         0         0         0         0
         0         0         0         0         0         0         0         0
         0         0         0         0         0         0         0         0
         0         0         0         0         0         0         0         0
         0         0         0         0         0         0         0         0
         0         0         0         0         0         0         0         0
         0         0         0         0         0         0         0         0
         0         0         0         0         0         0         0         0
         0         0         0         0         0         0         0         0
         0         0         0         0         0         0         0         0
         0         0         0         0         0         0         0         0
         0         0         0         0         0         0         0         0
         0         0         0         0         0         0         0         0
         0         0         0         0         0         0         0         0
         0         0         0         0         0         0         0         0
         0         0         0         0         0         0         0         0
         0         0         0         0         0         0         0         0
         0         0         0         0         0         0         0         0
         0         0         0         0         0         0         0         0
         0         0         0         0         0         0         0         0
         0         0         0         0         0         0         0         0
         0         0         0         0         0         0         0         0
         0         0         0         0         0         0         0         0
         0         0         0         0         0         0         0         0
         0         0         0         0         0         0         0         0
         0         0         0         0         0         0         0         0
         0         0         0         0         0         0         0         0
         0         0         0         0         0         0         0         0
         0         0         0         0         0         0         0         0
         0         0         0         0         0         0         0         0
         0         0         0         0         0         0         0         0
         0         0         0         0         0         0         0         0
         0         0         0         0         0         0         0         0
         0         0         0         0         0         0         0         0
         0         0         0         0         0         0         0         0
         0         0         0         0         0         0         0         0
         0         0         0         0         0         0         0         0
         0         0         0         0         0         0         0         0
         0         0         0         0         0         0         0         0
         0         0         0         0         0         0         0         0
         0         0         0         0         0         0         0         0
         0         0         0         0         0         0         0         0
         0         0         0         0         0         0         0         0
         0         0         0         0         0         0         0         0
         0         0         0         0         0         0         0         0
         0         0         0         0         0         0         0         0
         0         0         0         0         0         0         0         0
         0         0         0         0         0         0         0         0
         0         0         0         0         0         0         0         0
         0         0         0         0         0         0         0         0
         0         0         0         0         0         0         0         0
         0         0         0         0         0         0         0         0
         0         0         0         0         0         0         0         0
         0         0         0         0         0         0         0         0
         0         0         0         0         0         0         0         0
         0         0         0         0         0         0         0         0
         0         0         0         0         0         0         0         0
         0         0         0         0         0         0         0         0
         0         0         0         0         0         0         0         0
         0         0         0         0         0         0         0         0
         0         0         0         0         0         0         0         0
         0         0         0         0         0         0         0         0
         0         0         0         0         0         0         0         0
         0         0         0         0         0         0         0         0
         0         0         0         0         0         0         0         0
         0         0         0         0         0         0         0         0
         0         0         0         0         0         0         0         0
         0         0         0         0         0         0         0         0
         0         0         0         0         0         0         0         0
         0         0         0         0         0         0         0         0
         0         0         0         0         0         0         0         0
         0         0         0         0         0         0         0         0
         0         0         0         0         0         0         0         0
         0         0         0         0         0         0         0         0
         0         0         0         0         0         0         0         0
         0         0         0         0         0         0         0         0
         0         0         0         0         0         0         0         0
         0         0         0         0         0         0         0         0
         0         0         0         0         0         0         0         0
         0         0         0         0         0         0         0         0
         0         0         0         0         0         0         0         0
         0         0         0         0         0         0         0         0
         0         0         0         0         0         0         0         0
         0         0         0         0         0         0         0         0
         0         0         0         0         0         0         0         0
         0         0         0         0         0         0         0         0
         0         0         0         0         0         0         0         0
         0         0         0         0         0         0         0         0
         0         0         0         0         0         0         0         0
         0         0         0         0         0         0         0         0
         0         0         0         0         0         0         0         0
         0         0         0         0         0         0         0         0
         0         0         0         0         0         0         0         0
         0         0         0         0         0         0         0         0
         0         0         0         0         0         0         0         0
         0         0         0         0         0         0         0         0
         0         0         0         0         0         0         0         0
         0         0         0         0         0         0         0         0
         0         0         0         0         0         0         0         0
         0         0         0         0         0         0         0         0
         0         0         0         0         0         0         0         0
         0         0         0         0         0         0         0         0
         0         0         0         0         0         0         0         0
         0         0         0         0         0         0         0         0
         0         0         0         0         0         0         0         0
         0         0         0         0         0         0         0         0
         0         0         0         0         0         0         0         0
         0         0         0         0         0         0         0         0
         0         0         0         0         0         0         0         0
         0         0         0         0         0         0         0         0
         0         0         0         0         0         0         0         0
         0         0         0         0         0         0         0         0
         0         0         0         0         0         0         0         0
         0         0         0         0         0         0         0         0
         0         0         0         0         0         0         0         0
         0         0         0         0         0         0         0         0
         0         0         0         0         0         0         0         0
         0         0         0         0         0         0         0         0
         0         0         0         0         0         0         0         0
         0         0         0         0         0         0         0         0
         0         0         0         0         0         0         0         0
         0         0         0         0         0         0         0         0
         0         0         0         0         0         0         0         0
         0         0         0         0         0         0         0         0
         0         0         0         0         0         0         0         0
         0         0         0         0         0         0         0         0
         0         0         0         0         0         0         0         0
         0         0         0         0         0         0         0         0
         0         0         0         0         0         0         0         0
         0         0         0         0         0         0         0         0
         0         0         0         0         0         0         0         0
         0         0         0         0         0         0         0         0
         0         0         0         0         0         0         0         0
         0         0         0         0         0         0         0         0
         0         0         0         0         0         0         0         0
         0         0         0         0         0         0         0         0
         0         0         0         0         0         0         0         0
         0         0         0         0         0         0         0         0
         0         0         0         0         0         0         0         0
         0         0         0         0         0         0         0         0
         0         0         0         0         0         0         0         0
         0         0         0         0         0         0         0         0
         0         0         0         0         0         0         0         0
         0         0         0         0         0         0         0         0
         0         0         0         0         0         0         0         0
         0         0         0         0         0         0         0         0
         0         0         0         0         0         0         0         0
         0         0         0         0         0         0         0         0
         0         0         0         0         0         0         0         0
         0         0         0         0         0         0         0         0
         0         0         0         0         0         0         0         0
         0         0         0         0         0         0         0         0
         0         0         0         0         0         0         0         0
         0         0         0         0         0         0         0         0
         0         0         0         0         0         0         0         0
         0         0         0         0         0         0         0         0
         0         0         0         0         0         0         0         0
         0         0         0         0         0         0         0         0
         0         0         0         0         0         0         0         0
         0         0         0         0         0         0         0         0
         0         0         0         0         0         0         0         0
         0         0         0         0         0         0         0         0
         0         0         0         0         0         0         0         0
         0         0         0         0         0         0         0         0
         0         0         0         0         0         0         0         0
         0         0         0         0         0         0         0         0
         0         0         0         0         0         0         0         0
         0         0         0         0         0         0         0         0
         0         0         0         0         0         0         0         0
         0         0         0         0         0         0         0         0
         0         0         0         0         0         0         0         0
         0         0         0         0         0         0         0         0
         0         0         0         0         0         0         0         0
         0         0         0         0         0         0         0         0
         0         0         0         0         0         0         0         0
         0         0         0         0         0         0         0         0
         0         0         0         0         0         0         0         0
         0         0         0         0         0         0         0         0
         0         0         0         0         0         0         0         0
         0         0         0         0         0         0         0         0
         0         0         0         0         0         0         0         0
         0         0         0         0         0         0         0         0
         0         0         0         0         0         0         0         0
         0         0         0         0         0         0         0         0
         0         0         0         0         0         0         0         0
         0         0         0         0         0         0         0         0
         0         0         0         0         0         0         0         0
         0         0         0         0         0         0         0         0
         0         0         0         0         0         0         0         0
         0         0         0         0         0         0         0         0
         0         0         0         0         0         0         0         0
         0         0         0         0         0         0         0         0
         0         0         0         0         0         0         0         0
         0         0         0         0         0         0         0         0
         0         0         0         0         0         0         0         0
         0         0         0         0         0         0         0         0
         0         0         0         0         0         0         0         0
         0         0         0         0         0         0         0         0
         0         0         0         0         0         0         0         0
         0         0         0         0         0         0         0         0
         0         0         0         0         0         0         0         0
         0         0         0         0         0         0         0         0
         0         0         0         0         0         0         0         0
         0         0         0         0         0         0         0         0
         0         0         0         0         0         0         0         0
         0         0         0         0         0         0         0         0
         0         0         0         0         0         0         0         0
         0         0         0         0         0         0         0         0
         0         0         0         0         0         0         0         0
         0         0         0         0         0         0         0         0
         0         0         0         0         0         0         0         0
         0         0         0         0         0         0         0         0
         0         0         0         0         0         0         0         0
         0         0         0         0         0         0         0         0
         0         0         0         0         0         0         0         0
         0         0         0         0         0         0         0         0
         0         0         0         0         0         0         0         0
         0         0         0         0         0         0         0         0
         0         0         0         0         0         0         0         0
         0         0         0         0         0         0         0         0
         0         0         0         0         0         0         0         0
         0         0         0         0         0         0         0         0
         0         0         0         0         0         0         0         0
         0         0         0         0         0         0         0         0
         0         0         0         0         0         0         0         0
         0         0         0         0         0         0         0         0
         0         0         0         0         0         0         0         0
         0         0         0         0         0         0         0         0
         0         0         0         0         0         0         0         0
         0         0         0         0         0         0         0         0
         0         0         0         0         0         0         0         0
         0         0         0         0         0         0         0         0
         0         0         0         0         0         0         0         0
         0         0         0         0         0         0         0         0
         0         0         0         0         0         0         0         0
         0         0         0         0         0         0         0         0
         0         0         0         0         0         0         0         0
         0         0         0         0         0         0         0         0
         0         0         0         0         0         0         0         0
         0         0         0         0         0         0         0         0
         0         0         0         0         0         0         0         0
         0         0         0         0         0         0         0         0
         0         0         0         0         0         0         0         0
         0         0         0         0         0         0         0         0
         0         0         0         0         0         0         0         0
         0         0         0         0         0         0         0         0
         0         0         0         0         0         0         0         0
         0         0         0         0         0         0         0         0
         0         0         0         0         0         0         0         0
         0         0         0         0         0         0         0         0
         0         0         0         0         0         0         0         0
         0         0         0         0         0         0         0         0
         0         0         0         0         0         0         0         0
         0         0         0         0         0         0         0         0
         0         0         0         0         0         0         0         0
         0         0         0         0         0         0         0         0
         0         0         0         0         0         0         0         0
         0         0         0         0         0         0         0         0
         0         0         0         0         0         0         0         0
         0         0         0         0         0         0         0         0
         0         0         0         0         0         0         0         0
         0         0         0         0         0         0         0         0
         0         0         0         0         0         0         0         0
         0         0         0         0         0         0         0         0
         0         0         0         0         0         0         0         0
         0         0         0         0         0         0         0         0
         0         0         0         0         0         0         0         0
         0         0         0         0         0         0         0         0
         0         0         0         0         0         0         0         0
         0         0         0         0         0         0         0         0
         0         0         0         0         0         0         0         0
         0         0         0         0         0         0         0         0
         0         0         0         0         0         0         0         0
         0         0         0         0         0         0         0         0
         0         0         0         0         0         0         0         0
         0         0         0         0         0         0         0         0
         0         0         0         0         0         0         0         0
         0         0         0         0         0         0         0         0
         0         0         0         0         0         0         0         0
         0         0         0         0         0         0         0         0
         0         0         0         0         0         0         0         0
         0         0         0         0         0         0         0         0
         0         0         0         0         0         0         0         0
         0         0         0         0         0         0         0         0
         0         0         0         0         0         0         0         0
         0         0         0         0         0         0         0         0
         0         0         0         0         0         0         0         0
         0         0         0         0         0         0         0         0
         0         0         0         0         0         0         0         0
         0         0         0         0         0         0         0         0
         0         0         0         0         0         0         0         0
         0         0         0         0         0         0         0         0
         0         0         0         0         0         0         0         0
         0         0         0         0         0         0         0         0
         0         0         0         0         0         0         0         0
         0         0         0         0         0         0         0         0
         0         0         0         0         0         0         0         0
         0         0         0         0         0         0         0         0
         0         0         0         0         0         0         0         0
         0         0         0         0         0         0         0         0
         0         0         0         0         0         0         0         0
         0         0         0         0         0         0         0         0
         0         0         0         0         0         0         0         0
         0         0         0         0         0         0         0         0
         0         0         0         0         0         0         0         0
         0         0         0         0         0         0         0         0
         0         0         0         0         0         0         0         0
         0         0         0         0         0         0         0         0
         0         0         0         0         0         0         0         0
         0         0         0         0         0         0         0         0
         0         0         0         0         0         0         0         0
         0         0         0         0         0         0         0         0
         0         0         0         0         0         0         0         0
         0         0         0         0         0         0         0         0
         0         0         0         0         0         0         0         0
         0         0         0         0         0         0         0         0
         0         0         0         0         0         0         0         0
         0         0         0         0         0         0         0         0
         0         0         0         0         0         0         0         0
         0         0         0         0         0         0         0         0
         0         0         0         0         0         0         0         0
         0         0         0         0         0         0         0         0
         0         0         0         0         0         0         0         0
         0         0         0         0         0         0         0         0
         0         0         0         0         0         0         0         0
         0         0         0         0         0         0         0         0
         0         0         0         0         0         0         0         0
         0         0         0         0         0         0         0         0
         0         0         0         0         0         0         0         0
         0         0         0         0         0         0         0         0
         0         0         0         0         0         0         0         0
         0         0         0         0         0         0         0         0
         0         0         0         0         0         0         0         0
         0         0         0         0         0         0         0         0
         0         0         0         0         0         0         0         0
         0         0         0         0         0         0         0         0
         0         0         0         0         0         0         0         0
         0         0         0         0         0         0         0         0
         0         0         0         0         0         0         0         0
         0         0         0         0         0         0         0         0
         0         0         0         0         0         0         0         0
         0         0         0         0         0         0         0         0
         0         0         0         0         0         0         0         0
         0         0         0         0         0         0         0         0
         0         0         0         0         0         0         0         0
         0         0         0         0         0         0         0         0
         0         0         0         0         0         0         0         0
         0         0         0         0         0         0         0         0
         0         0         0         0         0         0         0         0
         0         0         0         0         0         0         0         0
         0         0         0         0         0         0         0         0
         0         0         0         0         0         0         0         0
         0         0         0         0         0         0         0         0
         0         0         0         0         0         0         0         0
         0         0         0         0         0         0         0         0
         0         0         0         0         0         0         0         0
         0         0         0         0         0         0         0         0
         0         0         0         0         0         0         0         0
         0         0         0         0         0         0         0         0
         0         0         0         0         0         0         0         0
         0         0         0         0         0         0         0         0
         0         0         0         0         0         0         0         0
         0         0         0         0         0         0         0         0
         0         0         0         0         0         0         0         0
         0         0         0         0         0         0         0         0
         0         0         0         0         0         0         0         0
         0         0         0         0         0         0         0         0
         0         0         0         0         0         0         0         0
         0         0         0         0         0         0         0         0
         0         0         0         0         0         0         0         0
         0         0         0         0         0         0         0         0
         0         0         0         0         0         0         0         0
         0         0         0         0         0         0         0         0
         0         0         0         0         0         0         0         0
         0         0         0         0         0         0         0         0
         0         0         0         0         0         0         0         0
         0         0         0         0         0         0         0         0
         0         0         0         0         0         0         0         0
         0         0         0         0         0         0         0         0
         0         0         0         0         0         0         0         0
         0         0         0         0         0         0         0         0
         0         0         0         0         0         0         0         0
         0         0         0         0         0         0         0         0
         0         0         0         0         0         0         0         0
         0         0         0         0         0         0         0         0
         0         0         0         0         0         0         0         0
         0         0         0         0         0         0         0         0
         0         0         0         0         0         0         0         0
         0         0         0         0         0         0         0         0
         0         0         0         0         0         0         0         0
         0         0         0         0         0         0         0         0
         0         0         0         0         0         0         0         0
         0         0         0         0         0         0         0         0
         0         0         0         0         0         0         0         0
         0         0         0         0         0         0         0         0
         0         0         0         0         0         0         0         0
         0         0         0         0         0         0         0         0
         0         0         0         0         0         0         0         0
         0         0         0         0         0         0         0         0
         0         0         0         0         0         0         0         0
         0         0         0         0         0         0         0         0
         0         0         0         0         0         0         0         0
         0         0         0         0         0         0         0         0
         0         0         0         0         0         0         0         0
         0         0         0         0         0         0         0         0
         0         0         0         0         0         0         0         0
         0         0         0         0         0         0         0         0
         0         0         0         0         0         0         0         0
         0         0         0         0         0         0         0         0
         0         0         0         0         0         0         0         0
         0         0         0         0         0         0         0         0
         0         0         0         0         0         0         0         0
         0         0         0         0         0         0         0         0
         0         0         0         0         0         0         0         0
         0         0         0         0         0         0         0         0
         0         0         0         0         0         0         0         0
         0         0         0         0         0         0         0         0
         0         0         0         0         0         0         0         0
         0         0         0         0         0         0         0         0
         0         0         0         0         0         0         0         0
         0         0         0         0         0         0         0         0
         0         0         0         0         0         0         0         0
         0         0         0         0         0         0         0         0
         0         0         0         0         0         0         0         0
         0         0         0         0         0         0         0         0
         0         0         0         0         0         0         0         0
         0         0         0         0         0         0         0         0
         0         0         0         0         0         0         0         0
         0         0         0         0         0         0         0         0
         0         0         0         0         0         0         0         0
         0         0         0         0         0         0         0         0
         0         0         0         0         0         0         0         0
         0         0         0         0         0         0         0         0
         0         0         0         0         0         0         0         0
         0         0         0         0         0         0         0         0
         0         0         0         0         0         0         0         0
         0         0         0         0         0         0         0         0
         0         0         0         0         0         0         0         0
         0         0         0         0         0         0         0         0
         0         0         0         0         0         0         0         0
         0         0         0         0         0         0         0         0
         0         0         0         0         0         0         0         0
         0         0         0         0         0         0         0         0
         0         0         0         0         0         0         0         0
         0         0         0         0         0         0         0         0
         0         0         0         0         0         0         0         0
         0         0         0         0         0         0         0         0
         0         0         0         0         0         0         0         0
         0         0         0         0         0         0         0         0
         0         0         0         0         0         0         0         0
         0         0         0         0         0         0         0         0
         0         0         0         0         0         0         0         0
         0         0         0         0         0         0         0         0
         0         0         0         0         0         0         0         0
         0         0         0         0         0         0         0         0
         0         0         0         0         0         0         0         0
         0         0         0         0         0         0         0         0
         0         0         0         0         0         0         0         0
         0         0         0         0         0         0         0         0
         0         0         0         0         0         0         0         0
         0         0         0         0         0         0         0         0
         0         0         0         0         0         0         0         0
         0         0         0         0         0         0         0         0
         0         0         0         0         0         0         0         0
         0         0         0         0         0         0         0         0
         0         0         0         0         0         0         0         0
         0         0         0         0         0         0         0         0
         0         0         0         0         0         0         0         0
         0         0         0         0         0         0         0         0
         0         0         0         0         0         0         0         0
         0         0         0         0         0         0         0         0
         0         0         0         0         0         0         0         0
         0         0         0         0         0         0         0         0
         0         0         0         0         0         0         0         0
         0         0         0         0         0         0         0         0
         0         0         0         0         0         0         0         0
         0         0         0         0         0         0         0         0
         0         0         0         0         0         0         0         0
         0         0         0         0         0         0         0         0
         0         0         0         0         0         0         0         0
         0         0         0         0         0         0         0         0
         0         0         0         0         0         0         0         0
         0         0         0         0         0         0         0         0
         0         0         0         0         0         0         0         0
         0         0         0         0         0         0         0         0
         0         0         0         0         0         0         0         0
         0         0         0         0         0         0         0         0
         0         0         0         0         0         0         0         0
         0         0         0         0         0         0         0         0
         0         0         0         0         0         0         0         0
         0         0         0         0         0         0         0         0
         0         0         0         0         0         0         0         0
         0         0         0         0         0         0         0         0
         0         0         0         0         0         0         0         0
         0         0         0         0         0         0         0         0
         0         0         0         0         0         0         0         0
         0         0         0         0         0         0         0         0
         0         0         0         0         0         0         0         0
         0         0         0         0         0         0         0         0
         0         0         0         0         0         0         0         0
         0         0         0         0         0         0         0         0
         0         0         0         0         0         0         0         0
         0         0         0         0         0         0         0         0
         0         0         0         0         0         0         0         0
         0         0         0         0         0         0         0         0
         0         0         0         0         0         0         0         0
         0         0         0         0         0         0         0         0
         0         0         0         0         0         0         0         0
         0         0         0         0         0         0         0         0
         0         0         0         0         0         0         0         0
         0         0         0         0         0         0         0         0
         0         0         0         0         0         0         0         0
         0         0         0         0         0         0         0         0
         0         0         0         0         0         0         0         0
         0         0         0         0         0         0         0         0
         0         0         0         0         0         0         0         0
         0         0         0         0         0         0         0         0
         0         0         0         0         0         0         0         0
         0         0         0         0         0         0         0         0
         0         0         0         0         0         0         0         0
         0         0         0         0         0         0         0         0
         0         0         0         0         0         0         0         0
         0         0         0         0         0         0         0         0
         0         0         0         0         0         0         0         0
         0         0         0         0         0         0         0         0
         0         0         0         0         0         0         0         0
         0         0         0         0         0         0         0         0
         0         0         0         0         0         0         0         0
         0         0         0         0         0         0         0         0
         0         0         0         0         0         0         0         0
         0         0         0         0         0         0         0         0
         0         0         0         0         0         0         0         0
         0         0         0         0         0         0         0         0
         0         0         0         0         0         0         0         0
         0         0         0         0         0         0         0         0
         0         0         0         0         0         0         0         0
         0         0         0         0         0         0         0         0
         0         0         0         0         0         0         0         0
         0         0         0         0         0         0         0         0
         0         0         0         0         0         0         0         0
         0         0         0         0         0         0         0         0
         0         0         0         0         0         0         0         0
         0         0         0         0         0         0         0         0
         0         0         0         0         0         0         0         0
         0         0         0         0         0         0         0         0
         0         0         0         0         0         0         0         0
         0         0         0         0         0         0         0         0
         0         0         0         0         0         0         0         0
         0         0         0         0         0         0         0         0
         0         0         0         0         0         0         0         0
         0         0         0         0         0         0         0         0
         0         0         0         0         0         0         0         0
         0         0         0         0         0         0         0         0
         0         0         0         0         0         0         0         0
         0         0         0         0         0         0         0         0
         0         0         0         0         0         0         0         0
         0         0         0         0         0         0         0         0
         0         0         0         0         0         0         0         0
         0         0         0         0         0         0         0         0
         0         0         0         0         0         0         0         0
         0         0         0         0         0         0         0         0
         0         0         0         0         0         0         0         0
         0         0         0         0         0         0         0         0
         0         0         0         0         0         0         0         0
         0         0         0         0         0         0         0         0
         0         0         0         0         0         0         0         0
         0         0         0         0         0         0         0         0
         0         0         0         0         0         0         0         0
         0         0         0         0         0         0         0         0
         0         0         0         0         0         0         0         0
         0         0         0         0         0         0         0         0
         0         0         0         0         0         0         0         0
         0         0         0         0         0         0         0         0
         0         0         0         0         0         0         0         0
         0         0         0         0         0         0         0         0
         0         0         0         0         0         0         0         0
         0         0         0         0         0         0         0         0
         0         0         0         0         0         0         0         0
         0         0         0         0         0         0         0         0
         0         0         0         0         0         0         0         0
         0         0         0         0         0         0         0         0
         0         0         0         0         0         0         0         0
         0         0         0         0         0         0         0         0
         0         0         0         0         0         0         0         0
         0         0         0         0         0         0         0         0
         0         0         0         0         0         0         0         0
         0         0         0         0         0         0         0         0
         0         0         0         0         0         0         0         0
         0         0         0         0         0         0         0         0
         0         0         0         0         0         0         0         0
         0         0         0         0         0         0         0         0
         0         0         0         0         0         0         0         0
         0         0         0         0         0         0         0         0
         0         0         0         0         0         0         0         0
         0         0         0         0         0         0         0         0
         0         0         0         0         0         0         0         0
         0         0         0         0         0         0         0         0
         0         0         0         0         0         0         0         0
         0         0         0         0         0         0         0         0
         0         0         0         0         0         0         0         0
         0         0         0         0         0         0         0         0
         0         0         0         0         0         0         0         0
         0         0         0         0         0         0         0         0
         0         0         0         0         0         0         0         0
         0         0         0         0         0         0         0         0
         0         0         0         0         0         0         0         0
         0         0         0         0         0         0         0         0
         0         0         0         0         0         0         0         0
         0         0         0         0         0         0         0         0
         0         0         0         0         0         0         0         0
         0         0         0         0         0         0         0         0
         0         0         0         0         0         0         0         0
         0         0         0         0         0         0         0         0
         0         0         0         0         0         0         0         0
         0         0         0         0         0         0         0         0
         0         0         0         0         0         0         0         0
         0         0         0         0         0         0         0         0
         0         0         0         0         0         0         0         0
         0         0         0         0         0         0         0         0
         0         0         0         0         0         0         0         0
         0         0         0         0         0         0         0         0
         0         0         0         0         0         0         0         0
         0         0         0         0         0         0         0         0
         0         0         0         0         0         0         0         0
         0         0         0         0         0         0         0         0
         0         0         0         0         0         0         0         0
         0         0         0         0         0         0         0         0
         0         0         0         0         0         0         0         0
         0         0         0         0         0         0         0         0
         0         0         0         0         0         0         0         0
         0         0         0         0         0         0         0         0
         0         0         0         0         0         0         0         0
         0         0         0         0         0         0         0         0
         0         0         0         0         0         0         0         0
         0         0         0         0         0         0         0         0
         0         0         0         0         0         0         0         0
         0         0         0         0         0         0         0         0
         0         0         0         0         0         0         0         0
         0         0         0         0         0         0         0         0
         0         0         0         0         0         0         0         0
         0         0         0         0         0         0         0         0
         0         0         0         0         0         0         0         0
         0         0         0         0         0         0         0         0
         0         0         0         0         0         0         0         0
         0         0         0         0         0         0         0         0
         0         0         0         0         0         0         0         0
         0         0         0         0         0         0         0         0
         0         0         0         0         0         0         0         0
         0         0         0         0         0         0         0         0
         0         0         0         0         0         0         0         0
         0         0         0         0         0         0         0         0
         0         0         0         0         0         0         0         0
         0         0         0         0         0         0         0         0
         0         0         0         0         0         0         0         0
         0         0         0         0         0         0         0         0
         0         0         0         0         0         0         0         0
         0         0         0         0         0         0         0         0
         0         0         0         0         0         0         0         0
         0         0         0         0         0         0         0         0
         0         0         0         0         0         0         0         0
         0         0         0         0         0         0         0         0
         0         0         0         0         0         0         0         0
         0         0         0         0         0         0         0         0
         0         0         0         0         0         0         0         0
         0         0         0         0         0         0         0         0
         0         0         0         0         0         0         0         0
         0         0         0         0         0         0         0         0
         0         0         0         0         0         0         0         0
         0         0         0         0         0         0         0         0
         0         0         0         0         0         0         0         0
         0         0         0         0         0         0         0         0
         0         0         0         0         0         0         0         0
         0         0         0         0         0         0         0         0
         0         0         0         0         0         0         0         0
         0         0         0         0         0         0         0         0
         0         0         0         0         0         0         0         0
         0         0         0         0         0         0         0         0
         0         0         0         0         0         0         0         0
         0         0         0         0         0         0         0         0
         0         0         0         0         0         0         0         0
         0         0         0         0         0         0         0         0
         0         0         0         0         0         0         0         0
         0         0         0         0         0         0         0         0
         0         0         0         0         0         0         0         0
         0         0         0         0         0         0         0         0
         0         0         0         0         0         0         0         0
         0         0         0         0         0         0         0         0
         0         0         0         0         0         0         0         0
         0         0         0         0         0         0         0         0
         0         0         0         0         0         0         0         0
         0         0         0         0         0         0         0         0
         0         0         0         0         0         0         0         0
         0         0         0         0         0         0         0         0
         0         0         0         0         0         0         0         0
         0         0         0         0         0         0         0         0
         0         0         0         0         0         0         0         0
         0         0         0         0         0         0         0         0
         0         0         0         0         0         0         0         0
         0         0         0         0         0         0         0         0
         0         0         0         0         0         0         0         0
         0         0         0         0         0         0         0         0
         0         0         0         0         0         0         0         0
         0         0         0         0         0         0         0         0
         0         0         0         0         0         0         0         0
         0         0         0         0         0         0         0         0
         0         0         0         0         0         0         0         0
         0         0         0         0         0         0         0         0
         0         0         0         0         0         0         0         0
         0         0         0         0         0         0         0         0
         0         0         0         0         0         0         0         0
         0         0         0         0         0         0         0         0
         0         0         0         0         0         0         0         0
         0         0         0         0         0         0         0         0
         0         0         0         0         0         0         0         0
         0         0         0         0         0         0         0         0
         0         0         0         0         0         0         0         0
         0         0         0         0         0         0         0         0
         0         0         0         0         0         0         0         0
         0         0         0         0         0         0         0         0
         0         0         0         0         0         0         0         0
         0         0         0         0         0         0         0         0
         0         0         0         0         0         0         0         0
         0         0         0         0         0         0         0         0
         0         0         0         0         0         0         0         0
         0         0         0         0         0         0         0         0
         0         0         0         0         0         0         0         0
         0         0         0         0         0         0         0         0
         0         0         0         0         0         0         0         0
         0         0         0         0         0         0         0         0
         0         0         0         0         0         0         0         0
         0         0         0         0         0         0         0         0
         0         0         0         0         0         0         0         0
         0         0         0         0         0         0         0         0
         0         0         0         0         0         0         0         0
         0         0         0         0         0         0         0         0
         0         0         0         0         0         0         0         0
         0         0         0         0         0         0         0         0
         0         0         0         0         0         0         0         0
         0         0         0         0         0         0         0         0
         0         0         0         0         0         0         0         0
         0         0         0         0         0         0         0         0
         0         0         0         0         0         0         0         0
         0         0         0         0         0         0         0         0
         0         0         0         0         0         0         0         0
         0         0         0         0         0         0         0         0
         0         0         0         0         0         0         0         0
         0         0         0         0         0         0         0         0
         0         0         0         0         0         0         0         0
         0         0         0         0         0         0         0         0
         0         0         0         0         0         0         0         0
         0         0         0         0         0         0         0         0
         0         0         0         0         0         0         0         0
         0         0         0         0         0         0         0         0
         0         0         0         0         0         0         0         0
         0         0         0         0         0         0         0         0
         0         0         0         0         0         0         0         0
         0         0         0         0         0         0         0         0
         0         0         0         0         0         0         0         0
         0         0         0         0         0         0         0         0
         0         0         0         0         0         0         0         0
         0         0         0         0         0         0         0         0
         0         0         0         0         0         0         0         0
         0         0         0         0         0         0         0         0
         0         0         0         0         0         0         0         0
         0         0         0         0         0         0         0         0
         0         0         0         0         0         0         0         0
         0         0         0         0         0         0         0         0
         0         0         0         0         0         0         0         0
         0         0         0         0         0         0         0         0
         0         0         0         0         0         0         0         0
         0         0         0         0         0         0         0         0
         0         0         0         0         0         0         0         0
         0         0         0         0         0         0         0         0
         0         0         0         0         0         0         0         0
         0         0         0         0         0         0         0         0
         0         0         0         0         0         0         0         0
         0         0         0         0         0         0         0         0
         0         0         0         0         0         0         0         0
         0         0         0         0         0         0         0         0
         0         0         0         0         0         0         0         0
         0         0         0         0         0         0         0         0
         0         0         0         0         0         0         0         0
         0         0         0         0         0         0         0         0
         0         0         0         0         0         0         0         0
         0         0         0         0         0         0         0         0
         0         0         0         0         0         0         0         0
         0         0         0         0         0         0         0         0
         0         0         0         0         0         0         0         0
         0         0         0         0         0         0         0         0
         0         0         0         0         0         0         0         0
         0         0         0         0         0         0         0         0
         0         0         0         0         0         0         0         0
         0         0         0         0         0         0         0         0
         0         0         0         0         0         0         0         0
         0         0         0         0         0         0         0         0
         0         0         0         0         0         0         0         0
         0         0         0         0         0         0         0         0
         0         0         0         0         0         0         0         0
         0         0         0         0         0         0         0         0
         0         0         0         0         0         0         0         0
         0         0         0         0         0         0         0         0
         0         0         0         0         0         0         0         0
         0         0         0         0         0         0         0         0
         0         0         0         0         0         0         0         0
         0         0         0         0         0         0         0         0
         0         0         0         0         0         0         0         0
         0         0         0         0         0         0         0         0
         0         0         0         0         0         0         0         0
         0         0         0         0         0         0         0         0
         0         0         0         0         0         0         0         0
         0         0         0         0         0         0         0         0
         0         0         0         0         0         0         0         0
         0         0         0         0         0         0         0         0
         0         0         0         0         0         0         0         0
         0         0         0         0         0         0         0         0
         0         0         0         0         0         0         0         0
         0         0         0         0         0         0         0         0
         0         0         0         0         0         0         0         0
         0         0         0         0         0         0         0         0
         0         0         0         0         0         0         0         0
         0         0         0         0         0         0         0         0
         0         0         0         0         0         0         0         0
         0         0         0         0         0         0         0         0
         0         0         0         0         0         0         0         0
         0         0         0         0         0         0         0         0
         0         0         0         0         0         0         0         0
         0         0         0         0         0         0         0         0
         0         0         0         0         0         0         0         0
         0         0         0         0         0         0         0         0
         0         0         0         0         0         0         0         0
         0         0         0         0         0         0         0         0
         0         0         0         0         0         0         0         0
         0         0         0         0         0         0         0         0
         0         0         0         0         0         0         0         0
         0         0         0         0         0         0         0         0
         0         0         0         0         0         0         0         0
         0         0         0         0         0         0         0         0
         0         0         0         0         0         0         0         0
         0         0         0         0         0         0         0         0
         0         0         0         0         0         0         0         0
         0         0         0         0         0         0         0         0
         0         0         0         0         0         0         0         0
         0         0         0         0         0         0         0         0
         0         0         0         0         0         0         0         0
         0         0         0         0         0         0         0         0
         0         0         0         0         0         0         0         0
         0         0         0         0         0         0         0         0
         0         0         0         0         0         0         0         0
         0         0         0         0         0         0         0         0
         0         0         0         0         0         0         0         0
         0         0         0         0         0         0         0         0
         0         0         0         0         0         0         0         0
         0         0         0         0         0         0         0         0
         0         0         0         0         0         0         0         0
         0         0         0         0         0         0         0         0
         0         0         0         0         0         0         0         0
         0         0         0         0         0         0         0         0
         0         0         0         0         0         0         0         0
         0         0         0         0         0         0         0         0
         0         0         0         0         0         0         0         0
         0         0         0         0         0         0         0         0
         0         0         0         0         0         0         0         0
         0         0         0         0         0         0         0         0
         0         0         0         0         0         0         0         0
         0         0         0         0         0         0         0         0
         0         0         0         0         0         0         0         0
         0         0         0         0         0         0         0         0
         0         0         0         0         0         0         0         0
         0         0         0         0         0         0         0         0
         0         0         0         0         0         0         0         0
         0         0         0         0         0         0         0         0
         0         0         0         0         0         0         0         0
         0         0         0         0         0         0         0         0
         0         0         0         0         0         0         0         0
         0         0         0         0         0         0         0         0
         0         0         0         0         0         0         0         0
         0         0         0         0         0         0         0         0
         0         0         0         0         0         0         0         0
         0         0         0         0         0         0         0         0
         0         0         0         0         0         0         0         0
         0         0         0         0         0         0         0         0
         0         0         0         0         0         0         0         0
         0         0         0         0         0         0         0         0
         0         0         0         0         0         0         0         0
         0         0         0         0         0         0         0         0
         0         0         0         0         0         0         0         0
         0         0         0         0         0         0         0         0
         0         0         0         0         0         0         0         0
         0         0         0         0         0         0         0         0
         0         0         0         0         0         0         0         0
         0         0         0         0         0         0         0         0
         0         0         0         0         0         0         0         0
         0         0         0         0         0         0         0         0
         0         0         0         0         0         0         0         0
         0         0         0         0         0         0         0         0
         0         0         0         0         0         0         0         0
         0         0         0         0         0         0         0         0
         0         0         0         0         0         0         0         0
         0         0         0         0         0         0         0         0
         0         0         0         0         0         0         0         0
         0         0         0         0         0         0         0         0
         0         0         0         0         0         0         0         0
         0         0         0         0         0         0         0         0
         0         0         0         0         0         0         0         0
         0         0         0         0         0         0         0         0
         0         0         0         0         0         0         0         0
         0         0         0         0         0         0         0         0
         0         0         0         0         0         0         0         0
         0         0         0         0         0         0         0         0
         0         0         0         0         0         0         0         0
         0         0         0         0         0         0         0         0
         0         0         0         0         0         0         0         0
         0         0         0         0         0         0         0         0
         0         0         0         0         0         0         0         0
         0         0         0         0         0         0         0         0
         0         0         0         0         0         0         0         0
         0         0         0         0         0         0         0         0
         0         0         0         0         0         0         0         0
         0         0         0         0         0         0         0         0
         0         0         0         0         0         0         0         0
         0         0         0         0         0         0         0         0
         0         0         0         0         0         0         0         0
         0         0         0         0         0         0         0         0
         0         0         0         0         0         0         0         0
         0         0         0         0         0         0         0         0
         0         0         0         0         0         0         0         0
         0         0         0         0         0         0         0         0
         0         0         0         0         0         0         0         0
         0         0         0         0         0         0         0         0
         0         0         0         0         0         0         0         0
         0         0         0         0         0         0         0         0
         0         0         0         0         0         0         0         0
         0         0         0         0         0         0         0         0
         0         0         0         0         0         0         0         0
         0         0         0         0         0         0         0         0
         0         0         0         0         0         0         0         0
         0         0         0         0         0         0         0         0
         0         0         0         0         0         0         0         0
         0         0         0         0         0         0         0         0
         0         0         0         0         0         0         0         0
         0         0         0         0         0         0         0         0
         0         0         0         0         0         0         0         0
         0         0         0         0         0         0         0         0
         0         0         0         0         0         0         0         0
         0         0         0         0         0         0         0         0
         0         0         0         0         0         0         0         0
         0         0         0         0         0         0         0         0
         0         0         0         0         0         0         0         0
         0         0         0         0         0         0         0         0
         0         0         0         0         0         0         0         0
         0         0         0         0         0         0         0         0
         0         0         0         0         0         0         0         0
         0         0         0         0         0         0         0         0
         0         0         0         0         0         0         0         0
         0         0         0         0         0         0         0         0
         0         0         0         0         0         0         0         0
         0         0         0         0         0         0         0         0
         0         0         0         0         0         0         0         0
         0         0         0         0         0         0         0         0
         0         0         0         0         0         0         0         0
         0         0         0         0         0         0         0         0
         0         0         0         0         0         0         0         0
         0         0         0         0         0         0         0         0
         0         0         0         0         0         0         0         0
         0         0         0         0         0         0         0         0
         0         0         0         0         0         0         0         0
         0         0         0         0         0         0         0         0
         0         0         0         0         0         0         0         0
         0         0         0         0         0         0         0         0
         0         0         0         0         0         0         0         0
         0         0         0         0         0         0         0         0
         0         0         0         0         0         0         0         0
         0         0         0         0         0         0         0         0
         0         0         0         0         0         0         0         0
         0         0         0         0         0         0         0         0
         0         0         0         0         0         0         0         0
         0         0         0         0         0         0         0         0
         0         0         0         0         0         0         0         0
         0         0         0         0         0         0         0         0
         0         0         0         0         0         0         0         0
         0         0         0         0         0         0         0         0
         0         0         0         0         0         0         0         0
         0         0         0         0         0         0         0         0
         0         0         0         0         0         0         0         0
         0         0         0         0         0         0         0         0
         0         0         0         0         0         0         0         0
         0         0         0         0         0         0         0         0
         0         0         0         0         0         0         0         0
         0         0         0         0         0         0         0         0
         0         0         0         0         0         0         0         0
         0         0         0         0         0         0         0         0
         0         0         0         0         0         0         0         0
         0         0         0         0         0         0         0         0
         0         0         0         0         0         0         0         0
         0         0         0         0         0         0         0         0
         0         0         0         0         0         0         0         0
         0         0         0         0         0         0         0         0
         0         0         0         0         0         0         0         0
         0         0         0         0         0         0         0         0
         0         0         0         0         0         0         0         0
         0         0         0         0         0         0         0         0
         0         0         0         0         0         0         0         0
         0         0         0         0         0         0         0         0
         0         0         0         0         0         0         0         0
         0         0         0         0         0         0         0         0
         0         0         0         0         0         0         0         0
         0         0         0         0         0         0         0         0
         0         0         0         0         0         0         0         0
         0         0         0         0         0         0         0         0
         0         0         0         0         0         0         0         0
         0         0         0         0         0         0         0         0
         0         0         0         0         0         0         0         0
         0         0         0         0         0         0         0         0
         0         0         0         0         0         0         0         0
         0         0         0         0         0         0         0         0
         0         0         0         0         0         0         0         0
         0         0         0         0         0         0         0         0
         0         0         0         0         0         0         0         0
         0         0         0         0         0         0         0         0
         0         0         0         0         0         0         0         0
         0         0         0         0         0         0         0         0
         0         0         0         0         0         0         0         0
         0         0         0         0         0         0         0         0
         0         0         0         0         0         0         0         0
         0         0         0         0         0         0         0         0
         0         0         0         0         0         0         0         0
         0         0         0         0         0         0         0         0
         0         0         0         0         0         0         0         0
         0         0         0         0         0         0         0         0
         0         0         0         0         0         0         0         0
         0         0         0         0         0         0         0         0
         0         0         0         0         0         0         0         0
         0         0         0         0         0         0         0         0
         0         0         0         0         0         0         0         0
         0         0         0         0         0         0         0         0
         0         0         0         0         0         0         0         0
         0         0         0         0         0         0         0         0
         0         0         0         0         0         0         0         0
         0         0         0         0         0         0         0         0
         0         0         0         0         0         0         0         0
         0         0         0         0         0         0         0         0
         0         0         0         0         0         0         0         0
         0         0         0         0         0         0         0         0
         0         0         0         0         0         0         0         0
         0         0         0         0         0         0         0         0
         0         0         0         0         0         0         0         0
         0         0         0         0         0         0         0         0
         0         0         0         0         0         0         0         0
         0         0         0         0         0         0         0         0
         0         0         0         0         0         0         0         0
         0         0         0         0         0         0         0         0
         0         0         0         0         0         0         0         0
         0         0         0         0         0         0         0         0
         0         0         0         0         0         0         0         0
         0         0         0         0         0         0         0         0
         0         0         0         0         0         0         0         0
         0         0         0         0         0         0         0         0
         0         0         0         0         0         0         0         0
         0         0         0         0         0         0         0         0
         0         0         0         0         0         0         0         0
         0         0         0         0         0         0         0         0
         0         0         0         0         0         0         0         0
         0         0         0         0         0         0         0         0
         0         0         0         0         0         0         0         0
         0         0         0         0         0         0         0         0
         0         0         0         0         0         0         0         0
         0         0         0         0         0         0         0         0
         0         0         0         0         0         0         0         0
         0         0         0         0         0         0         0         0
         0         0         0         0         0         0         0         0
         0         0         0         0         0         0         0         0
         0         0         0         0         0         0         0         0
         0         0         0         0         0         0         0         0
         0         0         0         0         0         0         0         0
         0         0         0         0         0         0         0         0
         0         0         0         0         0         0         0         0
         0         0         0         0         0         0         0         0
         0         0         0         0         0         0         0         0
         0         0         0         0         0         0         0         0
         0         0         0         0         0         0         0         0
         0         0         0         0         0         0         0         0
         0         0         0         0         0         0         0         0
         0         0         0         0         0         0         0         0
         0         0         0         0         0         0         0         0
         0         0         0         0         0         0         0         0
         0         0         0         0         0         0         0         0
         0         0         0         0         0         0         0         0
         0         0         0         0         0         0         0         0
         0         0         0         0         0         0         0         0
         0         0         0         0         0         0         0         0
         0         0         0         0         0         0         0         0
         0         0         0         0         0         0         0         0
         0         0         0         0         0         0         0         0
         0         0         0         0         0         0         0         0
         0         0         0         0         0         0         0         0
         0         0         0         0         0         0         0         0
         0         0         0         0         0         0         0         0
         0         0         0         0         0         0         0         0
         0         0         0         0         0         0         0         0
         0         0         0         0         0         0         0         0
         0         0         0         0         0         0         0         0
         0         0         0         0         0         0         0         0
         0         0         0         0         0         0         0         0
         0         0         0         0         0         0         0         0
         0         0         0         0         0         0         0         0
         0         0         0         0         0         0         0         0
         0         0         0         0         0         0         0         0
         0         0         0         0         0         0         0         0
         0         0         0         0         0         0         0         0
         0         0         0         0         0         0         0         0
         0         0         0         0         0         0         0         0
         0         0         0         0         0         0         0         0
         0         0         0         0         0         0         0         0
         0         0         0         0         0         0         0         0
         0         0         0         0         0         0         0         0
         0         0         0         0         0         0         0         0
         0         0         0         0         0         0         0         0
         0         0         0         0         0         0         0         0
         0         0         0         0         0         0         0         0
         0         0         0         0         0         0         0         0
         0         0         0         0         0         0         0         0
         0         0         0         0         0         0         0         0
         0         0         0         0         0         0         0         0
         0         0         0         0         0         0         0         0
         0         0         0         0         0         0         0         0
         0         0         0         0         0         0         0         0
         0         0         0         0         0         0         0         0
         0         0         0         0         0         0         0         0
         0         0         0         0         0         0         0         0
         0         0         0         0         0         0         0         0
         0         0         0         0         0         0         0         0
         0         0         0         0         0         0         0         0
         0         0         0         0         0         0         0         0
         0         0         0         0         0         0         0         0
         0         0         0         0         0         0         0         0
         0         0         0         0         0         0         0         0
         0         0         0         0         0         0         0         0
         0         0         0         0         0         0         0         0
         0         0         0         0         0         0         0         0
         0         0         0         0         0         0         0         0
         0         0         0         0         0         0         0         0
         0         0         0         0         0         0         0         0
         0         0         0         0         0         0         0         0
         0         0         0         0         0         0         0         0
         0         0         0         0         0         0         0         0
         0         0         0         0         0         0         0         0
         0         0         0         0         0         0         0         0
         0         0         0         0         0         0         0         0
         0         0         0         0         0         0         0         0
         0         0         0         0         0         0         0         0
         0         0         0         0         0         0         0         0
         0         0         0         0         0         0         0         0
         0         0         0         0         0         0         0         0
         0         0         0         0         0         0         0         0
         0         0         0         0         0         0         0         0
         0         0         0         0         0         0         0         0
         0         0         0         0         0         0         0         0
         0         0         0         0         0         0         0         0
         0         0         0         0         0         0         0         0
         0         0         0         0         0         0         0         0
         0         0         0         0         0         0         0         0
         0         0         0         0         0         0         0         0
         0         0         0         0         0         0         0         0
         0         0         0         0         0         0         0         0
         0         0         0         0         0         0         0         0
         0         0         0         0         0         0         0         0
         0         0         0         0         0         0         0         0
         0         0         0         0         0         0         0         0
         0         0         0         0         0         0         0         0
         0         0         0         0         0         0         0         0
         0         0         0         0         0         0         0         0
         0         0         0         0         0         0         0         0
         0         0         0         0         0         0         0         0
         0         0         0         0         0         0         0         0
         0         0         0         0         0         0         0         0
         0         0         0         0         0         0         0         0
         0         0         0         0         0         0         0         0
         0         0         0         0         0         0         0         0
         0         0         0         0         0         0         0         0
         0         0         0         0         0         0         0         0
         0         0         0         0         0         0         0         0
         0         0         0         0         0         0         0         0
         0         0         0         0         0         0         0         0
         0         0         0         0         0         0         0         0
         0         0         0         0         0         0         0         0
         0         0         0         0         0         0         0         0
         0         0         0         0         0         0         0         0
         0         0         0         0         0         0         0         0
         0         0         0         0         0         0         0         0
         0         0         0         0         0         0         0         0
         0         0         0         0         0         0         0         0
         0         0         0         0         0         0         0         0
         0         0         0         0         0         0         0         0
         0         0         0         0         0         0         0         0
         0         0         0         0         0         0         0         0
         0         0         0         0         0         0         0         0
         0         0         0         0         0         0         0         0
         0         0         0         0         0         0         0         0
         0         0         0         0         0         0         0         0
         0         0         0         0         0         0         0         0
         0         0         0         0         0         0         0         0
         0         0         0         0         0         0         0         0
         0         0         0         0         0         0         0         0
         0         0         0         0         0         0         0         0
         0         0         0         0         0         0         0         0
         0         0         0         0         0         0         0         0
         0         0         0         0         0         0         0         0
         0         0         0         0         0         0         0         0
         0         0         0         0         0         0         0         0
         0         0         0         0         0         0         0         0
         0         0         0         0         0         0         0         0
         0         0         0         0         0         0         0         0
         0         0         0         0         0         0         0         0
         0         0         0         0         0         0         0         0
         0         0         0         0         0         0         0         0
         0         0         0         0         0         0         0         0
         0         0         0         0         0         0         0         0
         0         0         0         0         0         0         0         0
         0         0         0         0         0         0         0         0
         0         0         0         0         0         0         0         0
         0         0         0         0         0         0         0         0
         0         0         0         0         0         0         0         0
         0         0         0         0         0         0         0         0
         0         0         0         0         0         0         0         0
         0         0         0         0         0         0         0         0
         0         0         0         0         0         0         0         0
         0         0         0         0         0         0         0         0
         0         0         0         0         0         0         0         0
         0         0         0         0         0         0         0         0
         0         0         0         0         0         0         0         0
         0         0         0         0         0         0         0         0
         0         0         0         0         0         0         0         0
         0         0         0         0         0         0         0         0
         0         0         0         0         0         0         0         0
         0         0         0         0         0         0         0         0
         0         0         0         0         0         0         0         0
         0         0         0         0         0         0         0         0
         0         0         0         0         0         0         0         0
         0         0         0         0         0         0         0         0
         0         0         0         0         0         0         0         0
         0         0         0         0         0         0         0         0
         0         0         0         0         0         0         0         0
         0         0         0         0         0         0         0         0
         0         0         0         0         0         0         0         0
         0         0         0         0         0         0         0         0
         0         0         0         0         0         0         0         0
         0         0         0         0         0         0         0         0
         0         0         0         0         0         0         0         0
         0         0         0         0         0         0         0         0
         0         0         0         0         0         0         0         0
         0         0         0         0         0         0         0         0
         0         0         0         0         0         0         0         0
         0         0         0         0         0         0         0         0
         0         0         0         0         0         0         0         0
         0         0         0         0         0         0         0         0
         0         0         0         0         0         0         0         0
         0         0         0         0         0         0         0         0
         0         0         0         0         0         0         0         0
         0         0         0         0         0         0         0         0
         0         0         0         0         0         0         0         0
         0         0         0         0         0         0         0         0
         0         0         0         0         0         0         0         0
         0         0         0         0         0         0         0         0
         0         0         0         0         0         0         0         0
         0         0         0         0         0         0         0         0
         0         0         0         0         0         0         0         0
         0         0         0         0         0         0         0         0
         0         0         0         0         0         0         0         0
         0         0         0         0         0         0         0         0
         0         0         0         0         0         0         0         0
         0         0         0         0         0         0         0         0
         0         0         0         0         0         0         0         0
         0         0         0         0         0         0         0         0
         0         0         0         0         0         0         0         0
         0         0         0         0         0         0         0         0
         0         0         0         0         0         0         0         0
         0         0         0         0         0         0         0         0
         0         0         0         0         0         0         0         0
         0         0         0         0         0         0         0         0
         0         0         0         0         0         0         0         0
         0         0         0         0         0         0         0         0
         0         0         0         0         0         0         0         0
         0         0         0         0         0         0         0         0
         0         0         0         0         0         0         0         0
         0         0         0         0         0         0         0         0
         0         0         0         0         0         0         0         0
         0         0         0         0         0         0         0         0
         0         0         0         0         0         0         0         0
         0         0         0         0         0         0         0         0
         0         0         0         0         0         0         0         0
         0         0         0         0         0         0         0         0
         0         0         0         0         0         0         0         0
         0         0         0         0         0         0         0         0
         0         0         0         0         0         0         0         0
         0         0         0         0         0         0         0         0
         0         0         0         0         0         0         0         0
         0         0         0         0         0         0         0         0
         0         0         0         0         0         0         0         0
         0         0         0         0         0         0         0         0
         0         0         0         0         0         0         0         0
         0         0         0         0         0         0         0         0
         0         0         0         0         0         0         0         0
         0         0         0         0         0         0         0         0
         0         0         0         0         0         0         0         0
         0         0         0         0         0         0         0         0
         0         0         0         0         0         0         0         0
         0         0         0         0         0         0         0         0
         0         0         0         0         0         0         0         0
         0         0         0         0         0         0         0         0
         0         0         0         0         0         0         0         0
         0         0         0         0         0         0         0         0
         0         0         0         0         0         0         0         0
         0         0         0         0         0         0         0         0
         0         0         0         0         0         0         0         0
         0         0         0         0         0         0         0         0
         0         0         0         0         0         0         0         0
         0         0         0         0         0         0         0         0
         0         0         0         0         0         0         0         0
         0         0         0         0         0         0         0         0
         0         0         0         0         0         0         0         0
         0         0         0         0         0         0         0         0
         0         0         0         0         0         0         0         0
         0         0         0         0         0         0         0         0
         0         0         0         0         0         0         0         0
         0         0         0         0         0         0         0         0
         0         0         0         0         0         0         0         0
         0         0         0         0         0         0         0         0
         0         0         0         0         0         0         0         0
         0         0         0         0         0         0         0         0
         0         0         0         0         0         0         0         0
         0         0         0         0         0         0         0         0
         0         0         0         0         0         0         0         0
         0         0         0         0         0         0         0         0
         0         0         0         0         0         0         0         0
         0         0         0         0         0         0         0         0
         0         0         0         0         0         0         0         0
         0         0         0         0         0         0         0         0
         0         0         0         0         0         0         0         0
         0         0         0         0         0         0         0         0
         0         0         0         0         0         0         0         0
         0         0         0         0         0         0         0         0
         0         0         0         0         0         0         0         0
         0         0         0         0         0         0         0         0
         0         0         0         0         0         0         0         0
         0         0         0         0         0         0         0         0
         0         0         0         0         0         0         0         0
         0         0         0         0         0         0         0         0
         0         0         0         0         0         0         0         0
         0         0         0         0         0         0         0         0
         0         0         0         0         0         0         0         0
         0         0         0         0         0         0         0         0
         0         0         0         0         0         0         0         0
         0         0         0         0         0         0         0         0
         0         0         0         0         0         0         0         0
         0         0         0         0         0         0         0         0
         0         0         0         0         0         0         0         0
         0         0         0         0         0         0         0         0
         0         0         0         0         0         0         0         0
         0         0         0         0         0         0         0         0
         0         0         0         0         0         0         0         0
         0         0         0         0         0         0         0         0
         0         0         0         0         0         0         0         0
         0         0         0         0         0         0         0         0
         0         0         0         0         0         0         0         0
         0         0         0         0         0         0         0         0
         0         0         0         0         0         0         0         0
         0         0         0         0         0         0         0         0
         0         0         0         0         0         0         0         0
         0         0         0         0         0         0         0         0
         0         0         0         0         0         0         0         0
         0         0         0         0         0         0         0         0
         0         0         0         0         0         0         0         0
         0         0         0         0         0         0         0         0
         0         0         0         0         0         0         0         0
         0         0         0         0         0         0         0         0
         0         0         0         0         0         0         0         0
         0         0         0         0         0         0         0         0
         0         0         0         0         0         0         0         0
         0         0         0         0         0         0         0         0
         0         0         0         0         0         0         0         0
         0         0         0         0         0         0         0         0
         0         0         0         0         0         0         0         0
         0         0         0         0         0         0         0         0
         0         0         0         0         0         0         0         0
         0         0         0         0         0         0         0         0
         0         0         0         0         0         0         0         0
         0         0         0         0         0         0         0         0
         0         0         0         0         0         0         0         0
         0         0         0         0         0         0         0         0
         0         0         0         0         0         0         0         0
         0         0         0         0         0         0         0         0
         0         0         0         0         0         0         0         0
         0         0         0         0         0         0         0         0
         0         0         0         0         0         0         0         0
         0         0         0         0         0         0         0         0
         0         0         0         0         0         0         0         0
         0         0         0         0         0         0         0         0
         0         0         0         0         0         0         0         0
         0         0         0         0         0         0         0         0
         0         0         0         0         0         0         0         0
         0         0         0         0         0         0         0         0
         0         0         0         0         0         0         0         0
         0         0         0         0         0         0         0         0
         0         0         0         0         0         0         0         0
         0         0         0         0         0         0         0         0
         0         0         0         0         0         0         0         0
         0         0         0         0         0         0         0         0
         0         0         0         0         0         0         0         0
         0         0         0         0         0         0         0         0
         0         0         0         0         0         0         0         0
         0         0         0         0         0         0         0         0
         0         0         0         0         0         0         0         0
         0         0         0         0         0         0         0         0
         0         0         0         0         0         0         0         0
         0         0         0         0         0         0         0         0
         0         0         0         0         0         0         0         0
         0         0         0         0         0         0         0         0
         0         0         0         0         0         0         0         0
         0         0         0         0         0         0         0         0
         0         0         0         0         0         0         0         0
         0         0         0         0         0         0         0         0
         0         0         0         0         0         0         0         0
         0         0         0         0         0         0         0         0
         0         0         0         0         0         0         0         0
         0         0         0         0         0         0         0         0
         0         0         0         0         0         0         0         0
         0         0         0         0         0         0         0         0
         0         0         0         0         0         0         0         0
         0         0         0         0         0         0         0         0
         0         0         0         0         0         0         0         0
         0         0         0         0         0         0         0         0
         0         0         0         0         0         0         0         0
         0         0         0         0         0         0         0         0
         0         0         0         0         0         0         0         0
         0         0         0         0         0         0         0         0
         0         0         0         0         0         0         0         0
         0         0         0         0         0         0         0         0
         0         0         0         0         0         0         0         0
         0         0         0         0         0         0         0         0
         0         0         0         0         0         0         0         0
         0         0         0         0         0         0         0         0
         0         0         0         0         0         0         0         0
         0         0         0         0         0         0         0         0
         0         0         0         0         0         0         0         0
         0         0         0         0         0         0         0         0
         0         0         0         0         0         0         0         0
         0         0         0         0         0         0         0         0
         0         0         0         0         0         0         0         0
         0         0         0         0         0         0         0         0
         0         0         0         0         0         0         0         0
         0         0         0         0         0         0         0         0
         0         0         0         0         0         0         0         0
         0         0         0         0         0         0         0         0
         0         0         0         0         0         0         0         0
         0         0         0         0         0         0         0         0
         0         0         0         0         0         0         0         0
         0         0         0         0         0         0         0         0
         0         0         0         0         0         0         0         0
         0         0         0         0         0         0         0         0
         0         0         0         0         0         0         0         0
         0         0         0         0         0         0         0         0
         0         0         0         0         0         0         0         0
         0         0         0         0         0         0         0         0
         0         0         0         0         0         0         0         0
         0         0         0         0         0         0         0         0
         0         0         0         0         0         0         0         0
         0         0         0         0         0         0         0         0
         0         0         0         0         0         0         0         0
         0         0         0         0         0         0         0         0
         0         0         0         0         0         0         0         0
         0         0         0         0         0         0         0         0
         0         0         0         0         0         0         0         0
         0         0         0         0         0         0         0         0
         0         0         0         0         0         0         0         0
         0         0         0         0         0         0         0         0
         0         0         0         0         0         0         0         0
         0         0         0         0         0         0         0         0
         0         0         0         0         0         0         0         0
         0         0         0         0         0         0         0         0
         0         0         0         0         0         0         0         0
         0         0         0         0         0         0         0         0
         0         0         0         0         0         0         0         0
         0         0         0         0         0         0         0         0
         0         0         0         0         0         0         0         0
         0         0         0         0         0         0         0         0
         0         0         0         0         0         0         0         0
         0         0         0         0         0         0         0         0
         0         0         0         0         0         0         0         0
         0         0         0         0         0         0         0         0
         0         0         0         0         0         0         0         0
         0         0         0         0         0         0         0         0
         0         0         0         0         0         0         0         0
         0         0         0         0         0         0         0         0
         0         0         0         0         0         0         0         0
         0         0         0         0         0         0         0         0
         0         0         0         0         0         0         0         0
         0         0         0         0         0         0         0         0
         0         0         0         0         0         0         0         0
         0         0         0         0         0         0         0         0
         0         0         0         0         0         0         0         0
         0         0         0         0         0         0         0         0
         0         0         0         0         0         0         0         0
         0         0         0         0         0         0         0         0
         0         0         0         0         0         0         0         0
         0         0         0         0         0         0         0         0
         0         0         0         0         0         0         0         0
         0         0         0         0         0         0         0         0
         0         0         0         0         0         0         0         0
         0         0         0         0         0         0         0         0
         0         0         0         0         0         0         0         0
         0         0         0         0         0         0         0         0
         0         0         0         0         0         0         0         0
         0         0         0         0         0         0         0         0
         0         0         0         0         0         0         0         0
         0         0         0         0         0         0         0         0
         0         0         0         0         0         0         0         0
         0         0         0         0         0         0         0         0
         0         0         0         0         0         0         0         0
         0         0         0         0         0         0         0         0
         0         0         0         0         0         0         0         0
         0         0         0         0         0         0         0         0
         0         0         0         0         0         0         0         0
         0         0         0         0         0         0         0         0
         0         0         0         0         0         0         0         0
         0         0         0         0         0         0         0         0
         0         0         0         0         0         0         0         0
         0         0         0         0         0         0         0         0
         0         0         0         0         0         0         0         0
         0         0         0         0         0         0         0         0
         0         0         0         0         0         0         0         0
         0         0         0         0         0         0         0         0
         0         0         0         0         0         0         0         0
         0         0         0         0         0         0         0         0
         0         0         0         0         0         0         0         0
         0         0         0         0         0         0         0         0
         0         0         0         0         0         0         0         0
         0         0         0         0         0         0         0         0
         0         0         0         0         0         0         0         0
         0         0         0         0         0         0         0         0
         0         0         0         0         0         0         0         0
         0         0         0         0         0         0         0         0
         0         0         0         0         0         0         0         0
         0         0         0         0         0         0         0         0
         0         0         0         0         0         0         0         0
         0         0         0         0         0         0         0         0
         0         0         0         0         0         0         0         0
         0         0         0         0         0         0         0         0
         0         0         0         0         0         0         0         0
         0         0         0         0         0         0         0         0
         0         0         0         0         0         0         0         0
         0         0         0         0         0         0         0         0
         0         0         0         0         0         0         0         0
         0         0         0         0         0         0         0         0
         0         0         0         0         0         0         0         0
         0         0         0         0         0         0         0         0
         0         0         0         0         0         0         0         0
         0         0         0         0         0         0         0         0
         0         0         0         0         0         0         0         0
         0         0         0         0         0         0         0         0
         0         0         0         0         0         0         0         0
         0         0         0         0         0         0         0         0
         0         0         0         0         0         0         0         0
         0         0         0         0         0         0         0         0
         0         0         0         0         0         0         0         0
         0         0         0         0         0         0         0         0
         0         0         0         0         0         0         0         0
         0         0         0         0         0         0         0         0
         0         0         0         0         0         0         0         0
         0         0         0         0         0         0         0         0
         0         0         0         0         0         0         0         0
         0         0         0         0         0         0         0         0
         0         0         0         0         0         0         0         0
         0         0         0         0         0         0         0         0
         0         0         0         0         0         0         0         0
         0         0         0         0         0         0         0         0
         0         0         0         0         0         0         0         0
         0         0         0         0         0         0         0         0
         0         0         0         0         0         0         0         0
         0         0         0         0         0         0         0         0
         0         0         0         0         0         0         0         0
         0         0         0         0         0         0         0         0
         0         0         0         0         0         0         0         0
         0         0         0         0         0         0         0         0
         0         0         0         0         0         0         0         0
         0         0         0         0         0         0         0         0
         0         0         0         0         0         0         0         0
         0         0         0         0         0         0         0         0
         0         0         0         0         0         0         0         0
         0         0         0         0         0         0         0         0
         0         0         0         0         0         0         0         0
         0         0         0         0         0         0         0         0
         0         0         0         0         0         0         0         0
         0         0         0         0         0         0         0         0
         0         0         0         0         0         0         0         0
         0         0         0         0         0         0         0         0
         0         0         0         0         0         0         0         0
         0         0         0         0         0         0         0         0
         0         0         0         0         0         0         0         0
         0         0         0         0         0         0         0         0
         0         0         0         0         0         0         0         0
         0         0         0         0         0         0         0         0
         0         0         0         0         0         0         0         0
         0         0         0         0         0         0         0         0
         0         0         0         0         0         0         0         0
         0         0         0         0         0         0         0         0
         0         0         0         0         0         0         0         0
         0         0         0         0         0         0         0         0
         0         0         0         0         0         0         0         0
         0         0         0         0         0         0         0         0
         0         0         0         0         0         0         0         0
         0         0         0         0         0         0         0         0
         0         0         0         0         0         0         0         0
         0         0         0         0         0         0         0         0
         0         0         0         0         0         0         0         0
         0         0         0         0         0         0         0         0
         0         0         0         0         0         0         0         0
         0         0         0         0         0         0         0         0
         0         0         0         0         0         0         0         0
         0         0         0         0         0         0         0         0
         0         0         0         0         0         0         0         0
         0         0         0         0         0         0         0         0
         0         0         0         0         0         0         0         0
         0         0         0         0         0         0         0         0
         0         0         0         0         0         0         0         0
         0         0         0         0         0         0         0         0
         0         0         0         0         0         0         0         0
         0         0         0         0         0         0         0         0
         0         0         0         0         0         0         0         0
         0         0         0         0         0         0         0         0
         0         0         0         0         0         0         0         0
         0         0         0         0         0         0         0         0
         0         0         0         0         0         0         0         0
         0         0         0         0         0         0         0         0
         0         0         0         0         0         0         0         0
         0         0         0         0         0         0         0         0
         0         0         0         0         0         0         0         0
         0         0         0         0         0         0         0         0
         0         0         0         0         0         0         0         0
         0         0         0         0         0         0         0         0
         0         0         0         0         0         0         0         0
         0         0         0         0         0         0         0         0
         0         0         0         0         0         0         0         0
         0         0         0         0         0         0         0         0
         0         0         0         0         0         0         0         0
         0         0         0         0         0         0         0         0
         0         0         0         0         0         0         0         0
         0         0         0         0         0         0         0         0
         0         0         0         0         0         0         0         0
         0         0         0         0         0         0         0         0
         0         0         0         0         0         0         0         0
         0         0         0         0         0         0         0         0
         0         0         0         0         0         0         0         0
         0         0         0         0         0         0         0         0
         0         0         0         0         0         0         0         0
         0         0         0         0         0         0         0         0
         0         0         0         0         0         0         0         0
         0         0         0         0         0         0         0         0
         0         0         0         0         0         0         0         0
         0         0         0         0         0         0         0         0
         0         0         0         0         0         0         0         0
         0         0         0         0         0         0         0         0
         0         0         0         0         0         0         0         0
         0         0         0         0         0         0         0         0
         0         0         0         0         0         0         0         0
         0         0         0         0         0         0         0         0
         0         0         0         0         0         0         0         0
         0         0         0         0         0         0         0         0
         0         0         0         0         0         0         0         0
         0         0         0         0         0         0         0         0
         0         0         0         0         0         0         0         0
         0         0         0         0         0         0         0         0
         0         0         0         0         0         0         0         0
         0         0         0         0         0         0         0         0
         0         0         0         0         0         0         0         0
         0         0         0         0         0         0         0         0
         0         0         0         0         0         0         0         0
         0         0         0         0         0         0         0         0
         0         0         0         0         0         0         0         0
         0         0         0         0         0         0         0         0
         0         0         0         0         0         0         0         0
         0         0         0         0         0         0         0         0
         0         0         0         0         0         0         0         0
         0         0         0         0         0         0         0         0
         0         0         0         0         0         0         0         0
         0         0         0         0         0         0         0         0
         0         0         0         0         0         0         0         0
         0         0         0         0         0         0         0         0
         0         0         0         0         0         0         0         0
         0         0         0         0         0         0         0         0
         0         0         0         0         0         0         0         0
         0         0         0         0         0         0         0         0
         0         0         0         0         0         0         0         0
         0         0         0         0         0         0         0         0
         0         0         0         0         0         0         0         0
         0         0         0         0         0         0         0         0
         0         0         0         0         0         0         0         0
         0         0         0         0         0         0         0         0
         0         0         0         0         0         0         0         0
         0         0         0         0         0         0         0         0
         0         0         0         0         0         0         0         0
         0         0         0         0         0         0         0         0
         0         0         0         0         0         0         0         0
         0         0         0         0         0         0         0         0
         0         0         0         0         0         0         0         0
         0         0         0         0         0         0         0         0
         0         0         0         0         0         0         0         0
         0         0         0         0         0         0         0         0
         0         0         0         0         0         0         0         0
         0         0         0         0         0         0         0         0
         0         0         0         0         0         0         0         0
         0         0         0         0         0         0         0         0
         0         0         0         0         0         0         0         0
         0         0         0         0         0         0         0         0
         0         0         0         0         0         0         0         0
         0         0         0         0         0         0         0         0
         0         0         0         0         0         0         0         0
         0         0         0         0         0         0         0         0
         0         0         0         0         0         0         0         0
         0         0         0         0         0         0         0         0
         0         0         0         0         0         0         0         0
         0         0         0         0         0         0         0         0
         0         0         0         0         0         0         0         0
         0         0         0         0         0         0         0         0
         0         0         0         0         0         0         0         0
         0         0         0         0         0         0         0         0
         0         0         0         0         0         0         0         0
         0         0         0         0         0         0         0         0
         0         0         0         0         0         0         0         0
         0         0         0         0         0         0         0         0
         0         0         0         0         0         0         0         0
         0         0         0         0         0         0         0         0
         0         0         0         0         0         0         0         0
         0         0         0         0         0         0         0         0
         0         0         0         0         0         0         0         0
         0         0         0         0         0         0         0         0
         0         0         0         0         0         0         0         0
         0         0         0         0         0         0         0         0
         0         0         0         0         0         0         0         0
         0         0         0         0         0         0         0         0
         0         0         0         0         0         0         0         0
         0         0         0         0         0         0         0         0
         0         0         0         0         0         0         0         0
         0         0         0         0         0         0         0         0
         0         0         0         0         0         0         0         0
         0         0         0         0         0         0         0         0
         0         0         0         0         0         0         0         0
         0         0         0         0         0         0         0         0
         0         0         0         0         0         0         0         0
         0         0         0         0         0         0         0         0
         0         0         0         0         0         0         0         0
         0         0         0         0         0         0         0         0
         0         0         0         0         0         0         0         0
         0         0         0         0         0         0         0         0
         0         0         0         0         0         0         0         0
         0         0         0         0         0         0         0         0
         0         0         0         0         0         0         0         0
         0         0         0         0         0         0         0         0
         0         0         0         0         0         0         0         0
         0         0         0         0         0         0         0         0
         0         0         0         0         0         0         0         0
         0         0         0         0         0         0         0         0
         0         0         0         0         0         0         0         0
         0         0         0         0         0         0         0         0
         0         0         0         0         0         0         0         0
         0         0         0         0         0         0         0         0
         0         0         0         0         0         0         0         0
         0         0         0         0         0         0         0         0
         0         0         0         0         0         0         0         0
         0         0         0         0         0         0         0         0
         0         0         0         0         0         0         0         0
         0         0         0         0         0         0         0         0
         0         0         0         0         0         0         0         0
         0         0         0         0         0         0         0         0
         0         0         0         0         0         0         0         0
         0         0         0         0         0         0         0         0
         0         0         0         0         0         0         0         0
         0         0         0         0         0         0         0         0
         0         0         0         0         0         0         0         0
         0         0         0         0         0         0         0         0
         0         0         0         0         0         0         0         0
         0         0         0         0         0         0         0         0
         0         0         0         0         0         0         0         0
         0         0         0         0         0         0         0         0
         0         0         0         0         0         0         0         0
         0         0         0         0         0         0         0         0
         0         0         0         0         0         0         0         0
         0         0         0         0         0         0         0         0
         0         0         0         0         0         0         0         0
         0         0         0         0         0         0         0         0
         0         0         0         0         0         0         0         0
         0         0         0         0         0         0         0         0
         0         0         0         0         0         0         0         0
         0         0         0         0         0         0         0         0
         0         0         0         0         0         0         0         0
         0         0         0         0         0         0         0         0
         0         0         0         0         0         0         0         0
         0         0         0         0         0         0         0         0
         0         0         0         0         0         0         0         0
         0         0         0         0         0         0         0         0
         0         0         0         0         0         0         0         0
         0         0         0         0         0         0         0         0
         0         0         0         0         0         0         0         0
         0         0         0         0         0         0         0         0
         0         0         0         0         0         0         0         0
         0         0         0         0         0         0         0         0
         0         0         0         0         0         0         0         0
         0         0         0         0         0         0         0         0
         0         0         0         0         0         0         0         0
         0         0         0         0         0         0         0         0
         0         0         0         0         0         0         0         0
         0         0         0         0         0         0         0         0
         0         0         0         0         0         0         0         0
         0         0         0         0         0         0         0         0
         0         0         0         0         0         0         0         0
         0         0         0         0         0         0         0         0
         0         0         0         0         0         0         0         0
         0         0         0         0         0         0         0         0
         0         0         0         0         0         0         0         0
         0         0         0         0         0         0         0         0
         0         0         0         0         0         0         0         0
         0         0         0         0         0         0         0         0
         0         0         0         0         0         0         0         0
         0         0         0         0         0         0         0         0
         0         0         0         0         0         0         0         0
         0         0         0         0         0         0         0         0
         0         0         0         0         0         0         0         0
         0         0         0         0         0         0         0         0
         0         0         0         0         0         0         0         0
         0         0         0         0         0         0         0         0
         0         0         0         0         0         0         0         0
         0         0         0         0         0         0         0         0
         0         0         0         0         0         0         0         0
         0         0         0         0         0         0         0         0
         0         0         0         0         0         0         0         0
         0         0         0         0         0         0         0         0
         0         0         0         0         0         0         0         0
         0         0         0         0         0         0         0         0
         0         0         0         0         0         0         0         0
         0         0         0         0         0         0         0         0
         0         0         0         0         0         0         0         0
         0         0         0         0         0         0         0         0
         0         0         0         0         0         0         0         0
         0         0         0         0         0         0         0         0
         0         0         0         0         0         0         0         0
         0         0         0         0         0         0         0         0
         0         0         0         0         0         0         0         0
         0         0         0         0         0         0         0         0
         0         0         0         0         0         0         0         0
         0         0         0         0         0         0         0         0
         0         0         0         0         0         0         0         0
         0         0         0         0         0         0         0         0
         0         0         0         0         0         0         0         0
         0         0         0         0         0         0         0         0
         0         0         0         0         0         0         0         0
         0         0         0         0         0         0         0         0
         0         0         0         0         0         0         0         0
         0         0         0         0         0         0         0         0
         0         0         0         0         0         0         0         0
         0         0         0         0         0         0         0         0
         0         0         0         0         0         0         0         0
         0         0         0         0         0         0         0         0
         0         0         0         0         0         0         0         0
         0         0         0         0         0         0         0         0
         0         0         0         0         0         0         0         0
         0         0         0         0         0         0         0         0
         0         0         0         0         0         0         0         0
         0         0         0         0         0         0         0         0
         0         0         0         0         0         0         0         0
         0         0         0         0         0         0         0         0
         0         0         0         0         0         0         0         0
         0         0         0         0         0         0         0         0
         0         0         0         0         0         0         0         0
         0         0         0         0         0         0         0         0
         0         0         0         0         0         0         0         0
         0         0         0         0         0         0         0         0
         0         0         0         0         0         0         0         0
         0         0         0         0         0         0         0         0
         0         0         0         0         0         0         0         0
         0         0         0         0         0         0         0         0
         0         0         0         0         0         0         0         0
         0         0         0         0         0         0         0         0
         0         0         0         0         0         0         0         0
         0         0         0         0         0         0         0         0
         0         0         0         0         0         0         0         0
         0         0         0         0         0         0         0         0
         0         0         0         0         0         0         0         0
         0         0         0         0         0         0         0         0
         0         0         0         0         0         0         0         0
         0         0         0         0         0         0         0         0
         0         0         0         0         0         0         0         0
         0         0         0         0         0         0         0         0
         0         0         0         0         0         0         0         0
         0         0         0         0         0         0         0         0
         0         0         0         0         0         0         0         0
         0         0         0         0         0         0         0         0
         0         0         0         0         0         0         0         0
         0         0         0         0         0         0         0         0
         0         0         0         0         0         0         0         0
         0         0         0         0         0         0         0         0
         0         0         0         0         0         0         0         0
         0         0         0         0         0         0         0         0
         0         0         0         0         0         0         0         0
         0         0         0         0         0         0         0         0
         0         0         0         0         0         0         0         0
         0         0         0         0         0         0         0         0
         0         0         0         0         0         0         0         0
         0         0         0         0         0         0         0         0
         0         0         0         0         0         0         0         0
         0         0         0         0         0         0         0         0
         0         0         0         0         0         0         0         0
         0         0         0         0         0         0         0         0
         0         0         0         0         0         0         0         0
         0         0         0         0         0         0         0         0
         0         0         0         0         0         0         0         0
         0         0         0         0         0         0         0         0
         0         0         0         0         0         0         0         0
         0         0         0         0         0         0         0         0
         0         0         0         0         0         0         0         0
         0         0         0         0         0         0         0         0
         0         0         0         0         0         0         0         0
         0         0         0         0         0         0         0         0
         0         0         0         0         0         0         0         0
         0         0         0         0         0         0         0         0
         0         0         0         0         0         0         0         0
         0         0         0         0         0         0         0         0
         0         0         0         0         0         0         0         0
         0         0         0         0         0         0         0         0
         0         0         0         0         0         0         0         0
         0         0         0         0         0         0         0         0
         0         0         0         0         0         0         0         0
         0         0         0         0         0         0         0         0
         0         0         0         0         0         0         0         0
         0         0         0         0         0         0         0         0
         0         0         0         0         0         0         0         0
         0         0         0         0         0         0         0         0
         0         0         0         0         0         0         0         0
         0         0         0         0         0         0         0         0
         0         0         0         0         0         0         0         0
         0         0         0         0         0         0         0         0
         0         0         0         0         0         0         0         0
         0         0         0         0         0         0         0         0
         0         0         0         0         0         0         0         0
         0         0         0         0         0         0         0         0
         0         0         0         0         0         0         0         0
         0         0         0         0         0         0         0         0
         0         0         0         0         0         0         0         0
         0         0         0         0         0         0         0         0
         0         0         0         0         0         0         0         0
         0         0         0         0         0         0         0         0
         0         0         0         0         0         0         0         0
         0         0         0         0         0         0         0         0
         0         0         0         0         0         0         0         0
         0         0         0         0         0         0         0         0
         0         0         0         0         0         0         0         0
         0         0         0         0         0         0         0         0
         0         0         0         0         0         0         0         0
         0         0         0         0         0         0         0         0
         0         0         0         0         0         0         0         0
         0         0         0         0         0         0         0         0
         0         0         0         0         0         0         0         0
         0         0         0         0         0         0         0         0
         0         0         0         0         0         0         0         0
         0         0         0         0         0         0         0         0
         0         0         0         0         0         0         0         0
         0         0         0         0         0         0         0         0
         0         0         0         0         0         0         0         0
         0         0         0         0         0         0         0         0
         0         0         0         0         0         0         0         0
         0         0         0         0         0         0         0         0
         0         0         0         0         0         0         0         0
         0         0         0         0         0         0         0         0
         0         0         0         0         0         0         0         0
         0         0         0         0         0         0         0         0
         0         0         0         0         0         0         0         0
         0         0         0         0         0         0         0         0
         0         0         0         0         0         0         0         0
         0         0         0         0         0         0         0         0
         0         0         0         0         0         0         0         0
         0         0         0         0         0         0         0         0
         0         0         0         0         0         0         0         0
         0         0         0         0         0         0         0         0
         0         0         0         0         0         0         0         0
         0         0         0         0         0         0         0         0
         0         0         0         0         0         0         0         0
         0         0         0         0         0         0         0         0
         0         0         0         0         0         0         0         0
         0         0         0         0         0         0         0         0
         0         0         0         0         0         0         0         0
         0         0         0         0         0         0         0         0
         0         0         0         0         0         0         0         0
         0         0         0         0         0         0         0         0
         0         0         0         0         0         0         0         0
         0         0         0         0         0         0         0         0
         0         0         0         0         0         0         0         0
         0         0         0         0         0         0         0         0
         0         0         0         0         0         0         0         0
         0         0         0         0         0         0         0         0
         0         0         0         0         0         0         0         0
         0         0         0         0         0         0         0         0
         0         0         0         0         0         0         0         0
         0         0         0         0         0         0         0         0
         0         0         0         0         0         0         0         0
         0         0         0         0         0         0         0         0
         0         0         0         0         0         0         0         0
         0         0         0         0         0         0         0         0
         0         0         0         0         0         0         0         0
         0         0         0         0         0         0         0         0
         0         0         0         0         0         0         0         0
         0         0         0         0         0         0         0         0
         0         0         0         0         0         0         0         0
         0         0         0         0         0         0         0         0
         0         0         0         0         0         0         0         0
         0         0         0         0         0         0         0         0
         0         0         0         0         0         0         0         0
         0         0         0         0         0         0         0         0
         0         0         0         0         0         0         0         0
         0         0         0         0         0         0         0         0
         0         0         0         0         0         0         0         0
         0         0         0         0         0         0         0         0
         0         0         0         0         0         0         0         0
         0         0         0         0         0         0         0         0
         0         0         0         0         0         0         0         0
         0         0         0         0         0         0         0         0
         0         0         0         0         0         0         0         0
         0         0         0         0         0         0         0         0
         0         0         0         0         0         0         0         0
         0         0         0         0         0         0         0         0
         0         0         0         0         0         0         0         0
         0         0         0         0         0         0         0         0
         0         0         0         0         0         0         0         0
         0         0         0         0         0         0         0         0
         0         0         0         0         0         0         0         0
         0         0         0         0         0         0         0         0
         0         0         0         0         0         0         0         0
         0         0         0         0         0         0         0         0
         0         0         0         0         0         0         0         0
         0         0         0         0         0         0         0         0
         0         0         0         0         0         0         0         0
         0         0         0         0         0         0         0         0
         0         0         0         0         0         0         0         0
         0         0         0         0         0         0         0         0
         0         0         0         0         0         0         0         0
         0         0         0         0         0         0         0         0
         0         0         0         0         0         0         0         0
         0         0         0         0         0         0         0         0
         0         0         0         0         0         0         0         0
         0         0         0         0         0         0         0         0
         0         0         0         0         0         0         0         0
         0         0         0         0         0         0         0         0
         0         0         0         0         0         0         0         0
         0         0         0         0         0         0         0         0
         0         0         0         0         0         0         0         0
         0         0         0         0         0         0         0         0
         0         0         0         0         0         0         0         0
         0         0         0         0         0         0         0         0
         0         0         0         0         0         0         0         0
         0         0         0         0         0         0         0         0
         0         0         0         0         0         0         0         0
         0         0         0         0         0         0         0         0
         0         0         0         0         0         0         0         0
         0         0         0         0         0         0         0         0
         0         0         0         0         0         0         0         0
         0         0         0         0         0         0         0         0
         0         0         0         0         0         0         0         0
         0         0         0         0         0         0         0         0
         0         0         0         0         0         0         0         0
         0         0         0         0         0         0         0         0
         0         0         0         0         0         0         0         0
         0         0         0         0         0         0         0         0
         0         0         0         0         0         0         0         0
         0         0         0         0         0         0         0         0
         0         0         0         0         0         0         0         0
         0         0         0         0         0         0         0         0
         0         0         0         0         0         0         0         0
         0         0         0         0         0         0         0         0
         0         0         0         0         0         0         0         0
         0         0         0         0         0         0         0         0
         0         0         0         0         0         0         0         0
         0         0         0         0         0         0         0         0
         0         0         0         0         0         0         0         0
         0         0         0         0         0         0         0         0
         0         0         0         0         0         0         0         0
         0         0         0         0         0         0         0         0
         0         0         0         0         0         0         0         0
         0         0         0         0         0         0         0         0
         0         0         0         0         0         0         0         0
         0         0         0         0         0         0         0         0
         0         0         0         0         0         0         0         0
         0         0         0         0         0         0         0         0
         0         0         0         0         0         0         0         0
         0         0         0         0         0         0         0         0
         0         0         0         0         0         0         0         0
         0         0         0         0         0         0         0         0
         0         0         0         0         0         0         0         0
         0         0         0         0         0         0         0         0
         0         0         0         0         0         0         0         0
         0         0         0         0         0         0         0         0
         0         0         0         0         0         0         0         0
         0         0         0         0         0         0         0         0
         0         0         0         0         0         0         0         0
         0         0         0         0         0         0         0         0
         0         0         0         0         0         0         0         0
         0         0         0         0         0         0         0         0
         0         0         0         0         0         0         0         0
         0         0         0         0         0         0         0         0
         0         0         0         0         0         0         0         0
         0         0         0         0         0         0         0         0
         0         0         0         0         0         0         0         0
         0         0         0         0         0         0         0         0
         0         0         0         0         0         0         0         0
         0         0         0         0         0         0         0         0
         0         0         0         0         0         0         0         0
         0         0         0         0         0         0         0         0
         0         0         0         0         0         0         0         0
         0         0         0         0         0         0         0         0
         0         0         0         0         0         0         0         0
         0         0         0         0         0         0         0         0
         0         0         0         0         0         0         0         0
         0         0         0         0         0         0         0         0
         0         0         0         0         0         0         0         0
         0         0         0         0         0         0         0         0
         0         0         0         0         0         0         0         0
         0         0         0         0         0         0         0         0
         0         0         0         0         0         0         0         0
         0         0         0         0         0         0         0         0
         0         0         0         0         0         0         0         0
         0         0         0         0         0         0         0         0
         0         0         0         0         0         0         0         0
         0         0         0         0         0         0         0         0
         0         0         0         0         0         0         0         0
         0         0         0         0         0         0         0         0
         0         0         0         0         0         0         0         0
         0         0         0         0         0         0         0         0
         0         0         0         0         0         0         0         0
         0         0         0         0         0         0         0         0
         0         0         0         0         0         0         0         0
         0         0         0         0         0         0         0         0
         0         0         0         0         0         0         0         0
         0         0         0         0         0         0         0         0
         0         0         0         0         0         0         0         0
         0         0         0         0         0         0         0         0
         0         0         0         0         0         0         0         0
         0         0         0         0         0         0         0         0
         0         0         0         0         0         0         0         0
         0         0         0         0         0         0         0         0
         0         0         0         0         0         0         0         0
         0         0         0         0         0         0         0         0
         0         0         0         0         0         0         0         0
         0         0         0         0         0         0         0         0
         0         0         0         0         0         0         0         0
         0         0         0         0         0         0         0         0
         0         0         0         0         0         0         0         0
         0         0         0         0         0         0         0         0
         0         0         0         0         0         0         0         0
         0         0         0         0         0         0         0         0
         0         0         0         0         0         0         0         0
         0         0         0         0         0         0         0         0
         0         0         0         0         0         0         0         0
         0         0         0         0         0         0         0         0
         0         0         0         0         0         0         0         0
         0         0         0         0         0         0         0         0
         0         0         0         0         0         0         0         0
         0         0         0         0         0         0         0         0
         0         0         0         0         0         0         0         0
         0         0         0         0         0         0         0         0
         0         0         0         0         0         0         0         0
         0         0         0         0         0         0         0         0
         0         0         0         0         0         0         0         0
         0         0         0         0         0         0         0         0
         0         0         0         0         0         0         0         0
         0         0         0         0         0         0         0         0
         0         0         0         0         0         0         0         0
         0         0         0         0         0         0         0         0
         0         0         0         0         0         0         0         0
         0         0         0         0         0         0         0         0
         0         0         0         0         0         0         0         0
         0         0         0         0         0         0         0         0
         0         0         0         0         0         0         0         0
         0         0         0         0         0         0         0         0
         0         0         0         0         0         0         0         0
         0         0         0         0         0         0         0         0
         0         0         0         0         0         0         0         0
         0         0         0         0         0         0         0         0
         0         0         0         0         0         0         0         0
         0         0         0         0         0         0         0         0
         0         0         0         0         0         0         0         0
         0         0         0         0         0         0         0         0
         0         0         0         0         0         0         0         0
         0         0         0         0         0         0         0         0
         0         0         0         0         0         0         0         0
         0         0         0         0         0         0         0         0
         0         0         0         0         0         0         0         0
         0         0         0         0         0         0         0         0
         0         0         0         0         0         0         0         0
         0         0         0         0         0         0         0         0
         0         0         0         0         0         0         0         0
         0         0         0         0         0         0         0         0
         0         0         0         0         0         0         0         0
         0         0         0         0         0         0         0         0
         0         0         0         0         0         0         0         0
         0         0         0         0         0         0         0         0
         0         0         0         0         0         0         0         0
         0         0         0         0         0         0         0         0
         0         0         0         0         0         0         0         0
         0         0         0         0         0         0         0         0
         0         0         0         0         0         0         0         0
         0         0         0         0         0         0         0         0
         0         0         0         0         0         0         0         0
         0         0         0         0         0         0         0         0
         0         0         0         0         0         0         0         0
         0         0         0         0         0         0         0         0
         0         0         0         0         0         0         0         0
         0         0         0         0         0         0         0         0
         0         0         0         0         0         0         0         0
         0         0         0         0         0         0         0         0
         0         0         0         0         0         0         0         0
         0         0         0         0         0         0         0         0
         0         0         0         0         0         0         0         0
         0         0         0         0         0         0         0         0
         0         0         0         0         0         0         0         0
         0         0         0         0         0         0         0         0
         0         0         0         0         0         0         0         0
         0         0         0         0         0         0         0         0
         0         0         0         0         0         0         0         0
         0         0         0         0         0         0         0         0
         0         0         0         0         0         0         0         0
         0         0         0         0         0         0         0         0
         0         0         0         0         0         0         0         0
         0         0         0         0         0         0         0         0
         0         0         0         0         0         0         0         0
         0         0         0         0         0         0         0         0
         0         0         0         0         0         0         0         0
         0         0         0         0         0         0         0         0
         0         0         0         0         0         0         0         0
         0         0         0         0         0         0         0         0
         0         0         0         0         0         0         0         0
         0         0         0         0         0         0         0         0
         0         0         0         0         0         0         0         0
         0         0         0         0         0         0         0         0
         0         0         0         0         0         0         0         0
         0         0         0         0         0         0         0         0
         0         0         0         0         0         0         0         0
         0         0         0         0         0         0         0         0
         0         0         0         0         0         0         0         0
         0         0         0         0         0         0         0         0
         0         0         0         0         0         0         0         0
         0         0         0         0         0         0         0         0
         0         0         0         0         0         0         0         0
         0         0         0         0         0         0         0         0
         0         0         0         0         0         0         0         0
         0         0         0         0         0         0         0         0
         0         0         0         0         0         0         0         0
         0         0         0         0         0         0         0         0
         0         0         0         0         0         0         0         0
         0         0         0         0         0         0         0         0
         0         0         0         0         0         0         0         0
         0         0         0         0         0         0         0         0
         0         0         0         0         0         0         0         0
         0         0         0         0         0         0         0         0
         0         0         0         0         0         0         0         0
         0         0         0         0         0         0         0         0
         0         0         0         0         0         0         0         0
         0         0         0         0         0         0         0         0
         0         0         0         0         0         0         0         0
         0         0         0         0         0         0         0         0
         0         0         0         0         0         0         0         0
         0         0         0         0         0         0         0         0
         0         0         0         0         0         0         0         0
         0         0         0         0         0         0         0         0
         0         0         0         0         0         0         0         0
         0         0         0         0         0         0         0         0
         0         0         0         0         0         0         0         0
         0         0         0         0         0         0         0         0
         0         0         0         0         0         0         0         0
         0         0         0         0         0         0         0         0
         0         0         0         0         0         0         0         0
         0         0         0         0         0         0         0         0
         0         0         0         0         0         0         0         0
         0         0         0         0         0         0         0         0
         0         0         0         0         0         0         0         0
         0         0         0         0         0         0         0         0
         0         0         0         0         0         0         0         0
         0         0         0         0         0         0         0         0
         0         0         0         0         0         0         0         0
         0         0         0         0         0         0         0         0
         0         0         0         0         0         0         0         0
         0         0         0         0         0         0         0         0
         0         0         0         0         0         0         0         0
         0         0         0         0         0         0         0         0
         0         0         0         0         0         0         0         0
         0         0         0         0         0         0         0         0
         0         0         0         0         0         0         0         0
         0         0         0         0         0         0         0         0
         0         0         0         0         0         0         0         0
         0         0         0         0         0         0         0         0
         0         0         0         0         0         0         0         0
         0         0         0         0         0         0         0         0
         0         0         0         0         0         0         0         0
         0         0         0         0         0         0         0         0
         0         0         0         0         0         0         0         0
         0         0         0         0         0         0         0         0
         0         0         0         0         0         0         0         0
         0         0         0         0         0         0         0         0
         0         0         0         0         0         0         0         0
         0         0         0         0         0         0         0         0
         0         0         0         0         0         0         0         0
         0         0         0         0         0         0         0         0
         0         0         0         0         0         0         0         0
         0         0         0         0         0         0         0         0
         0         0         0         0         0         0         0         0
         0         0         0         0         0         0         0         0
         0         0         0         0         0         0         0         0
         0         0         0         0         0         0         0         0
         0         0         0         0         0         0         0         0
         0         0         0         0         0         0         0         0
         0         0         0         0         0         0         0         0
         0         0         0         0         0         0         0         0
         0         0         0         0         0         0         0         0
         0         0         0         0         0         0         0         0
         0         0         0         0         0         0         0         0
         0         0         0         0         0         0         0         0
         0         0         0         0         0         0         0         0
         0         0         0         0         0         0         0         0
         0         0         0         0         0         0         0         0
         0         0         0         0         0         0         0         0
         0         0         0         0         0         0         0         0
         0         0         0         0         0         0         0         0
         0         0         0         0         0         0         0         0
         0         0         0         0         0         0         0         0
         0         0         0         0         0         0         0         0
         0         0         0         0         0         0         0         0
         0         0         0         0         0         0         0         0
         0         0         0         0         0         0         0         0
         0         0         0         0         0         0         0         0
         0         0         0         0         0         0         0         0
         0         0         0         0         0         0         0         0
         0         0         0         0         0         0         0         0
         0         0         0         0         0         0         0         0
         0         0         0         0         0         0         0         0
         0         0         0         0         0         0         0         0
         0         0         0         0         0         0         0         0
         0         0         0         0         0         0         0         0
         0         0         0         0         0         0         0         0
         0         0         0         0         0         0         0         0
         0         0         0         0         0         0         0         0
         0         0         0         0         0         0         0         0
         0         0         0         0         0         0         0         0
         0         0         0         0         0         0         0         0
         0         0         0         0         0         0         0         0
         0         0         0         0         0         0         0         0
         0         0         0         0         0         0         0         0
         0         0         0         0         0         0         0         0
         0         0         0         0         0         0         0         0
         0         0         0         0         0         0         0         0
         0         0         0         0         0         0         0         0
         0         0         0         0         0         0         0         0
         0         0         0         0         0         0         0         0
         0         0         0         0         0         0         0         0
         0         0         0         0         0         0         0         0
         0         0         0         0         0         0         0         0
         0         0         0         0         0         0         0         0
         0         0         0         0         0         0         0         0
         0         0         0         0         0         0         0         0
         0         0         0         0         0         0         0         0
         0         0         0         0         0         0         0         0
         0         0         0         0         0         0         0         0
         0         0         0         0         0         0         0         0
         0         0         0         0         0         0         0         0
         0         0         0         0         0         0         0         0
         0         0         0         0         0         0         0         0
         0         0         0         0         0         0         0         0
         0         0         0         0         0         0         0         0
         0         0         0         0         0         0         0         0
         0         0         0         0         0         0         0         0
         0         0         0         0         0         0         0         0
         0         0         0         0         0         0         0         0
         0         0         0         0         0         0         0         0
         0         0         0         0         0         0         0         0
         0         0         0         0         0         0         0         0
         0         0         0         0         0         0         0         0
         0         0         0         0         0         0         0         0
         0         0         0         0         0         0         0         0
         0         0         0         0         0         0         0         0
         0         0         0         0         0         0         0         0
         0         0         0         0         0         0         0         0
         0         0         0         0         0         0         0         0
         0         0         0         0         0         0         0         0
         0         0         0         0         0         0         0         0
         0         0         0         0         0         0         0         0
         0         0         0         0         0         0         0         0
         0         0         0         0         0         0         0         0
         0         0         0         0         0         0         0         0
         0         0         0         0         0         0         0         0
         0         0         0         0         0         0         0         0
         0         0         0         0         0         0         0         0
         0         0         0         0         0         0         0         0
         0         0         0         0         0         0         0         0
         0         0         0         0         0         0         0         0
         0         0         0         0         0         0         0         0
         0         0         0         0         0         0         0         0
         0         0         0         0         0         0         0         0
         0         0         0         0         0         0         0         0
         0         0         0         0         0         0         0         0
         0         0         0         0         0         0         0         0
         0         0         0         0         0         0         0         0
         0         0         0         0         0         0         0         0
         0         0         0         0         0         0         0         0
         0         0         0         0         0         0         0         0
         0         0         0         0         0         0         0         0
         0         0         0         0         0         0         0         0
         0         0         0         0         0         0         0         0
         0         0         0         0         0         0         0         0
         0         0         0         0         0         0         0         0
         0         0         0         0         0         0         0         0
         0         0         0         0         0         0         0         0
         0         0         0         0         0         0         0         0
         0         0         0         0         0         0         0         0
         0         0         0         0         0         0         0         0
         0         0         0         0         0         0         0         0
         0         0         0         0         0         0         0         0
         0         0         0         0         0         0         0         0
         0         0         0         0         0         0         0         0
         0         0         0         0         0         0         0         0
         0         0         0         0         0         0         0         0
         0         0         0         0         0         0         0         0
         0         0         0         0         0         0         0         0
         0         0         0         0         0         0         0         0
         0         0         0         0         0         0         0         0
         0         0         0         0         0         0         0         0
         0         0         0         0         0         0         0         0
         0         0         0         0         0         0         0         0
         0         0         0         0         0         0         0         0
         0         0         0         0         0         0         0         0
         0         0         0         0         0         0         0         0
         0         0         0         0         0         0         0         0
         0         0         0         0         0         0         0         0
         0         0         0         0         0         0         0         0
         0         0         0         0         0         0         0         0
         0         0         0         0         0         0         0         0
         0         0         0         0         0         0         0         0
         0         0         0         0         0         0         0         0
         0         0         0         0         0         0         0         0
         0         0         0         0         0         0         0         0
         0         0         0         0         0         0         0         0
         0         0         0         0         0         0         0         0
         0         0         0         0         0         0         0         0
         0         0         0         0         0         0         0         0
         0         0         0         0         0         0         0         0
         0         0         0         0         0         0         0         0
         0         0         0         0         0         0         0         0
         0         0         0         0         0         0         0         0
         0         0         0         0         0         0         0         0
         0         0         0         0         0         0         0         0
         0         0         0         0         0         0         0         0
         0         0         0         0         0         0         0         0
         0         0         0         0         0         0         0         0
         0         0         0         0         0         0         0         0
         0         0         0         0         0         0         0         0
         0         0         0         0         0         0         0         0
         0         0         0         0         0         0         0         0
         0         0         0         0         0         0         0         0
         0         0         0         0         0         0         0         0
         0         0         0         0         0         0         0         0
         0         0         0         0         0         0         0         0
         0         0         0         0         0         0         0         0
         0         0         0         0         0         0         0         0
         0         0         0         0         0         0         0         0
         0         0         0         0         0         0         0         0
         0         0         0         0         0         0         0         0
         0         0         0         0         0         0         0         0
         0         0         0         0         0         0         0         0
         0         0         0         0         0         0         0         0
         0         0         0         0         0         0         0         0
         0         0         0         0         0         0         0         0
         0         0         0         0         0         0         0         0
         0         0         0         0         0         0         0         0
         0         0         0         0         0         0         0         0
         0         0         0         0         0         0         0         0
         0         0         0         0         0         0         0         0
         0         0         0         0         0         0         0         0
         0         0         0         0         0         0         0         0
         0         0         0         0         0         0         0         0
         0         0         0         0         0         0         0         0
         0         0         0         0         0         0         0         0
         0         0         0         0         0         0         0         0
         0         0         0         0         0         0         0         0
         0         0         0         0         0         0         0         0
         0         0         0         0         0         0         0         0
         0         0         0         0         0         0         0         0
         0         0         0         0         0         0         0         0
         0         0         0         0         0         0         0         0
         0         0         0         0         0         0         0         0
         0         0         0         0         0         0         0         0
         0         0         0         0         0         0         0         0
         0         0         0         0         0         0         0         0
         0         0         0         0         0         0         0         0
         0         0         0         0         0         0         0         0
         0         0         0         0         0         0         0         0
         0         0         0         0         0         0         0         0
         0         0         0         0         0         0         0         0
         0         0         0         0         0         0         0         0
         0         0         0         0         0         0         0         0
         0         0         0         0         0         0         0         0
         0         0         0         0         0         0         0         0
         0         0         0         0         0         0         0         0
         0         0         0         0         0         0         0         0
         0         0         0         0         0         0         0         0
         0         0         0         0         0         0         0         0
         0         0         0         0         0         0         0         0
         0         0         0         0         0         0         0         0
         0         0         0         0         0         0         0         0
         0         0         0         0         0         0         0         0
         0         0         0         0         0         0         0         0
         0         0         0         0         0         0         0         0
         0         0         0         0         0         0         0         0
         0         0         0         0         0         0         0         0
         0         0         0         0         0         0         0         0
         0         0         0         0         0         0         0         0
         0         0         0         0         0         0         0         0
         0         0         0         0         0         0         0         0
         0         0         0         0         0         0         0         0
         0         0         0         0         0         0         0         0
         0         0         0         0         0         0         0         0
         0         0         0         0         0         0         0         0
         0         0         0         0         0         0         0         0
         0         0         0         0         0         0         0         0
         0         0         0         0         0         0         0         0
         0         0         0         0         0         0         0         0
         0         0         0         0         0         0         0         0
         0         0         0         0         0         0         0         0
         0         0         0         0         0         0         0         0
         0         0         0         0         0         0         0         0
         0         0         0         0         0         0         0         0
         0         0         0         0         0         0         0         0
         0         0         0         0         0         0         0         0
         0         0         0         0         0         0         0         0
         0         0         0         0         0         0         0         0
         0         0         0         0         0         0         0         0
         0         0         0         0         0         0         0         0
         0         0         0         0         0         0         0         0
         0         0         0         0         0         0         0         0
         0         0         0         0         0         0         0         0
         0         0         0         0         0         0         0         0
         0         0         0         0         0         0         0         0
         0         0         0         0         0         0         0         0
         0         0         0         0         0         0         0         0
         0         0         0         0         0         0         0         0
         0         0         0         0         0         0         0         0
         0         0         0         0         0         0         0         0
         0         0         0         0         0         0         0         0
         0         0         0         0         0         0         0         0
         0         0         0         0         0         0         0         0
         0         0         0         0         0         0         0         0
         0         0         0         0         0         0         0         0
         0         0         0         0         0         0         0         0
         0         0         0         0         0         0         0         0
         0         0         0         0         0         0         0         0
         0         0         0         0         0         0         0         0
         0         0         0         0         0         0         0         0
         0         0         0         0         0         0         0         0
         0         0         0         0         0         0         0         0
         0         0         0         0         0         0         0         0
         0         0         0         0         0         0         0         0
         0         0         0         0         0         0         0         0
         0         0         0         0         0         0         0         0
         0         0         0         0         0         0         0         0
         0         0         0         0         0         0         0         0
         0         0         0         0         0         0         0         0
         0         0         0         0         0         0         0         0
         0         0         0         0         0         0         0         0
         0         0         0         0         0         0         0         0
         0         0         0         0         0         0         0         0
         0         0         0         0         0         0         0         0
         0         0         0         0         0         0         0         0
         0         0         0         0         0         0         0         0
         0         0         0         0         0         0         0         0
         0         0         0         0         0         0         0         0
         0         0         0         0         0         0         0         0
         0         0         0         0         0         0         0         0
         0         0         0         0         0         0         0         0
         0         0         0         0         0         0         0         0
         0         0         0         0         0         0         0         0
         0         0         0         0         0         0         0         0
         0         0         0         0         0         0         0         0
         0         0         0         0         0         0         0         0
         0         0         0         0         0         0         0         0
         0         0         0         0         0         0         0         0
         0         0         0         0         0         0         0         0
         0         0         0         0         0         0         0         0
         0         0         0         0         0         0         0         0
         0         0         0         0         0         0         0         0
         0         0         0         0         0         0         0         0
         0         0         0         0         0         0         0         0
         0         0         0         0         0         0         0         0
         0         0         0         0         0         0         0         0
         0         0         0         0         0         0         0         0
         0         0         0         0         0         0         0         0
         0         0         0         0         0         0         0         0
         0         0         0         0         0         0         0         0
         0         0         0         0         0         0         0         0
         0         0         0         0         0         0         0         0
         0         0         0         0         0         0         0         0
         0         0         0         0         0         0         0         0
         0         0         0         0         0         0         0         0
         0         0         0         0         0         0         0         0
         0         0         0         0         0         0         0         0
         0         0         0         0         0         0         0         0
         0         0         0         0         0         0         0         0
         0         0         0         0         0         0         0         0
         0         0         0         0         0         0         0         0
         0         0         0         0         0         0         0         0
         0         0         0         0         0         0         0         0
         0         0         0         0         0         0         0         0
         0         0         0         0         0         0         0         0
         0         0         0         0         0         0         0         0
         0         0         0         0         0         0         0         0
         0         0         0         0         0         0         0         0
         0         0         0         0         0         0         0         0
         0         0         0         0         0         0         0         0
         0         0         0         0         0         0         0         0
         0         0         0         0         0         0         0         0
         0         0         0         0         0         0         0         0
         0         0         0         0         0         0         0         0
         0         0         0         0         0         0         0         0
         0         0         0         0         0         0         0         0
         0         0         0         0         0         0         0         0
         0         0         0         0         0         0         0         0
         0         0         0         0         0         0         0         0
         0         0         0         0         0         0         0         0
         0         0         0         0         0         0         0         0
         0         0         0         0         0         0         0         0
         0         0         0         0         0         0         0         0
         0         0         0         0         0         0         0         0
         0         0         0         0         0         0         0         0
         0         0         0         0         0         0         0         0
         0         0         0         0         0         0         0         0
         0         0         0         0         0         0         0         0
         0         0         0         0         0         0         0         0
         0         0         0         0         0         0         0         0
         0         0         0         0         0         0         0         0
         0         0         0         0         0         0         0         0
         0         0         0         0         0         0         0         0
         0         0         0         0         0         0         0         0
         0         0         0         0         0         0         0         0
         0         0         0         0         0         0         0         0
         0         0         0         0         0         0         0         0
         0         0         0         0         0         0         0         0
         0         0         0         0         0         0         0         0
         0         0         0         0         0         0         0         0
         0         0         0         0         0         0         0         0
         0         0         0         0         0         0         0         0
         0         0         0         0         0         0         0         0
         0         0         0         0         0         0         0         0
         0         0         0         0         0         0         0         0
         0         0         0         0         0         0         0         0
         0         0         0         0         0         0         0         0
         0         0         0         0         0         0         0         0
         0         0         0         0         0         0         0         0
         0         0         0         0         0         0         0         0
         0         0         0         0         0         0         0         0
         0         0         0         0         0         0         0         0
         0         0         0         0         0         0         0         0
         0         0         0         0         0         0         0         0
         0         0         0         0         0         0         0         0
         0         0         0         0         0         0         0         0
         0         0         0         0         0         0         0         0
         0         0         0         0         0         0         0         0
         0         0         0         0         0         0         0         0
         0         0         0         0         0         0         0         0
         0         0         0         0         0         0         0         0
         0         0         0         0         0         0         0         0
         0         0         0         0         0         0         0         0
         0         0         0         0         0         0         0         0
         0         0         0         0         0         0         0         0
         0         0         0         0         0         0         0         0
         0         0         0         0         0         0         0         0
         0         0         0         0         0         0         0         0
         0         0         0         0         0         0         0         0
         0         0         0         0         0         0         0         0
         0         0         0         0         0         0         0         0
         0         0         0         0         0         0         0         0
         0         0         0         0         0         0         0         0
         0         0         0         0         0         0         0         0
         0         0         0         0         0         0         0         0
         0         0         0         0         0         0         0         0
         0         0         0         0         0         0         0         0
         0         0         0         0         0         0         0         0
         0         0         0         0         0         0         0         0
         0         0         0         0         0         0         0         0
         0         0         0         0         0         0         0         0
         0         0         0         0         0         0         0         0
         0         0         0         0         0         0         0         0
         0         0         0         0         0         0         0         0
         0         0         0         0         0         0         0         0
         0         0         0         0         0         0         0         0
         0         0         0         0         0         0         0         0
         0         0         0         0         0         0         0         0
         0         0         0         0         0         0         0         0
         0         0         0         0         0         0         0         0
         0         0         0         0         0         0         0         0
         0         0         0         0         0         0         0         0
         0         0         0         0         0         0         0         0
         0         0         0         0         0         0         0         0
         0         0         0         0         0         0         0         0
         0         0         0         0         0         0         0         0
         0         0         0         0         0         0         0         0
         0         0         0         0         0         0         0         0
         0         0         0         0         0         0         0         0
         0         0         0         0         0         0         0         0
         0         0         0         0         0         0         0         0
         0         0         0         0         0         0         0         0
         0         0         0         0         0         0         0         0
         0         0         0         0         0         0         0         0
         0         0         0         0         0         0         0         0
         0         0         0         0         0         0         0         0
         0         0         0         0         0         0         0         0
         0         0         0         0         0         0         0         0
         0         0         0         0         0         0         0         0
         0         0         0         0         0         0         0         0
         0         0         0         0         0         0         0         0
         0         0         0         0         0         0         0         0
         0         0         0         0         0         0         0         0
         0         0         0         0         0         0         0         0
         0         0         0         0         0         0         0         0
         0         0         0         0         0         0         0         0
         0         0         0         0         0         0         0         0
         0         0         0         0         0         0         0         0
         0         0         0         0         0         0         0         0
         0         0         0         0         0         0         0         0
         0         0         0         0         0         0         0         0
         0         0         0         0         0         0         0         0
         0         0         0         0         0         0         0         0
         0         0         0         0         0         0         0         0
         0         0         0         0         0         0         0         0
         0         0         0         0         0         0         0         0
         0         0         0         0         0         0         0         0
         0         0         0         0         0         0         0         0
         0         0         0         0         0         0         0         0
         0         0         0         0         0         0         0         0
         0         0         0         0         0         0         0         0
         0         0         0         0         0         0         0         0
         0         0         0         0         0         0         0         0
         0         0         0         0         0         0         0         0
         0         0         0         0         0         0         0         0
         0         0         0         0         0         0         0         0
         0         0         0         0         0         0         0         0
         0         0         0         0         0         0         0         0
         0         0         0         0         0         0         0         0
         0         0         0         0         0         0         0         0
         0         0         0         0         0         0         0         0
         0         0         0         0         0         0         0         0
         0         0         0         0         0         0         0         0
         0         0         0         0         0         0         0         0
         0         0         0         0         0         0         0         0
         0         0         0         0         0         0         0         0
         0         0         0         0         0         0         0         0
         0         0         0         0         0         0         0         0
         0         0         0         0         0         0         0         0
         0         0         0         0         0         0         0         0
         0         0         0         0         0         0         0         0
         0         0         0         0         0         0         0         0
         0         0         0         0         0         0         0         0
         0         0         0         0         0         0         0         0
         0         0         0         0         0         0         0         0
         0         0         0         0         0         0         0         0
         0         0         0         0         0         0         0         0
         0         0         0         0         0         0         0         0
         0         0         0         0         0         0         0         0
         0         0         0         0         0         0         0         0
         0         0         0         0         0         0         0         0
         0         0         0         0         0         0         0         0
         0         0         0         0         0         0         0         0
         0         0         0         0         0         0         0         0
         0         0         0         0         0         0         0         0
         0         0         0         0         0         0         0         0
         0         0         0         0         0         0         0         0
         0         0         0         0         0         0         0         0
         0         0         0         0         0         0         0         0
         0         0         0         0         0         0         0         0
         0         0         0         0         0         0         0         0
         0         0         0         0         0         0         0         0
         0         0         0         0         0         0         0         0
         0         0         0         0         0         0         0         0
         0         0         0         0         0         0         0         0
         0         0         0         0         0         0         0         0
         0         0         0         0         0         0         0         0
         0         0         0         0         0         0         0         0
         0         0         0         0         0         0         0         0
         0         0         0         0         0         0         0         0
         0         0         0         0         0         0         0         0
         0         0         0         0         0         0         0         0
         0         0         0         0         0         0         0         0
         0         0         0         0         0         0         0         0
         0         0         0         0         0         0         0         0
         0         0         0         0         0         0         0         0
         0         0         0         0         0         0         0         0
         0         0         0         0         0         0         0         0
         0         0         0         0         0         0         0         0
         0         0         0         0         0         0         0         0
         0         0         0         0         0         0         0         0
         0         0         0         0         0         0         0         0
         0         0         0         0         0         0         0         0
         0         0         0         0         0         0         0         0
         0         0         0         0         0         0         0         0
         0         0         0         0         0         0         0         0
         0         0         0         0         0         0         0         0
         0         0         0         0         0         0         0         0
         0         0         0         0         0         0         0         0
         0         0         0         0         0         0         0         0
         0         0         0         0         0         0         0         0
         0         0         0         0         0         0         0         0
         0         0         0         0         0         0         0         0
         0         0         0         0         0         0         0         0
         0         0         0         0         0         0         0         0
         0         0         0         0         0         0         0         0
         0         0         0         0         0         0         0         0
         0         0         0         0         0         0         0         0
         0         0         0         0         0         0         0         0
         0         0         0         0         0         0         0         0
         0         0         0         0         0         0         0         0
         0         0         0         0         0         0         0         0
         0         0         0         0         0         0         0         0
         0         0         0         0         0         0         0         0
         0         0         0         0         0         0         0         0
         0         0         0         0         0         0         0         0
         0         0         0         0         0         0         0         0
         0         0         0         0         0         0         0         0
         0         0         0         0         0         0         0         0
         0         0         0         0         0         0         0         0
         0         0         0         0         0         0         0         0
         0         0         0         0         0         0         0         0
         0         0         0         0         0         0         0         0
         0         0         0         0         0         0         0         0
         0         0         0         0         0         0         0         0
         0         0         0         0         0         0         0         0
         0         0         0         0         0         0         0         0
         0         0         0         0         0         0         0         0
         0         0         0         0         0         0         0         0
         0         0         0         0         0         0         0         0
         0         0         0         0         0         0         0         0
         0         0         0         0         0         0         0         0
         0         0         0         0         0         0         0         0
         0         0         0         0         0         0         0         0
         0         0         0         0         0         0         0         0
         0         0         0         0         0         0         0         0
         0         0         0         0         0         0         0         0
         0         0         0         0         0         0         0         0
         0         0         0         0         0         0         0         0
         0         0         0         0         0         0         0         0
         0         0         0         0         0         0         0         0
         0         0         0         0         0         0         0         0
         0         0         0         0         0         0         0         0
         0         0         0         0         0         0         0         0
         0         0         0         0         0         0         0         0
         0         0         0         0         0         0         0         0
         0         0         0         0         0         0         0         0
         0         0         0         0         0         0         0         0
         0         0         0         0         0         0         0         0
         0         0         0         0         0         0         0         0
         0         0         0         0         0         0         0         0
         0         0         0         0         0         0         0         0
         0         0         0         0         0         0         0         0
         0         0         0         0         0         0         0         0
         0         0         0         0         0         0         0         0
         0         0         0         0         0         0         0         0
         0         0         0         0         0         0         0         0
         0         0         0         0         0         0         0         0
         0         0         0         0         0         0         0         0
         0         0         0         0         0         0         0         0
         0         0         0         0         0         0         0         0
         0         0         0         0         0         0         0         0
         0         0         0         0         0         0         0         0
         0         0         0         0         0         0         0         0
         0         0         0         0         0         0         0         0
         0         0         0         0         0         0         0         0
         0         0         0         0         0         0         0         0
         0         0         0         0         0         0         0         0
         0         0         0         0         0         0         0         0
         0         0         0         0         0         0         0         0
         0         0         0         0         0         0         0         0
         0         0         0         0         0         0         0         0
         0         0         0         0         0         0         0         0
         0         0         0         0         0         0         0         0
         0         0         0         0         0         0         0         0
         0         0         0         0         0         0         0         0
         0         0         0         0         0         0         0         0
         0         0         0         0         0         0         0         0
         0         0         0         0         0         0         0         0
         0         0         0         0         0         0         0         0
         0         0         0         0         0         0         0         0
         0         0         0         0         0         0         0         0
         0         0         0         0         0         0         0         0
         0         0         0         0         0         0         0         0
         0         0         0         0         0         0         0         0
         0         0         0         0         0         0         0         0
         0         0         0         0         0         0         0         0
         0         0         0         0         0         0         0         0
         0         0         0         0         0         0         0         0
         0         0         0         0         0         0         0         0
         0         0         0         0         0         0         0         0
         0         0         0         0         0         0         0         0
         0         0         0         0         0         0         0         0
         0         0         0         0         0         0         0         0
         0         0         0         0         0         0         0         0
         0         0         0         0         0         0         0         0
         0         0         0         0         0         0         0         0
         0         0         0         0         0         0         0         0
         0         0         0         0         0         0         0         0
         0         0         0         0         0         0         0         0
         0         0         0         0         0         0         0         0
         0         0         0         0         0         0         0         0
         0         0         0         0         0         0         0         0
         0         0         0         0         0         0         0         0
         0         0         0         0         0         0         0         0
         0         0         0         0         0         0         0         0
         0         0         0         0         0         0         0         0
         0         0         0         0         0         0         0         0
         0         0         0         0         0         0         0         0
         0         0         0         0         0         0         0         0
         0         0         0         0         0         0         0         0
         0         0         0         0         0         0         0         0
         0         0         0         0         0         0         0         0
         0         0         0         0         0         0         0         0
         0         0         0         0         0         0         0         0
         0         0         0         0         0         0         0         0
         0         0         0         0         0         0         0         0
         0         0         0         0         0         0         0         0
         0         0         0         0         0         0         0         0
         0         0         0         0         0         0         0         0
         0         0         0         0         0         0         0         0
         0         0         0         0         0         0         0         0
         0         0         0         0         0         0         0         0
         0         0         0         0         0         0         0         0
         0         0         0         0         0         0         0         0
         0         0         0         0         0         0         0         0
         0         0         0         0         0         0         0         0
         0         0         0         0         0         0         0         0
         0         0         0         0         0         0         0         0
         0         0         0         0         0         0         0         0
         0         0         0         0         0         0         0         0
         0         0         0         0         0         0         0         0
         0         0         0         0         0         0         0         0
         0         0         0         0         0         0         0         0
         0         0         0         0         0         0         0         0
         0         0         0         0         0         0         0         0
         0         0         0         0         0         0         0         0
         0         0         0         0         0         0         0         0
         0         0         0         0         0         0         0         0
         0         0         0         0         0         0         0         0
         0         0         0         0         0         0         0         0
         0         0         0         0         0         0         0         0
         0         0         0         0         0         0         0         0
         0         0         0         0         0         0         0         0
         0         0         0         0         0         0         0         0
         0         0         0         0         0         0         0         0
         0         0         0         0         0         0         0         0
         0         0         0         0         0         0         0         0
         0         0         0         0         0         0         0         0
         0         0         0         0         0         0         0         0
         0         0         0         0         0         0         0         0
         0         0         0         0         0         0         0         0
         0         0         0         0         0         0         0         0
         0         0         0         0         0         0         0         0
         0         0         0         0         0         0         0         0
         0         0         0         0         0         0         0         0
         0         0         0         0         0         0         0         0
         0         0         0         0         0         0         0         0
         0         0         0         0         0         0         0         0
         0         0         0         0         0         0         0         0
         0         0         0         0         0         0         0         0
         0         0         0         0         0         0         0         0
         0         0         0         0         0         0         0         0
         0         0         0         0         0         0         0         0
         0         0         0         0         0         0         0         0
         0         0         0         0         0         0         0         0
         0         0         0         0         0         0         0         0
         0         0         0         0         0         0         0         0
         0         0         0         0         0         0         0         0
         0         0         0         0         0         0         0         0
         0         0         0         0         0         0         0         0
         0         0         0         0         0         0         0         0
         0         0         0         0         0         0         0         0
         0         0         0         0         0         0         0         0
         0         0         0         0         0         0         0         0
         0         0         0         0         0         0         0         0
         0         0         0         0         0         0         0         0
         0         0         0         0         0         0         0         0
         0         0         0         0         0         0         0         0
         0         0         0         0         0         0         0         0
         0         0         0         0         0         0         0         0
         0         0         0         0         0         0         0         0
         0         0         0         0         0         0         0         0
         0         0         0         0         0         0         0         0
         0         0         0         0         0         0         0         0
         0         0         0         0         0         0         0         0
         0         0         0         0         0         0         0         0
         0         0         0         0         0         0         0         0
         0         0         0         0         0         0         0         0
         0         0         0         0         0         0         0         0
         0         0         0         0         0         0         0         0
         0         0         0         0         0         0         0         0
         0         0         0         0         0         0         0         0
         0         0         0         0         0         0         0         0
         0         0         0         0         0         0         0         0
         0         0         0         0         0         0         0         0
         0         0         0         0         0         0         0         0
         0         0         0         0         0         0         0         0
         0         0         0         0         0         0         0         0
         0         0         0         0         0         0         0         0
         0         0         0         0         0         0         0         0
         0         0         0         0         0         0         0         0
         0         0         0         0         0         0         0         0
         0         0         0         0         0         0         0         0
         0         0         0         0         0         0         0         0
         0         0         0         0         0         0         0         0
         0         0         0         0         0         0         0         0
         0         0         0         0         0         0         0         0
         0         0         0         0         0         0         0         0
         0         0         0         0         0         0         0         0
         0         0         0         0         0         0         0         0
         0         0         0         0         0         0         0         0
         0         0         0         0         0         0         0         0
         0         0         0         0         0         0         0         0
         0         0         0         0         0         0         0         0
         0         0         0         0         0         0         0         0
         0         0         0         0         0         0         0         0
         0         0         0         0         0         0         0         0
         0         0         0         0         0         0         0         0
         0         0         0         0         0         0         0         0
         0         0         0         0         0         0         0         0
         0         0         0         0         0         0         0         0
         0         0         0         0         0         0         0         0
         0         0         0         0         0         0         0         0
         0         0         0         0         0         0         0         0
         0         0         0         0         0         0         0         0
         0         0         0         0         0         0         0         0
         0         0         0         0         0         0         0         0
         0         0         0         0         0         0         0         0
         0         0         0         0         0         0         0         0
         0         0         0         0         0         0         0         0
         0         0         0         0         0         0         0         0
         0         0         0         0         0         0         0         0
         0         0         0         0         0         0         0         0
         0         0         0         0         0         0         0         0
         0         0         0         0         0         0         0         0
         0         0         0         0         0         0         0         0
         0         0         0         0         0         0         0         0
         0         0         0         0         0         0         0         0
         0         0         0         0         0         0         0         0
         0         0         0         0         0         0         0         0
         0         0         0         0         0         0         0         0
         0         0         0         0         0         0         0         0
         0         0         0         0         0         0         0         0
         0         0         0         0         0         0         0         0
         0         0         0         0         0         0         0         0
         0         0         0         0         0         0         0         0
         0         0         0         0         0         0         0         0
         0         0         0         0         0         0         0         0
         0         0         0         0         0         0         0         0
         0         0         0         0         0         0         0         0
         0         0         0         0         0         0         0         0
         0         0         0         0         0         0         0         0
         0         0         0         0         0         0         0         0
         0         0         0         0         0         0         0         0
         0         0         0         0         0         0         0         0
         0         0         0         0         0         0         0         0
         0         0         0         0         0         0         0         0
         0         0         0         0         0         0         0         0
         0         0         0         0         0         0         0         0
         0         0         0         0         0         0         0         0
         0         0         0         0         0         0         0         0
         0         0         0         0         0         0         0         0
         0         0         0         0         0         0         0         0
         0         0         0         0         0         0         0         0
         0         0         0         0         0         0         0         0
         0         0         0         0         0         0         0         0
         0         0         0         0         0         0         0         0
         0         0         0         0         0         0         0         0
         0         0         0         0         0         0         0         0
         0         0         0         0         0         0         0         0
         0         0         0         0         0         0         0         0
         0         0         0         0         0         0         0         0
         0         0         0         0         0         0         0         0
         0         0         0         0         0         0         0         0
         0         0         0         0         0         0         0         0
         0         0         0         0         0         0         0         0
         0         0         0         0         0         0         0         0
         0         0         0         0         0         0         0         0
         0         0         0         0         0         0         0         0
         0         0         0         0         0         0         0         0
         0         0         0         0         0         0         0         0
         0         0         0         0         0         0         0         0
         0         0         0         0         0         0         0         0
         0         0         0         0         0         0         0         0
         0         0         0         0         0         0         0         0
         0         0         0         0         0         0         0         0
         0         0         0         0         0         0         0         0
         0         0         0         0         0         0         0         0
         0         0         0         0         0         0         0         0
         0         0         0         0         0         0         0         0
         0         0         0         0         0         0         0         0
         0         0         0         0         0         0         0         0
         0         0         0         0         0         0         0         0
         0         0         0         0         0         0         0         0
         0         0         0         0         0         0         0         0
         0         0         0         0         0         0         0         0
         0         0         0         0         0         0         0         0
         0         0         0         0         0         0         0         0
         0         0         0         0         0         0         0         0
         0         0         0         0         0         0         0         0
         0         0         0         0         0         0         0         0
         0         0         0         0         0         0         0         0
         0         0         0         0         0         0         0         0
         0         0         0         0         0         0         0         0
         0         0         0         0         0         0         0         0
         0         0         0         0         0         0         0         0
         0         0         0         0         0         0         0         0
         0         0         0         0         0         0         0         0
         0         0         0         0         0         0         0         0
         0         0         0         0         0         0         0         0
         0         0         0         0         0         0         0         0
         0         0         0         0         0         0         0         0
         0         0         0         0         0         0         0         0
         0         0         0         0         0         0         0         0
         0         0         0         0         0         0         0         0
         0         0         0         0         0         0         0         0
         0         0         0         0         0         0         0         0
         0         0         0         0         0         0         0         0
         0         0         0         0         0         0         0         0
         0         0         0         0         0         0         0         0
         0         0         0         0         0         0         0         0
         0         0         0         0         0         0         0         0
         0         0         0         0         0         0         0         0
         0         0         0         0         0         0         0         0
         0         0         0         0         0         0         0         0
         0         0         0         0         0         0         0         0
         0         0         0         0         0         0         0         0
         0         0         0         0         0         0         0         0
         0         0         0         0         0         0         0         0
         0         0         0         0         0         0         0         0
         0         0         0         0         0         0         0         0
         0         0         0         0         0         0         0         0
         0         0         0         0         0         0         0         0
         0         0         0         0         0         0         0         0
         0         0         0         0         0         0         0         0
         0         0         0         0         0         0         0         0
         0         0         0         0         0         0         0         0
         0         0         0         0         0         0         0         0
         0         0         0         0         0         0         0         0
         0         0         0         0         0         0         0         0
         0         0         0         0         0         0         0         0
         0         0         0         0         0         0         0         0
         0         0         0         0         0         0         0         0
         0         0         0         0         0         0         0         0
         0         0         0         0         0         0         0         0
         0         0         0         0         0         0         0         0
         0         0         0         0         0         0         0         0
         0         0         0         0         0         0         0         0
         0         0         0         0         0         0         0         0
         0         0         0         0         0         0         0         0
         0         0         0         0         0         0         0         0
         0         0         0         0         0         0         0         0
         0         0         0         0         0         0         0         0
         0         0         0         0         0         0         0         0
         0         0         0         0         0         0         0         0
         0         0         0         0         0         0         0         0
         0         0         0         0         0         0         0         0
         0         0         0         0         0         0         0         0
         0         0         0         0         0         0         0         0
         0         0         0         0         0         0         0         0
         0         0         0         0         0         0         0         0
         0         0         0         0         0         0         0         0
         0         0         0         0         0         0         0         0
         0         0         0         0         0         0         0         0
         0         0         0         0         0         0         0         0
         0         0         0         0         0         0         0         0
         0         0         0         0         0         0         0         0
         0         0         0         0         0         0         0         0
         0         0         0         0         0         0         0         0
         0         0         0         0         0         0         0         0
         0         0         0         0         0         0         0         0
         0         0         0         0         0         0         0         0
         0         0         0         0         0         0         0         0
         0         0         0         0         0         0         0         0
         0         0         0         0         0         0         0         0
         0         0         0         0         0         0         0         0
         0         0         0         0         0         0         0         0
         0         0         0         0         0         0         0         0
         0         0         0         0         0         0         0         0
         0         0         0         0         0         0         0         0
         0         0         0         0         0         0         0         0
         0         0         0         0         0         0         0         0
         0         0         0         0         0         0         0         0
         0         0         0         0         0         0         0         0
         0         0         0         0         0         0         0         0
         0         0         0         0         0         0         0         0
         0         0         0         0         0         0         0         0
         0         0         0         0         0         0         0         0
         0         0         0         0         0         0         0         0
         0         0         0         0         0         0         0         0
         0         0         0         0         0         0         0         0
         0         0         0         0         0         0         0         0
         0         0         0         0         0         0         0         0
         0         0         0         0         0         0         0         0
         0         0         0         0         0         0         0         0
         0         0         0         0         0         0         0         0
         0         0         0         0         0         0         0         0
         0         0         0         0         0         0         0         0
         0         0         0         0         0         0         0         0
         0         0         0         0         0         0         0         0
         0         0         0         0         0         0         0         0
         0         0         0         0         0         0         0         0
         0         0         0         0         0         0         0         0
         0         0         0         0         0         0         0         0
         0         0         0         0         0         0         0         0
         0         0         0         0         0         0         0         0
         0         0         0         0         0         0         0         0
         0         0         0         0         0         0         0         0
         0         0         0         0         0         0         0         0
         0         0         0         0         0         0         0         0
         0         0         0         0         0         0         0         0
         0         0         0         0         0         0         0         0
         0         0         0         0         0         0         0         0
         0         0         0         0         0         0         0         0
         0         0         0         0         0         0         0         0
         0         0         0         0         0         0         0         0
         0         0         0         0         0         0         0         0
         0         0         0         0         0         0         0         0
         0         0         0         0         0         0         0         0
         0         0         0         0         0         0         0         0
         0         0         0         0         0         0         0         0
         0         0         0         0         0         0         0         0
         0         0         0         0         0         0         0         0
         0         0         0         0         0         0         0         0
         0         0         0         0         0         0         0         0
         0         0         0         0         0         0         0         0
         0         0         0         0         0         0         0         0
         0         0         0         0         0         0         0         0
         0         0         0         0         0         0         0         0
         0         0         0         0         0         0         0         0
         0         0         0         0         0         0         0         0
         0         0         0         0         0         0         0         0
         0         0         0         0         0         0         0         0
         0         0         0         0         0         0         0         0
         0         0         0         0         0         0         0         0
         0         0         0         0         0         0         0         0
         0         0         0         0         0         0         0         0
         0         0         0         0         0         0         0         0
         0         0         0         0         0         0         0         0
         0         0         0         0         0         0         0         0
         0         0         0         0         0         0         0         0
         0         0         0         0         0         0         0         0
         0         0         0         0         0         0         0         0
         0         0         0         0         0         0         0         0
         0         0         0         0         0         0         0         0
         0         0         0         0         0         0         0         0
         0         0         0         0         0         0         0         0
         0         0         0         0         0         0         0         0
         0         0         0         0         0         0         0         0
         0         0         0         0         0         0         0         0
         0         0         0         0         0         0         0         0
         0         0         0         0         0         0         0         0
         0         0         0         0         0         0         0         0
         0         0         0         0         0         0         0         0
         0         0         0         0         0         0         0         0
         0         0         0         0         0         0         0         0
         0         0         0         0         0         0         0         0
         0         0         0         0         0         0         0         0
         0         0         0         0         0         0         0         0
         0         0         0         0         0         0         0         0
         0         0         0         0         0         0         0         0
         0         0         0         0         0         0         0         0
         0         0         0         0         0         0         0         0
         0         0         0         0         0         0         0         0
         0         0         0         0         0         0         0         0
         0         0         0         0         0         0         0         0
         0         0         0         0         0         0         0         0
         0         0         0         0         0         0         0         0
         0         0         0         0         0         0         0         0
         0         0         0         0         0         0         0         0
         0         0         0         0         0         0         0         0
         0         0         0         0         0         0         0         0
         0         0         0         0         0         0         0         0
         0         0         0         0         0         0         0         0
         0         0         0         0         0         0         0         0
         0         0         0         0         0         0         0         0
         0         0         0         0         0         0         0         0
         0         0         0         0         0         0         0         0
         0         0         0         0         0         0         0         0
         0         0         0         0         0         0         0         0
         0         0         0         0         0         0         0         0
         0         0         0         0         0         0         0         0
         0         0         0         0         0         0         0         0
         0         0         0         0         0         0         0         0
         0         0         0         0         0         0         0         0
         0         0         0         0         0         0         0         0
         0         0         0         0         0         0         0         0
         0         0         0         0         0         0         0         0
         0         0         0         0         0         0         0         0
         0         0         0         0         0         0         0         0
         0         0         0         0         0         0         0         0
         0         0         0         0         0         0         0         0
         0         0         0         0         0         0         0         0
         0         0         0         0         0         0         0         0
         0         0         0         0         0         0         0         0
         0         0         0         0         0         0         0         0
         0         0         0         0         0         0         0         0
         0         0         0         0         0         0         0         0
         0         0         0         0         0         0         0         0
         0         0         0         0         0         0         0         0
         0         0         0         0         0         0         0         0
         0         0         0         0         0         0         0         0
         0         0         0         0         0         0         0         0
         0         0         0         0         0         0         0         0
         0         0         0         0         0         0         0         0
         0         0         0         0         0         0         0         0
         0         0         0         0         0         0         0         0
         0         0         0         0         0         0         0         0
         0         0         0         0         0         0         0         0
         0         0         0         0         0         0         0         0
         0         0         0         0         0         0         0         0
         0         0         0         0         0         0         0         0
         0         0         0         0         0         0         0         0
         0         0         0         0         0         0         0         0
         0         0         0         0         0         0         0         0
         0         0         0         0         0         0         0         0
         0         0         0         0         0         0         0         0
         0         0         0         0         0         0         0         0
         0         0         0         0         0         0         0         0
         0         0         0         0         0         0         0         0
         0         0         0         0         0         0         0         0
         0         0         0         0         0         0         0         0
         0         0         0         0         0         0         0         0
         0         0         0         0         0         0         0         0
         0         0         0         0         0         0         0         0
         0         0         0         0         0         0         0         0
         0         0         0         0         0         0         0         0
         0         0         0         0         0         0         0         0
         0         0         0         0         0         0         0         0
         0         0         0         0         0         0         0         0
         0         0         0         0         0         0         0         0
         0         0         0         0         0         0         0         0
         0         0         0         0         0         0         0         0
         0         0         0         0         0         0         0         0
         0         0         0         0         0         0         0         0
         0         0         0         0         0         0         0         0
         0         0         0         0         0         0         0         0
         0         0         0         0         0         0         0         0
         0         0         0         0         0         0         0         0
         0         0         0         0         0         0         0         0
         0         0         0         0         0         0         0         0
         0         0         0         0         0         0         0         0
         0         0         0         0         0         0         0         0
         0         0         0         0         0         0         0         0
         0         0         0         0         0         0         0         0
         0         0         0         0         0         0         0         0
         0         0         0         0         0         0         0         0
         0         0         0         0         0         0         0         0
         0         0         0         0         0         0         0         0
         0         0         0         0         0         0         0         0
         0         0         0         0         0         0         0         0
         0         0         0         0         0         0         0         0
         0         0         0         0         0         0         0         0
         0         0         0         0         0         0         0         0
         0         0         0         0         0         0         0         0
         0         0         0         0         0         0         0         0
         0         0         0         0         0         0         0         0
         0         0         0         0         0         0         0         0
         0         0         0         0         0         0         0         0
         0         0         0         0         0         0         0         0
         0         0         0         0         0         0         0         0
         0         0         0         0         0         0         0         0
         0         0         0         0         0         0         0         0
         0         0         0         0         0         0         0         0
         0         0         0         0         0         0         0         0
         0         0         0         0         0         0         0         0
         0         0         0         0         0         0         0         0
         0         0         0         0         0         0         0         0
         0         0         0         0         0         0         0         0
         0         0         0         0         0         0         0         0
         0         0         0         0         0         0         0         0
         0         0         0         0         0         0         0         0
         0         0         0         0         0         0         0         0
         0         0         0         0         0         0         0         0
         0         0         0         0         0         0         0         0
         0         0         0         0         0         0         0         0
         0         0         0         0         0         0         0         0
         0         0         0         0         0         0         0         0
         0         0         0         0         0         0         0         0
         0         0         0         0         0         0         0         0
         0         0         0         0         0         0         0         0
         0         0         0         0         0         0         0         0
         0         0         0         0         0         0         0         0
         0         0         0         0         0         0         0         0
         0         0         0         0         0         0         0         0
         0         0         0         0         0         0         0         0
         0         0         0         0         0         0         0         0
         0         0         0         0         0         0         0         0
         0         0         0         0         0         0         0         0
         0         0         0         0         0         0         0         0
         0         0         0         0         0         0         0         0
         0         0         0         0         0         0         0         0
         0         0         0         0         0         0         0         0
         0         0         0         0         0         0         0         0
         0         0         0         0         0         0         0         0
         0         0         0         0         0         0         0         0
         0         0         0         0         0         0         0         0
         0         0         0         0         0         0         0         0
         0         0         0         0         0         0         0         0
         0         0         0         0         0         0         0         0
         0         0         0         0         0         0         0         0
         0         0         0         0         0         0         0         0
         0         0         0         0         0         0         0         0
         0         0         0         0         0         0         0         0
         0         0         0         0         0         0         0         0
         0         0         0         0         0         0         0         0
         0         0         0         0         0         0         0         0
         0         0         0         0         0         0         0         0
         0         0         0         0         0         0         0         0
         0         0         0         0         0         0         0         0
         0         0         0         0         0         0         0         0
         0         0         0         0         0         0         0         0
         0         0         0         0         0         0         0         0
         0         0         0         0         0         0         0         0
         0         0         0         0         0         0         0         0
         0         0         0         0         0         0         0         0
         0         0         0         0         0         0         0         0
         0         0         0         0         0         0         0         0
         0         0         0         0         0         0         0         0
         0         0         0         0         0         0         0         0
         0         0         0         0         0         0         0         0
         0         0         0         0         0         0         0         0
         0         0         0         0         0         0         0         0
         0         0         0         0         0         0         0         0
         0         0         0         0         0         0         0         0
         0         0         0         0         0         0         0         0
         0         0         0         0         0         0         0         0
         0         0         0         0         0         0         0         0
         0         0         0         0         0         0         0         0
         0         0         0         0         0         0         0         0
         0         0         0         0         0         0         0         0
         0         0         0         0         0         0         0         0
         0         0         0         0         0         0         0         0
         0         0         0         0         0         0         0         0
         0         0         0         0         0         0         0         0
         0         0         0         0         0         0         0         0
         0         0         0         0         0         0         0         0
         0         0         0         0         0         0         0         0
         0         0         0         0         0         0         0         0
         0         0         0         0         0         0         0         0
         0         0         0         0         0         0         0         0
         0         0         0         0         0         0         0         0
         0         0         0         0         0         0         0         0
         0         0         0         0         0         0         0         0
         0         0         0         0         0         0         0         0
         0         0         0         0         0         0         0         0
         0         0         0         0         0         0         0         0
         0         0         0         0         0         0         0         0
         0         0         0         0         0         0         0         0
         0         0         0         0         0         0         0         0
         0         0         0         0         0         0         0         0
         0         0         0         0         0         0         0         0
         0         0         0         0         0         0         0         0
         0         0         0         0         0         0         0         0
         0         0         0         0         0         0         0         0
         0         0         0         0         0         0         0         0
         0         0         0         0         0         0         0         0
         0         0         0         0         0         0         0         0
         0         0         0         0         0         0         0         0
         0         0         0         0         0         0         0         0
         0         0         0         0         0         0         0         0
         0         0         0         0         0         0         0         0
         0         0         0         0         0         0         0         0
         0         0         0         0         0         0         0         0
         0         0         0         0         0         0         0         0
         0         0         0         0         0         0         0         0
         0         0         0         0         0         0         0         0
         0         0         0         0         0         0         0         0
         0         0         0         0         0         0         0         0
         0         0         0         0         0         0         0         0
         0         0         0         0         0         0         0         0
         0         0         0         0         0         0         0         0
         0         0         0         0         0         0         0         0
         0         0         0         0         0         0         0         0
         0         0         0         0         0         0         0         0
         0         0         0         0         0         0         0         0
         0         0         0         0         0         0         0         0
         0         0         0         0         0         0         0         0
         0         0         0         0         0         0         0         0
         0         0         0         0         0         0         0         0
         0         0         0         0         0         0         0         0
         0         0         0         0         0         0         0         0
         0         0         0         0         0         0         0         0
         0         0         0         0         0         0         0         0
         0         0         0         0         0         0         0         0
         0         0         0         0         0         0         0         0
         0         0         0         0         0         0         0         0
         0         0         0         0         0         0         0         0
         0         0         0         0         0         0         0         0
         0         0         0         0         0         0         0         0
         0         0         0         0         0         0         0         0
         0         0         0         0         0         0         0         0
         0         0         0         0         0         0         0         0
         0         0         0         0         0         0         0         0
         0         0         0         0         0         0         0         0
         0         0         0         0         0         0         0         0
         0         0         0         0         0         0         0         0
         0         0         0         0         0         0         0         0
         0         0         0         0         0         0         0         0
         0         0         0         0         0         0         0         0
         0         0         0         0         0         0         0         0
         0         0         0         0         0         0         0         0
         0         0         0         0         0         0         0         0
         0         0         0         0         0         0         0         0
         0         0         0         0         0         0         0         0
         0         0         0         0         0         0         0         0
         0         0         0         0         0         0         0         0
         0         0         0         0         0         0         0         0
         0         0         0         0         0         0         0         0
         0         0         0         0         0         0         0         0
         0         0         0         0         0         0         0         0
         0         0         0         0         0         0         0         0
         0         0         0         0         0         0         0         0
         0         0         0         0         0         0         0         0
         0         0         0         0         0         0         0         0
         0         0         0         0         0         0         0         0
         0         0         0         0         0         0         0         0
         0         0         0         0         0         0         0         0
         0         0         0         0         0         0         0         0
         0         0         0         0         0         0         0         0
         0         0         0         0         0         0         0         0
         0         0         0         0         0         0         0         0
         0         0         0         0         0         0         0         0
         0         0         0         0         0         0         0         0
         0         0         0         0         0         0         0         0
         0         0         0         0         0         0         0         0
         0         0         0         0         0         0         0         0
         0         0         0         0         0         0         0         0
         0         0         0         0         0         0         0         0
         0         0         0         0         0         0         0         0
         0         0         0         0         0         0         0         0
         0         0         0         0         0         0         0         0
         0         0         0         0         0         0         0         0
         0         0         0         0         0         0         0         0
         0         0         0         0         0         0         0         0
         0         0         0         0         0         0         0         0
         0         0         0         0         0         0         0         0
         0         0         0         0         0         0         0         0
         0         0         0         0         0         0         0         0
         0         0         0         0         0         0         0         0
         0         0         0         0         0         0         0         0
         0         0         0         0         0         0         0         0
         0         0         0         0         0         0         0         0
         0         0         0         0         0         0         0         0
         0         0         0         0         0         0         0         0
         0         0         0         0         0         0         0         0
         0         0         0         0         0         0         0         0
         0         0         0         0         0         0         0         0
         0         0         0         0         0         0         0         0
         0         0         0         0         0         0         0         0
         0         0         0         0         0         0         0         0
         0         0         0         0         0         0         0         0
         0         0         0         0         0         0         0         0
         0         0         0         0         0         0         0         0
         0         0         0         0         0         0         0         0
         0         0         0         0         0         0         0         0
         0         0         0         0         0         0         0         0
         0         0         0         0         0         0         0         0
         0         0         0         0         0         0         0         0
         0         0         0         0         0         0         0         0
         0         0         0         0         0         0         0         0
         0         0         0         0         0         0         0         0
         0         0         0         0         0         0         0         0
         0         0         0         0         0         0         0         0
         0         0         0         0         0         0         0         0
         0         0         0         0         0         0         0         0
         0         0         0         0         0         0         0         0
         0         0         0         0         0         0         0         0
         0         0         0         0         0         0         0         0
         0         0         0         0         0         0         0         0
         0         0         0         0         0         0         0         0
         0         0         0         0         0         0         0         0
         0         0         0         0         0         0         0         0
         0         0         0         0         0         0         0         0
         0         0         0         0         0         0         0         0
         0         0         0         0         0         0         0         0
         0         0         0         0         0         0         0         0
         0         0         0         0         0         0         0         0
         0         0         0         0         0         0         0         0
         0         0         0         0         0         0         0         0
         0         0         0         0         0         0         0         0
         0         0         0         0         0         0         0         0
         0         0         0         0         0         0         0         0
         0         0         0         0         0         0         0         0
         0         0         0         0         0         0         0         0
         0         0         0         0         0         0         0         0
         0         0         0         0         0         0         0         0
         0         0         0         0         0         0         0         0
         0         0         0         0         0         0         0         0
         0         0         0         0         0         0         0         0
         0         0         0         0         0         0         0         0
         0         0         0         0         0         0         0         0
         0         0         0         0         0         0         0         0
         0         0         0         0         0         0         0         0
         0         0         0         0         0         0         0         0
         0         0         0         0         0         0         0         0
         0         0         0         0         0         0         0         0
         0         0         0         0         0         0         0         0
         0         0         0         0         0         0         0         0
         0         0         0         0         0         0         0         0
         0         0         0         0         0         0         0         0
         0         0         0         0         0         0         0         0
         0         0         0         0         0         0         0         0
         0         0         0         0         0         0         0         0
         0         0         0         0         0         0         0         0
         0         0         0         0         0         0         0         0
         0         0         0         0         0         0         0         0
         0         0         0         0         0         0         0         0
         0         0         0         0         0         0         0         0
         0         0         0         0         0         0         0         0
         0         0         0         0         0         0         0         0
         0         0         0         0         0         0         0         0
         0         0         0         0         0         0         0         0
         0         0         0         0         0         0         0         0
         0         0         0         0         0         0         0         0
         0         0         0         0         0         0         0         0
         0         0         0         0         0         0         0         0
         0         0         0         0         0         0         0         0
         0         0         0         0         0         0         0         0
         0         0         0         0         0         0         0         0
         0         0         0         0         0         0         0         0
         0         0         0         0         0         0         0         0
         0         0         0         0         0         0         0         0
         0         0         0         0         0         0         0         0
         0         0         0         0         0         0         0         0
         0         0         0         0         0         0         0         0
         0         0         0         0         0         0         0         0
         0         0         0         0         0         0         0         0
         0         0         0         0         0         0         0         0
         0         0         0         0         0         0         0         0
         0         0         0         0         0         0         0         0
         0         0         0         0         0         0         0         0
         0         0         0         0         0         0         0         0
         0         0         0         0         0         0         0         0
         0         0         0         0         0         0         0         0
         0         0         0         0         0         0         0         0
         0         0         0         0         0         0         0         0
         0         0         0         0         0         0         0         0
         0         0         0         0         0         0         0         0
         0         0         0         0         0         0         0         0
         0         0         0         0         0         0         0         0
         0         0         0         0         0         0         0         0
         0         0         0         0         0         0         0         0
         0         0         0         0         0         0         0         0
         0         0         0         0         0         0         0         0
         0         0         0         0         0         0         0         0
         0         0         0         0         0         0         0         0
         0         0         0         0         0         0         0         0
         0         0         0         0         0         0         0         0
         0         0         0         0         0         0         0         0
         0         0         0         0         0         0         0         0
         0         0         0         0         0         0         0         0
         0         0         0         0         0         0         0         0
         0         0         0         0         0         0         0         0
         0         0         0         0         0         0         0         0
         0         0         0         0         0         0         0         0
         0         0         0         0         0         0         0         0
         0         0         0         0         0         0         0         0
         0         0         0         0         0         0         0         0
         0         0         0         0         0         0         0         0
         0         0         0         0         0         0         0         0
         0         0         0         0         0         0         0         0
         0         0         0         0         0         0         0         0
         0         0         0         0         0         0         0         0
         0         0         0         0         0         0         0         0
         0         0         0         0         0         0         0         0
         0         0         0         0         0         0         0         0
         0         0         0         0         0         0         0         0
         0         0         0         0         0         0         0         0
         0         0         0         0         0         0         0         0
         0         0         0         0         0         0         0         0
         0         0         0         0         0         0         0         0
         0         0         0         0         0         0         0         0
         0         0         0         0         0         0         0         0
         0         0         0         0         0         0         0         0
         0         0         0         0         0         0         0         0
         0         0         0         0         0         0         0         0
         0         0         0         0         0         0         0         0
         0         0         0         0         0         0         0         0
         0         0         0         0         0         0         0         0
         0         0         0         0         0         0         0         0
         0         0         0         0         0         0         0         0
         0         0         0         0         0         0         0         0
         0         0         0         0         0         0         0         0
         0         0         0         0         0         0         0         0
         0         0         0         0         0         0         0         0
         0         0         0         0         0         0         0         0
         0         0         0         0         0         0         0         0
         0         0         0         0         0         0         0         0
         0         0         0         0         0         0         0         0
         0         0         0         0         0         0         0         0
         0         0         0         0         0         0         0         0
         0         0         0         0         0         0         0         0
         0         0         0         0         0         0         0         0
         0         0         0         0         0         0         0         0
         0         0         0         0         0         0         0         0
         0         0         0         0         0         0         0         0
         0         0         0         0         0         0         0         0
         0         0         0         0         0         0         0         0
         0         0         0         0         0         0         0         0
         0         0         0         0         0         0         0         0
         0         0         0         0         0         0         0         0
         0         0         0         0         0         0         0         0
         0         0         0         0         0         0         0         0
         0         0         0         0         0         0         0         0
         0         0         0         0         0         0         0         0
         0         0         0         0         0         0         0         0
         0         0         0         0         0         0         0         0
         0         0         0         0         0         0         0         0
         0         0         0         0         0         0         0         0
         0         0         0         0         0         0         0         0
         0         0         0         0         0         0         0         0
         0         0         0         0         0         0         0         0
         0         0         0         0         0         0         0         0
         0         0         0         0         0         0         0         0
         0         0         0         0         0         0         0         0
         0         0         0         0         0         0         0         0
         0         0         0         0         0         0         0         0
         0         0         0         0         0         0         0         0
         0         0         0         0         0         0         0         0
         0         0         0         0         0         0         0         0
         0         0         0         0         0         0         0         0
         0         0         0         0         0         0         0         0
         0         0         0         0         0         0         0         0
         0         0         0         0         0         0         0         0
         0         0         0         0         0         0         0         0
         0         0         0         0         0         0         0         0
         0         0         0         0         0         0         0         0
         0         0         0         0         0         0         0         0
         0         0         0         0         0         0         0         0
         0         0         0         0         0         0         0         0
         0         0         0         0         0         0         0         0
         0         0         0         0         0         0         0         0
         0         0         0         0         0         0         0         0
         0         0         0         0         0         0         0         0
         0         0         0         0         0         0         0         0
         0         0         0         0         0         0         0         0
         0         0         0         0         0         0         0         0
         0         0         0         0         0         0         0         0
         0         0         0         0         0         0         0         0
         0         0         0         0         0         0         0         0
         0         0         0         0         0         0         0         0
         0         0         0         0         0         0         0         0
         0         0         0         0         0         0         0         0
         0         0         0         0         0         0         0         0
         0         0         0         0         0         0         0         0
         0         0         0         0         0         0         0         0
         0         0         0         0         0         0         0         0
         0         0         0         0         0         0         0         0
         0         0         0         0         0         0         0         0
         0         0         0         0         0         0         0         0
         0         0         0         0         0         0         0         0
         0         0         0         0         0         0         0         0
         0         0         0         0         0         0         0         0
         0         0         0         0         0         0         0         0
         0         0         0         0         0         0         0         0
         0         0         0         0         0         0         0         0
         0         0         0         0         0         0         0         0
         0         0         0         0         0         0         0         0
         0         0         0         0         0         0         0         0
         0         0         0         0         0         0         0         0
         0         0         0         0         0         0         0         0
         0         0         0         0         0         0         0         0
         0         0         0         0         0         0         0         0
         0         0         0         0         0         0         0         0
         0         0         0         0         0         0         0         0
         0         0         0         0         0         0         0         0
         0         0         0         0         0         0         0         0
         0         0         0         0         0         0         0         0
         0         0         0         0         0         0         0         0
         0         0         0         0         0         0         0         0
         0         0         0         0         0         0         0         0
         0         0         0         0         0         0         0         0
         0         0         0         0         0         0         0         0
         0         0         0         0         0         0         0         0
         0         0         0         0         0         0         0         0
         0         0         0         0         0         0         0         0
         0         0         0         0         0         0         0         0
         0         0         0         0         0         0         0         0
         0         0         0         0         0         0         0         0
         0         0         0         0         0         0         0         0
         0         0         0         0         0         0         0         0
         0         0         0         0         0         0         0         0
         0         0         0         0         0         0         0         0
         0         0         0         0         0         0         0         0
         0         0         0         0         0         0         0         0
         0         0         0         0         0         0         0         0
         0         0         0         0         0         0         0         0
         0         0         0         0         0         0         0         0
         0         0         0         0         0         0         0         0
         0         0         0         0         0         0         0         0
         0         0         0         0         0         0         0         0
         0         0         0         0         0         0         0         0
         0         0         0         0         0         0         0         0
         0         0         0         0         0         0         0         0
         0         0         0         0         0         0         0         0
         0         0         0         0         0         0         0         0
         0         0         0         0         0         0         0         0
         0         0         0         0         0         0         0         0
         0         0         0         0         0         0         0         0
         0         0         0         0         0         0         0         0
         0         0         0         0         0         0         0         0
         0         0         0         0         0         0         0         0
         0         0         0         0         0         0         0         0
         0         0         0         0         0         0         0         0
         0         0         0         0         0         0         0         0
         0         0         0         0         0         0         0         0
         0         0         0         0         0         0         0         0
         0         0         0         0         0         0         0         0
         0         0         0         0         0         0         0         0
         0         0         0         0         0         0         0         0
         0         0         0         0         0         0         0         0
         0         0         0         0         0         0         0         0
         0         0         0         0         0         0         0         0
         0         0         0         0         0         0         0         0
         0         0         0         0         0         0         0         0
         0         0         0         0         0         0         0         0
         0         0         0         0         0         0         0         0
         0         0         0         0         0         0         0         0
         0         0         0         0         0         0         0         0
         0         0         0         0         0         0         0         0
         0         0         0         0         0         0         0         0
         0         0         0         0         0         0         0         0
         0         0         0         0         0         0         0         0
         0         0         0         0         0         0         0         0
         0         0         0         0         0         0         0         0
         0         0         0         0         0         0         0         0
         0         0         0         0         0         0         0         0
         0         0         0         0         0         0         0         0
         0         0         0         0         0         0         0         0
         0         0         0         0         0         0         0         0
         0         0         0         0         0         0         0         0
         0         0         0         0         0         0         0         0
         0         0         0         0         0         0         0         0
         0         0         0         0         0         0         0         0
         0         0         0         0         0         0         0         0
         0         0         0         0         0         0         0         0
         0         0         0         0         0         0         0         0
         0         0         0         0         0         0         0         0
         0         0         0         0         0         0         0         0
         0         0         0         0         0         0         0         0
         0         0         0         0         0         0         0         0
         0         0         0         0         0         0         0         0
         0         0         0         0         0         0         0         0
         0         0         0         0         0         0         0         0
         0         0         0         0         0         0         0         0
         0         0         0         0         0         0         0         0
         0         0         0         0         0         0         0         0
         0         0         0         0         0         0         0         0
         0         0         0         0         0         0         0         0
         0         0         0         0         0         0         0         0
         0         0         0         0         0         0         0         0
         0         0         0         0         0         0         0         0
         0         0         0         0         0         0         0         0
         0         0         0         0         0         0         0         0
         0         0         0         0         0         0         0         0
         0         0         0         0         0         0         0         0
         0         0         0         0         0         0         0         0
         0         0         0         0         0         0         0         0
         0         0         0         0         0         0         0         0
         0         0         0         0         0         0         0         0
         0         0         0         0         0         0         0         0
         0         0         0         0         0         0         0         0
         0         0         0         0         0         0         0         0
         0         0         0         0         0         0         0         0
         0         0         0         0         0         0         0         0
         0         0         0         0         0         0         0         0
         0         0         0         0         0         0         0         0
         0         0         0         0         0         0         0         0
         0         0         0         0         0         0         0         0
         0         0         0         0         0         0         0         0
         0         0         0         0         0         0         0         0
         0         0         0         0         0         0         0         0
         0         0         0         0         0         0         0         0
         0         0         0         0         0         0         0         0
         0         0         0         0         0         0         0         0
         0         0         0         0         0         0         0         0
         0         0         0         0         0         0         0         0
         0         0         0         0         0         0         0         0
         0         0         0         0         0         0         0         0
         0         0         0         0         0         0         0         0
         0         0         0         0         0         0         0         0
         0         0         0         0         0         0         0         0
         0         0         0         0         0         0         0         0
         0         0         0         0         0         0         0         0
         0         0         0         0         0         0         0         0
         0         0         0         0         0         0         0         0
         0         0         0         0         0         0         0         0
         0         0         0         0         0         0         0         0
         0         0         0         0         0         0         0         0
         0         0         0         0         0         0         0         0
         0         0         0         0         0         0         0         0
         0         0         0         0         0         0         0         0
         0         0         0         0         0         0         0         0
         0         0         0         0         0         0         0         0
         0         0         0         0         0         0         0         0
         0         0         0         0         0         0         0         0
         0         0         0         0         0         0         0         0
         0         0         0         0         0         0         0         0
         0         0         0         0         0         0         0         0
         0         0         0         0         0         0         0         0
         0         0         0         0         0         0         0         0
         0         0         0         0         0         0         0         0
         0         0         0         0         0         0         0         0
         0         0         0         0         0         0         0         0
         0         0         0         0         0         0         0         0
         0         0         0         0         0         0         0         0
         0         0         0         0         0         0         0         0
         0         0         0         0         0         0         0         0
         0         0         0         0         0         0         0         0
         0         0         0         0         0         0         0         0
         0         0         0         0         0         0         0         0
         0         0         0         0         0         0         0         0
         0         0         0         0         0         0         0         0
         0         0         0         0         0         0         0         0
         0         0         0         0         0         0         0         0
         0         0         0         0         0         0         0         0
         0         0         0         0         0         0         0         0
         0         0         0         0         0         0         0         0
         0         0         0         0         0         0         0         0
         0         0         0         0         0         0         0         0
         0         0         0         0         0         0         0         0
         0         0         0         0         0         0         0         0
         0         0         0         0         0         0         0         0
         0         0         0         0         0         0         0         0
         0         0         0         0         0         0         0         0
         0         0         0         0         0         0         0         0
         0         0         0         0         0         0         0         0
         0         0         0         0         0         0         0         0
         0         0         0         0         0         0         0         0
         0         0         0         0         0         0         0         0
         0         0         0         0         0         0         0         0
         0         0         0         0         0         0         0         0
         0         0         0         0         0         0         0         0
         0         0         0         0         0         0         0         0
         0         0         0         0         0         0         0         0
         0         0         0         0         0         0         0         0
         0         0         0         0         0         0         0         0
         0         0         0         0         0         0         0         0
         0         0         0         0         0         0         0         0
         0         0         0         0         0         0         0         0
         0         0         0         0         0         0         0         0
         0         0         0         0         0         0         0         0
         0         0         0         0         0         0         0         0
         0         0         0         0         0         0         0         0
         0         0         0         0         0         0         0         0
         0         0         0         0         0         0         0         0
         0         0         0         0         0         0         0         0
         0         0         0         0         0         0         0         0
         0         0         0         0         0         0         0         0
         0         0         0         0         0         0         0         0
         0         0         0         0         0         0         0         0
         0         0         0         0         0         0         0         0
         0         0         0         0         0         0         0         0
         0         0         0         0         0         0         0         0
         0         0         0         0         0         0         0         0
         0         0         0         0         0         0         0         0
         0         0         0         0         0         0         0         0
         0         0         0         0         0         0         0         0
         0         0         0         0         0         0         0         0
         0         0         0         0         0         0         0         0
         0         0         0         0         0         0         0         0
         0         0         0         0         0         0         0         0
         0         0         0         0         0         0         0         0
         0         0         0         0         0         0         0         0
         0         0         0         0         0         0         0         0
         0         0         0         0         0         0         0         0
         0         0         0         0         0         0         0         0
         0         0         0         0         0         0         0         0
         0         0         0         0         0         0         0         0
         0         0         0         0         0         0         0         0
         0         0         0         0         0         0         0         0
         0         0         0         0         0         0         0         0
         0         0         0         0         0         0         0         0
         0         0         0         0         0         0         0         0
         0         0         0         0         0         0         0         0
         0         0         0         0         0         0         0         0
         0         0         0         0         0         0         0         0
         0         0         0         0         0         0         0         0
         0         0         0         0         0         0         0         0
         0         0         0         0         0         0         0         0
         0         0         0         0         0         0         0         0
         0         0         0         0         0         0         0         0
         0         0         0         0         0         0         0         0
         0         0         0         0         0         0         0         0
         0         0         0         0         0         0         0         0
         0         0         0         0         0         0         0         0
         0         0         0         0         0         0         0         0
         0         0         0         0         0         0         0         0
         0         0         0         0         0         0         0         0
         0         0         0         0         0         0         0         0
         0         0         0         0         0         0         0         0
         0         0         0         0         0         0         0         0
         0         0         0         0         0         0         0         0
         0         0         0         0         0         0         0         0
         0         0         0         0         0         0         0         0
         0         0         0         0         0         0         0         0
         0         0         0         0         0         0         0         0
         0         0         0         0         0         0         0         0
         0         0         0         0         0         0         0         0
         0         0         0         0         0         0         0         0
         0         0         0         0         0         0         0         0
         0         0         0         0         0         0         0         0
         0         0         0         0         0         0         0         0
         0         0         0         0         0         0         0         0
         0         0         0         0         0         0         0         0
         0         0         0         0         0         0         0         0
         0         0         0         0         0         0         0         0
         0         0         0         0         0         0         0         0
         0         0         0         0         0         0         0         0
         0         0         0         0         0         0         0         0
         0         0         0         0         0         0         0         0
         0         0         0         0         0         0         0         0
         0         0         0         0         0         0         0         0
         0         0         0         0         0         0         0         0
         0         0         0         0         0         0         0         0
         0         0         0         0         0         0         0         0
         0         0         0         0         0         0         0         0
         0         0         0         0         0         0         0         0
         0         0         0         0         0         0         0         0
         0         0         0         0         0         0         0         0
         0         0         0         0         0         0         0         0
         0         0         0         0         0         0         0         0
         0         0         0         0         0         0         0         0
         0         0         0         0         0         0         0         0
         0         0         0         0         0         0         0         0
         0         0         0         0         0         0         0         0
         0         0         0         0         0         0         0         0
         0         0         0         0         0         0         0         0
         0         0         0         0         0         0         0         0
         0         0         0         0         0         0         0         0
         0         0         0         0         0         0         0         0
         0         0         0         0         0         0         0         0
         0         0         0         0         0         0         0         0
         0         0         0         0         0         0         0         0
         0         0         0         0         0         0         0         0
         0         0         0         0         0         0         0         0
         0         0         0         0         0         0         0         0
         0         0         0         0         0         0         0         0
         0         0         0         0         0         0         0         0
         0         0         0         0         0         0         0         0
         0         0         0         0         0         0         0         0
         0         0         0         0         0         0         0         0
         0         0         0         0         0         0         0         0
         0         0         0         0         0         0         0         0
         0         0         0         0         0         0         0         0
         0         0         0         0         0         0         0         0
         0         0         0         0         0         0         0         0
         0         0         0         0         0         0         0         0
         0         0         0         0         0         0         0         0
         0         0         0         0         0         0         0         0
         0         0         0         0         0         0         0         0
         0         0         0         0         0         0         0         0
         0         0         0         0         0         0         0         0
         0         0         0         0         0         0         0         0
         0         0         0         0         0         0         0         0
         0         0         0         0         0         0         0         0
         0         0         0         0         0         0         0         0
         0         0         0         0         0         0         0         0
         0         0         0         0         0         0         0         0
         0         0         0         0         0         0         0         0
         0         0         0         0         0         0         0         0
         0         0         0         0         0         0         0         0
         0         0         0         0         0         0         0         0
         0         0         0         0         0         0         0         0
         0         0         0         0         0         0         0         0
         0         0         0         0         0         0         0         0
         0         0         0         0         0         0         0         0
         0         0         0         0         0         0         0         0
         0         0         0         0         0         0         0         0
         0         0         0         0         0         0         0         0
         0         0         0         0         0         0         0         0
         0         0         0         0         0         0         0         0
         0         0         0         0         0         0         0         0
         0         0         0         0         0         0         0         0
         0         0         0         0         0         0         0         0
         0         0         0         0         0         0         0         0
         0         0         0         0         0         0         0         0
         0         0         0         0         0         0         0         0
         0         0         0         0         0         0         0         0
         0         0         0         0         0         0         0         0
         0         0         0         0         0         0         0         0
         0         0         0         0         0         0         0         0
         0         0         0         0         0         0         0         0
         0         0         0         0         0         0         0         0
         0         0         0         0         0         0         0         0
         0         0         0         0         0         0         0         0
         0         0         0         0         0         0         0         0
         0         0         0         0         0         0         0         0
         0         0         0         0         0         0         0         0
         0         0         0         0         0         0         0         0
         0         0         0         0         0         0         0         0
         0         0         0         0         0         0         0         0
         0         0         0         0         0         0         0         0
         0         0         0         0         0         0         0         0
         0         0         0         0         0         0         0         0
         0         0         0         0         0         0         0         0
         0         0         0         0         0         0         0         0
         0         0         0         0         0         0         0         0
         0         0         0         0         0         0         0         0
         0         0         0         0         0         0         0         0
         0         0         0         0         0         0         0         0
         0         0         0         0         0         0         0         0
         0         0         0         0         0         0         0         0
         0         0         0         0         0         0         0         0
         0         0         0         0         0         0         0         0
         0         0         0         0         0         0         0         0
         0         0         0         0         0         0         0         0
         0         0         0         0         0         0         0         0
         0         0         0         0         0         0         0         0
         0         0         0         0         0         0         0         0
         0         0         0         0         0         0         0         0
         0         0         0         0         0         0         0         0
         0         0         0         0         0         0         0         0
         0         0         0         0         0         0         0         0
         0         0         0         0         0         0         0         0
         0         0         0         0         0         0         0         0
         0         0         0         0         0         0         0         0
         0         0         0         0         0         0         0         0
         0         0         0         0         0         0         0         0
         0         0         0         0         0         0         0         0
         0         0         0         0         0         0         0         0
         0         0         0         0         0         0         0         0
         0         0         0         0         0         0         0         0
         0         0         0         0         0         0         0         0
         0         0         0         0         0         0         0         0
         0         0         0         0         0         0         0         0
         0         0         0         0         0         0         0         0
         0         0         0         0         0         0         0         0
         0         0         0         0         0         0         0         0
         0         0         0         0         0         0         0         0
         0         0         0         0         0         0         0         0
         0         0         0         0         0         0         0         0
         0         0         0         0         0         0         0         0
         0         0         0         0         0         0         0         0
         0         0         0         0         0         0         0         0
         0         0         0         0         0         0         0         0
         0         0         0         0         0         0         0         0
         0         0         0         0         0         0         0         0
         0         0         0         0         0         0         0         0
         0         0         0         0         0         0         0         0
         0         0         0         0         0         0         0         0
         0         0         0         0         0         0         0         0
         0         0         0         0         0         0         0         0
         0         0         0         0         0         0         0         0
         0         0         0         0         0         0         0         0
         0         0         0         0         0         0         0         0
         0         0         0         0         0         0         0         0
         0         0         0         0         0         0         0         0
         0         0         0         0         0         0         0         0
         0         0         0         0         0         0         0         0
         0         0         0         0         0         0         0         0
         0         0         0         0         0         0         0         0
         0         0         0         0         0         0         0         0
         0         0         0         0         0         0         0         0
         0         0         0         0         0         0         0         0
         0         0         0         0         0         0         0         0
         0         0         0         0         0         0         0         0
         0         0         0         0         0         0         0         0
         0         0         0         0         0         0         0         0
         0         0         0         0         0         0         0         0
         0         0         0         0         0         0         0         0
         0         0         0         0         0         0         0         0
         0         0         0         0         0         0         0         0
         0         0         0         0         0         0         0         0
         0         0         0         0         0         0         0         0
         0         0         0         0         0         0         0         0
         0         0         0         0         0         0         0         0
         0         0         0         0         0         0         0         0
         0         0         0         0         0         0         0         0
         0         0         0         0         0         0         0         0
         0         0         0         0         0         0         0         0
         0         0         0         0         0         0         0         0
         0         0         0         0         0         0         0         0
         0         0         0         0         0         0         0         0
         0         0         0         0         0         0         0         0
         0         0         0         0         0         0         0         0
         0         0         0         0         0         0         0         0
         0         0         0         0         0         0         0         0
         0         0         0         0         0         0         0         0
         0         0         0         0         0         0         0         0
         0         0         0         0         0         0         0         0
         0         0         0         0         0         0         0         0
         0         0         0         0         0         0         0         0
         0         0         0         0         0         0         0         0
         0         0         0         0         0         0         0         0
         0         0         0         0         0         0         0         0
         0         0         0         0         0         0         0         0
         0         0         0         0         0         0         0         0
         0         0         0         0         0         0         0         0
         0         0         0         0         0         0         0         0
         0         0         0         0         0         0         0         0
         0         0         0         0         0         0         0         0
         0         0         0         0         0         0         0         0
         0         0         0         0         0         0         0         0
         0         0         0         0         0         0         0         0
         0         0         0         0         0         0         0         0
         0         0         0         0         0         0         0         0
         0         0         0         0         0         0         0         0
         0         0         0         0         0         0         0         0
         0         0         0         0         0         0         0         0
         0         0         0         0         0         0         0         0
         0         0         0         0         0         0         0         0
         0         0         0         0         0         0         0         0
         0         0         0         0         0         0         0         0
         0         0         0         0         0         0         0         0
         0         0         0         0         0         0         0         0
         0         0         0         0         0         0         0         0
         0         0         0         0         0         0         0         0
         0         0         0         0         0         0         0         0
         0         0         0         0         0         0         0         0
         0         0         0         0         0         0         0         0
         0         0         0         0         0         0         0         0
         0         0         0         0         0         0         0         0
         0         0         0         0         0         0         0         0
         0         0         0         0         0         0         0         0
         0         0         0         0         0         0         0         0
         0         0         0         0         0         0         0         0
         0         0         0         0         0         0         0         0
         0         0         0         0         0         0         0         0
         0         0         0         0         0         0         0         0
         0         0         0         0         0         0         0         0
         0         0         0         0         0         0         0         0
         0         0         0         0         0         0         0         0
         0         0         0         0         0         0         0         0
         0         0         0         0         0         0         0         0
         0         0         0         0         0         0         0         0
         0         0         0         0         0         0         0         0
         0         0         0         0         0         0         0         0
         0         0         0         0         0         0         0         0
         0         0         0         0         0         0         0         0
         0         0         0         0         0         0         0         0
         0         0         0         0         0         0         0         0
         0         0         0         0         0         0         0         0
         0         0         0         0         0         0         0         0
         0         0         0         0         0         0         0         0
         0         0         0         0         0         0         0         0
         0         0         0         0         0         0         0         0
         0         0         0         0         0         0         0         0
         0         0         0         0         0         0         0         0
         0         0         0         0         0         0         0         0
         0         0         0         0         0         0         0         0
         0         0         0         0         0         0         0         0
         0         0         0         0         0         0         0         0
         0         0         0         0         0         0         0         0
         0         0         0         0         0         0         0         0
         0         0         0         0         0         0         0         0
         0         0         0         0         0         0         0         0
         0         0         0         0         0         0         0         0
         0         0         0         0         0         0         0         0
         0         0         0         0         0         0         0         0
         0         0         0         0         0         0         0         0
         0         0         0         0         0         0         0         0
         0         0         0         0         0         0         0         0
         0         0         0         0         0         0         0         0
         0         0         0         0         0         0         0         0
         0         0         0         0         0         0         0         0
         0         0         0         0         0         0         0         0
         0         0         0         0         0         0         0         0
         0         0         0         0         0         0         0         0
         0         0         0         0         0         0         0         0
         0         0         0         0         0         0         0         0
         0         0         0         0         0         0         0         0
         0         0         0         0         0         0         0         0
         0         0         0         0         0         0         0         0
         0         0         0         0         0         0         0         0
         0         0         0         0         0         0         0         0
         0         0         0         0         0         0         0         0
         0         0         0         0         0         0         0         0
         0         0         0         0         0         0         0         0
         0         0         0         0         0         0         0         0
         0         0         0         0         0         0         0         0
         0         0         0         0         0         0         0         0
         0         0         0         0         0         0         0         0
         0         0         0         0         0         0         0         0
         0         0         0         0         0         0         0         0
         0         0         0         0         0         0         0         0
         0         0         0         0         0         0         0         0
         0         0         0         0         0         0         0         0
         0         0         0         0         0         0         0         0
         0         0         0         0         0         0         0         0
         0         0         0         0         0         0         0         0
         0         0         0         0         0         0         0         0
         0         0         0         0         0         0         0         0
         0         0         0         0         0         0         0         0
         0         0         0         0         0         0         0         0
         0         0         0         0         0         0         0         0
         0         0         0         0         0         0         0         0
         0         0         0         0         0         0         0         0
         0         0         0         0         0         0         0         0
         0         0         0         0         0         0         0         0
         0         0         0         0         0         0         0         0
         0         0         0         0         0         0         0         0
         0         0         0         0         0         0         0         0
         0         0         0         0         0         0         0         0
         0         0         0         0         0         0         0         0
         0         0         0         0         0         0         0         0
         0         0         0         0         0         0         0         0
         0         0         0         0         0         0         0         0
         0         0         0         0         0         0         0         0
         0         0         0         0         0         0         0         0
         0         0         0         0         0         0         0         0
         0         0         0         0         0         0         0         0
         0         0         0         0         0         0         0         0
         0         0         0         0         0         0         0         0
         0         0         0         0         0         0         0         0
         0         0         0         0         0         0         0         0
         0         0         0         0         0         0         0         0
         0         0         0         0         0         0         0         0
         0         0         0         0         0         0         0         0
         0         0         0         0         0         0         0         0
         0         0         0         0         0         0         0         0
         0         0         0         0         0         0         0         0
         0         0         0         0         0         0         0         0
         0         0         0         0         0         0         0         0
         0         0         0         0         0         0         0         0
         0         0         0         0         0         0         0         0
         0         0         0         0         0         0         0         0
         0         0         0         0         0         0         0         0
         0         0         0         0         0         0         0         0
         0         0         0         0         0         0         0         0
         0         0         0         0         0         0         0         0
         0         0         0         0         0         0         0         0
         0         0         0         0         0         0         0         0
         0         0         0         0         0         0         0         0
         0         0         0         0         0         0         0         0
         0         0         0         0         0         0         0         0
         0         0         0         0         0         0         0         0
         0         0         0         0         0         0         0         0
         0         0         0         0         0         0         0         0
         0         0         0         0         0         0         0         0
         0         0         0         0         0         0         0         0
         0         0         0         0         0         0         0         0
         0         0         0         0         0         0         0         0
         0         0         0         0         0         0         0         0
         0         0         0         0         0         0         0         0
         0         0         0         0         0         0         0         0
         0         0         0         0         0         0         0         0
         0         0         0         0         0         0         0         0
         0         0         0         0         0         0         0         0
         0         0         0         0         0         0         0         0
         0         0         0         0         0         0         0         0
         0         0         0         0         0         0         0         0
         0         0         0         0         0         0         0         0
         0         0         0         0         0         0         0         0
         0         0         0         0         0         0         0         0
         0         0         0         0         0         0         0         0
         0         0         0         0         0         0         0         0
         0         0         0         0         0         0         0         0
         0         0         0         0         0         0         0         0
         0         0         0         0         0         0         0         0
         0         0         0         0         0         0         0         0
         0         0         0         0         0         0         0         0
         0         0         0         0         0         0         0         0
         0         0         0         0         0         0         0         0
         0         0         0         0         0         0         0         0
         0         0         0         0         0         0         0         0
         0         0         0         0         0         0         0         0
         0         0         0         0         0         0         0         0
         0         0         0         0         0         0         0         0
         0         0         0         0         0         0         0         0
         0         0         0         0         0         0         0         0
         0         0         0         0         0         0         0         0
         0         0         0         0         0         0         0         0
         0         0         0         0         0         0         0         0
         0         0         0         0         0         0         0         0
         0         0         0         0         0         0         0         0
         0         0         0         0         0         0         0         0
         0         0         0         0         0         0         0         0
         0         0         0         0         0         0         0         0
         0         0         0         0         0         0         0         0
         0         0         0         0         0         0         0         0
         0         0         0         0         0         0         0         0
         0         0         0         0         0         0         0         0
         0         0         0         0         0         0         0         0
         0         0         0         0         0         0         0         0
         0         0         0         0         0         0         0         0
         0         0         0         0         0         0         0         0
         0         0         0         0         0         0         0         0
         0         0         0         0         0         0         0         0
         0         0         0         0         0         0         0         0
         0         0         0         0         0         0         0         0
         0         0         0         0         0         0         0         0
         0         0         0         0         0         0         0         0
         0         0         0         0         0         0         0         0
         0         0         0         0         0         0         0         0
         0         0         0         0         0         0         0         0
         0         0         0         0         0         0         0         0
         0         0         0         0         0         0         0         0
         0         0         0         0         0         0         0         0
         0         0         0         0         0         0         0         0
         0         0         0         0         0         0         0         0
         0         0         0         0         0         0         0         0
         0         0         0         0         0         0         0         0
         0         0         0         0         0         0         0         0
         0         0         0         0         0         0         0         0
         0         0         0         0         0         0         0         0
         0         0         0         0         0         0         0         0
         0         0         0         0         0         0         0         0
         0         0         0         0         0         0         0         0
         0         0         0         0         0         0         0         0
         0         0         0         0         0         0         0         0
         0         0         0         0         0         0         0         0
         0         0         0         0         0         0         0         0
         0         0         0         0         0         0         0         0
         0         0         0         0         0         0         0         0
         0         0         0         0         0         0         0         0
         0         0         0         0         0         0         0         0
         0         0         0         0         0         0         0         0
         0         0         0         0         0         0         0         0
         0         0         0         0         0         0         0         0
         0         0         0         0         0         0         0         0
         0         0         0         0         0         0         0         0
         0         0         0         0         0         0         0         0
         0         0         0         0         0         0         0         0
         0         0         0         0         0         0         0         0
         0         0         0         0         0         0         0         0
         0         0         0         0         0         0         0         0
         0         0         0         0         0         0         0         0
         0         0         0         0         0         0         0         0
         0         0         0         0         0         0         0         0
         0         0         0         0         0         0         0         0
         0         0         0         0         0         0         0         0
         0         0         0         0         0         0         0         0
         0         0         0         0         0         0         0         0
         0         0         0         0         0         0         0         0
         0         0         0         0         0         0         0         0
         0         0         0         0         0         0         0         0
         0         0         0         0         0         0         0         0
         0         0         0         0         0         0         0         0
         0         0         0         0         0         0         0         0
         0         0         0         0         0         0         0         0
         0         0         0         0         0         0         0         0
         0         0         0         0         0         0         0         0
         0         0         0         0         0         0         0         0
         0         0         0         0         0         0         0         0
         0         0         0         0         0         0         0         0
         0         0         0         0         0         0         0         0
         0         0         0         0         0         0         0         0
         0         0         0         0         0         0         0         0
         0         0         0         0         0         0         0         0
         0         0         0         0         0         0         0         0
         0         0         0         0         0         0         0         0
         0         0         0         0         0         0         0         0
         0         0         0         0         0         0         0         0
         0         0         0         0         0         0         0         0
         0         0         0         0         0         0         0         0
         0         0         0         0         0         0         0         0
         0         0         0         0         0         0         0         0
         0         0         0         0         0         0         0         0
         0         0         0         0         0         0         0         0
         0         0         0         0         0         0         0         0
         0         0         0         0         0         0         0         0
         0         0         0         0         0         0         0         0
         0         0         0         0         0         0         0         0
         0         0         0         0         0         0         0         0
         0         0         0         0         0         0         0         0
         0         0         0         0         0         0         0         0
         0         0         0         0         0         0         0         0
         0         0         0         0         0         0         0         0
         0         0         0         0         0         0         0         0
         0         0         0         0         0         0         0         0
         0         0         0         0         0         0         0         0
         0         0         0         0         0         0         0         0
         0         0         0         0         0         0         0         0
         0         0         0         0         0         0         0         0
         0         0         0         0         0         0         0         0
         0         0         0         0         0         0         0         0
         0         0         0         0         0         0         0         0
         0         0         0         0         0         0         0         0
         0         0         0         0         0         0         0         0
         0         0         0         0         0         0         0         0
         0         0         0         0         0         0         0         0
         0         0         0         0         0         0         0         0
         0         0         0         0         0         0         0         0
         0         0         0         0         0         0         0         0
         0         0         0         0         0         0         0         0
         0         0         0         0         0         0         0         0
         0         0         0         0         0         0         0         0
         0         0         0         0         0         0         0         0
         0         0         0         0         0         0         0         0
         0         0         0         0         0         0         0         0
         0         0         0         0         0         0         0         0
         0         0         0         0         0         0         0         0
         0         0         0         0         0         0         0         0
         0         0         0         0         0         0         0         0
         0         0         0         0         0         0         0         0
         0         0         0         0         0         0         0         0
         0         0         0         0         0         0         0         0
         0         0         0         0         0         0         0         0
         0         0         0         0         0         0         0         0
         0         0         0         0         0         0         0         0
         0         0         0         0         0         0         0         0
         0         0         0         0         0         0         0         0
         0         0         0         0         0         0         0         0
         0         0         0         0         0         0         0         0
         0         0         0         0         0         0         0         0
         0         0         0         0         0         0         0         0
         0         0         0         0         0         0         0         0
         0         0         0         0         0         0         0         0
         0         0         0         0         0         0         0         0
         0         0         0         0         0         0         0         0
         0         0         0         0         0         0         0         0
         0         0         0         0         0         0         0         0
         0         0         0         0         0         0         0         0
         0         0         0         0         0         0         0         0
         0         0         0         0         0         0         0         0
         0         0         0         0         0         0         0         0
         0         0         0         0         0         0         0         0
         0         0         0         0         0         0         0         0
         0         0         0         0         0         0         0         0
         0         0         0         0         0         0         0         0
         0         0         0         0         0         0         0         0
         0         0         0         0         0         0         0         0
         0         0         0         0         0         0         0         0
         0         0         0         0         0         0         0         0
         0         0         0         0         0         0         0         0
         0         0         0         0         0         0         0         0
         0         0         0         0         0         0         0         0
         0         0         0         0         0         0         0         0
         0         0         0         0         0         0         0         0
         0         0         0         0         0         0         0         0
         0         0         0         0         0         0         0         0
         0         0         0         0         0         0         0         0
         0         0         0         0         0         0         0         0
         0         0         0         0         0         0         0         0
         0         0         0         0         0         0         0         0
         0         0         0         0         0         0         0         0
         0         0         0         0         0         0         0         0
         0         0         0         0         0         0         0         0
         0         0         0         0         0         0         0         0
         0         0         0         0         0         0         0         0
         0         0         0         0         0         0         0         0
         0         0         0         0         0         0         0         0
         0         0         0         0         0         0         0         0
         0         0         0         0         0         0         0         0
         0         0         0         0         0         0         0         0
         0         0         0         0         0         0         0         0
         0         0         0         0         0         0         0         0
         0         0         0         0         0         0         0         0
         0         0         0         0         0         0         0         0
         0         0         0         0         0         0         0         0
         0         0         0         0         0         0         0         0
         0         0         0         0         0         0         0         0
         0         0         0         0         0         0         0         0
         0         0         0         0         0         0         0         0
         0         0         0         0         0         0         0         0
         0         0         0         0         0         0         0         0
         0         0         0         0         0         0         0         0
         0         0         0         0         0         0         0         0
         0         0         0         0         0         0         0         0
         0         0         0         0         0         0         0         0
         0         0         0         0         0         0         0         0
         0         0         0         0         0         0         0         0
         0         0         0         0         0         0         0         0
         0         0         0         0         0         0         0         0
         0         0         0         0         0         0         0         0
         0         0         0         0         0         0         0         0
         0         0         0         0         0         0         0         0
         0         0         0         0         0         0         0         0
         0         0         0         0         0         0         0         0
         0         0         0         0         0         0         0         0
         0         0         0         0         0         0         0         0
         0         0         0         0         0         0         0         0
         0         0         0         0         0         0         0         0
         0         0         0         0         0         0         0         0
         0         0         0         0         0         0         0         0
         0         0         0         0         0         0         0         0
         0         0         0         0         0         0         0         0
         0         0         0         0         0         0         0         0
         0         0         0         0         0         0         0         0
         0         0         0         0         0         0         0         0
         0         0         0         0         0         0         0         0
         0         0         0         0         0         0         0         0
         0         0         0         0         0         0         0         0
         0         0         0         0         0         0         0         0
         0         0         0         0         0         0         0         0
         0         0         0         0         0         0         0         0
         0         0         0         0         0         0         0         0
         0         0         0         0         0         0         0         0
         0         0         0         0         0         0         0         0
         0         0         0         0         0         0         0         0
         0         0         0         0         0         0         0         0
         0         0         0         0         0         0         0         0
         0         0         0         0         0         0         0         0
         0         0         0         0         0         0         0         0
         0         0         0         0         0         0         0         0
         0         0         0         0         0         0         0         0
         0         0         0         0         0         0         0         0
         0         0         0         0         0         0         0         0
         0         0         0         0         0         0         0         0
         0         0         0         0         0         0         0         0
         0         0         0         0         0         0         0         0
         0         0         0         0         0         0         0         0
         0         0         0         0         0         0         0         0
         0         0         0         0         0         0         0         0
         0         0         0         0         0         0         0         0
         0         0         0         0         0         0         0         0
         0         0         0         0         0         0         0         0
         0         0         0         0         0         0         0         0
         0         0         0         0         0         0         0         0
         0         0         0         0         0         0         0         0
         0         0         0         0         0         0         0         0
         0         0         0         0         0         0         0         0
         0         0         0         0         0         0         0         0
         0         0         0         0         0         0         0         0
         0         0         0         0         0         0         0         0
         0         0         0         0         0         0         0         0
         0         0         0         0         0         0         0         0
         0         0         0         0         0         0         0         0
         0         0         0         0         0         0         0         0
         0         0         0         0         0         0         0         0
         0         0         0         0         0         0         0         0
         0         0         0         0         0         0         0         0
         0         0         0         0         0         0         0         0
         0         0         0         0         0         0         0         0
         0         0         0         0         0         0         0         0
         0         0         0         0         0         0         0         0
         0         0         0         0         0         0         0         0
         0         0         0         0         0         0         0         0
         0         0         0         0         0         0         0         0
         0         0         0         0         0         0         0         0
         0         0         0         0         0         0         0         0
         0         0         0         0         0         0         0         0
         0         0         0         0         0         0         0         0
         0         0         0         0         0         0         0         0
         0         0         0         0         0         0         0         0
         0         0         0         0         0         0         0         0
         0         0         0         0         0         0         0         0
         0         0         0         0         0         0         0         0
         0         0         0         0         0         0         0         0
         0         0         0         0         0         0         0         0
         0         0         0         0         0         0         0         0
         0         0         0         0         0         0         0         0
         0         0         0         0         0         0         0         0
         0         0         0         0         0         0         0         0
         0         0         0         0         0         0         0         0
         0         0         0         0         0         0         0         0
         0         0         0         0         0         0         0         0
         0         0         0         0         0         0         0         0
         0         0         0         0         0         0         0         0
         0         0         0         0         0         0         0         0
         0         0         0         0         0         0         0         0
         0         0         0         0         0         0         0         0
         0         0         0         0         0         0         0         0
         0         0         0         0         0         0         0         0
         0         0         0         0         0         0         0         0
         0         0         0         0         0         0         0         0
         0         0         0         0         0         0         0         0
         0         0         0         0         0         0         0         0
         0         0         0         0         0         0         0         0
         0         0         0         0         0         0         0         0
         0         0         0         0         0         0         0         0
         0         0         0         0         0         0         0         0
         0         0         0         0         0         0         0         0
         0         0         0         0         0         0         0         0
         0         0         0         0         0         0         0         0
         0         0         0         0         0         0         0         0
         0         0         0         0         0         0         0         0
         0         0         0         0         0         0         0         0
         0         0         0         0         0         0         0         0
         0         0         0         0         0         0         0         0
         0         0         0         0         0         0         0         0
         0         0         0         0         0         0         0         0
         0         0         0         0         0         0         0         0
         0         0         0         0         0         0         0         0
         0         0         0         0         0         0         0         0
         0         0         0         0         0         0         0         0
         0         0         0         0         0         0         0         0
         0         0         0         0         0         0         0         0
         0         0         0         0         0         0         0         0
         0         0         0         0         0         0         0         0
         0         0         0         0         0         0         0         0
         0         0         0         0         0         0         0         0
         0         0         0         0         0         0         0         0
         0         0         0         0         0         0         0         0
         0         0         0         0         0         0         0         0
         0         0         0         0         0         0         0         0
         0         0         0         0         0         0         0         0
         0         0         0         0         0         0         0         0
         0         0         0         0         0         0         0         0
         0         0         0         0         0         0         0         0
         0         0         0         0         0         0         0         0
         0         0         0         0         0         0         0         0
         0         0         0         0         0         0         0         0
         0         0         0         0         0         0         0         0
         0         0         0         0         0         0         0         0
         0         0         0         0         0         0         0         0
         0         0         0         0         0         0         0         0
         0         0         0         0         0         0         0         0
         0         0         0         0         0         0         0         0
         0         0         0         0         0         0         0         0
         0         0         0         0         0         0         0         0
         0         0         0         0         0         0         0         0
         0         0         0         0         0         0         0         0
         0         0         0         0         0         0         0         0
         0         0         0         0         0         0         0         0
         0         0         0         0         0         0         0         0
         0         0         0         0         0         0         0         0
         0         0         0         0         0         0         0         0
         0         0         0         0         0         0         0         0
         0         0         0         0         0         0         0         0
         0         0         0         0         0         0         0         0
         0         0         0         0         0         0         0         0
         0         0         0         0         0         0         0         0
         0         0         0         0         0         0         0         0
         0         0         0         0         0         0         0         0
         0         0         0         0         0         0         0         0
         0         0         0         0         0         0         0         0
         0         0         0         0         0         0         0         0
         0         0         0         0         0         0         0         0
         0         0         0         0         0         0         0         0
         0         0         0         0         0         0         0         0
         0         0         0         0         0         0         0         0
         0         0         0         0         0         0         0         0
         0         0         0         0         0         0         0         0
         0         0         0         0         0         0         0         0
         0         0         0         0         0         0         0         0
         0         0         0         0         0         0         0         0
         0         0         0         0         0         0         0         0
         0         0         0         0         0         0         0         0
         0         0         0         0         0         0         0         0
         0         0         0         0         0         0         0         0
         0         0         0         0         0         0         0         0
         0         0         0         0         0         0         0         0
         0         0         0         0         0         0         0         0
         0         0         0         0         0         0         0         0
         0         0         0         0         0         0         0         0
         0         0         0         0         0         0         0         0
         0         0         0         0         0         0         0         0
         0         0         0         0         0         0         0         0
         0         0         0         0         0         0         0         0
         0         0         0         0         0         0         0         0
         0         0         0         0         0         0         0         0
         0         0         0         0         0         0         0         0
         0         0         0         0         0         0         0         0
         0         0         0         0         0         0         0         0
         0         0         0         0         0         0         0         0
         0         0         0         0         0         0         0         0
         0         0         0         0         0         0         0         0
         0         0         0         0         0         0         0         0
         0         0         0         0         0         0         0         0
         0         0         0         0         0         0         0         0
         0         0         0         0         0         0         0         0
         0         0         0         0         0         0         0         0
         0         0         0         0         0         0         0         0
         0         0         0         0         0         0         0         0
         0         0         0         0         0         0         0         0
         0         0         0         0         0         0         0         0
         0         0         0         0         0         0         0         0
         0         0         0         0         0         0         0         0
         0         0         0         0         0         0         0         0
         0         0         0         0         0         0         0         0
         0         0         0         0         0         0         0         0
         0         0         0         0         0         0         0         0
         0         0         0         0         0         0         0         0
         0         0         0         0         0         0         0         0
         0         0         0         0         0         0         0         0
         0         0         0         0         0         0         0         0
         0         0         0         0         0         0         0         0
         0         0         0         0         0         0         0         0
         0         0         0         0         0         0         0         0
         0         0         0         0         0         0         0         0
         0         0         0         0         0         0         0         0
         0         0         0         0         0         0         0         0
         0         0         0         0         0         0         0         0
         0         0         0         0         0         0         0         0
         0         0         0         0         0         0         0         0
         0         0         0         0         0         0         0         0
         0         0         0         0         0         0         0         0
         0         0         0         0         0         0         0         0
         0         0         0         0         0         0         0         0
         0         0         0         0         0         0         0         0
         0         0         0         0         0         0         0         0
         0         0         0         0         0         0         0         0
         0         0         0         0         0         0         0         0
         0         0         0         0         0         0         0         0
         0         0         0         0         0         0         0         0
         0         0         0         0         0         0         0         0
         0         0         0         0         0         0         0         0
         0         0         0         0         0         0         0         0
         0         0         0         0         0         0         0         0
         0         0         0         0         0         0         0         0
         0         0         0         0         0         0         0         0
         0         0         0         0         0         0         0         0
         0         0         0         0         0         0         0         0
         0         0         0         0         0         0         0         0
         0         0         0         0         0         0         0         0
         0         0         0         0         0         0         0         0
         0         0         0         0         0         0         0         0
         0         0         0         0         0         0         0         0
         0         0         0         0         0         0         0         0
         0         0         0         0         0         0         0         0
         0         0         0         0         0         0         0         0
         0         0         0         0         0         0         0         0
         0         0         0         0         0         0         0         0
         0         0         0         0         0         0         0         0
         0         0         0         0         0         0         0         0
         0         0         0         0         0         0         0         0
         0         0         0         0         0         0         0         0
         0         0         0         0         0         0         0         0
         0         0         0         0         0         0         0         0
         0         0         0         0         0         0         0         0
         0         0         0         0         0         0         0         0
         0         0         0         0         0         0         0         0
         0         0         0         0         0         0         0         0
         0         0         0         0         0         0         0         0
         0         0         0         0         0         0         0         0
         0         0         0         0         0         0         0         0
         0         0         0         0         0         0         0         0
         0         0         0         0         0         0         0         0
         0         0         0         0         0         0         0         0
         0         0         0         0         0         0         0         0
         0         0         0         0         0         0         0         0
         0         0         0         0         0         0         0         0
         0         0         0         0         0         0         0         0
         0         0         0         0         0         0         0         0
         0         0         0         0         0         0         0         0
         0         0         0         0         0         0         0         0
         0         0         0         0         0         0         0         0
         0         0         0         0         0         0         0         0
         0         0         0         0         0         0         0         0
         0         0         0         0         0         0         0         0
         0         0         0         0         0         0         0         0
         0         0         0         0         0         0         0         0
         0         0         0         0         0         0         0         0
         0         0         0         0         0         0         0         0
         0         0         0         0         0         0         0         0
         0         0         0         0         0         0         0         0
         0         0         0         0         0         0         0         0
         0         0         0         0         0         0         0         0
         0         0         0         0         0         0         0         0
         0         0         0         0         0         0         0         0
         0         0         0         0         0         0         0         0
         0         0         0         0         0         0         0         0
         0         0         0         0         0         0         0         0
         0         0         0         0         0         0         0         0
         0         0         0         0         0         0         0         0
         0         0         0         0         0         0         0         0
         0         0         0         0         0         0         0         0
         0         0         0         0         0         0         0         0
         0         0         0         0         0         0         0         0
         0         0         0         0         0         0         0         0
         0         0         0         0         0         0         0         0
         0         0         0         0         0         0         0         0
         0         0         0         0         0         0         0         0
         0         0         0         0         0         0         0         0
         0         0         0         0         0         0         0         0
         0         0         0         0         0         0         0         0
         0         0         0         0         0         0         0         0
         0         0         0         0         0         0         0         0
         0         0         0         0         0         0         0         0
         0         0         0         0         0         0         0         0
         0         0         0         0         0         0         0         0
         0         0         0         0         0         0         0         0
         0         0         0         0         0         0         0         0
         0         0         0         0         0         0         0         0
         0         0         0         0         0         0         0         0
         0         0         0         0         0         0         0         0
         0         0         0         0         0         0         0         0
         0         0         0         0         0         0         0         0
         0         0         0         0         0         0         0         0
         0         0         0         0         0         0         0         0
         0         0         0         0         0         0         0         0
         0         0         0         0         0         0         0         0
         0         0         0         0         0         0         0         0
         0         0         0         0         0         0         0         0
         0         0         0         0         0         0         0         0
         0         0         0         0         0         0         0         0
         0         0         0         0         0         0         0         0
         0         0         0         0         0         0         0         0
         0         0         0         0         0         0         0         0
         0         0         0         0         0         0         0         0
         0         0         0         0         0         0         0         0
         0         0         0         0         0         0         0         0
         0         0         0         0         0         0         0         0
         0         0         0         0         0         0         0         0
         0         0         0         0         0         0         0         0
         0         0         0         0         0         0         0         0
         0         0         0         0         0         0         0         0
         0         0         0         0         0         0         0         0
         0         0         0         0         0         0         0         0
         0         0         0         0         0         0         0         0
         0         0         0         0         0         0         0         0
         0         0         0         0         0         0         0         0
         0         0         0         0         0         0         0         0
         0         0         0         0         0         0         0         0
         0         0         0         0         0         0         0         0
         0         0         0         0         0         0         0         0
         0         0         0         0         0         0         0         0
         0         0         0         0         0         0         0         0
         0         0         0         0         0         0         0         0
         0         0         0         0         0         0         0         0
         0         0         0         0         0         0         0         0
         0         0         0         0         0         0         0         0
         0         0         0         0         0         0         0         0
         0         0         0         0         0         0         0         0
         0         0         0         0         0         0         0         0
         0         0         0         0         0         0         0         0
         0         0         0         0         0         0         0         0
         0         0         0         0         0         0         0         0
         0         0         0         0         0         0         0         0
         0         0         0         0         0         0         0         0
         0         0         0         0         0         0         0         0
         0         0         0         0         0         0         0         0
         0         0         0         0         0         0         0         0
         0         0         0         0         0         0         0         0
         0         0         0         0         0         0         0         0
         0         0         0         0         0         0         0         0
         0         0         0         0         0         0         0         0
         0         0         0         0         0         0         0         0
         0         0         0         0         0         0         0         0
         0         0         0         0         0         0         0         0
         0         0         0         0         0         0         0         0
         0         0         0         0         0         0         0         0
         0         0         0         0         0         0         0         0
         0         0         0         0         0         0         0         0
         0         0         0         0         0         0         0         0
         0         0         0         0         0         0         0         0
         0         0         0         0         0         0         0         0
         0         0         0         0         0         0         0         0
         0         0         0         0         0         0         0         0
         0         0         0         0         0         0         0         0
         0         0         0         0         0         0         0         0
         0         0         0         0         0         0         0         0
         0         0         0         0         0         0         0         0
         0         0         0         0         0         0         0         0
         0         0         0         0         0         0         0         0
         0         0         0         0         0         0         0         0
         0         0         0         0         0         0         0         0
         0         0         0         0         0         0         0         0
         0         0         0         0         0         0         0         0
         0         0         0         0         0         0         0         0
         0         0         0         0         0         0         0         0
         0         0         0         0         0         0         0         0
         0         0         0         0         0         0         0         0
         0         0         0         0         0         0         0         0
         0         0         0         0         0         0         0         0
         0         0         0         0         0         0         0         0
         0         0         0         0         0         0         0         0
         0         0         0         0         0         0         0         0
         0         0         0         0         0         0         0         0
         0         0         0         0         0         0         0         0
         0         0         0         0         0         0         0         0
         0         0         0         0         0         0         0         0
         0         0         0         0         0         0         0         0
         0         0         0         0         0         0         0         0
         0         0         0         0         0         0         0         0
         0         0         0         0         0         0         0         0
         0         0         0         0         0         0         0         0
         0         0         0         0         0         0         0         0
         0         0         0         0         0         0         0         0
         0         0         0         0         0         0         0         0
         0         0         0         0         0         0         0         0
         0         0         0         0         0         0         0         0
         0         0         0         0         0         0         0         0
         0         0         0         0         0         0         0         0
         0         0         0         0         0         0         0         0
         0         0         0         0         0         0         0         0
         0         0         0         0         0         0         0         0
         0         0         0         0         0         0         0         0
         0         0         0         0         0         0         0         0
         0         0         0         0         0         0         0         0
         0         0         0         0         0         0         0         0
         0         0         0         0         0         0         0         0
         0         0         0         0         0         0         0         0
         0         0         0         0         0         0         0         0
         0         0         0         0         0         0         0         0
         0         0         0         0         0         0         0         0
         0         0         0         0         0         0         0         0
         0         0         0         0         0         0         0         0
         0         0         0         0         0         0         0         0
         0         0         0         0         0         0         0         0
         0         0         0         0         0         0         0         0
         0         0         0         0         0         0         0         0
         0         0         0         0         0         0         0         0
         0         0         0         0         0         0         0         0
         0         0         0         0         0         0         0         0
         0         0         0         0         0         0         0         0
         0         0         0         0         0         0         0         0
         0         0         0         0         0         0         0         0
         0         0         0         0         0         0         0         0
         0         0         0         0         0         0         0         0
         0         0         0         0         0         0         0         0
         0         0         0         0         0         0         0         0
         0         0         0         0         0         0         0         0
         0         0         0         0         0         0         0         0
         0         0         0         0         0         0         0         0
         0         0         0         0         0         0         0         0
         0         0         0         0         0         0         0         0
         0         0         0         0         0         0         0         0
         0         0         0         0         0         0         0         0
         0         0         0         0         0         0         0         0
         0         0         0         0         0         0         0         0
         0         0         0         0         0         0         0         0
         0         0         0         0         0         0         0         0
         0         0         0         0         0         0         0         0
         0         0         0         0         0         0         0         0
         0         0         0         0         0         0         0         0
         0         0         0         0         0         0         0         0
         0         0         0         0         0         0         0         0
         0         0         0         0         0         0         0         0
         0         0         0         0         0         0         0         0
         0         0         0         0         0         0         0         0
         0         0         0         0         0         0         0         0
         0         0         0         0         0         0         0         0
         0         0         0         0         0         0         0         0
         0         0         0         0         0         0         0         0
         0         0         0         0         0         0         0         0
         0         0         0         0         0         0         0         0
         0         0         0         0         0         0         0         0
         0         0         0         0         0         0         0         0
         0         0         0         0         0         0         0         0
         0         0         0         0         0         0         0         0
         0         0         0         0         0         0         0         0
         0         0         0         0         0         0         0         0
         0         0         0         0         0         0         0         0
         0         0         0         0         0         0         0         0
         0         0         0         0         0         0         0         0
         0         0         0         0         0         0         0         0
         0         0         0         0         0         0         0         0
         0         0         0         0         0         0         0         0
         0         0         0         0         0         0         0         0
         0         0         0         0         0         0         0         0
         0         0         0         0         0         0         0         0
         0         0         0         0         0         0         0         0
         0         0         0         0         0         0         0         0
         0         0         0         0         0         0         0         0
         0         0         0         0         0         0         0         0
         0         0         0         0         0         0         0         0
         0         0         0         0         0         0         0         0
         0         0         0         0         0         0         0         0
         0         0         0         0         0         0         0         0
         0         0         0         0         0         0         0         0
         0         0         0         0         0         0         0         0
         0         0         0         0         0         0         0         0
         0         0         0         0         0         0         0         0
         0         0         0         0         0         0         0         0
         0         0         0         0         0         0         0         0
         0         0         0         0         0         0         0         0
         0         0         0         0         0         0         0         0
         0         0         0         0         0         0         0         0
         0         0         0         0         0         0         0         0
         0         0         0         0         0         0         0         0
         0         0         0         0         0         0         0         0
         0         0         0         0         0         0         0         0
         0         0         0         0         0         0         0         0
         0         0         0         0         0         0         0         0
         0         0         0         0         0         0         0         0
         0         0         0         0         0         0         0         0
         0         0         0         0         0         0         0         0
         0         0         0         0         0         0         0         0
         0         0         0         0         0         0         0         0
         0         0         0         0         0         0         0         0
         0         0         0         0         0         0         0         0
         0         0         0         0         0         0         0         0
         0         0         0         0         0         0         0         0
         0         0         0         0         0         0         0         0
         0         0         0         0         0         0         0         0
         0         0         0         0         0         0         0         0
         0         0         0         0         0         0         0         0
         0         0         0         0         0         0         0         0
         0         0         0         0         0         0         0         0
         0         0         0         0         0         0         0         0
         0         0         0         0         0         0         0         0
         0         0         0         0         0         0         0         0
         0         0         0         0         0         0         0         0
         0         0         0         0         0         0         0         0
         0         0         0         0         0         0         0         0
         0         0         0         0         0         0         0         0
         0         0         0         0         0         0         0         0
         0         0         0         0         0         0         0         0
         0         0         0         0         0         0         0         0
         0         0         0         0         0         0         0         0
         0         0         0         0         0         0         0         0
         0         0         0         0         0         0         0         0
         0         0         0         0         0         0         0         0
         0         0         0         0         0         0         0         0
         0         0         0         0         0         0         0         0
         0         0         0         0         0         0         0         0
         0         0         0         0         0         0         0         0
         0         0         0         0         0         0         0         0
         0         0         0         0         0         0         0         0
         0         0         0         0         0         0         0         0
         0         0         0         0         0         0         0         0
         0         0         0         0         0         0         0         0
         0         0         0         0         0         0         0         0
         0         0         0         0         0         0         0         0
         0         0         0         0         0         0         0         0
         0         0         0         0         0         0         0         0
         0         0         0         0         0         0         0         0
         0         0         0         0         0         0         0         0
         0         0         0         0         0         0         0         0
         0         0         0         0         0         0         0         0
         0         0         0         0         0         0         0         0
         0         0         0         0         0         0         0         0
         0         0         0         0         0         0         0         0
         0         0         0         0         0         0         0         0
         0         0         0         0         0         0         0         0
         0         0         0         0         0         0         0         0
         0         0         0         0         0         0         0         0
         0         0         0         0         0         0         0         0
         0         0         0         0         0         0         0         0
         0         0         0         0         0         0         0         0
         0         0         0         0         0         0         0         0
         0         0         0         0         0         0         0         0
         0         0         0         0         0         0         0         0
         0         0         0         0         0         0         0         0
         0         0         0         0         0         0         0         0
         0         0         0         0         0         0         0         0
         0         0         0         0         0         0         0         0
         0         0         0         0         0         0         0         0
         0         0         0         0         0         0         0         0
         0         0         0         0         0         0         0         0
         0         0         0         0         0         0         0         0
         0         0         0         0         0         0         0         0
         0         0         0         0         0         0         0         0
         0         0         0         0         0         0         0         0
         0         0         0         0         0         0         0         0
         0         0         0         0         0         0         0         0
         0         0         0         0         0         0         0         0
         0         0         0         0         0         0         0         0
         0         0         0         0         0         0         0         0
         0         0         0         0         0         0         0         0
         0         0         0         0         0         0         0         0
         0         0         0         0         0         0         0         0
         0         0         0         0         0         0         0         0
         0         0         0         0         0         0         0         0
         0         0         0         0         0         0         0         0
         0         0         0         0         0         0         0         0
         0         0         0         0         0         0         0         0
         0         0         0         0         0         0         0         0
         0         0         0         0         0         0         0         0
         0         0         0         0         0         0         0         0
         0         0         0         0         0         0         0         0
         0         0         0         0         0         0         0         0
         0         0         0         0         0         0         0         0
         0         0         0         0         0         0         0         0
         0         0         0         0         0         0         0         0
         0         0         0         0         0         0         0         0
         0         0         0         0         0         0         0         0
         0         0         0         0         0         0         0         0
         0         0         0         0         0         0         0         0
         0         0         0         0         0         0         0         0
         0         0         0         0         0         0         0         0
         0         0         0         0         0         0         0         0
         0         0         0         0         0         0         0         0
         0         0         0         0         0         0         0         0
         0         0         0         0         0         0         0         0
         0         0         0         0         0         0         0         0
         0         0         0         0         0         0         0         0
         0         0         0         0         0         0         0         0
         0         0         0         0         0         0         0         0
         0         0         0         0         0         0         0         0
         0         0         0         0         0         0         0         0
         0         0         0         0         0         0         0         0
         0         0         0         0         0         0         0         0
         0         0         0         0         0         0         0         0
         0         0         0         0         0         0         0         0
         0         0         0         0         0         0         0         0
         0         0         0         0         0         0         0         0
         0         0         0         0         0         0         0         0
         0         0         0         0         0         0         0         0
         0         0         0         0         0         0         0         0
         0         0         0         0         0         0         0         0
         0         0         0         0         0         0         0         0
         0         0         0         0         0         0         0         0
         0         0         0         0         0         0         0         0
         0         0         0         0         0         0         0         0
         0         0         0         0         0         0         0         0
         0         0         0         0         0         0         0         0
         0         0         0         0         0         0         0         0
         0         0         0         0         0         0         0         0
         0         0         0         0         0         0         0         0
         0         0         0         0         0         0         0         0
         0         0         0         0         0         0         0         0
         0         0         0         0         0         0         0         0
         0         0         0         0         0         0         0         0
         0         0         0         0         0         0         0         0
         0         0         0         0         0         0         0         0
         0         0         0         0         0         0         0         0
         0         0         0         0         0         0         0         0
         0         0         0         0         0         0         0         0
         0         0         0         0         0         0         0         0
         0         0         0         0         0         0         0         0
         0         0         0         0         0         0         0         0
         0         0         0         0         0         0         0         0
         0         0         0         0         0         0         0         0
         0         0         0         0         0         0         0         0
         0         0         0         0         0         0         0         0
         0         0         0         0         0         0         0         0
         0         0         0         0         0         0         0         0
         0         0         0         0         0         0         0         0
         0         0         0         0         0         0         0         0
         0         0         0         0         0         0         0         0
         0         0         0         0         0         0         0         0
         0         0         0         0         0         0         0         0
         0         0         0         0         0         0         0         0
         0         0         0         0         0         0         0         0
         0         0         0         0         0         0         0         0
         0         0         0         0         0         0         0         0
         0         0         0         0         0         0         0         0
         0         0         0         0         0         0         0         0
         0         0         0         0         0         0         0         0
         0         0         0         0         0         0         0         0
         0         0         0         0         0         0         0         0
         0         0         0         0         0         0         0         0
         0         0         0         0         0         0         0         0
         0         0         0         0         0         0         0         0
         0         0         0         0         0         0         0         0
         0         0         0         0         0         0         0         0
         0         0         0         0         0         0         0         0
         0         0         0         0         0         0         0         0
         0         0         0         0         0         0         0         0
         0         0         0         0         0         0         0         0
         0         0         0         0         0         0         0         0
         0         0         0         0         0         0         0         0
         0         0         0         0         0         0         0         0
         0         0         0         0         0         0         0         0
         0         0         0         0         0         0         0         0
         0         0         0         0         0         0         0         0
         0         0         0         0         0         0         0         0
         0         0         0         0         0         0         0         0
         0         0         0         0         0         0         0         0
         0         0         0         0         0         0         0         0
         0         0         0         0         0         0         0         0
         0         0         0         0         0         0         0         0
         0         0         0         0         0         0         0         0
         0         0         0         0         0         0         0         0
         0         0         0         0         0         0         0         0
         0         0         0         0         0         0         0         0
         0         0         0         0         0         0         0         0
         0         0         0         0         0         0         0         0
         0         0         0         0         0         0         0         0
         0         0         0         0         0         0         0         0
         0         0         0         0         0         0         0         0
         0         0         0         0         0         0         0         0
         0         0         0         0         0         0         0         0
         0         0         0         0         0         0         0         0
         0         0         0         0         0         0         0         0
         0         0         0         0         0         0         0         0
         0         0         0         0         0         0         0         0
         0         0         0         0         0         0         0         0
         0         0         0         0         0         0         0         0
         0         0         0         0         0         0         0         0
         0         0         0         0         0         0         0         0
         0         0         0         0         0         0         0         0
         0         0         0         0         0         0         0         0
         0         0         0         0         0         0         0         0
         0         0         0         0         0         0         0         0
         0         0         0         0         0         0         0         0
         0         0         0         0         0         0         0         0
         0         0         0         0         0         0         0         0
         0         0         0         0         0         0         0         0
         0         0         0         0         0         0         0         0
         0         0         0         0         0         0         0         0
         0         0         0         0         0         0         0         0
         0         0         0         0         0         0         0         0
         0         0         0         0         0         0         0         0
         0         0         0         0         0         0         0         0
         0         0         0         0         0         0         0         0
         0         0         0         0         0         0         0         0
         0         0         0         0         0         0         0         0
         0         0         0         0         0         0         0         0
         0         0         0         0         0         0         0         0
         0         0         0         0         0         0         0         0
         0         0         0         0         0         0         0         0
         0         0         0         0         0         0         0         0
         0         0         0         0         0         0         0         0
         0         0         0         0         0         0         0         0
         0         0         0         0         0         0         0         0
         0         0         0         0         0         0         0         0
         0         0         0         0         0         0         0         0
         0         0         0         0         0         0         0         0
         0         0         0         0         0         0         0         0
         0         0         0         0         0         0         0         0
         0         0         0         0         0         0         0         0
         0         0         0         0         0         0         0         0
         0         0         0         0         0         0         0         0
         0         0         0         0         0         0         0         0
         0         0         0         0         0         0         0         0
         0         0         0         0         0         0         0         0
         0         0         0         0         0         0         0         0
         0         0         0         0         0         0         0         0
         0         0         0         0         0         0         0         0
         0         0         0         0         0         0         0         0
         0         0         0         0         0         0         0         0
         0         0         0         0         0         0         0         0
         0         0         0         0         0         0         0         0
         0         0         0         0         0         0         0         0
         0         0         0         0         0         0         0         0
         0         0         0         0         0         0         0         0
         0         0         0         0         0         0         0         0
         0         0         0         0         0         0         0         0
         0         0         0         0         0         0         0         0
         0         0         0         0         0         0         0         0
         0         0         0         0         0         0         0         0
         0         0         0         0         0         0         0         0
         0         0         0         0         0         0         0         0
         0         0         0         0         0         0         0         0
         0         0         0         0         0         0         0         0
         0         0         0         0         0         0         0         0
         0         0         0         0         0         0         0         0
         0         0         0         0         0         0         0         0
         0         0         0         0         0         0         0         0
         0         0         0         0         0         0         0         0
         0         0         0         0         0         0         0         0
         0         0         0         0         0         0         0         0
         0         0         0         0         0         0         0         0
         0         0         0         0         0         0         0         0
         0         0         0         0         0         0         0         0
         0         0         0         0         0         0         0         0
         0         0         0         0         0         0         0         0
         0         0         0         0         0         0         0         0
         0         0         0         0         0         0         0         0
         0         0         0         0         0         0         0         0
         0         0         0         0         0         0         0         0
         0         0         0         0         0         0         0         0
         0         0         0         0         0         0         0         0
         0         0         0         0         0         0         0         0
         0         0         0         0         0         0         0         0
         0         0         0         0         0         0         0         0
         0         0         0         0         0         0         0         0
         0         0         0         0         0         0         0         0
         0         0         0         0         0         0         0         0
         0         0         0         0         0         0         0         0
         0         0         0         0         0         0         0         0
         0         0         0         0         0         0         0         0
         0         0         0         0         0         0         0         0
         0         0         0         0         0         0         0         0
         0         0         0         0         0         0         0         0
         0         0         0         0         0         0         0         0
         0         0         0         0         0         0         0         0
         0         0         0         0         0         0         0         0
         0         0         0         0         0         0         0         0
         0         0         0         0         0         0         0         0
         0         0         0         0         0         0         0         0
         0         0         0         0         0         0         0         0
         0         0         0         0         0         0         0         0
         0         0         0         0         0         0         0         0
         0         0         0         0         0         0         0         0
         0         0         0         0         0         0         0         0
         0         0         0         0         0         0         0         0
         0         0         0         0         0         0         0         0
         0         0         0         0         0         0         0         0
         0         0         0         0         0         0         0         0
         0         0         0         0         0         0         0         0
         0         0         0         0         0         0         0         0
         0         0         0         0         0         0         0         0
         0         0         0         0         0         0         0         0
         0         0         0         0         0         0         0         0
         0         0         0         0         0         0         0         0
         0         0         0         0         0         0         0         0
         0         0         0         0         0         0         0         0
         0         0         0         0         0         0         0         0
         0         0         0         0         0         0         0         0
         0         0         0
         2         1         3         0         1
         5         4         6         0         1
         8         7         9         0         1
        11        10        12         0         1
        14        13        15         0         1
        17        16        18         0         1
        20        19        21         0         1
        23        22        24         0         1
        26        25        27         0         1
        29        28        30         0         1
        32        31        33         0         1
        35        34        36         0         1
        38        37        39         0         1
        41        40        42         0         1
        44        43        45         0         1
        47        46        48         0         1
        50        49        51         0         1
        53        52        54         0         1
        56        55        57         0         1
        59        58        60         0         1
        62        61        63         0         1
        65        64        66         0         1
        68        67        69         0         1
        71        70        72         0         1
        74        73        75         0         1
        77        76        78         0         1
        80        79        81         0         1
        83        82        84         0         1
        86        85        87         0         1
        89        88        90         0         1
        92        91        93         0         1
        95        94        96         0         1
        98        97        99         0         1
       101       100       102         0         1
       104       103       105         0         1
       107       106       108         0         1
       110       109       111         0         1
       113       112       114         0         1
       116       115       117         0         1
       119       118       120         0         1
       122       121       123         0         1
       125       124       126         0         1
       128       127       129         0         1
       131       130       132         0         1
       134       133       135         0         1
       137       136       138         0         1
       140       139       141         0         1
       143       142       144         0         1
       146       145       147         0         1
       149       148       150         0         1
       152       151       153         0         1
       155       154       156         0         1
       158       157       159         0         1
       161       160       162         0         1
       164       163       165         0         1
       167       166       168         0         1
       170       169       171         0         1
       173       172       174         0         1
       176       175       177         0         1
       179       178       180         0         1
       182       181       183         0         1
       185       184       186         0         1
       188       187       189         0         1
       191       190       192         0         1
       194       193       195         0         1
       197       196       198         0         1
       200       199       201         0         1
       203       202       204         0         1
       206       205       207         0         1
       209       208       210         0         1
       212       211       213         0         1
       215       214       216         0         1
       218       217       219         0         1
       221       220       222         0         1
       224       223       225         0         1
       227       226       228         0         1
       230       229       231         0         1
       233       232       234         0         1
       236       235       237         0         1
       239       238       240         0         1
       242       241       243         0         1
       245       244       246         0         1
       248       247       249         0         1
       251       250       252         0         1
       254       253       255         0         1
       257       256       258         0         1
       260       259       261         0         1
       263       262       264         0         1
       266       265       267         0         1
       269       268       270         0         1
       272       271       273         0         1
       275       274       276         0         1
       278       277       279         0         1
       281       280       282         0         1
       284       283       285         0         1
       287       286       288         0         1
       290       289       291         0         1
       293       292       294         0         1
       296       295       297         0         1
       299       298       300         0         1
       302       301       303         0         1
       305       304       306         0         1
       308       307       309         0         1
       311       310       312         0         1
       314       313       315         0         1
       317       316       318         0         1
       320       319       321         0         1
       323       322       324         0         1
       326       325       327         0         1
       329       328       330         0         1
       332       331       333         0         1
       335       334       336         0         1
       338       337       339         0         1
       341       340       342         0         1
       344       343       345         0         1
       347       346       348         0         1
       350       349       351         0         1
       353       352       354         0         1
       356       355       357         0         1
       359       358       360         0         1
       362       361       363         0         1
       365       364       366         0         1
       368       367       369         0         1
       371       370       372         0         1
       374       373       375         0         1
       377       376       378         0         1
       380       379       381         0         1
       383       382       384         0         1
       386       385       387         0         1
       389       388       390         0         1
       392       391       393         0         1
       395       394       396         0         1
       398       397       399         0         1
       401       400       402         0         1
       404       403       405         0         1
       407       406       408         0         1
       410       409       411         0         1
       413       412       414         0         1
       416       415       417         0         1
       419       418       420         0         1
       422       421       423         0         1
       425       424       426         0         1
       428       427       429         0         1
       431       430       432         0         1
       434       433       435         0         1
       437       436       438         0         1
       440       439       441         0         1
       443       442       444         0         1
       446       445       447         0         1
       449       448       450         0         1
       452       451       453         0         1
       455       454       456         0         1
       458       457       459         0         1
       461       460       462         0         1
       464       463       465         0         1
       467       466       468         0         1
       470       469       471         0         1
       473       472       474         0         1
       476       475       477         0         1
       479       478       480         0         1
       482       481       483         0         1
       485       484       486         0         1
       488       487       489         0         1
       491       490       492         0         1
       494       493       495         0         1
       497       496       498         0         1
       500       499       501         0         1
       503       502       504         0         1
       506       505       507         0         1
       509       508       510         0         1
       512       511       513         0         1
       515       514       516         0         1
       518       517       519         0         1
       521       520       522         0         1
       524       523       525         0         1
       527       526       528         0         1
       530       529       531         0         1
       533       532       534         0         1
       536       535       537         0         1
       539       538       540         0         1
       542       541       543         0         1
       545       544       546         0         1
       548       547       549         0         1
       551       550       552         0         1
       554       553       555         0         1
       557       556       558         0         1
       560       559       561         0         1
       563       562       564         0         1
       566       565       567         0         1
       569       568       570         0         1
       572       571       573         0         1
       575       574       576         0         1
       578       577       579         0         1
       581       580       582         0         1
       584       583       585         0         1
       587       586       588         0         1
       590       589       591         0         1
       593       592       594         0         1
       596       595       597         0         1
       599       598       600         0         1
       602       601       603         0         1
       605       604       606         0         1
       608       607       609         0         1
       611       610       612         0         1
       614       613       615         0         1
       617       616       618         0         1
       620       619       621         0         1
       623       622       624         0         1
       626       625       627         0         1
       629       628       630         0         1
       632       631       633         0         1
       635       634       636         0         1
       638       637       639         0         1
       641       640       642         0         1
       644       643       645         0         1
       647       646       648         0         1
       650       649       651         0         1
       653       652       654         0         1
       656       655       657         0         1
       659       658       660         0         1
       662       661       663         0         1
       665       664       666         0         1
       668       667       669         0         1
       671       670       672         0         1
       674       673       675         0         1
       677       676       678         0         1
       680       679       681         0         1
       683       682       684         0         1
       686       685       687         0         1
       689       688       690         0         1
       692       691       693         0         1
       695       694       696         0         1
       698       697       699         0         1
       701       700       702         0         1
       704       703       705         0         1
       707       706       708         0         1
       710       709       711         0         1
       713       712       714         0         1
       716       715       717         0         1
       719       718       720         0         1
       722       721       723         0         1
       725       724       726         0         1
       728       727       729         0         1
       731       730       732         0         1
       734       733       735         0         1
       737       736       738         0         1
       740       739       741         0         1
       743       742       744         0         1
       746       745       747         0         1
       749       748       750         0         1
       752       751       753         0         1
       755       754       756         0         1
       758       757       759         0         1
       761       760       762         0         1
       764       763       765         0         1
       767       766       768         0         1
       770       769       771         0         1
       773       772       774         0         1
       776       775       777         0         1
       779       778       780         0         1
       782       781       783         0         1
       785       784       786         0         1
       788       787       789         0         1
       791       790       792         0         1
       794       793       795         0         1
       797       796       798         0         1
       800       799       801         0         1
       803       802       804         0         1
       806       805       807         0         1
       809       808       810         0         1
       812       811       813         0         1
       815       814       816         0         1
       818       817       819         0         1
       821       820       822         0         1
       824       823       825         0         1
       827       826       828         0         1
       830       829       831         0         1
       833       832       834         0         1
       836       835       837         0         1
       839       838       840         0         1
       842       841       843         0         1
       845       844       846         0         1
       848       847       849         0         1
       851       850       852         0         1
       854       853       855         0         1
       857       856       858         0         1
       860       859       861         0         1
       863       862       864         0         1
       866       865       867         0         1
       869       868       870         0         1
       872       871       873         0         1
       875       874       876         0         1
       878       877       879         0         1
       881       880       882         0         1
       884       883       885         0         1
       887       886       888         0         1
       890       889       891         0         1
       893       892       894         0         1
       896       895       897         0         1
       899       898       900         0         1
       902       901       903         0         1
       905       904       906         0         1
       908       907       909         0         1
       911       910       912         0         1
       914       913       915         0         1
       917       916       918         0         1
       920       919       921         0         1
       923       922       924         0         1
       926       925       927         0         1
       929       928       930         0         1
       932       931       933         0         1
       935       934       936         0         1
       938       937       939         0         1
       941       940       942         0         1
       944       943       945         0         1
       947       946       948         0         1
       950       949       951         0         1
       953       952       954         0         1
       956       955       957         0         1
       959       958       960         0         1
       962       961       963         0         1
       965       964       966         0         1
       968       967       969         0         1
       971       970       972         0         1
       974       973       975         0         1
       977       976       978         0         1
       980       979       981         0         1
       983       982       984         0         1
       986       985       987         0         1
       989       988       990         0         1
       992       991       993         0         1
       995       994       996         0         1
       998       997       999         0         1
      1001      1000      1002         0         1
      1004      1003      1005         0         1
      1007      1006      1008         0         1
      1010      1009      1011         0         1
      1013      1012      1014         0         1
      1016      1015      1017         0         1
      1019      1018      1020         0         1
      1022      1021      1023         0         1
      1025      1024      1026         0         1
      1028      1027      1029         0         1
      1031      1030      1032         0         1
      1034      1033      1035         0         1
      1037      1036      1038         0         1
      1040      1039      1041         0         1
      1043      1042      1044         0         1
      1046      1045      1047         0         1
      1049      1048      1050         0         1
      1052      1051      1053         0         1
      1055      1054      1056         0         1
      1058      1057      1059         0         1
      1061      1060      1062         0         1
      1064      1063      1065         0         1
      1067      1066      1068         0         1
      1070      1069      1071         0         1
      1073      1072      1074         0         1
      1076      1075      1077         0         1
      1079      1078      1080         0         1
      1082      1081      1083         0         1
      1085      1084      1086         0         1
      1088      1087      1089         0         1
      1091      1090      1092         0         1
      1094      1093      1095         0         1
      1097      1096      1098         0         1
      1100      1099      1101         0         1
      1103      1102      1104         0         1
      1106      1105      1107         0         1
      1109      1108      1110         0         1
      1112      1111      1113         0         1
      1115      1114      1116         0         1
      1118      1117      1119         0         1
      1121      1120      1122         0         1
      1124      1123      1125         0         1
      1127      1126      1128         0         1
      1130      1129      1131         0         1
      1133      1132      1134         0         1
      1136      1135      1137         0         1
      1139      1138      1140         0         1
      1142      1141      1143         0         1
      1145      1144      1146         0         1
      1148      1147      1149         0         1
      1151      1150      1152         0         1
      1154      1153      1155         0         1
      1157      1156      1158         0         1
      1160      1159      1161         0         1
      1163      1162      1164         0         1
      1166      1165      1167         0         1
      1169      1168      1170         0         1
      1172      1171      1173         0         1
      1175      1174      1176         0         1
      1178      1177      1179         0         1
      1181      1180      1182         0         1
      1184      1183      1185         0         1
      1187      1186      1188         0         1
      1190      1189      1191         0         1
      1193      1192      1194         0         1
      1196      1195      1197         0         1
      1199      1198      1200         0         1
      1202      1201      1203         0         1
      1205      1204      1206         0         1
      1208      1207      1209         0         1
      1211      1210      1212         0         1
      1214      1213      1215         0         1
      1217      1216      1218         0         1
      1220      1219      1221         0         1
      1223      1222      1224         0         1
      1226      1225      1227         0         1
      1229      1228      1230         0         1
      1232      1231      1233         0         1
      1235      1234      1236         0         1
      1238      1237      1239         0         1
      1241      1240      1242         0         1
      1244      1243      1245         0         1
      1247      1246      1248         0         1
      1250      1249      1251         0         1
      1253      1252      1254         0         1
      1256      1255      1257         0         1
      1259      1258      1260         0         1
      1262      1261      1263         0         1
      1265      1264      1266         0         1
      1268      1267      1269         0         1
      1271      1270      1272         0         1
      1274      1273      1275         0         1
      1277      1276      1278         0         1
      1280      1279      1281         0         1
      1283      1282      1284         0         1
      1286      1285      1287         0         1
      1289      1288      1290         0         1
      1292      1291      1293         0         1
      1295      1294      1296         0         1
      1298      1297      1299         0         1
      1301      1300      1302         0         1
      1304      1303      1305         0         1
      1307      1306      1308         0         1
      1310      1309      1311         0         1
      1313      1312      1314         0         1
      1316      1315      1317         0         1
      1319      1318      1320         0         1
      1322      1321      1323         0         1
      1325      1324      1326         0         1
      1328      1327      1329         0         1
      1331      1330      1332         0         1
      1334      1333      1335         0         1
      1337      1336      1338         0         1
      1340      1339      1341         0         1
      1343      1342      1344         0         1
      1346      1345      1347         0         1
      1349      1348      1350         0         1
      1352      1351      1353         0         1
      1355      1354      1356         0         1
      1358      1357      1359         0         1
      1361      1360      1362         0         1
      1364      1363      1365         0         1
      1367      1366      1368         0         1
      1370      1369      1371         0         1
      1373      1372      1374         0         1
      1376      1375      1377         0         1
      1379      1378      1380         0         1
      1382      1381      1383         0         1
      1385      1384      1386         0         1
      1388      1387      1389         0         1
      1391      1390      1392         0         1
      1394      1393      1395         0         1
      1397      1396      1398         0         1
      1400      1399      1401         0         1
      1403      1402      1404         0         1
      1406      1405      1407         0         1
      1409      1408      1410         0         1
      1412      1411      1413         0         1
      1415      1414      1416         0         1
      1418      1417      1419         0         1
      1421      1420      1422         0         1
      1424      1423      1425         0         1
      1427      1426      1428         0         1
      1430      1429      1431         0         1
      1433      1432      1434         0         1
      1436      1435      1437         0         1
      1439      1438      1440         0         1
      1442      1441      1443         0         1
      1445      1444      1446         0         1
      1448      1447      1449         0         1
      1451      1450      1452         0         1
      1454      1453      1455         0         1
      1457      1456      1458         0         1
      1460      1459      1461         0         1
      1463      1462      1464         0         1
      1466      1465      1467         0         1
      1469      1468      1470         0         1
      1472      1471      1473         0         1
      1475      1474      1476         0         1
      1478      1477      1479         0         1
      1481      1480      1482         0         1
      1484      1483      1485         0         1
      1487      1486      1488         0         1
      1490      1489      1491         0         1
      1493      1492      1494         0         1
      1496      1495      1497         0         1
      1499      1498      1500         0         1
      1502      1501      1503         0         1
      1505      1504      1506         0         1
      1508      1507      1509         0         1
      1511      1510      1512         0         1
      1514      1513      1515         0         1
      1517      1516      1518         0         1
      1520      1519      1521         0         1
      1523      1522      1524         0         1
      1526      1525      1527         0         1
      1529      1528      1530         0         1
      1532      1531      1533         0         1
      1535      1534      1536         0         1
      1538      1537      1539         0         1
      1541      1540      1542         0         1
      1544      1543      1545         0         1
      1547      1546      1548         0         1
      1550      1549      1551         0         1
      1553      1552      1554         0         1
      1556      1555      1557         0         1
      1559      1558      1560         0         1
      1562      1561      1563         0         1
      1565      1564      1566         0         1
      1568      1567      1569         0         1
      1571      1570      1572         0         1
      1574      1573      1575         0         1
      1577      1576      1578         0         1
      1580      1579      1581         0         1
      1583      1582      1584         0         1
      1586      1585      1587         0         1
      1589      1588      1590         0         1
      1592      1591      1593         0         1
      1595      1594      1596         0         1
      1598      1597      1599         0         1
      1601      1600      1602         0         1
      1604      1603      1605         0         1
      1607      1606      1608         0         1
      1610      1609      1611         0         1
      1613      1612      1614         0         1
      1616      1615      1617         0         1
      1619      1618      1620         0         1
      1622      1621      1623         0         1
      1625      1624      1626         0         1
      1628      1627      1629         0         1
      1631      1630      1632         0         1
      1634      1633      1635         0         1
      1637      1636      1638         0         1
      1640      1639      1641         0         1
      1643      1642      1644         0         1
      1646      1645      1647         0         1
      1649      1648      1650         0         1
      1652      1651      1653         0         1
      1655      1654      1656         0         1
      1658      1657      1659         0         1
      1661      1660      1662         0         1
      1664      1663      1665         0         1
      1667      1666      1668         0         1
      1670      1669      1671         0         1
      1673      1672      1674         0         1
      1676      1675      1677         0         1
      1679      1678      1680         0         1
      1682      1681      1683         0         1
      1685      1684      1686         0         1
      1688      1687      1689         0         1
      1691      1690      1692         0         1
      1694      1693      1695         0         1
      1697      1696      1698         0         1
      1700      1699      1701         0         1
      1703      1702      1704         0         1
      1706      1705      1707         0         1
      1709      1708      1710         0         1
      1712      1711      1713         0         1
      1715      1714      1716         0         1
      1718      1717      1719         0         1
      1721      1720      1722         0         1
      1724      1723      1725         0         1
      1727      1726      1728         0         1
      1730      1729      1731         0         1
      1733      1732      1734         0         1
      1736      1735      1737         0         1
      1739      1738      1740         0         1
      1742      1741      1743         0         1
      1745      1744      1746         0         1
      1748      1747      1749         0         1
      1751      1750      1752         0         1
      1754      1753      1755         0         1
      1757      1756      1758         0         1
      1760      1759      1761         0         1
      1763      1762      1764         0         1
      1766      1765      1767         0         1
      1769      1768      1770         0         1
      1772      1771      1773         0         1
      1775      1774      1776         0         1
      1778      1777      1779         0         1
      1781      1780      1782         0         1
      1784      1783      1785         0         1
      1787      1786      1788         0         1
      1790      1789      1791         0         1
      1793      1792      1794         0         1
      1796      1795      1797         0         1
      1799      1798      1800         0         1
      1802      1801      1803         0         1
      1805      1804      1806         0         1
      1808      1807      1809         0         1
      1811      1810      1812         0         1
      1814      1813      1815         0         1
      1817      1816      1818         0         1
      1820      1819      1821         0         1
      1823      1822      1824         0         1
      1826      1825      1827         0         1
      1829      1828      1830         0         1
      1832      1831      1833         0         1
      1835      1834      1836         0         1
      1838      1837      1839         0         1
      1841      1840      1842         0         1
      1844      1843      1845         0         1
      1847      1846      1848         0         1
      1850      1849      1851         0         1
      1853      1852      1854         0         1
      1856      1855      1857         0         1
      1859      1858      1860         0         1
      1862      1861      1863         0         1
      1865      1864      1866         0         1
      1868      1867      1869         0         1
      1871      1870      1872         0         1
      1874      1873      1875         0         1
      1877      1876      1878         0         1
      1880      1879      1881         0         1
      1883      1882      1884         0         1
      1886      1885      1887         0         1
      1889      1888      1890         0         1
      1892      1891      1893         0         1
      1895      1894      1896         0         1
      1898      1897      1899         0         1
      1901      1900      1902         0         1
      1904      1903      1905         0         1
      1907      1906      1908         0         1
      1910      1909      1911         0         1
      1913      1912      1914         0         1
      1916      1915      1917         0         1
      1919      1918      1920         0         1
      1922      1921      1923         0         1
      1925      1924      1926         0         1
      1928      1927      1929         0         1
      1931      1930      1932         0         1
      1934      1933      1935         0         1
      1937      1936      1938         0         1
      1940      1939      1941         0         1
      1943      1942      1944         0         1
      1946      1945      1947         0         1
      1949      1948      1950         0         1
      1952      1951      1953         0         1
      1955      1954      1956         0         1
      1958      1957      1959         0         1
      1961      1960      1962         0         1
      1964      1963      1965         0         1
      1967      1966      1968         0         1
      1970      1969      1971         0         1
      1973      1972      1974         0         1
      1976      1975      1977         0         1
      1979      1978      1980         0         1
      1982      1981      1983         0         1
      1985      1984      1986         0         1
      1988      1987      1989         0         1
      1991      1990      1992         0         1
      1994      1993      1995         0         1
      1997      1996      1998         0         1
      2000      1999      2001         0         1
      2003      2002      2004         0         1
      2006      2005      2007         0         1
      2009      2008      2010         0         1
      2012      2011      2013         0         1
      2015      2014      2016         0         1
      2018      2017      2019         0         1
      2021      2020      2022         0         1
      2024      2023      2025         0         1
      2027      2026      2028         0         1
      2030      2029      2031         0         1
      2033      2032      2034         0         1
      2036      2035      2037         0         1
      2039      2038      2040         0         1
      2042      2041      2043         0         1
      2045      2044      2046         0         1
      2048      2047      2049         0         1
      2051      2050      2052         0         1
      2054      2053      2055         0         1
      2057      2056      2058         0         1
      2060      2059      2061         0         1
      2063      2062      2064         0         1
      2066      2065      2067         0         1
      2069      2068      2070         0         1
      2072      2071      2073         0         1
      2075      2074      2076         0         1
      2078      2077      2079         0         1
      2081      2080      2082         0         1
      2084      2083      2085         0         1
      2087      2086      2088         0         1
      2090      2089      2091         0         1
      2093      2092      2094         0         1
      2096      2095      2097         0         1
      2099      2098      2100         0         1
      2102      2101      2103         0         1
      2105      2104      2106         0         1
      2108      2107      2109         0         1
      2111      2110      2112         0         1
      2114      2113      2115         0         1
      2117      2116      2118         0         1
      2120      2119      2121         0         1
      2123      2122      2124         0         1
      2126      2125      2127         0         1
      2129      2128      2130         0         1
      2132      2131      2133         0         1
      2135      2134      2136         0         1
      2138      2137      2139         0         1
      2141      2140      2142         0         1
      2144      2143      2145         0         1
      2147      2146      2148         0         1
      2150      2149      2151         0         1
      2153      2152      2154         0         1
      2156      2155      2157         0         1
      2159      2158      2160         0         1
      2162      2161      2163         0         1
      2165      2164      2166         0         1
      2168      2167      2169         0         1
      2171      2170      2172         0         1
      2174      2173      2175         0         1
      2177      2176      2178         0         1
      2180      2179      2181         0         1
      2183      2182      2184         0         1
      2186      2185      2187         0         1
      2189      2188      2190         0         1
      2192      2191      2193         0         1
      2195      2194      2196         0         1
      2198      2197      2199         0         1
      2201      2200      2202         0         1
      2204      2203      2205         0         1
      2207      2206      2208         0         1
      2210      2209      2211         0         1
      2213      2212      2214         0         1
      2216      2215      2217         0         1
      2219      2218      2220         0         1
      2222      2221      2223         0         1
      2225      2224      2226         0         1
      2228      2227      2229         0         1
      2231      2230      2232         0         1
      2234      2233      2235         0         1
      2237      2236      2238         0         1
      2240      2239      2241         0         1
      2243      2242      2244         0         1
      2246      2245      2247         0         1
      2249      2248      2250         0         1
      2252      2251      2253         0         1
      2255      2254      2256         0         1
      2258      2257      2259         0         1
      2261      2260      2262         0         1
      2264      2263      2265         0         1
      2267      2266      2268         0         1
      2270      2269      2271         0         1
      2273      2272      2274         0         1
      2276      2275      2277         0         1
      2279      2278      2280         0         1
      2282      2281      2283         0         1
      2285      2284      2286         0         1
      2288      2287      2289         0         1
      2291      2290      2292         0         1
      2294      2293      2295         0         1
      2297      2296      2298         0         1
      2300      2299      2301         0         1
      2303      2302      2304         0         1
      2306      2305      2307         0         1
      2309      2308      2310         0         1
      2312      2311      2313         0         1
      2315      2314      2316         0         1
      2318      2317      2319         0         1
      2321      2320      2322         0         1
      2324      2323      2325         0         1
      2327      2326      2328         0         1
      2330      2329      2331         0         1
      2333      2332      2334         0         1
      2336      2335      2337         0         1
      2339      2338      2340         0         1
      2342      2341      2343         0         1
      2345      2344      2346         0         1
      2348      2347      2349         0         1
      2351      2350      2352         0         1
      2354      2353      2355         0         1
      2357      2356      2358         0         1
      2360      2359      2361         0         1
      2363      2362      2364         0         1
      2366      2365      2367         0         1
      2369      2368      2370         0         1
      2372      2371      2373         0         1
      2375      2374      2376         0         1
      2378      2377      2379         0         1
      2381      2380      2382         0         1
      2384      2383      2385         0         1
      2387      2386      2388         0         1
      2390      2389      2391         0         1
      2393      2392      2394         0         1
      2396      2395      2397         0         1
      2399      2398      2400         0         1
      2402      2401      2403         0         1
      2405      2404      2406         0         1
      2408      2407      2409         0         1
      2411      2410      2412         0         1
      2414      2413      2415         0         1
      2417      2416      2418         0         1
      2420      2419      2421         0         1
      2423      2422      2424         0         1
      2426      2425      2427         0         1
      2429      2428      2430         0         1
      2432      2431      2433         0         1
      2435      2434      2436         0         1
      2438      2437      2439         0         1
      2441      2440      2442         0         1
      2444      2443      2445         0         1
      2447      2446      2448         0         1
      2450      2449      2451         0         1
      2453      2452      2454         0         1
      2456      2455      2457         0         1
      2459      2458      2460         0         1
      2462      2461      2463         0         1
      2465      2464      2466         0         1
      2468      2467      2469         0         1
      2471      2470      2472         0         1
      2474      2473      2475         0         1
      2477      2476      2478         0         1
      2480      2479      2481         0         1
      2483      2482      2484         0         1
      2486      2485      2487         0         1
      2489      2488      2490         0         1
      2492      2491      2493         0         1
      2495      2494      2496         0         1
      2498      2497      2499         0         1
      2501      2500      2502         0         1
      2504      2503      2505         0         1
      2507      2506      2508         0         1
      2510      2509      2511         0         1
      2513      2512      2514         0         1
      2516      2515      2517         0         1
      2519      2518      2520         0         1
      2522      2521      2523         0         1
      2525      2524      2526         0         1
      2528      2527      2529         0         1
      2531      2530      2532         0         1
      2534      2533      2535         0         1
      2537      2536      2538         0         1
      2540      2539      2541         0         1
      2543      2542      2544         0         1
      2546      2545      2547         0         1
      2549      2548      2550         0         1
      2552      2551      2553         0         1
      2555      2554      2556         0         1
      2558      2557      2559         0         1
      2561      2560      2562         0         1
      2564      2563      2565         0         1
      2567      2566      2568         0         1
      2570      2569      2571         0         1
      2573      2572      2574         0         1
      2576      2575      2577         0         1
      2579      2578      2580         0         1
      2582      2581      2583         0         1
      2585      2584      2586         0         1
      2588      2587      2589         0         1
      2591      2590      2592         0         1
      2594      2593      2595         0         1
      2597      2596      2598         0         1
      2600      2599      2601         0         1
      2603      2602      2604         0         1
      2606      2605      2607         0         1
      2609      2608      2610         0         1
      2612      2611      2613         0         1
      2615      2614      2616         0         1
      2618      2617      2619         0         1
      2621      2620      2622         0         1
      2624      2623      2625         0         1
      2627      2626      2628         0         1
      2630      2629      2631         0         1
      2633      2632      2634         0         1
      2636      2635      2637         0         1
      2639      2638      2640         0         1
      2642      2641      2643         0         1
      2645      2644      2646         0         1
      2648      2647      2649         0         1
      2651      2650      2652         0         1
      2654      2653      2655         0         1
      2657      2656      2658         0         1
      2660      2659      2661         0         1
      2663      2662      2664         0         1
      2666      2665      2667         0         1
      2669      2668      2670         0         1
      2672      2671      2673         0         1
      2675      2674      2676         0         1
      2678      2677      2679         0         1
      2681      2680      2682         0         1
      2684      2683      2685         0         1
      2687      2686      2688         0         1
      2690      2689      2691         0         1
      2693      2692      2694         0         1
      2696      2695      2697         0         1
      2699      2698      2700         0         1
      2702      2701      2703         0         1
      2705      2704      2706         0         1
      2708      2707      2709         0         1
      2711      2710      2712         0         1
      2714      2713      2715         0         1
      2717      2716      2718         0         1
      2720      2719      2721         0         1
      2723      2722      2724         0         1
      2726      2725      2727         0         1
      2729      2728      2730         0         1
      2732      2731      2733         0         1
      2735      2734      2736         0         1
      2738      2737      2739         0         1
      2741      2740      2742         0         1
      2744      2743      2745         0         1
      2747      2746      2748         0         1
      2750      2749      2751         0         1
      2753      2752      2754         0         1
      2756      2755      2757         0         1
      2759      2758      2760         0         1
      2762      2761      2763         0         1
      2765      2764      2766         0         1
      2768      2767      2769         0         1
      2771      2770      2772         0         1
      2774      2773      2775         0         1
      2777      2776      2778         0         1
      2780      2779      2781         0         1
      2783      2782      2784         0         1
      2786      2785      2787         0         1
      2789      2788      2790         0         1
      2792      2791      2793         0         1
      2795      2794      2796         0         1
      2798      2797      2799         0         1
      2801      2800      2802         0         1
      2804      2803      2805         0         1
      2807      2806      2808         0         1
      2810      2809      2811         0         1
      2813      2812      2814         0         1
      2816      2815      2817         0         1
      2819      2818      2820         0         1
      2822      2821      2823         0         1
      2825      2824      2826         0         1
      2828      2827      2829         0         1
      2831      2830      2832         0         1
      2834      2833      2835         0         1
      2837      2836      2838         0         1
      2840      2839      2841         0         1
      2843      2842      2844         0         1
      2846      2845      2847         0         1
      2849      2848      2850         0         1
      2852      2851      2853         0         1
      2855      2854      2856         0         1
      2858      2857      2859         0         1
      2861      2860      2862         0         1
      2864      2863      2865         0         1
      2867      2866      2868         0         1
      2870      2869      2871         0         1
      2873      2872      2874         0         1
      2876      2875      2877         0         1
      2879      2878      2880         0         1
      2882      2881      2883         0         1
      2885      2884      2886         0         1
      2888      2887      2889         0         1
      2891      2890      2892         0         1
      2894      2893      2895         0         1
      2897      2896      2898         0         1
      2900      2899      2901         0         1
      2903      2902      2904         0         1
      2906      2905      2907         0         1
      2909      2908      2910         0         1
      2912      2911      2913         0         1
      2915      2914      2916         0         1
      2918      2917      2919         0         1
      2921      2920      2922         0         1
      2924      2923      2925         0         1
      2927      2926      2928         0         1
      2930      2929      2931         0         1
      2933      2932      2934         0         1
      2936      2935      2937         0         1
      2939      2938      2940         0         1
      2942      2941      2943         0         1
      2945      2944      2946         0         1
      2948      2947      2949         0         1
      2951      2950      2952         0         1
      2954      2953      2955         0         1
      2957      2956      2958         0         1
      2960      2959      2961         0         1
      2963      2962      2964         0         1
      2966      2965      2967         0         1
      2969      2968      2970         0         1
      2972      2971      2973         0         1
      2975      2974      2976         0         1
      2978      2977      2979         0         1
      2981      2980      2982         0         1
      2984      2983      2985         0         1
      2987      2986      2988         0         1
      2990      2989      2991         0         1
      2993      2992      2994         0         1
      2996      2995      2997         0         1
      2999      2998      3000         0         1
      3002      3001      3003         0         1
      3005      3004      3006         0         1
      3008      3007      3009         0         1
      3011      3010      3012         0         1
      3014      3013      3015         0         1
      3017      3016      3018         0         1
      3020      3019      3021         0         1
      3023      3022      3024         0         1
      3026      3025      3027         0         1
      3029      3028      3030         0         1
      3032      3031      3033         0         1
      3035      3034      3036         0         1
      3038      3037      3039         0         1
      3041      3040      3042         0         1
      3044      3043      3045         0         1
      3047      3046      3048         0         1
      3050      3049      3051         0         1
      3053      3052      3054         0         1
      3056      3055      3057         0         1
      3059      3058      3060         0         1
      3062      3061      3063         0         1
      3065      3064      3066         0         1
      3068      3067      3069         0         1
      3071      3070      3072         0         1
      3074      3073      3075         0         1
      3077      3076      3078         0         1
      3080      3079      3081         0         1
      3083      3082      3084         0         1
      3086      3085      3087         0         1
      3089      3088      3090         0         1
      3092      3091      3093         0         1
      3095      3094      3096         0         1
      3098      3097      3099         0         1
      3101      3100      3102         0         1
      3104      3103      3105         0         1
      3107      3106      3108         0         1
      3110      3109      3111         0         1
      3113      3112      3114         0         1
      3116      3115      3117         0         1
      3119      3118      3120         0         1
      3122      3121      3123         0         1
      3125      3124      3126         0         1
      3128      3127      3129         0         1
      3131      3130      3132         0         1
      3134      3133      3135         0         1
      3137      3136      3138         0         1
      3140      3139      3141         0         1
      3143      3142      3144         0         1
      3146      3145      3147         0         1
      3149      3148      3150         0         1
      3152      3151      3153         0         1
      3155      3154      3156         0         1
      3158      3157      3159         0         1
      3161      3160      3162         0         1
      3164      3163      3165         0         1
      3167      3166      3168         0         1
      3170      3169      3171         0         1
      3173      3172      3174         0         1
      3176      3175      3177         0         1
      3179      3178      3180         0         1
      3182      3181      3183         0         1
      3185      3184      3186         0         1
      3188      3187      3189         0         1
      3191      3190      3192         0         1
      3194      3193      3195         0         1
      3197      3196      3198         0         1
      3200      3199      3201         0         1
      3203      3202      3204         0         1
      3206      3205      3207         0         1
      3209      3208      3210         0         1
      3212      3211      3213         0         1
      3215      3214      3216         0         1
      3218      3217      3219         0         1
      3221      3220      3222         0         1
      3224      3223      3225         0         1
      3227      3226      3228         0         1
      3230      3229      3231         0         1
      3233      3232      3234         0         1
      3236      3235      3237         0         1
      3239      3238      3240         0         1
      3242      3241      3243         0         1
      3245      3244      3246         0         1
      3248      3247      3249         0         1
      3251      3250      3252         0         1
      3254      3253      3255         0         1
      3257      3256      3258         0         1
      3260      3259      3261         0         1
      3263      3262      3264         0         1
      3266      3265      3267         0         1
      3269      3268      3270         0         1
      3272      3271      3273         0         1
      3275      3274      3276         0         1
      3278      3277      3279         0         1
      3281      3280      3282         0         1
      3284      3283      3285         0         1
      3287      3286      3288         0         1
      3290      3289      3291         0         1
      3293      3292      3294         0         1
      3296      3295      3297         0         1
      3299      3298      3300         0         1
      3302      3301      3303         0         1
      3305      3304      3306         0         1
      3308      3307      3309         0         1
      3311      3310      3312         0         1
      3314      3313      3315         0         1
      3317      3316      3318         0         1
      3320      3319      3321         0         1
      3323      3322      3324         0         1
      3326      3325      3327         0         1
      3329      3328      3330         0         1
      3332      3331      3333         0         1
      3335      3334      3336         0         1
      3338      3337      3339         0         1
      3341      3340      3342         0         1
      3344      3343      3345         0         1
      3347      3346      3348         0         1
      3350      3349      3351         0         1
      3353      3352      3354         0         1
      3356      3355      3357         0         1
      3359      3358      3360         0         1
      3362      3361      3363         0         1
      3365      3364      3366         0         1
      3368      3367      3369         0         1
      3371      3370      3372         0         1
      3374      3373      3375         0         1
      3377      3376      3378         0         1
      3380      3379      3381         0         1
      3383      3382      3384         0         1
      3386      3385      3387         0         1
      3389      3388      3390         0         1
      3392      3391      3393         0         1
      3395      3394      3396         0         1
      3398      3397      3399         0         1
      3401      3400      3402         0         1
      3404      3403      3405         0         1
      3407      3406      3408         0         1
      3410      3409      3411         0         1
      3413      3412      3414         0         1
      3416      3415      3417         0         1
      3419      3418      3420         0         1
      3422      3421      3423         0         1
      3425      3424      3426         0         1
      3428      3427      3429         0         1
      3431      3430      3432         0         1
      3434      3433      3435         0         1
      3437      3436      3438         0         1
      3440      3439      3441         0         1
      3443      3442      3444         0         1
      3446      3445      3447         0         1
      3449      3448      3450         0         1
      3452      3451      3453         0         1
      3455      3454      3456         0         1
      3458      3457      3459         0         1
      3461      3460      3462         0         1
      3464      3463      3465         0         1
      3467      3466      3468         0         1
      3470      3469      3471         0         1
      3473      3472      3474         0         1
      3476      3475      3477         0         1
      3479      3478      3480         0         1
      3482      3481      3483         0         1
      3485      3484      3486         0         1
      3488      3487      3489         0         1
      3491      3490      3492         0         1
      3494      3493      3495         0         1
      3497      3496      3498         0         1
      3500      3499      3501         0         1
      3503      3502      3504         0         1
      3506      3505      3507         0         1
      3509      3508      3510         0         1
      3512      3511      3513         0         1
      3515      3514      3516         0         1
      3518      3517      3519         0         1
      3521      3520      3522         0         1
      3524      3523      3525         0         1
      3527      3526      3528         0         1
      3530      3529      3531         0         1
      3533      3532      3534         0         1
      3536      3535      3537         0         1
      3539      3538      3540         0         1
      3542      3541      3543         0         1
      3545      3544      3546         0         1
      3548      3547      3549         0         1
      3551      3550      3552         0         1
      3554      3553      3555         0         1
      3557      3556      3558         0         1
      3560      3559      3561         0         1
      3563      3562      3564         0         1
      3566      3565      3567         0         1
      3569      3568      3570         0         1
      3572      3571      3573         0         1
      3575      3574      3576         0         1
      3578      3577      3579         0         1
      3581      3580      3582         0         1
      3584      3583      3585         0         1
      3587      3586      3588         0         1
      3590      3589      3591         0         1
      3593      3592      3594         0         1
      3596      3595      3597         0         1
      3599      3598      3600         0         1
      3602      3601      3603         0         1
      3605      3604      3606         0         1
      3608      3607      3609         0         1
      3611      3610      3612         0         1
      3614      3613      3615         0         1
      3617      3616      3618         0         1
      3620      3619      3621         0         1
      3623      3622      3624         0         1
      3626      3625      3627         0         1
      3629      3628      3630         0         1
      3632      3631      3633         0         1
      3635      3634      3636         0         1
      3638      3637      3639         0         1
      3641      3640      3642         0         1
      3644      3643      3645         0         1
      3647      3646      3648         0         1
      3650      3649      3651         0         1
      3653      3652      3654         0         1
      3656      3655      3657         0         1
      3659      3658      3660         0         1
      3662      3661      3663         0         1
      3665      3664      3666         0         1
      3668      3667      3669         0         1
      3671      3670      3672         0         1
      3674      3673      3675         0         1
      3677      3676      3678         0         1
      3680      3679      3681         0         1
      3683      3682      3684         0         1
      3686      3685      3687         0         1
      3689      3688      3690         0         1
      3692      3691      3693         0         1
      3695      3694      3696         0         1
      3698      3697      3699         0         1
      3701      3700      3702         0         1
      3704      3703      3705         0         1
      3707      3706      3708         0         1
      3710      3709      3711         0         1
      3713      3712      3714         0         1
      3716      3715      3717         0         1
      3719      3718      3720         0         1
      3722      3721      3723         0         1
      3725      3724      3726         0         1
      3728      3727      3729         0         1
      3731      3730      3732         0         1
      3734      3733      3735         0         1
      3737      3736      3738         0         1
      3740      3739      3741         0         1
      3743      3742      3744         0         1
      3746      3745      3747         0         1
      3749      3748      3750         0         1
      3752      3751      3753         0         1
      3755      3754      3756         0         1
      3758      3757      3759         0         1
      3761      3760      3762         0         1
      3764      3763      3765         0         1
      3767      3766      3768         0         1
      3770      3769      3771         0         1
      3773      3772      3774         0         1
      3776      3775      3777         0         1
      3779      3778      3780         0         1
      3782      3781      3783         0         1
      3785      3784      3786         0         1
      3788      3787      3789         0         1
      3791      3790      3792         0         1
      3794      3793      3795         0         1
      3797      3796      3798         0         1
      3800      3799      3801         0         1
      3803      3802      3804         0         1
      3806      3805      3807         0         1
      3809      3808      3810         0         1
      3812      3811      3813         0         1
      3815      3814      3816         0         1
      3818      3817      3819         0         1
      3821      3820      3822         0         1
      3824      3823      3825         0         1
      3827      3826      3828         0         1
      3830      3829      3831         0         1
      3833      3832      3834         0         1
      3836      3835      3837         0         1
      3839      3838      3840         0         1
      3842      3841      3843         0         1
      3845      3844      3846         0         1
      3848      3847      3849         0         1
      3851      3850      3852         0         1
      3854      3853      3855         0         1
      3857      3856      3858         0         1
      3860      3859      3861         0         1
      3863      3862      3864         0         1
      3866      3865      3867         0         1
      3869      3868      3870         0         1
      3872      3871      3873         0         1
      3875      3874      3876         0         1
      3878      3877      3879         0         1
      3881      3880      3882         0         1
      3884      3883      3885         0         1
      3887      3886      3888         0         1
      3890      3889      3891         0         1
      3893      3892      3894         0         1
      3896      3895      3897         0         1
      3899      3898      3900         0         1
      3902      3901      3903         0         1
      3905      3904      3906         0         1
      3908      3907      3909         0         1
      3911      3910      3912         0         1
      3914      3913      3915         0         1
      3917      3916      3918         0         1
      3920      3919      3921         0         1
      3923      3922      3924         0         1
      3926      3925      3927         0         1
      3929      3928      3930         0         1
      3932      3931      3933         0         1
      3935      3934      3936         0         1
      3938      3937      3939         0         1
      3941      3940      3942         0         1
      3944      3943      3945         0         1
      3947      3946      3948         0         1
      3950      3949      3951         0         1
      3953      3952      3954         0         1
      3956      3955      3957         0         1
      3959      3958      3960         0         1
      3962      3961      3963         0         1
      3965      3964      3966         0         1
      3968      3967      3969         0         1
      3971      3970      3972         0         1
      3974      3973      3975         0         1
      3977      3976      3978         0         1
      3980      3979      3981         0         1
      3983      3982      3984         0         1
      3986      3985      3987         0         1
      3989      3988      3990         0         1
      3992      3991      3993         0         1
      3995      3994      3996         0         1
      3998      3997      3999         0         1
      4001      4000      4002         0         1
      4004      4003      4005         0         1
      4007      4006      4008         0         1
      4010      4009      4011         0         1
      4013      4012      4014         0         1
      4016      4015      4017         0         1
      4019      4018      4020         0         1
      4022      4021      4023         0         1
      4025      4024      4026         0         1
      4028      4027      4029         0         1
      4031      4030      4032         0         1
      4034      4033      4035         0         1
      4037      4036      4038         0         1
      4040      4039      4041         0         1
      4043      4042      4044         0         1
      4046      4045      4047         0         1
      4049      4048      4050         0         1
      4052      4051      4053         0         1
      4055      4054      4056         0         1
      4058      4057      4059         0         1
      4061      4060      4062         0         1
      4064      4063      4065         0         1
      4067      4066      4068         0         1
      4070      4069      4071         0         1
      4073      4072      4074         0         1
      4076      4075      4077         0         1
      4079      4078      4080         0         1
      4082      4081      4083         0         1
      4085      4084      4086         0         1
      4088      4087      4089         0         1
      4091      4090      4092         0         1
      4094      4093      4095         0         1
      4097      4096      4098         0         1
      4100      4099      4101         0         1
      4103      4102      4104         0         1
      4106      4105      4107         0         1
      4109      4108      4110         0         1
      4112      4111      4113         0         1
      4115      4114      4116         0         1
      4118      4117      4119         0         1
      4121      4120      4122         0         1
      4124      4123      4125         0         1
      4127      4126      4128         0         1
      4130      4129      4131         0         1
      4133      4132      4134         0         1
      4136      4135      4137         0         1
      4139      4138      4140         0         1
      4142      4141      4143         0         1
      4145      4144      4146         0         1
      4148      4147      4149         0         1
      4151      4150      4152         0         1
      4154      4153      4155         0         1
      4157      4156      4158         0         1
      4160      4159      4161         0         1
      4163      4162      4164         0         1
      4166      4165      4167         0         1
      4169      4168      4170         0         1
      4172      4171      4173         0         1
      4175      4174      4176         0         1
      4178      4177      4179         0         1
      4181      4180      4182         0         1
      4184      4183      4185         0         1
      4187      4186      4188         0         1
      4190      4189      4191         0         1
      4193      4192      4194         0         1
      4196      4195      4197         0         1
      4199      4198      4200         0         1
      4202      4201      4203         0         1
      4205      4204      4206         0         1
      4208      4207      4209         0         1
      4211      4210      4212         0         1
      4214      4213      4215         0         1
      4217      4216      4218         0         1
      4220      4219      4221         0         1
      4223      4222      4224         0         1
      4226      4225      4227         0         1
      4229      4228      4230         0         1
      4232      4231      4233         0         1
      4235      4234      4236         0         1
      4238      4237      4239         0         1
      4241      4240      4242         0         1
      4244      4243      4245         0         1
      4247      4246      4248         0         1
      4250      4249      4251         0         1
      4253      4252      4254         0         1
      4256      4255      4257         0         1
      4259      4258      4260         0         1
      4262      4261      4263         0         1
      4265      4264      4266         0         1
      4268      4267      4269         0         1
      4271      4270      4272         0         1
      4274      4273      4275         0         1
      4277      4276      4278         0         1
      4280      4279      4281         0         1
      4283      4282      4284         0         1
      4286      4285      4287         0         1
      4289      4288      4290         0         1
      4292      4291      4293         0         1
      4295      4294      4296         0         1
      4298      4297      4299         0         1
      4301      4300      4302         0         1
      4304      4303      4305         0         1
      4307      4306      4308         0         1
      4310      4309      4311         0         1
      4313      4312      4314         0         1
      4316      4315      4317         0         1
      4319      4318      4320         0         1
      4322      4321      4323         0         1
      4325      4324      4326         0         1
      4328      4327      4329         0         1
      4331      4330      4332         0         1
      4334      4333      4335         0         1
      4337      4336      4338         0         1
      4340      4339      4341         0         1
      4343      4342      4344         0         1
      4346      4345      4347         0         1
      4349      4348      4350         0         1
      4352      4351      4353         0         1
      4355      4354      4356         0         1
      4358      4357      4359         0         1
      4361      4360      4362         0         1
      4364      4363      4365         0         1
      4367      4366      4368         0         1
      4370      4369      4371         0         1
      4373      4372      4374         0         1
      4376      4375      4377         0         1
      4379      4378      4380         0         1
      4382      4381      4383         0         1
      4385      4384      4386         0         1
      4388      4387      4389         0         1
      4391      4390      4392         0         1
      4394      4393      4395         0         1
      4397      4396      4398         0         1
      4400      4399      4401         0         1
      4403      4402      4404         0         1
      4406      4405      4407         0         1
      4409      4408      4410         0         1
      4412      4411      4413         0         1
      4415      4414      4416         0         1
      4418      4417      4419         0         1
      4421      4420      4422         0         1
      4424      4423      4425         0         1
      4427      4426      4428         0         1
      4430      4429      4431         0         1
      4433      4432      4434         0         1
      4436      4435      4437         0         1
      4439      4438      4440         0         1
      4442      4441      4443         0         1
      4445      4444      4446         0         1
      4448      4447      4449         0         1
      4451      4450      4452         0         1
      4454      4453      4455         0         1
      4457      4456      4458         0         1
      4460      4459      4461         0         1
      4463      4462      4464         0         1
      4466      4465      4467         0         1
      4469      4468      4470         0         1
      4472      4471      4473         0         1
      4475      4474      4476         0         1
      4478      4477      4479         0         1
      4481      4480      4482         0         1
      4484      4483      4485         0         1
      4487      4486      4488         0         1
      4490      4489      4491         0         1
      4493      4492      4494         0         1
      4496      4495      4497         0         1
      4499      4498      4500         0         1
      4502      4501      4503         0         1
      4505      4504      4506         0         1
      4508      4507      4509         0         1
      4511      4510      4512         0         1
      4514      4513      4515         0         1
      4517      4516      4518         0         1
      4520      4519      4521         0         1
      4523      4522      4524         0         1
      4526      4525      4527         0         1
      4529      4528      4530         0         1
      4532      4531      4533         0         1
      4535      4534      4536         0         1
      4538      4537      4539         0         1
      4541      4540      4542         0         1
      4544      4543      4545         0         1
      4547      4546      4548         0         1
      4550      4549      4551         0         1
      4553      4552      4554         0         1
      4556      4555      4557         0         1
      4559      4558      4560         0         1
      4562      4561      4563         0         1
      4565      4564      4566         0         1
      4568      4567      4569         0         1
      4571      4570      4572         0         1
      4574      4573      4575         0         1
      4577      4576      4578         0         1
      4580      4579      4581         0         1
      4583      4582      4584         0         1
      4586      4585      4587         0         1
      4589      4588      4590         0         1
      4592      4591      4593         0         1
      4595      4594      4596         0         1
      4598      4597      4599         0         1
      4601      4600      4602         0         1
      4604      4603      4605         0         1
      4607      4606      4608         0         1
      4610      4609      4611         0         1
      4613      4612      4614         0         1
      4616      4615      4617         0         1
      4619      4618      4620         0         1
      4622      4621      4623         0         1
      4625      4624      4626         0         1
      4628      4627      4629         0         1
      4631      4630      4632         0         1
      4634      4633      4635         0         1
      4637      4636      4638         0         1
      4640      4639      4641         0         1
      4643      4642      4644         0         1
      4646      4645      4647         0         1
      4649      4648      4650         0         1
      4652      4651      4653         0         1
      4655      4654      4656         0         1
      4658      4657      4659         0         1
      4661      4660      4662         0         1
      4664      4663      4665         0         1
      4667      4666      4668         0         1
      4670      4669      4671         0         1
      4673      4672      4674         0         1
      4676      4675      4677         0         1
      4679      4678      4680         0         1
      4682      4681      4683         0         1
      4685      4684      4686         0         1
      4688      4687      4689         0         1
      4691      4690      4692         0         1
      4694      4693      4695         0         1
      4697      4696      4698         0         1
      4700      4699      4701         0         1
      4703      4702      4704         0         1
      4706      4705      4707         0         1
      4709      4708      4710         0         1
      4712      4711      4713         0         1
      4715      4714      4716         0         1
      4718      4717      4719         0         1
      4721      4720      4722         0         1
      4724      4723      4725         0         1
      4727      4726      4728         0         1
      4730      4729      4731         0         1
      4733      4732      4734         0         1
      4736      4735      4737         0         1
      4739      4738      4740         0         1
      4742      4741      4743         0         1
      4745      4744      4746         0         1
      4748      4747      4749         0         1
      4751      4750      4752         0         1
      4754      4753      4755         0         1
      4757      4756      4758         0         1
      4760      4759      4761         0         1
      4763      4762      4764         0         1
      4766      4765      4767         0         1
      4769      4768      4770         0         1
      4772      4771      4773         0         1
      4775      4774      4776         0         1
      4778      4777      4779         0         1
      4781      4780      4782         0         1
      4784      4783      4785         0         1
      4787      4786      4788         0         1
      4790      4789      4791         0         1
      4793      4792      4794         0         1
      4796      4795      4797         0         1
      4799      4798      4800         0         1
      4802      4801      4803         0         1
      4805      4804      4806         0         1
      4808      4807      4809         0         1
      4811      4810      4812         0         1
      4814      4813      4815         0         1
      4817      4816      4818         0         1
      4820      4819      4821         0         1
      4823      4822      4824         0         1
      4826      4825      4827         0         1
      4829      4828      4830         0         1
      4832      4831      4833         0         1
      4835      4834      4836         0         1
      4838      4837      4839         0         1
      4841      4840      4842         0         1
      4844      4843      4845         0         1
      4847      4846      4848         0         1
      4850      4849      4851         0         1
      4853      4852      4854         0         1
      4856      4855      4857         0         1
      4859      4858      4860         0         1
      4862      4861      4863         0         1
      4865      4864      4866         0         1
      4868      4867      4869         0         1
      4871      4870      4872         0         1
      4874      4873      4875         0         1
      4877      4876      4878         0         1
      4880      4879      4881         0         1
      4883      4882      4884         0         1
      4886      4885      4887         0         1
      4889      4888      4890         0         1
      4892      4891      4893         0         1
      4895      4894      4896         0         1
      4898      4897      4899         0         1
      4901      4900      4902         0         1
      4904      4903      4905         0         1
      4907      4906      4908         0         1
      4910      4909      4911         0         1
      4913      4912      4914         0         1
      4916      4915      4917         0         1
      4919      4918      4920         0         1
      4922      4921      4923         0         1
      4925      4924      4926         0         1
      4928      4927      4929         0         1
      4931      4930      4932         0         1
      4934      4933      4935         0         1
      4937      4936      4938         0         1
      4940      4939      4941         0         1
      4943      4942      4944         0         1
      4946      4945      4947         0         1
      4949      4948      4950         0         1
      4952      4951      4953         0         1
      4955      4954      4956         0         1
      4958      4957      4959         0         1
      4961      4960      4962         0         1
      4964      4963      4965         0         1
      4967      4966      4968         0         1
      4970      4969      4971         0         1
      4973      4972      4974         0         1
      4976      4975      4977         0         1
      4979      4978      4980         0         1
      4982      4981      4983         0         1
      4985      4984      4986         0         1
      4988      4987      4989         0         1
      4991      4990      4992         0         1
      4994      4993      4995         0         1
      4997      4996      4998         0         1
      5000      4999      5001         0         1
      5003      5002      5004         0         1
      5006      5005      5007         0         1
      5009      5008      5010         0         1
      5012      5011      5013         0         1
      5015      5014      5016         0         1
      5018      5017      5019         0         1
      5021      5020      5022         0         1
      5024      5023      5025         0         1
      5027      5026      5028         0         1
      5030      5029      5031         0         1
      5033      5032      5034         0         1
      5036      5035      5037         0         1
      5039      5038      5040         0         1
      5042      5041      5043         0         1
      5045      5044      5046         0         1
      5048      5047      5049         0         1
      5051      5050      5052         0         1
      5054      5053      5055         0         1
      5057      5056      5058         0         1
      5060      5059      5061         0         1
      5063      5062      5064         0         1
      5066      5065      5067         0         1
      5069      5068      5070         0         1
      5072      5071      5073         0         1
      5075      5074      5076         0         1
      5078      5077      5079         0         1
      5081      5080      5082         0         1
      5084      5083      5085         0         1
      5087      5086      5088         0         1
      5090      5089      5091         0         1
      5093      5092      5094         0         1
      5096      5095      5097         0         1
      5099      5098      5100         0         1
      5102      5101      5103         0         1
      5105      5104      5106         0         1
      5108      5107      5109         0         1
      5111      5110      5112         0         1
      5114      5113      5115         0         1
      5117      5116      5118         0         1
      5120      5119      5121         0         1
      5123      5122      5124         0         1
      5126      5125      5127         0         1
      5129      5128      5130         0         1
      5132      5131      5133         0         1
      5135      5134      5136         0         1
      5138      5137      5139         0         1
      5141      5140      5142         0         1
      5144      5143      5145         0         1
      5147      5146      5148         0         1
      5150      5149      5151         0         1
      5153      5152      5154         0         1
      5156      5155      5157         0         1
      5159      5158      5160         0         1
      5162      5161      5163         0         1
      5165      5164      5166         0         1
      5168      5167      5169         0         1
      5171      5170      5172         0         1
      5174      5173      5175         0         1
      5177      5176      5178         0         1
      5180      5179      5181         0         1
      5183      5182      5184         0         1
      5186      5185      5187         0         1
      5189      5188      5190         0         1
      5192      5191      5193         0         1
      5195      5194      5196         0         1
      5198      5197      5199         0         1
      5201      5200      5202         0         1
      5204      5203      5205         0         1
      5207      5206      5208         0         1
      5210      5209      5211         0         1
      5213      5212      5214         0         1
      5216      5215      5217         0         1
      5219      5218      5220         0         1
      5222      5221      5223         0         1
      5225      5224      5226         0         1
      5228      5227      5229         0         1
      5231      5230      5232         0         1
      5234      5233      5235         0         1
      5237      5236      5238         0         1
      5240      5239      5241         0         1
      5243      5242      5244         0         1
      5246      5245      5247         0         1
      5249      5248      5250         0         1
      5252      5251      5253         0         1
      5255      5254      5256         0         1
      5258      5257      5259         0         1
      5261      5260      5262         0         1
      5264      5263      5265         0         1
      5267      5266      5268         0         1
      5270      5269      5271         0         1
      5273      5272      5274         0         1
      5276      5275      5277         0         1
      5279      5278      5280         0         1
      5282      5281      5283         0         1
      5285      5284      5286         0         1
      5288      5287      5289         0         1
      5291      5290      5292         0         1
      5294      5293      5295         0         1
      5297      5296      5298         0         1
      5300      5299      5301         0         1
      5303      5302      5304         0         1
      5306      5305      5307         0         1
      5309      5308      5310         0         1
      5312      5311      5313         0         1
      5315      5314      5316         0         1
      5318      5317      5319         0         1
      5321      5320      5322         0         1
      5324      5323      5325         0         1
      5327      5326      5328         0         1
      5330      5329      5331         0         1
      5333      5332      5334         0         1
      5336      5335      5337         0         1
      5339      5338      5340         0         1
      5342      5341      5343         0         1
      5345      5344      5346         0         1
      5348      5347      5349         0         1
      5351      5350      5352         0         1
      5354      5353      5355         0         1
      5357      5356      5358         0         1
      5360      5359      5361         0         1
      5363      5362      5364         0         1
      5366      5365      5367         0         1
      5369      5368      5370         0         1
      5372      5371      5373         0         1
      5375      5374      5376         0         1
      5378      5377      5379         0         1
      5381      5380      5382         0         1
      5384      5383      5385         0         1
      5387      5386      5388         0         1
      5390      5389      5391         0         1
      5393      5392      5394         0         1
      5396      5395      5397         0         1
      5399      5398      5400         0         1
      5402      5401      5403         0         1
      5405      5404      5406         0         1
      5408      5407      5409         0         1
      5411      5410      5412         0         1
      5414      5413      5415         0         1
      5417      5416      5418         0         1
      5420      5419      5421         0         1
      5423      5422      5424         0         1
      5426      5425      5427         0         1
      5429      5428      5430         0         1
      5432      5431      5433         0         1
      5435      5434      5436         0         1
      5438      5437      5439         0         1
      5441      5440      5442         0         1
      5444      5443      5445         0         1
      5447      5446      5448         0         1
      5450      5449      5451         0         1
      5453      5452      5454         0         1
      5456      5455      5457         0         1
      5459      5458      5460         0         1
      5462      5461      5463         0         1
      5465      5464      5466         0         1
      5468      5467      5469         0         1
      5471      5470      5472         0         1
      5474      5473      5475         0         1
      5477      5476      5478         0         1
      5480      5479      5481         0         1
      5483      5482      5484         0         1
      5486      5485      5487         0         1
      5489      5488      5490         0         1
      5492      5491      5493         0         1
      5495      5494      5496         0         1
      5498      5497      5499         0         1
      5501      5500      5502         0         1
      5504      5503      5505         0         1
      5507      5506      5508         0         1
      5510      5509      5511         0         1
      5513      5512      5514         0         1
      5516      5515      5517         0         1
      5519      5518      5520         0         1
      5522      5521      5523         0         1
      5525      5524      5526         0         1
      5528      5527      5529         0         1
      5531      5530      5532         0         1
      5534      5533      5535         0         1
      5537      5536      5538         0         1
      5540      5539      5541         0         1
      5543      5542      5544         0         1
      5546      5545      5547         0         1
      5549      5548      5550         0         1
      5552      5551      5553         0         1
      5555      5554      5556         0         1
      5558      5557      5559         0         1
      5561      5560      5562         0         1
      5564      5563      5565         0         1
      5567      5566      5568         0         1
      5570      5569      5571         0         1
      5573      5572      5574         0         1
      5576      5575      5577         0         1
      5579      5578      5580         0         1
      5582      5581      5583         0         1
      5585      5584      5586         0         1
      5588      5587      5589         0         1
      5591      5590      5592         0         1
      5594      5593      5595         0         1
      5597      5596      5598         0         1
      5600      5599      5601         0         1
      5603      5602      5604         0         1
      5606      5605      5607         0         1
      5609      5608      5610         0         1
      5612      5611      5613         0         1
      5615      5614      5616         0         1
      5618      5617      5619         0         1
      5621      5620      5622         0         1
      5624      5623      5625         0         1
      5627      5626      5628         0         1
      5630      5629      5631         0         1
      5633      5632      5634         0         1
      5636      5635      5637         0         1
      5639      5638      5640         0         1
      5642      5641      5643         0         1
      5645      5644      5646         0         1
      5648      5647      5649         0         1
      5651      5650      5652         0         1
      5654      5653      5655         0         1
      5657      5656      5658         0         1
      5660      5659      5661         0         1
      5663      5662      5664         0         1
      5666      5665      5667         0         1
      5669      5668      5670         0         1
      5672      5671      5673         0         1
      5675      5674      5676         0         1
      5678      5677      5679         0         1
      5681      5680      5682         0         1
      5684      5683      5685         0         1
      5687      5686      5688         0         1
      5690      5689      5691         0         1
      5693      5692      5694         0         1
      5696      5695      5697         0         1
      5699      5698      5700         0         1
      5702      5701      5703         0         1
      5705      5704      5706         0         1
      5708      5707      5709         0         1
      5711      5710      5712         0         1
      5714      5713      5715         0         1
      5717      5716      5718         0         1
      5720      5719      5721         0         1
      5723      5722      5724         0         1
      5726      5725      5727         0         1
      5729      5728      5730         0         1
      5732      5731      5733         0         1
      5735      5734      5736         0         1
      5738      5737      5739         0         1
      5741      5740      5742         0         1
      5744      5743      5745         0         1
      5747      5746      5748         0         1
      5750      5749      5751         0         1
      5753      5752      5754         0         1
      5756      5755      5757         0         1
      5759      5758      5760         0         1
      5762      5761      5763         0         1
      5765      5764      5766         0         1
      5768      5767      5769         0         1
      5771      5770      5772         0         1
      5774      5773      5775         0         1
      5777      5776      5778         0         1
      5780      5779      5781         0         1
      5783      5782      5784         0         1
      5786      5785      5787         0         1
      5789      5788      5790         0         1
      5792      5791      5793         0         1
      5795      5794      5796         0         1
      5798      5797      5799         0         1
      5801      5800      5802         0         1
      5804      5803      5805         0         1
      5807      5806      5808         0         1
      5810      5809      5811         0         1
      5813      5812      5814         0         1
      5816      5815      5817         0         1
      5819      5818      5820         0         1
      5822      5821      5823         0         1
      5825      5824      5826         0         1
      5828      5827      5829         0         1
      5831      5830      5832         0         1
      5834      5833      5835         0         1
      5837      5836      5838         0         1
      5840      5839      5841         0         1
      5843      5842      5844         0         1
      5846      5845      5847         0         1
      5849      5848      5850         0         1
      5852      5851      5853         0         1
      5855      5854      5856         0         1
      5858      5857      5859         0         1
      5861      5860      5862         0         1
      5864      5863      5865         0         1
      5867      5866      5868         0         1
      5870      5869      5871         0         1
      5873      5872      5874         0         1
      5876      5875      5877         0         1
      5879      5878      5880         0         1
      5882      5881      5883         0         1
      5885      5884      5886         0         1
      5888      5887      5889         0         1
      5891      5890      5892         0         1
      5894      5893      5895         0         1
      5897      5896      5898         0         1
      5900      5899      5901         0         1
      5903      5902      5904         0         1
      5906      5905      5907         0         1
      5909      5908      5910         0         1
      5912      5911      5913         0         1
      5915      5914      5916         0         1
      5918      5917      5919         0         1
      5921      5920      5922         0         1
      5924      5923      5925         0         1
      5927      5926      5928         0         1
      5930      5929      5931         0         1
      5933      5932      5934         0         1
      5936      5935      5937         0         1
      5939      5938      5940         0         1
      5942      5941      5943         0         1
      5945      5944      5946         0         1
      5948      5947      5949         0         1
      5951      5950      5952         0         1
      5954      5953      5955         0         1
      5957      5956      5958         0         1
      5960      5959      5961         0         1
      5963      5962      5964         0         1
      5966      5965      5967         0         1
      5969      5968      5970         0         1
      5972      5971      5973         0         1
      5975      5974      5976         0         1
      5978      5977      5979         0         1
      5981      5980      5982         0         1
      5984      5983      5985         0         1
      5987      5986      5988         0         1
      5990      5989      5991         0         1
      5993      5992      5994         0         1
      5996      5995      5997         0         1
      5999      5998      6000         0         1
      6002      6001      6003         0         1
      6005      6004      6006         0         1
      6008      6007      6009         0         1
      6011      6010      6012         0         1
      6014      6013      6015         0         1
      6017      6016      6018         0         1
      6020      6019      6021         0         1
      6023      6022      6024         0         1
      6026      6025      6027         0         1
      6029      6028      6030         0         1
      6032      6031      6033         0         1
      6035      6034      6036         0         1
      6038      6037      6039         0         1
      6041      6040      6042         0         1
      6044      6043      6045         0         1
      6047      6046      6048         0         1
      6050      6049      6051         0         1
      6053      6052      6054         0         1
      6056      6055      6057         0         1
      6059      6058      6060         0         1
      6062      6061      6063         0         1
      6065      6064      6066         0         1
      6068      6067      6069         0         1
      6071      6070      6072         0         1
      6074      6073      6075         0         1
      6077      6076      6078         0         1
      6080      6079      6081         0         1
      6083      6082      6084         0         1
      6086      6085      6087         0         1
      6089      6088      6090         0         1
      6092      6091      6093         0         1
      6095      6094      6096         0         1
      6098      6097      6099         0         1
      6101      6100      6102         0         1
      6104      6103      6105         0         1
      6107      6106      6108         0         1
      6110      6109      6111         0         1
      6113      6112      6114         0         1
      6116      6115      6117         0         1
      6119      6118      6120         0         1
      6122      6121      6123         0         1
      6125      6124      6126         0         1
      6128      6127      6129         0         1
      6131      6130      6132         0         1
      6134      6133      6135         0         1
      6137      6136      6138         0         1
      6140      6139      6141         0         1
      6143      6142      6144         0         1
      6146      6145      6147         0         1
      6149      6148      6150         0         1
      6152      6151      6153         0         1
      6155      6154      6156         0         1
      6158      6157      6159         0         1
      6161      6160      6162         0         1
      6164      6163      6165         0         1
      6167      6166      6168         0         1
      6170      6169      6171         0         1
      6173      6172      6174         0         1
      6176      6175      6177         0         1
      6179      6178      6180         0         1
      6182      6181      6183         0         1
      6185      6184      6186         0         1
      6188      6187      6189         0         1
      6191      6190      6192         0         1
      6194      6193      6195         0         1
      6197      6196      6198         0         1
      6200      6199      6201         0         1
      6203      6202      6204         0         1
      6206      6205      6207         0         1
      6209      6208      6210         0         1
      6212      6211      6213         0         1
      6215      6214      6216         0         1
      6218      6217      6219         0         1
      6221      6220      6222         0         1
      6224      6223      6225         0         1
      6227      6226      6228         0         1
      6230      6229      6231         0         1
      6233      6232      6234         0         1
      6236      6235      6237         0         1
      6239      6238      6240         0         1
      6242      6241      6243         0         1
      6245      6244      6246         0         1
      6248      6247      6249         0         1
      6251      6250      6252         0         1
      6254      6253      6255         0         1
      6257      6256      6258         0         1
      6260      6259      6261         0         1
      6263      6262      6264         0         1
      6266      6265      6267         0         1
      6269      6268      6270         0         1
      6272      6271      6273         0         1
      6275      6274      6276         0         1
      6278      6277      6279         0         1
      6281      6280      6282         0         1
      6284      6283      6285         0         1
      6287      6286      6288         0         1
      6290      6289      6291         0         1
      6293      6292      6294         0         1
      6296      6295      6297         0         1
      6299      6298      6300         0         1
      6302      6301      6303         0         1
      6305      6304      6306         0         1
      6308      6307      6309         0         1
      6311      6310      6312         0         1
      6314      6313      6315         0         1
      6317      6316      6318         0         1
      6320      6319      6321         0         1
      6323      6322      6324         0         1
      6326      6325      6327         0         1
      6329      6328      6330         0         1
      6332      6331      6333         0         1
      6335      6334      6336         0         1
      6338      6337      6339         0         1
      6341      6340      6342         0         1
      6344      6343      6345         0         1
      6347      6346      6348         0         1
      6350      6349      6351         0         1
      6353      6352      6354         0         1
      6356      6355      6357         0         1
      6359      6358      6360         0         1
      6362      6361      6363         0         1
      6365      6364      6366         0         1
      6368      6367      6369         0         1
      6371      6370      6372         0         1
      6374      6373      6375         0         1
      6377      6376      6378         0         1
      6380      6379      6381         0         1
      6383      6382      6384         0         1
      6386      6385      6387         0         1
      6389      6388      6390         0         1
      6392      6391      6393         0         1
      6395      6394      6396         0         1
      6398      6397      6399         0         1
      6401      6400      6402         0         1
      6404      6403      6405         0         1
      6407      6406      6408         0         1
      6410      6409      6411         0         1
      6413      6412      6414         0         1
      6416      6415      6417         0         1
      6419      6418      6420         0         1
      6422      6421      6423         0         1
      6425      6424      6426         0         1
      6428      6427      6429         0         1
      6431      6430      6432         0         1
      6434      6433      6435         0         1
      6437      6436      6438         0         1
      6440      6439      6441         0         1
      6443      6442      6444         0         1
      6446      6445      6447         0         1
      6449      6448      6450         0         1
      6452      6451      6453         0         1
      6455      6454      6456         0         1
      6458      6457      6459         0         1
      6461      6460      6462         0         1
      6464      6463      6465         0         1
      6467      6466      6468         0         1
      6470      6469      6471         0         1
      6473      6472      6474         0         1
      6476      6475      6477         0         1
      6479      6478      6480         0         1
      6482      6481      6483         0         1
      6485      6484      6486         0         1
      6488      6487      6489         0         1
      6491      6490      6492         0         1
      6494      6493      6495         0         1
      6497      6496      6498         0         1
      6500      6499      6501         0         1
      6503      6502      6504         0         1
      6506      6505      6507         0         1
      6509      6508      6510         0         1
      6512      6511      6513         0         1
      6515      6514      6516         0         1
      6518      6517      6519         0         1
      6521      6520      6522         0         1
      6524      6523      6525         0         1
      6527      6526      6528         0         1
      6530      6529      6531         0         1
      6533      6532      6534         0         1
      6536      6535      6537         0         1
      6539      6538      6540         0         1
      6542      6541      6543         0         1
      6545      6544      6546         0         1
      6548      6547      6549         0         1
      6551      6550      6552         0         1
      6554      6553      6555         0         1
      6557      6556      6558         0         1
      6560      6559      6561         0         1
      6563      6562      6564         0         1
      6566      6565      6567         0         1
      6569      6568      6570         0         1
      6572      6571      6573         0         1
      6575      6574      6576         0         1
      6578      6577      6579         0         1
      6581      6580      6582         0         1
      6584      6583      6585         0         1
      6587      6586      6588         0         1
      6590      6589      6591         0         1
      6593      6592      6594         0         1
      6596      6595      6597         0         1
      6599      6598      6600         0         1
      6602      6601      6603         0         1
      6605      6604      6606         0         1
      6608      6607      6609         0         1
      6611      6610      6612         0         1
      6614      6613      6615         0         1
      6617      6616      6618         0         1
      6620      6619      6621         0         1
      6623      6622      6624         0         1
      6626      6625      6627         0         1
      6629      6628      6630         0         1
      6632      6631      6633         0         1
      6635      6634      6636         0         1
      6638      6637      6639         0         1
      6641      6640      6642         0         1
      6644      6643      6645         0         1
      6647      6646      6648         0         1
      6650      6649      6651         0         1
      6653      6652      6654         0         1
      6656      6655      6657         0         1
      6659      6658      6660         0         1
      6662      6661      6663         0         1
      6665      6664      6666         0         1
      6668      6667      6669         0         1
      6671      6670      6672         0         1
      6674      6673      6675         0         1
      6677      6676      6678         0         1
      6680      6679      6681         0         1
      6683      6682      6684         0         1
      6686      6685      6687         0         1
      6689      6688      6690         0         1
      6692      6691      6693         0         1
      6695      6694      6696         0         1
      6698      6697      6699         0         1
      6701      6700      6702         0         1
      6704      6703      6705         0         1
      6707      6706      6708         0         1
      6710      6709      6711         0         1
      6713      6712      6714         0         1
      6716      6715      6717         0         1
      6719      6718      6720         0         1
      6722      6721      6723         0         1
      6725      6724      6726         0         1
      6728      6727      6729         0         1
      6731      6730      6732         0         1
      6734      6733      6735         0         1
      6737      6736      6738         0         1
      6740      6739      6741         0         1
      6743      6742      6744         0         1
      6746      6745      6747         0         1
      6749      6748      6750         0         1
      6752      6751      6753         0         1
      6755      6754      6756         0         1
      6758      6757      6759         0         1
      6761      6760      6762         0         1
      6764      6763      6765         0         1
      6767      6766      6768         0         1
      6770      6769      6771         0         1
      6773      6772      6774         0         1
      6776      6775      6777         0         1
      6779      6778      6780         0         1
      6782      6781      6783         0         1
      6785      6784      6786         0         1
      6788      6787      6789         0         1
      6791      6790      6792         0         1
      6794      6793      6795         0         1
      6797      6796      6798         0         1
      6800      6799      6801         0         1
      6803      6802      6804         0         1
      6806      6805      6807         0         1
      6809      6808      6810         0         1
      6812      6811      6813         0         1
      6815      6814      6816         0         1
      6818      6817      6819         0         1
      6821      6820      6822         0         1
      6824      6823      6825         0         1
      6827      6826      6828         0         1
      6830      6829      6831         0         1
      6833      6832      6834         0         1
      6836      6835      6837         0         1
      6839      6838      6840         0         1
      6842      6841      6843         0         1
      6845      6844      6846         0         1
      6848      6847      6849         0         1
      6851      6850      6852         0         1
      6854      6853      6855         0         1
      6857      6856      6858         0         1
      6860      6859      6861         0         1
      6863      6862      6864         0         1
      6866      6865      6867         0         1
      6869      6868      6870         0         1
      6872      6871      6873         0         1
      6875      6874      6876         0         1
      6878      6877      6879         0         1
      6881      6880      6882         0         1
      6884      6883      6885         0         1
      6887      6886      6888         0         1
      6890      6889      6891         0         1
      6893      6892      6894         0         1
      6896      6895      6897         0         1
      6899      6898      6900         0         1
      6902      6901      6903         0         1
      6905      6904      6906         0         1
      6908      6907      6909         0         1
      6911      6910      6912         0         1
      6914      6913      6915         0         1
      6917      6916      6918         0         1
      6920      6919      6921         0         1
      6923      6922      6924         0         1
      6926      6925      6927         0         1
      6929      6928      6930         0         1
      6932      6931      6933         0         1
      6935      6934      6936         0         1
      6938      6937      6939         0         1
      6941      6940      6942         0         1
      6944      6943      6945         0         1
      6947      6946      6948         0         1
      6950      6949      6951         0         1
      6953      6952      6954         0         1
      6956      6955      6957         0         1
      6959      6958      6960         0         1
      6962      6961      6963         0         1
      6965      6964      6966         0         1
      6968      6967      6969         0         1
      6971      6970      6972         0         1
      6974      6973      6975         0         1
      6977      6976      6978         0         1
      6980      6979      6981         0         1
      6983      6982      6984         0         1
      6986      6985      6987         0         1
      6989      6988      6990         0         1
      6992      6991      6993         0         1
      6995      6994      6996         0         1
      6998      6997      6999         0         1
      7001      7000      7002         0         1
      7004      7003      7005         0         1
      7007      7006      7008         0         1
      7010      7009      7011         0         1
      7013      7012      7014         0         1
      7016      7015      7017         0         1
      7019      7018      7020         0         1
      7022      7021      7023         0         1
      7025      7024      7026         0         1
      7028      7027      7029         0         1
      7031      7030      7032         0         1
      7034      7033      7035         0         1
      7037      7036      7038         0         1
      7040      7039      7041         0         1
      7043      7042      7044         0         1
      7046      7045      7047         0         1
      7049      7048      7050         0         1
      7052      7051      7053         0         1
      7055      7054      7056         0         1
      7058      7057      7059         0         1
      7061      7060      7062         0         1
      7064      7063      7065         0         1
      7067      7066      7068         0         1
      7070      7069      7071         0         1
      7073      7072      7074         0         1
      7076      7075      7077         0         1
      7079      7078      7080         0         1
      7082      7081      7083         0         1
      7085      7084      7086         0         1
      7088      7087      7089         0         1
      7091      7090      7092         0         1
      7094      7093      7095         0         1
      7097      7096      7098         0         1
      7100      7099      7101         0         1
      7103      7102      7104         0         1
      7106      7105      7107         0         1
      7109      7108      7110         0         1
      7112      7111      7113         0         1
      7115      7114      7116         0         1
      7118      7117      7119         0         1
      7121      7120      7122         0         1
      7124      7123      7125         0         1
      7127      7126      7128         0         1
      7130      7129      7131         0         1
      7133      7132      7134         0         1
      7136      7135      7137         0         1
      7139      7138      7140         0         1
      7142      7141      7143         0         1
      7145      7144      7146         0         1
      7148      7147      7149         0         1
      7151      7150      7152         0         1
      7154      7153      7155         0         1
      7157      7156      7158         0         1
      7160      7159      7161         0         1
      7163      7162      7164         0         1
      7166      7165      7167         0         1
      7169      7168      7170         0         1
      7172      7171      7173         0         1
      7175      7174      7176         0         1
      7178      7177      7179         0         1
      7181      7180      7182         0         1
      7184      7183      7185         0         1
      7187      7186      7188         0         1
      7190      7189      7191         0         1
      7193      7192      7194         0         1
      7196      7195      7197         0         1
      7199      7198      7200         0         1
      7202      7201      7203         0         1
      7205      7204      7206         0         1
      7208      7207      7209         0         1
      7211      7210      7212         0         1
      7214      7213      7215         0         1
      7217      7216      7218         0         1
      7220      7219      7221         0         1
      7223      7222      7224         0         1
      7226      7225      7227         0         1
      7229      7228      7230         0         1
      7232      7231      7233         0         1
      7235      7234      7236         0         1
      7238      7237      7239         0         1
      7241      7240      7242         0         1
      7244      7243      7245         0         1
      7247      7246      7248         0         1
      7250      7249      7251         0         1
      7253      7252      7254         0         1
      7256      7255      7257         0         1
      7259      7258      7260         0         1
      7262      7261      7263         0         1
      7265      7264      7266         0         1
      7268      7267      7269         0         1
      7271      7270      7272         0         1
      7274      7273      7275         0         1
      7277      7276      7278         0         1
      7280      7279      7281         0         1
      7283      7282      7284         0         1
      7286      7285      7287         0         1
      7289      7288      7290         0         1
      7292      7291      7293         0         1
      7295      7294      7296         0         1
      7298      7297      7299         0         1
      7301      7300      7302         0         1
      7304      7303      7305         0         1
      7307      7306      7308         0         1
      7310      7309      7311         0         1
      7313      7312      7314         0         1
      7316      7315      7317         0         1
      7319      7318      7320         0         1
      7322      7321      7323         0         1
      7325      7324      7326         0         1
      7328      7327      7329         0         1
      7331      7330      7332         0         1
      7334      7333      7335         0         1
      7337      7336      7338         0         1
      7340      7339      7341         0         1
      7343      7342      7344         0         1
      7346      7345      7347         0         1
      7349      7348      7350         0         1
      7352      7351      7353         0         1
      7355      7354      7356         0         1
      7358      7357      7359         0         1
      7361      7360      7362         0         1
      7364      7363      7365         0         1
      7367      7366      7368         0         1
      7370      7369      7371         0         1
      7373      7372      7374         0         1
      7376      7375      7377         0         1
      7379      7378      7380         0         1
      7382      7381      7383         0         1
      7385      7384      7386         0         1
      7388      7387      7389         0         1
      7391      7390      7392         0         1
      7394      7393      7395         0         1
      7397      7396      7398         0         1
      7400      7399      7401         0         1
      7403      7402      7404         0         1
      7406      7405      7407         0         1
      7409      7408      7410         0         1
      7412      7411      7413         0         1
      7415      7414      7416         0         1
      7418      7417      7419         0         1
      7421      7420      7422         0         1
      7424      7423      7425         0         1
      7427      7426      7428         0         1
      7430      7429      7431         0         1
      7433      7432      7434         0         1
      7436      7435      7437         0         1
      7439      7438      7440         0         1
      7442      7441      7443         0         1
      7445      7444      7446         0         1
      7448      7447      7449         0         1
      7451      7450      7452         0         1
      7454      7453      7455         0         1
      7457      7456      7458         0         1
      7460      7459      7461         0         1
      7463      7462      7464         0         1
      7466      7465      7467         0         1
      7469      7468      7470         0         1
      7472      7471      7473         0         1
      7475      7474      7476         0         1
      7478      7477      7479         0         1
      7481      7480      7482         0         1
      7484      7483      7485         0         1
      7487      7486      7488         0         1
      7490      7489      7491         0         1
      7493      7492      7494         0         1
      7496      7495      7497         0         1
      7499      7498      7500         0         1
      7502      7501      7503         0         1
      7505      7504      7506         0         1
      7508      7507      7509         0         1
      7511      7510      7512         0         1
      7514      7513      7515         0         1
      7517      7516      7518         0         1
      7520      7519      7521         0         1
      7523      7522      7524         0         1
      7526      7525      7527         0         1
      7529      7528      7530         0         1
      7532      7531      7533         0         1
      7535      7534      7536         0         1
      7538      7537      7539         0         1
      7541      7540      7542         0         1
      7544      7543      7545         0         1
      7547      7546      7548         0         1
      7550      7549      7551         0         1
      7553      7552      7554         0         1
      7556      7555      7557         0         1
      7559      7558      7560         0         1
      7562      7561      7563         0         1
      7565      7564      7566         0         1
      7568      7567      7569         0         1
      7571      7570      7572         0         1
      7574      7573      7575         0         1
      7577      7576      7578         0         1
      7580      7579      7581         0         1
      7583      7582      7584         0         1
      7586      7585      7587         0         1
      7589      7588      7590         0         1
      7592      7591      7593         0         1
      7595      7594      7596         0         1
      7598      7597      7599         0         1
      7601      7600      7602         0         1
      7604      7603      7605         0         1
      7607      7606      7608         0         1
      7610      7609      7611         0         1
      7613      7612      7614         0         1
      7616      7615      7617         0         1
      7619      7618      7620         0         1
      7622      7621      7623         0         1
      7625      7624      7626         0         1
      7628      7627      7629         0         1
      7631      7630      7632         0         1
      7634      7633      7635         0         1
      7637      7636      7638         0         1
      7640      7639      7641         0         1
      7643      7642      7644         0         1
      7646      7645      7647         0         1
      7649      7648      7650         0         1
      7652      7651      7653         0         1
      7655      7654      7656         0         1
      7658      7657      7659         0         1
      7661      7660      7662         0         1
      7664      7663      7665         0         1
      7667      7666      7668         0         1
      7670      7669      7671         0         1
      7673      7672      7674         0         1
      7676      7675      7677         0         1
      7679      7678      7680         0         1
      7682      7681      7683         0         1
      7685      7684      7686         0         1
      7688      7687      7689         0         1
      7691      7690      7692         0         1
      7694      7693      7695         0         1
      7697      7696      7698         0         1
      7700      7699      7701         0         1
      7703      7702      7704         0         1
      7706      7705      7707         0         1
      7709      7708      7710         0         1
      7712      7711      7713         0         1
      7715      7714      7716         0         1
      7718      7717      7719         0         1
      7721      7720      7722         0         1
      7724      7723      7725         0         1
      7727      7726      7728         0         1
      7730      7729      7731         0         1
      7733      7732      7734         0         1
      7736      7735      7737         0         1
      7739      7738      7740         0         1
      7742      7741      7743         0         1
      7745      7744      7746         0         1
      7748      7747      7749         0         1
      7751      7750      7752         0         1
      7754      7753      7755         0         1
      7757      7756      7758         0         1
      7760      7759      7761         0         1
      7763      7762      7764         0         1
      7766      7765      7767         0         1
      7769      7768      7770         0         1
      7772      7771      7773         0         1
      7775      7774      7776         0         1
      7778      7777      7779         0         1
      7781      7780      7782         0         1
      7784      7783      7785         0         1
      7787      7786      7788         0         1
      7790      7789      7791         0         1
      7793      7792      7794         0         1
      7796      7795      7797         0         1
      7799      7798      7800         0         1
      7802      7801      7803         0         1
      7805      7804      7806         0         1
      7808      7807      7809         0         1
      7811      7810      7812         0         1
      7814      7813      7815         0         1
      7817      7816      7818         0         1
      7820      7819      7821         0         1
      7823      7822      7824         0         1
      7826      7825      7827         0         1
      7829      7828      7830         0         1
      7832      7831      7833         0         1
      7835      7834      7836         0         1
      7838      7837      7839         0         1
      7841      7840      7842         0         1
      7844      7843      7845         0         1
      7847      7846      7848         0         1
      7850      7849      7851         0         1
      7853      7852      7854         0         1
      7856      7855      7857         0         1
      7859      7858      7860         0         1
      7862      7861      7863         0         1
      7865      7864      7866         0         1
      7868      7867      7869         0         1
      7871      7870      7872         0         1
      7874      7873      7875         0         1
      7877      7876      7878         0         1
      7880      7879      7881         0         1
      7883      7882      7884         0         1
      7886      7885      7887         0         1
      7889      7888      7890         0         1
      7892      7891      7893         0         1
      7895      7894      7896         0         1
      7898      7897      7899         0         1
      7901      7900      7902         0         1
      7904      7903      7905         0         1
      7907      7906      7908         0         1
      7910      7909      7911         0         1
      7913      7912      7914         0         1
      7916      7915      7917         0         1
      7919      7918      7920         0         1
      7922      7921      7923         0         1
      7925      7924      7926         0         1
      7928      7927      7929         0         1
      7931      7930      7932         0         1
      7934      7933      7935         0         1
      7937      7936      7938         0         1
      7940      7939      7941         0         1
      7943      7942      7944         0         1
      7946      7945      7947         0         1
      7949      7948      7950         0         1
      7952      7951      7953         0         1
      7955      7954      7956         0         1
      7958      7957      7959         0         1
      7961      7960      7962         0         1
      7964      7963      7965         0         1
      7967      7966      7968         0         1
      7970      7969      7971         0         1
      7973      7972      7974         0         1
      7976      7975      7977         0         1
      7979      7978      7980         0         1
      7982      7981      7983         0         1
      7985      7984      7986         0         1
      7988      7987      7989         0         1
      7991      7990      7992         0         1
      7994      7993      7995         0         1
      7997      7996      7998         0         1
      8000      7999      8001         0         1
      8003      8002      8004         0         1
      8006      8005      8007         0         1
      8009      8008      8010         0         1
      8012      8011      8013         0         1
      8015      8014      8016         0         1
      8018      8017      8019         0         1
      8021      8020      8022         0         1
      8024      8023      8025         0         1
      8027      8026      8028         0         1
      8030      8029      8031         0         1
      8033      8032      8034         0         1
      8036      8035      8037         0         1
      8039      8038      8040         0         1
      8042      8041      8043         0         1
      8045      8044      8046         0         1
      8048      8047      8049         0         1
      8051      8050      8052         0         1
      8054      8053      8055         0         1
      8057      8056      8058         0         1
      8060      8059      8061         0         1
      8063      8062      8064         0         1
      8066      8065      8067         0         1
      8069      8068      8070         0         1
      8072      8071      8073         0         1
      8075      8074      8076         0         1
      8078      8077      8079         0         1
      8081      8080      8082         0         1
      8084      8083      8085         0         1
      8087      8086      8088         0         1
      8090      8089      8091         0         1
      8093      8092      8094         0         1
      8096      8095      8097         0         1
      8099      8098      8100         0         1
      8102      8101      8103         0         1
      8105      8104      8106         0         1
      8108      8107      8109         0         1
      8111      8110      8112         0         1
      8114      8113      8115         0         1
      8117      8116      8118         0         1
      8120      8119      8121         0         1
      8123      8122      8124         0         1
      8126      8125      8127         0         1
      8129      8128      8130         0         1
      8132      8131      8133         0         1
      8135      8134      8136         0         1
      8138      8137      8139         0         1
      8141      8140      8142         0         1
      8144      8143      8145         0         1
      8147      8146      8148         0         1
      8150      8149      8151         0         1
      8153      8152      8154         0         1
      8156      8155      8157         0         1
      8159      8158      8160         0         1
      8162      8161      8163         0         1
      8165      8164      8166         0         1
      8168      8167      8169         0         1
      8171      8170      8172         0         1
      8174      8173      8175         0         1
      8177      8176      8178         0         1
      8180      8179      8181         0         1
      8183      8182      8184         0         1
      8186      8185      8187         0         1
      8189      8188      8190         0         1
      8192      8191      8193         0         1
      8195      8194      8196         0         1
      8198      8197      8199         0         1
      8201      8200      8202         0         1
      8204      8203      8205         0         1
      8207      8206      8208         0         1
      8210      8209      8211         0         1
      8213      8212      8214         0         1
      8216      8215      8217         0         1
      8219      8218      8220         0         1
      8222      8221      8223         0         1
      8225      8224      8226         0         1
      8228      8227      8229         0         1
      8231      8230      8232         0         1
      8234      8233      8235         0         1
      8237      8236      8238         0         1
      8240      8239      8241         0         1
      8243      8242      8244         0         1
      8246      8245      8247         0         1
      8249      8248      8250         0         1
      8252      8251      8253         0         1
      8255      8254      8256         0         1
      8258      8257      8259         0         1
      8261      8260      8262         0         1
      8264      8263      8265         0         1
      8267      8266      8268         0         1
      8270      8269      8271         0         1
      8273      8272      8274         0         1
      8276      8275      8277         0         1
      8279      8278      8280         0         1
      8282      8281      8283         0         1
      8285      8284      8286         0         1
      8288      8287      8289         0         1
      8291      8290      8292         0         1
      8294      8293      8295         0         1
      8297      8296      8298         0         1
      8300      8299      8301         0         1
      8303      8302      8304         0         1
      8306      8305      8307         0         1
      8309      8308      8310         0         1
      8312      8311      8313         0         1
      8315      8314      8316         0         1
      8318      8317      8319         0         1
      8321      8320      8322         0         1
      8324      8323      8325         0         1
      8327      8326      8328         0         1
      8330      8329      8331         0         1
      8333      8332      8334         0         1
      8336      8335      8337         0         1
      8339      8338      8340         0         1
      8342      8341      8343         0         1
      8345      8344      8346         0         1
      8348      8347      8349         0         1
      8351      8350      8352         0         1
      8354      8353      8355         0         1
      8357      8356      8358         0         1
      8360      8359      8361         0         1
      8363      8362      8364         0         1
      8366      8365      8367         0         1
      8369      8368      8370         0         1
      8372      8371      8373         0         1
      8375      8374      8376         0         1
      8378      8377      8379         0         1
      8381      8380      8382         0         1
      8384      8383      8385         0         1
      8387      8386      8388         0         1
      8390      8389      8391         0         1
      8393      8392      8394         0         1
      8396      8395      8397         0         1
      8399      8398      8400         0         1
      8402      8401      8403         0         1
      8405      8404      8406         0         1
      8408      8407      8409         0         1
      8411      8410      8412         0         1
      8414      8413      8415         0         1
      8417      8416      8418         0         1
      8420      8419      8421         0         1
      8423      8422      8424         0         1
      8426      8425      8427         0         1
      8429      8428      8430         0         1
      8432      8431      8433         0         1
      8435      8434      8436         0         1
      8438      8437      8439         0         1
      8441      8440      8442         0         1
      8444      8443      8445         0         1
      8447      8446      8448         0         1
      8450      8449      8451         0         1
      8453      8452      8454         0         1
      8456      8455      8457         0         1
      8459      8458      8460         0         1
      8462      8461      8463         0         1
      8465      8464      8466         0         1
      8468      8467      8469         0         1
      8471      8470      8472         0         1
      8474      8473      8475         0         1
      8477      8476      8478         0         1
      8480      8479      8481         0         1
      8483      8482      8484         0         1
      8486      8485      8487         0         1
      8489      8488      8490         0         1
      8492      8491      8493         0         1
      8495      8494      8496         0         1
      8498      8497      8499         0         1
      8501      8500      8502         0         1
      8504      8503      8505         0         1
      8507      8506      8508         0         1
      8510      8509      8511         0         1
      8513      8512      8514         0         1
      8516      8515      8517         0         1
      8519      8518      8520         0         1
      8522      8521      8523         0         1
      8525      8524      8526         0         1
      8528      8527      8529         0         1
      8531      8530      8532         0         1
      8534      8533      8535         0         1
      8537      8536      8538         0         1
      8540      8539      8541         0         1
      8543      8542      8544         0         1
      8546      8545      8547         0         1
      8549      8548      8550         0         1
      8552      8551      8553         0         1
      8555      8554      8556         0         1
      8558      8557      8559         0         1
      8561      8560      8562         0         1
      8564      8563      8565         0         1
      8567      8566      8568         0         1
      8570      8569      8571         0         1
      8573      8572      8574         0         1
      8576      8575      8577         0         1
      8579      8578      8580         0         1
      8582      8581      8583         0         1
      8585      8584      8586         0         1
      8588      8587      8589         0         1
      8591      8590      8592         0         1
      8594      8593      8595         0         1
      8597      8596      8598         0         1
      8600      8599      8601         0         1
      8603      8602      8604         0         1
      8606      8605      8607         0         1
      8609      8608      8610         0         1
      8612      8611      8613         0         1
      8615      8614      8616         0         1
      8618      8617      8619         0         1
      8621      8620      8622         0         1
      8624      8623      8625         0         1
      8627      8626      8628         0         1
      8630      8629      8631         0         1
      8633      8632      8634         0         1
      8636      8635      8637         0         1
      8639      8638      8640         0         1
      8642      8641      8643         0         1
      8645      8644      8646         0         1
      8648      8647      8649         0         1
      8651      8650      8652         0         1
      8654      8653      8655         0         1
      8657      8656      8658         0         1
      8660      8659      8661         0         1
      8663      8662      8664         0         1
      8666      8665      8667         0         1
      8669      8668      8670         0         1
      8672      8671      8673         0         1
      8675      8674      8676         0         1
      8678      8677      8679         0         1
      8681      8680      8682         0         1
      8684      8683      8685         0         1
      8687      8686      8688         0         1
      8690      8689      8691         0         1
      8693      8692      8694         0         1
      8696      8695      8697         0         1
      8699      8698      8700         0         1
      8702      8701      8703         0         1
      8705      8704      8706         0         1
      8708      8707      8709         0         1
      8711      8710      8712         0         1
      8714      8713      8715         0         1
      8717      8716      8718         0         1
      8720      8719      8721         0         1
      8723      8722      8724         0         1
      8726      8725      8727         0         1
      8729      8728      8730         0         1
      8732      8731      8733         0         1
      8735      8734      8736         0         1
      8738      8737      8739         0         1
      8741      8740      8742         0         1
      8744      8743      8745         0         1
      8747      8746      8748         0         1
      8750      8749      8751         0         1
      8753      8752      8754         0         1
      8756      8755      8757         0         1
      8759      8758      8760         0         1
      8762      8761      8763         0         1
      8765      8764      8766         0         1
      8768      8767      8769         0         1
      8771      8770      8772         0         1
      8774      8773      8775         0         1
      8777      8776      8778         0         1
      8780      8779      8781         0         1
      8783      8782      8784         0         1
      8786      8785      8787         0         1
      8789      8788      8790         0         1
      8792      8791      8793         0         1
      8795      8794      8796         0         1
      8798      8797      8799         0         1
      8801      8800      8802         0         1
      8804      8803      8805         0         1
      8807      8806      8808         0         1
      8810      8809      8811         0         1
      8813      8812      8814         0         1
      8816      8815      8817         0         1
      8819      8818      8820         0         1
      8822      8821      8823         0         1
      8825      8824      8826         0         1
      8828      8827      8829         0         1
      8831      8830      8832         0         1
      8834      8833      8835         0         1
      8837      8836      8838         0         1
      8840      8839      8841         0         1
      8843      8842      8844         0         1
      8846      8845      8847         0         1
      8849      8848      8850         0         1
      8852      8851      8853         0         1
      8855      8854      8856         0         1
      8858      8857      8859         0         1
      8861      8860      8862         0         1
      8864      8863      8865         0         1
      8867      8866      8868         0         1
      8870      8869      8871         0         1
      8873      8872      8874         0         1
      8876      8875      8877         0         1
      8879      8878      8880         0         1
      8882      8881      8883         0         1
      8885      8884      8886         0         1
      8888      8887      8889         0         1
      8891      8890      8892         0         1
      8894      8893      8895         0         1
      8897      8896      8898         0         1
      8900      8899      8901         0         1
      8903      8902      8904         0         1
      8906      8905      8907         0         1
      8909      8908      8910         0         1
      8912      8911      8913         0         1
      8915      8914      8916         0         1
      8918      8917      8919         0         1
      8921      8920      8922         0         1
      8924      8923      8925         0         1
      8927      8926      8928         0         1
      8930      8929      8931         0         1
      8933      8932      8934         0         1
      8936      8935      8937         0         1
      8939      8938      8940         0         1
      8942      8941      8943         0         1
      8945      8944      8946         0         1
      8948      8947      8949         0         1
      8951      8950      8952         0         1
      8954      8953      8955         0         1
      8957      8956      8958         0         1
      8960      8959      8961         0         1
      8963      8962      8964         0         1
      8966      8965      8967         0         1
      8969      8968      8970         0         1
      8972      8971      8973         0         1
      8975      8974      8976         0         1
      8978      8977      8979         0         1
      8981      8980      8982         0         1
      8984      8983      8985         0         1
      8987      8986      8988         0         1
      8990      8989      8991         0         1
      8993      8992      8994         0         1
      8996      8995      8997         0         1
      8999      8998      9000         0         1
      9002      9001      9003         0         1
      9005      9004      9006         0         1
      9008      9007      9009         0         1
      9011      9010      9012         0         1
      9014      9013      9015         0         1
      9017      9016      9018         0         1
      9020      9019      9021         0         1
      9023      9022      9024         0         1
      9026      9025      9027         0         1
      9029      9028      9030         0         1
      9032      9031      9033         0         1
      9035      9034      9036         0         1
      9038      9037      9039         0         1
      9041      9040      9042         0         1
      9044      9043      9045         0         1
      9047      9046      9048         0         1
      9050      9049      9051         0         1
      9053      9052      9054         0         1
      9056      9055      9057         0         1
      9059      9058      9060         0         1
      9062      9061      9063         0         1
      9065      9064      9066         0         1
      9068      9067      9069         0         1
      9071      9070      9072         0         1
      9074      9073      9075         0         1
      9077      9076      9078         0         1
      9080      9079      9081         0         1
      9083      9082      9084         0         1
      9086      9085      9087         0         1
      9089      9088      9090         0         1
      9092      9091      9093         0         1
      9095      9094      9096         0         1
      9098      9097      9099         0         1
      9101      9100      9102         0         1
      9104      9103      9105         0         1
      9107      9106      9108         0         1
      9110      9109      9111         0         1
      9113      9112      9114         0         1
      9116      9115      9117         0         1
      9119      9118      9120         0         1
      9122      9121      9123         0         1
      9125      9124      9126         0         1
      9128      9127      9129         0         1
      9131      9130      9132         0         1
      9134      9133      9135         0         1
      9137      9136      9138         0         1
      9140      9139      9141         0         1
      9143      9142      9144         0         1
      9146      9145      9147         0         1
      9149      9148      9150         0         1
      9152      9151      9153         0         1
      9155      9154      9156         0         1
      9158      9157      9159         0         1
      9161      9160      9162         0         1
      9164      9163      9165         0         1
      9167      9166      9168         0         1
      9170      9169      9171         0         1
      9173      9172      9174         0         1
      9176      9175      9177         0         1
      9179      9178      9180         0         1
      9182      9181      9183         0         1
      9185      9184      9186         0         1
      9188      9187      9189         0         1
      9191      9190      9192         0         1
      9194      9193      9195         0         1
      9197      9196      9198         0         1
      9200      9199      9201         0         1
      9203      9202      9204         0         1
      9206      9205      9207         0         1
      9209      9208      9210         0         1
      9212      9211      9213         0         1
      9215      9214      9216         0         1
      9218      9217      9219         0         1
      9221      9220      9222         0         1
      9224      9223      9225         0         1
      9227      9226      9228         0         1
      9230      9229      9231         0         1
      9233      9232      9234         0         1
      9236      9235      9237         0         1
      9239      9238      9240         0         1
      9242      9241      9243         0         1
      9245      9244      9246         0         1
      9248      9247      9249         0         1
      9251      9250      9252         0         1
      9254      9253      9255         0         1
      9257      9256      9258         0         1
      9260      9259      9261         0         1
      9263      9262      9264         0         1
      9266      9265      9267         0         1
      9269      9268      9270         0         1
      9272      9271      9273         0         1
      9275      9274      9276         0         1
      9278      9277      9279         0         1
      9281      9280      9282         0         1
      9284      9283      9285         0         1
      9287      9286      9288         0         1
      9290      9289      9291         0         1
      9293      9292      9294         0         1
      9296      9295      9297         0         1
      9299      9298      9300         0         1
      9302      9301      9303         0         1
      9305      9304      9306         0         1
      9308      9307      9309         0         1
      9311      9310      9312         0         1
      9314      9313      9315         0         1
      9317      9316      9318         0         1
      9320      9319      9321         0         1
      9323      9322      9324         0         1
      9326      9325      9327         0         1
      9329      9328      9330         0         1
      9332      9331      9333         0         1
      9335      9334      9336         0         1
      9338      9337      9339         0         1
      9341      9340      9342         0         1
      9344      9343      9345         0         1
      9347      9346      9348         0         1
      9350      9349      9351         0         1
      9353      9352      9354         0         1
      9356      9355      9357         0         1
      9359      9358      9360         0         1
      9362      9361      9363         0         1
      9365      9364      9366         0         1
      9368      9367      9369         0         1
      9371      9370      9372         0         1
      9374      9373      9375         0         1
      9377      9376      9378         0         1
      9380      9379      9381         0         1
      9383      9382      9384         0         1
      9386      9385      9387         0         1
      9389      9388      9390         0         1
      9392      9391      9393         0         1
      9395      9394      9396         0         1
      9398      9397      9399         0         1
      9401      9400      9402         0         1
      9404      9403      9405         0         1
      9407      9406      9408         0         1
      9410      9409      9411         0         1
      9413      9412      9414         0         1
      9416      9415      9417         0         1
      9419      9418      9420         0         1
      9422      9421      9423         0         1
      9425      9424      9426         0         1
      9428      9427      9429         0         1
      9431      9430      9432         0         1
      9434      9433      9435         0         1
      9437      9436      9438         0         1
      9440      9439      9441         0         1
      9443      9442      9444         0         1
      9446      9445      9447         0         1
      9449      9448      9450         0         1
      9452      9451      9453         0         1
      9455      9454      9456         0         1
      9458      9457      9459         0         1
      9461      9460      9462         0         1
      9464      9463      9465         0         1
      9467      9466      9468         0         1
      9470      9469      9471         0         1
      9473      9472      9474         0         1
      9476      9475      9477         0         1
      9479      9478      9480         0         1
      9482      9481      9483         0         1
      9485      9484      9486         0         1
      9488      9487      9489         0         1
      9491      9490      9492         0         1
      9494      9493      9495         0         1
      9497      9496      9498         0         1
      9500      9499      9501         0         1
      9503      9502      9504         0         1
      9506      9505      9507         0         1
      9509      9508      9510         0         1
      9512      9511      9513         0         1
      9515      9514      9516         0         1
      9518      9517      9519         0         1
      9521      9520      9522         0         1
      9524      9523      9525         0         1
      9527      9526      9528         0         1
      9530      9529      9531         0         1
      9533      9532      9534         0         1
      9536      9535      9537         0         1
      9539      9538      9540         0         1
      9542      9541      9543         0         1
      9545      9544      9546         0         1
      9548      9547      9549         0         1
      9551      9550      9552         0         1
      9554      9553      9555         0         1
      9557      9556      9558         0         1
      9560      9559      9561         0         1
      9563      9562      9564         0         1
      9566      9565      9567         0         1
      9569      9568      9570         0         1
      9572      9571      9573         0         1
      9575      9574      9576         0         1
      9578      9577      9579         0         1
      9581      9580      9582         0         1
      9584      9583      9585         0         1
      9587      9586      9588         0         1
      9590      9589      9591         0         1
      9593      9592      9594         0         1
      9596      9595      9597         0         1
      9599      9598      9600         0         1
      9602      9601      9603         0         1
      9605      9604      9606         0         1
      9608      9607      9609         0         1
      9611      9610      9612         0         1
      9614      9613      9615         0         1
      9617      9616      9618         0         1
      9620      9619      9621         0         1
      9623      9622      9624         0         1
      9626      9625      9627         0         1
      9629      9628      9630         0         1
      9632      9631      9633         0         1
      9635      9634      9636         0         1
      9638      9637      9639         0         1
      9641      9640      9642         0         1
      9644      9643      9645         0         1
      9647      9646      9648         0         1
      9650      9649      9651         0         1
      9653      9652      9654         0         1
      9656      9655      9657         0         1
      9659      9658      9660         0         1
      9662      9661      9663         0         1
      9665      9664      9666         0         1
      9668      9667      9669         0         1
      9671      9670      9672         0         1
      9674      9673      9675         0         1
      9677      9676      9678         0         1
      9680      9679      9681         0         1
      9683      9682      9684         0         1
      9686      9685      9687         0         1
      9689      9688      9690         0         1
      9692      9691      9693         0         1
      9695      9694      9696         0         1
      9698      9697      9699         0         1
      9701      9700      9702         0         1
      9704      9703      9705         0         1
      9707      9706      9708         0         1
      9710      9709      9711         0         1
      9713      9712      9714         0         1
      9716      9715      9717         0         1
      9719      9718      9720         0         1
      9722      9721      9723         0         1
      9725      9724      9726         0         1
      9728      9727      9729         0         1
      9731      9730      9732         0         1
      9734      9733      9735         0         1
      9737      9736      9738         0         1
      9740      9739      9741         0         1
      9743      9742      9744         0         1
      9746      9745      9747         0         1
      9749      9748      9750         0         1
      9752      9751      9753         0         1
      9755      9754      9756         0         1
      9758      9757      9759         0         1
      9761      9760      9762         0         1
      9764      9763      9765         0         1
      9767      9766      9768         0         1
      9770      9769      9771         0         1
      9773      9772      9774         0         1
      9776      9775      9777         0         1
      9779      9778      9780         0         1
      9782      9781      9783         0         1
      9785      9784      9786         0         1
      9788      9787      9789         0         1
      9791      9790      9792         0         1
      9794      9793      9795         0         1
      9797      9796      9798         0         1
      9800      9799      9801         0         1
      9803      9802      9804         0         1
      9806      9805      9807         0         1
      9809      9808      9810         0         1
      9812      9811      9813         0         1
      9815      9814      9816         0         1
      9818      9817      9819         0         1
      9821      9820      9822         0         1
      9824      9823      9825         0         1
      9827      9826      9828         0         1
      9830      9829      9831         0         1
      9833      9832      9834         0         1
      9836      9835      9837         0         1
      9839      9838      9840         0         1
      9842      9841      9843         0         1
      9845      9844      9846         0         1
      9848      9847      9849         0         1
      9851      9850      9852         0         1
      9854      9853      9855         0         1
      9857      9856      9858         0         1
      9860      9859      9861         0         1
      9863      9862      9864         0         1
      9866      9865      9867         0         1
      9869      9868      9870         0         1
      9872      9871      9873         0         1
      9875      9874      9876         0         1
      9878      9877      9879         0         1
      9881      9880      9882         0         1
      9884      9883      9885         0         1
      9887      9886      9888         0         1
      9890      9889      9891         0         1
      9893      9892      9894         0         1
      9896      9895      9897         0         1
      9899      9898      9900         0         1
      9902      9901      9903         0         1
      9905      9904      9906         0         1
      9908      9907      9909         0         1
      9911      9910      9912         0         1
      9914      9913      9915         0         1
      9917      9916      9918         0         1
      9920      9919      9921         0         1
      9923      9922      9924         0         1
      9926      9925      9927         0         1
      9929      9928      9930         0         1
      9932      9931      9933         0         1
      9935      9934      9936         0         1
      9938      9937      9939         0         1
      9941      9940      9942         0         1
      9944      9943      9945         0         1
      9947      9946      9948         0         1
      9950      9949      9951         0         1
      9953      9952      9954         0         1
      9956      9955      9957         0         1
      9959      9958      9960         0         1
      9962      9961      9963         0         1
      9965      9964      9966         0         1
      9968      9967      9969         0         1
      9971      9970      9972         0         1
      9974      9973      9975         0         1
      9977      9976      9978         0         1
      9980      9979      9981         0         1
      9983      9982      9984         0         1
      9986      9985      9987         0         1
      9989      9988      9990         0         1
      9992      9991      9993         0         1
      9995      9994      9996         0         1
      9998      9997      9999         0         1
     10001     10000     10002         0         1
     10004     10003     10005         0         1
     10007     10006     10008         0         1
     10010     10009     10011         0         1
     10013     10012     10014         0         1
     10016     10015     10017         0         1
     10019     10018     10020         0         1
     10022     10021     10023         0         1
     10025     10024     10026         0         1
     10028     10027     10029         0         1
     10031     10030     10032         0         1
     10034     10033     10035         0         1
     10037     10036     10038         0         1
     10040     10039     10041         0         1
     10043     10042     10044         0         1
     10046     10045     10047         0         1
     10049     10048     10050         0         1
     10052     10051     10053         0         1
     10055     10054     10056         0         1
     10058     10057     10059         0         1
     10061     10060     10062         0         1
     10064     10063     10065         0         1
     10067     10066     10068         0         1
     10070     10069     10071         0         1
     10073     10072     10074         0         1
     10076     10075     10077         0         1
     10079     10078     10080         0         1
     10082     10081     10083         0         1
     10085     10084     10086         0         1
     10088     10087     10089         0         1
     10091     10090     10092         0         1
     10094     10093     10095         0         1
     10097     10096     10098         0         1
     10100     10099     10101         0         1
     10103     10102     10104         0         1
     10106     10105     10107         0         1
     10109     10108     10110         0         1
     10112     10111     10113         0         1
     10115     10114     10116         0         1
     10118     10117     10119         0         1
     10121     10120     10122         0         1
     10124     10123     10125         0         1
     10127     10126     10128         0         1
     10130     10129     10131         0         1
     10133     10132     10134         0         1
     10136     10135     10137         0         1
     10139     10138     10140         0         1
     10142     10141     10143         0         1
     10145     10144     10146         0         1
     10148     10147     10149         0         1
     10151     10150     10152         0         1
     10154     10153     10155         0         1
     10157     10156     10158         0         1
     10160     10159     10161         0         1
     10163     10162     10164         0         1
     10166     10165     10167         0         1
     10169     10168     10170         0         1
     10172     10171     10173         0         1
     10175     10174     10176         0         1
     10178     10177     10179         0         1
     10181     10180     10182         0         1
     10184     10183     10185         0         1
     10187     10186     10188         0         1
     10190     10189     10191         0         1
     10193     10192     10194         0         1
     10196     10195     10197         0         1
     10199     10198     10200         0         1
     10202     10201     10203         0         1
     10205     10204     10206         0         1
     10208     10207     10209         0         1
     10211     10210     10212         0         1
     10214     10213     10215         0         1
     10217     10216     10218         0         1
     10220     10219     10221         0         1
     10223     10222     10224         0         1
     10226     10225     10227         0         1
     10229     10228     10230         0         1
     10232     10231     10233         0         1
     10235     10234     10236         0         1
     10238     10237     10239         0         1
     10241     10240     10242         0         1
     10244     10243     10245         0         1
     10247     10246     10248         0         1
     10250     10249     10251         0         1
     10253     10252     10254         0         1
     10256     10255     10257         0         1
     10259     10258     10260         0         1
     10262     10261     10263         0         1
     10265     10264     10266         0         1
     10268     10267     10269         0         1
     10271     10270     10272         0         1
     10274     10273     10275         0         1
     10277     10276     10278         0         1
     10280     10279     10281         0         1
     10283     10282     10284         0         1
     10286     10285     10287         0         1
     10289     10288     10290         0         1
     10292     10291     10293         0         1
     10295     10294     10296         0         1
     10298     10297     10299         0         1
     10301     10300     10302         0         1
     10304     10303     10305         0         1
     10307     10306     10308         0         1
     10310     10309     10311         0         1
     10313     10312     10314         0         1
     10316     10315     10317         0         1
     10319     10318     10320         0         1
     10322     10321     10323         0         1
     10325     10324     10326         0         1
     10328     10327     10329         0         1
     10331     10330     10332         0         1
     10334     10333     10335         0         1
     10337     10336     10338         0         1
     10340     10339     10341         0         1
     10343     10342     10344         0         1
     10346     10345     10347         0         1
     10349     10348     10350         0         1
     10352     10351     10353         0         1
     10355     10354     10356         0         1
     10358     10357     10359         0         1
     10361     10360     10362         0         1
     10364     10363     10365         0         1
     10367     10366     10368         0         1
     10370     10369     10371         0         1
     10373     10372     10374         0         1
     10376     10375     10377         0         1
     10379     10378     10380         0         1
     10382     10381     10383         0         1
     10385     10384     10386         0         1
     10388     10387     10389         0         1
     10391     10390     10392         0         1
     10394     10393     10395         0         1
     10397     10396     10398         0         1
     10400     10399     10401         0         1
     10403     10402     10404         0         1
     10406     10405     10407         0         1
     10409     10408     10410         0         1
     10412     10411     10413         0         1
     10415     10414     10416         0         1
     10418     10417     10419         0         1
     10421     10420     10422         0         1
     10424     10423     10425         0         1
     10427     10426     10428         0         1
     10430     10429     10431         0         1
     10433     10432     10434         0         1
     10436     10435     10437         0         1
     10439     10438     10440         0         1
     10442     10441     10443         0         1
     10445     10444     10446         0         1
     10448     10447     10449         0         1
     10451     10450     10452         0         1
     10454     10453     10455         0         1
     10457     10456     10458         0         1
     10460     10459     10461         0         1
     10463     10462     10464         0         1
     10466     10465     10467         0         1
     10469     10468     10470         0         1
     10472     10471     10473         0         1
     10475     10474     10476         0         1
     10478     10477     10479         0         1
     10481     10480     10482         0         1
     10484     10483     10485         0         1
     10487     10486     10488         0         1
     10490     10489     10491         0         1
     10493     10492     10494         0         1
     10496     10495     10497         0         1
     10499     10498     10500         0         1
     10502     10501     10503         0         1
     10505     10504     10506         0         1
     10508     10507     10509         0         1
     10511     10510     10512         0         1
     10514     10513     10515         0         1
     10517     10516     10518         0         1
     10520     10519     10521         0         1
     10523     10522     10524         0         1
     10526     10525     10527         0         1
     10529     10528     10530         0         1
     10532     10531     10533         0         1
     10535     10534     10536         0         1
     10538     10537     10539         0         1
     10541     10540     10542         0         1
     10544     10543     10545         0         1
     10547     10546     10548         0         1
     10550     10549     10551         0         1
     10553     10552     10554         0         1
     10556     10555     10557         0         1
     10559     10558     10560         0         1
     10562     10561     10563         0         1
     10565     10564     10566         0         1
     10568     10567     10569         0         1
     10571     10570     10572         0         1
     10574     10573     10575         0         1
     10577     10576     10578         0         1
     10580     10579     10581         0         1
     10583     10582     10584         0         1
     10586     10585     10587         0         1
     10589     10588     10590         0         1
     10592     10591     10593         0         1
     10595     10594     10596         0         1
     10598     10597     10599         0         1
     10601     10600     10602         0         1
     10604     10603     10605         0         1
     10607     10606     10608         0         1
     10610     10609     10611         0         1
     10613     10612     10614         0         1
     10616     10615     10617         0         1
     10619     10618     10620         0         1
     10622     10621     10623         0         1
     10625     10624     10626         0         1
     10628     10627     10629         0         1
     10631     10630     10632         0         1
     10634     10633     10635         0         1
     10637     10636     10638         0         1
     10640     10639     10641         0         1
     10643     10642     10644         0         1
     10646     10645     10647         0         1
     10649     10648     10650         0         1
     10652     10651     10653         0         1
     10655     10654     10656         0         1
     10658     10657     10659         0         1
     10661     10660     10662         0         1
     10664     10663     10665         0         1
     10667     10666     10668         0         1
     10670     10669     10671         0         1
     10673     10672     10674         0         1
     10676     10675     10677         0         1
     10679     10678     10680         0         1
     10682     10681     10683         0         1
     10685     10684     10686         0         1
     10688     10687     10689         0         1
     10691     10690     10692         0         1
     10694     10693     10695         0         1
     10697     10696     10698         0         1
     10700     10699     10701         0         1
     10703     10702     10704         0         1
     10706     10705     10707         0         1
     10709     10708     10710         0         1
     10712     10711     10713         0         1
     10715     10714     10716         0         1
     10718     10717     10719         0         1
     10721     10720     10722         0         1
     10724     10723     10725         0         1
     10727     10726     10728         0         1
     10730     10729     10731         0         1
     10733     10732     10734         0         1
     10736     10735     10737         0         1
     10739     10738     10740         0         1
     10742     10741     10743         0         1
     10745     10744     10746         0         1
     10748     10747     10749         0         1
     10751     10750     10752         0         1
     10754     10753     10755         0         1
     10757     10756     10758         0         1
     10760     10759     10761         0         1
     10763     10762     10764         0         1
     10766     10765     10767         0         1
     10769     10768     10770         0         1
     10772     10771     10773         0         1
     10775     10774     10776         0         1
     10778     10777     10779         0         1
     10781     10780     10782         0         1
     10784     10783     10785         0         1
     10787     10786     10788         0         1
     10790     10789     10791         0         1
     10793     10792     10794         0         1
     10796     10795     10797         0         1
     10799     10798     10800         0         1
     10802     10801     10803         0         1
     10805     10804     10806         0         1
     10808     10807     10809         0         1
     10811     10810     10812         0         1
     10814     10813     10815         0         1
     10817     10816     10818         0         1
     10820     10819     10821         0         1
     10823     10822     10824         0         1
     10826     10825     10827         0         1
     10829     10828     10830         0         1
     10832     10831     10833         0         1
     10835     10834     10836         0         1
     10838     10837     10839         0         1
     10841     10840     10842         0         1
     10844     10843     10845         0         1
     10847     10846     10848         0         1
     10850     10849     10851         0         1
     10853     10852     10854         0         1
     10856     10855     10857         0         1
     10859     10858     10860         0         1
     10862     10861     10863         0         1
     10865     10864     10866         0         1
     10868     10867     10869         0         1
     10871     10870     10872         0         1
     10874     10873     10875         0         1
     10877     10876     10878         0         1
     10880     10879     10881         0         1
     10883     10882     10884         0         1
     10886     10885     10887         0         1
     10889     10888     10890         0         1
     10892     10891     10893         0         1
     10895     10894     10896         0         1
     10898     10897     10899         0         1
     10901     10900     10902         0         1
     10904     10903     10905         0         1
     10907     10906     10908         0         1
     10910     10909     10911         0         1
     10913     10912     10914         0         1
     10916     10915     10917         0         1
     10919     10918     10920         0         1
     10922     10921     10923         0         1
     10925     10924     10926         0         1
     10928     10927     10929         0         1
     10931     10930     10932         0         1
     10934     10933     10935         0         1
     10937     10936     10938         0         1
     10940     10939     10941         0         1
     10943     10942     10944         0         1
     10946     10945     10947         0         1
     10949     10948     10950         0         1
     10952     10951     10953         0         1
     10955     10954     10956         0         1
     10958     10957     10959         0         1
     10961     10960     10962         0         1
     10964     10963     10965         0         1
     10967     10966     10968         0         1
     10970     10969     10971         0         1
     10973     10972     10974         0         1
     10976     10975     10977         0         1
     10979     10978     10980         0         1
     10982     10981     10983         0         1
     10985     10984     10986         0         1
     10988     10987     10989         0         1
     10991     10990     10992         0         1
     10994     10993     10995         0         1
     10997     10996     10998         0         1
     11000     10999     11001         0         1
     11003     11002     11004         0         1
     11006     11005     11007         0         1
     11009     11008     11010         0         1
     11012     11011     11013         0         1
     11015     11014     11016         0         1
     11018     11017     11019         0         1
     11021     11020     11022         0         1
     11024     11023     11025         0         1
     11027     11026     11028         0         1
     11030     11029     11031         0         1
     11033     11032     11034         0         1
     11036     11035     11037         0         1
     11039     11038     11040         0         1
     11042     11041     11043         0         1
     11045     11044     11046         0         1
     11048     11047     11049         0         1
     11051     11050     11052         0         1
     11054     11053     11055         0         1
     11057     11056     11058         0         1
     11060     11059     11061         0         1
     11063     11062     11064         0         1
     11066     11065     11067         0         1
     11069     11068     11070         0         1
     11072     11071     11073         0         1
     11075     11074     11076         0         1
     11078     11077     11079         0         1
     11081     11080     11082         0         1
     11084     11083     11085         0         1
     11087     11086     11088         0         1
     11090     11089     11091         0         1
     11093     11092     11094         0         1
     11096     11095     11097         0         1
     11099     11098     11100         0         1
     11102     11101     11103         0         1
     11105     11104     11106         0         1
     11108     11107     11109         0         1
     11111     11110     11112         0         1
     11114     11113     11115         0         1
     11117     11116     11118         0         1
     11120     11119     11121         0         1
     11123     11122     11124         0         1
     11126     11125     11127         0         1
     11129     11128     11130         0         1
     11132     11131     11133         0         1
     11135     11134     11136         0         1
     11138     11137     11139         0         1
     11141     11140     11142         0         1
     11144     11143     11145         0         1
     11147     11146     11148         0         1
     11150     11149     11151         0         1
     11153     11152     11154         0         1
     11156     11155     11157         0         1
     11159     11158     11160         0         1
     11162     11161     11163         0         1
     11165     11164     11166         0         1
     11168     11167     11169         0         1
     11171     11170     11172         0         1
     11174     11173     11175         0         1
     11177     11176     11178         0         1
     11180     11179     11181         0         1
     11183     11182     11184         0         1
     11186     11185     11187         0         1
     11189     11188     11190         0         1
     11192     11191     11193         0         1
     11195     11194     11196         0         1
     11198     11197     11199         0         1
     11201     11200     11202         0         1
     11204     11203     11205         0         1
     11207     11206     11208         0         1
     11210     11209     11211         0         1
     11213     11212     11214         0         1
     11216     11215     11217         0         1
     11219     11218     11220         0         1
     11222     11221     11223         0         1
     11225     11224     11226         0         1
     11228     11227     11229         0         1
     11231     11230     11232         0         1
     11234     11233     11235         0         1
     11237     11236     11238         0         1
     11240     11239     11241         0         1
     11243     11242     11244         0         1
     11246     11245     11247         0         1
     11249     11248     11250         0         1
     11252     11251     11253         0         1
     11255     11254     11256         0         1
     11258     11257     11259         0         1
     11261     11260     11262         0         1
     11264     11263     11265         0         1
     11267     11266     11268         0         1
     11270     11269     11271         0         1
     11273     11272     11274         0         1
     11276     11275     11277         0         1
     11279     11278     11280         0         1
     11282     11281     11283         0         1
     11285     11284     11286         0         1
     11288     11287     11289         0         1
     11291     11290     11292         0         1
     11294     11293     11295         0         1
     11297     11296     11298         0         1
     11300     11299     11301         0         1
     11303     11302     11304         0         1
     11306     11305     11307         0         1
     11309     11308     11310         0         1
     11312     11311     11313         0         1
     11315     11314     11316         0         1
     11318     11317     11319         0         1
     11321     11320     11322         0         1
     11324     11323     11325         0         1
     11327     11326     11328         0         1
     11330     11329     11331         0         1
     11333     11332     11334         0         1
     11336     11335     11337         0         1
     11339     11338     11340         0         1
     11342     11341     11343         0         1
     11345     11344     11346         0         1
     11348     11347     11349         0         1
     11351     11350     11352         0         1
     11354     11353     11355         0         1
     11357     11356     11358         0         1
     11360     11359     11361         0         1
     11363     11362     11364         0         1
     11366     11365     11367         0         1
     11369     11368     11370         0         1
     11372     11371     11373         0         1
     11375     11374     11376         0         1
     11378     11377     11379         0         1
     11381     11380     11382         0         1
     11384     11383     11385         0         1
     11387     11386     11388         0         1
     11390     11389     11391         0         1
     11393     11392     11394         0         1
     11396     11395     11397         0         1
     11399     11398     11400         0         1
     11402     11401     11403         0         1
     11405     11404     11406         0         1
     11408     11407     11409         0         1
     11411     11410     11412         0         1
     11414     11413     11415         0         1
     11417     11416     11418         0         1
     11420     11419     11421         0         1
     11423     11422     11424         0         1
     11426     11425     11427         0         1
     11429     11428     11430         0         1
     11432     11431     11433         0         1
     11435     11434     11436         0         1
     11438     11437     11439         0         1
     11441     11440     11442         0         1
     11444     11443     11445         0         1
     11447     11446     11448         0         1
     11450     11449     11451         0         1
     11453     11452     11454         0         1
     11456     11455     11457         0         1
     11459     11458     11460         0         1
     11462     11461     11463         0         1
     11465     11464     11466         0         1
     11468     11467     11469         0         1
     11471     11470     11472         0         1
     11474     11473     11475         0         1
     11477     11476     11478         0         1
     11480     11479     11481         0         1
     11483     11482     11484         0         1
     11486     11485     11487         0         1
     11489     11488     11490         0         1
     11492     11491     11493         0         1
     11495     11494     11496         0         1
     11498     11497     11499         0         1
     11501     11500     11502         0         1
     11504     11503     11505         0         1
     11507     11506     11508         0         1
     11510     11509     11511         0         1
     11513     11512     11514         0         1
     11516     11515     11517         0         1
     11519     11518     11520         0         1
     11522     11521     11523         0         1
     11525     11524     11526         0         1
     11528     11527     11529         0         1
     11531     11530     11532         0         1
     11534     11533     11535         0         1
     11537     11536     11538         0         1
     11540     11539     11541         0         1
     11543     11542     11544         0         1
     11546     11545     11547         0         1
     11549     11548     11550         0         1
     11552     11551     11553         0         1
     11555     11554     11556         0         1
     11558     11557     11559         0         1
     11561     11560     11562         0         1
     11564     11563     11565         0         1
     11567     11566     11568         0         1
     11570     11569     11571         0         1
     11573     11572     11574         0         1
     11576     11575     11577         0         1
     11579     11578     11580         0         1
     11582     11581     11583         0         1
     11585     11584     11586         0         1
     11588     11587     11589         0         1
     11591     11590     11592         0         1
     11594     11593     11595         0         1
     11597     11596     11598         0         1
     11600     11599     11601         0         1
     11603     11602     11604         0         1
     11606     11605     11607         0         1
     11609     11608     11610         0         1
     11612     11611     11613         0         1
     11615     11614     11616         0         1
     11618     11617     11619         0         1
     11621     11620     11622         0         1
     11624     11623     11625         0         1
     11627     11626     11628         0         1
     11630     11629     11631         0         1
     11633     11632     11634         0         1
     11636     11635     11637         0         1
     11639     11638     11640         0         1
     11642     11641     11643         0         1
     11645     11644     11646         0         1
     11648     11647     11649         0         1
     11651     11650     11652         0         1
     11654     11653     11655         0         1
     11657     11656     11658         0         1
     11660     11659     11661         0         1
     11663     11662     11664         0         1
     11666     11665     11667         0         1
     11669     11668     11670         0         1
     11672     11671     11673         0         1
     11675     11674     11676         0         1
     11678     11677     11679         0         1
     11681     11680     11682         0         1
     11684     11683     11685         0         1
     11687     11686     11688         0         1
     11690     11689     11691         0         1
     11693     11692     11694         0         1
     11696     11695     11697         0         1
     11699     11698     11700         0         1
     11702     11701     11703         0         1
     11705     11704     11706         0         1
     11708     11707     11709         0         1
     11711     11710     11712         0         1
     11714     11713     11715         0         1
     11717     11716     11718         0         1
     11720     11719     11721         0         1
     11723     11722     11724         0         1
     11726     11725     11727         0         1
     11729     11728     11730         0         1
     11732     11731     11733         0         1
     11735     11734     11736         0         1
     11738     11737     11739         0         1
     11741     11740     11742         0         1
     11744     11743     11745         0         1
     11747     11746     11748         0         1
     11750     11749     11751         0         1
     11753     11752     11754         0         1
     11756     11755     11757         0         1
     11759     11758     11760         0         1
     11762     11761     11763         0         1
     11765     11764     11766         0         1
     11768     11767     11769         0         1
     11771     11770     11772         0         1
     11774     11773     11775         0         1
     11777     11776     11778         0         1
     11780     11779     11781         0         1
     11783     11782     11784         0         1
     11786     11785     11787         0         1
     11789     11788     11790         0         1
     11792     11791     11793         0         1
     11795     11794     11796         0         1
     11798     11797     11799         0         1
     11801     11800     11802         0         1
     11804     11803     11805         0         1
     11807     11806     11808         0         1
     11810     11809     11811         0         1
     11813     11812     11814         0         1
     11816     11815     11817         0         1
     11819     11818     11820         0         1
     11822     11821     11823         0         1
     11825     11824     11826         0         1
     11828     11827     11829         0         1
     11831     11830     11832         0         1
     11834     11833     11835         0         1
     11837     11836     11838         0         1
     11840     11839     11841         0         1
     11843     11842     11844         0         1
     11846     11845     11847         0         1
     11849     11848     11850         0         1
     11852     11851     11853         0         1
     11855     11854     11856         0         1
     11858     11857     11859         0         1
     11861     11860     11862         0         1
     11864     11863     11865         0         1
     11867     11866     11868         0         1
     11870     11869     11871         0         1
     11873     11872     11874         0         1
     11876     11875     11877         0         1
     11879     11878     11880         0         1
     11882     11881     11883         0         1
     11885     11884     11886         0         1
     11888     11887     11889         0         1
     11891     11890     11892         0         1
     11894     11893     11895         0         1
     11897     11896     11898         0         1
     11900     11899     11901         0         1
     11903     11902     11904         0         1
     11906     11905     11907         0         1
     11909     11908     11910         0         1
     11912     11911     11913         0         1
     11915     11914     11916         0         1
     11918     11917     11919         0         1
     11921     11920     11922         0         1
     11924     11923     11925         0         1
     11927     11926     11928         0         1
     11930     11929     11931         0         1
     11933     11932     11934         0         1
     11936     11935     11937         0         1
     11939     11938     11940         0         1
     11942     11941     11943         0         1
     11945     11944     11946         0         1
     11948     11947     11949         0         1
     11951     11950     11952         0         1
     11954     11953     11955         0         1
     11957     11956     11958         0         1
     11960     11959     11961         0         1
     11963     11962     11964         0         1
     11966     11965     11967         0         1
     11969     11968     11970         0         1
     11972     11971     11973         0         1
     11975     11974     11976         0         1
     11978     11977     11979         0         1
     11981     11980     11982         0         1
     11984     11983     11985         0         1
     11987     11986     11988         0         1
     11990     11989     11991         0         1
     11993     11992     11994         0         1
     11996     11995     11997         0         1
     11999     11998     12000         0         1
     12002     12001     12003         0         1
     12005     12004     12006         0         1
     12008     12007     12009         0         1
     12011     12010     12012         0         1
     12014     12013     12015         0         1
     12017     12016     12018         0         1
     12020     12019     12021         0         1
     12023     12022     12024         0         1
     12026     12025     12027         0         1
     12029     12028     12030         0         1
     12032     12031     12033         0         1
     12035     12034     12036         0         1
     12038     12037     12039         0         1
     12041     12040     12042         0         1
     12044     12043     12045         0         1
     12047     12046     12048         0         1
     12050     12049     12051         0         1
     12053     12052     12054         0         1
     12056     12055     12057         0         1
     12059     12058     12060         0         1
     12062     12061     12063         0         1
     12065     12064     12066         0         1
     12068     12067     12069         0         1
     12071     12070     12072         0         1
     12074     12073     12075         0         1
     12077     12076     12078         0         1
     12080     12079     12081         0         1
     12083     12082     12084         0         1
     12086     12085     12087         0         1
     12089     12088     12090         0         1
     12092     12091     12093         0         1
     12095     12094     12096         0         1
     12098     12097     12099         0         1
     12101     12100     12102         0         1
     12104     12103     12105         0         1
     12107     12106     12108         0         1
     12110     12109     12111         0         1
     12113     12112     12114         0         1
     12116     12115     12117         0         1
     12119     12118     12120         0         1
     12122     12121     12123         0         1
     12125     12124     12126         0         1
     12128     12127     12129         0         1
     12131     12130     12132         0         1
     12134     12133     12135         0         1
     12137     12136     12138         0         1
     12140     12139     12141         0         1
     12143     12142     12144         0         1
     12146     12145     12147         0         1
     12149     12148     12150         0         1
     12152     12151     12153         0         1
     12155     12154     12156         0         1
     12158     12157     12159         0         1
     12161     12160     12162         0         1
     12164     12163     12165         0         1
     12167     12166     12168         0         1
     12170     12169     12171         0         1
     12173     12172     12174         0         1
     12176     12175     12177         0         1
     12179     12178     12180         0         1
     12182     12181     12183         0         1
     12185     12184     12186         0         1
     12188     12187     12189         0         1
     12191     12190     12192         0         1
     12194     12193     12195         0         1
     12197     12196     12198         0         1
     12200     12199     12201         0         1
     12203     12202     12204         0         1
     12206     12205     12207         0         1
     12209     12208     12210         0         1
     12212     12211     12213         0         1
     12215     12214     12216         0         1
     12218     12217     12219         0         1
     12221     12220     12222         0         1
     12224     12223     12225         0         1
     12227     12226     12228         0         1
     12230     12229     12231         0         1
     12233     12232     12234         0         1
     12236     12235     12237         0         1
     12239     12238     12240         0         1
     12242     12241     12243         0         1
     12245     12244     12246         0         1
     12248     12247     12249         0         1
     12251     12250     12252         0         1
     12254     12253     12255         0         1
     12257     12256     12258         0         1
     12260     12259     12261         0         1
     12263     12262     12264         0         1
     12266     12265     12267         0         1
     12269     12268     12270         0         1
     12272     12271     12273         0         1
     12275     12274     12276         0         1
     12278     12277     12279         0         1
     12281     12280     12282         0         1
     12284     12283     12285         0         1
     12287     12286     12288         0         1
     12290     12289     12291         0         1
     12293     12292     12294         0         1
     12296     12295     12297         0         1
     12299     12298     12300         0         1
     12302     12301     12303         0         1
     12305     12304     12306         0         1
     12308     12307     12309         0         1
     12311     12310     12312         0         1
     12314     12313     12315         0         1
     12317     12316     12318         0         1
     12320     12319     12321         0         1
     12323     12322     12324         0         1
     12326     12325     12327         0         1
     12329     12328     12330         0         1
     12332     12331     12333         0         1
     12335     12334     12336         0         1
     12338     12337     12339         0         1
     12341     12340     12342         0         1
     12344     12343     12345         0         1
     12347     12346     12348         0         1
     12350     12349     12351         0         1
     12353     12352     12354         0         1
     12356     12355     12357         0         1
     12359     12358     12360         0         1
     12362     12361     12363         0         1
     12365     12364     12366         0         1
     12368     12367     12369         0         1
     12371     12370     12372         0         1
     12374     12373     12375         0         1
     12377     12376     12378         0         1
     12380     12379     12381         0         1
     12383     12382     12384         0         1
     12386     12385     12387         0         1
     12389     12388     12390         0         1
     12392     12391     12393         0         1
     12395     12394     12396         0         1
     12398     12397     12399         0         1
     12401     12400     12402         0         1
     12404     12403     12405         0         1
     12407     12406     12408         0         1
     12410     12409     12411         0         1
     12413     12412     12414         0         1
     12416     12415     12417         0         1
     12419     12418     12420         0         1
     12422     12421     12423         0         1
     12425     12424     12426         0         1
     12428     12427     12429         0         1
     12431     12430     12432         0         1
     12434     12433     12435         0         1
     12437     12436     12438         0         1
     12440     12439     12441         0         1
     12443     12442     12444         0         1
     12446     12445     12447         0         1
     12449     12448     12450         0         1
     12452     12451     12453         0         1
     12455     12454     12456         0         1
     12458     12457     12459         0         1
     12461     12460     12462         0         1
     12464     12463     12465         0         1
     12467     12466     12468         0         1
     12470     12469     12471         0         1
     12473     12472     12474         0         1
     12476     12475     12477         0         1
     12479     12478     12480         0         1
     12482     12481     12483         0         1
     12485     12484     12486         0         1
     12488     12487     12489         0         1
     12491     12490     12492         0         1
     12494     12493     12495         0         1
     12497     12496     12498         0         1
     12500     12499     12501         0         1
     12503     12502     12504         0         1
     12506     12505     12507         0         1
     12509     12508     12510         0         1
     12512     12511     12513         0         1
     12515     12514     12516         0         1
     12518     12517     12519         0         1
     12521     12520     12522         0         1
     12524     12523     12525         0         1
     12527     12526     12528         0         1
     12530     12529     12531         0         1
     12533     12532     12534         0         1
     12536     12535     12537         0         1
     12539     12538     12540         0         1
     12542     12541     12543         0         1
     12545     12544     12546         0         1
     12548     12547     12549         0         1
     12551     12550     12552         0         1
     12554     12553     12555         0         1
     12557     12556     12558         0         1
     12560     12559     12561         0         1
     12563     12562     12564         0         1
     12566     12565     12567         0         1
     12569     12568     12570         0         1
     12572     12571     12573         0         1
     12575     12574     12576         0         1
     12578     12577     12579         0         1
     12581     12580     12582         0         1
     12584     12583     12585         0         1
     12587     12586     12588         0         1
     12590     12589     12591         0         1
     12593     12592     12594         0         1
     12596     12595     12597         0         1
     12599     12598     12600         0         1
     12602     12601     12603         0         1
     12605     12604     12606         0         1
     12608     12607     12609         0         1
     12611     12610     12612         0         1
     12614     12613     12615         0         1
     12617     12616     12618         0         1
     12620     12619     12621         0         1
     12623     12622     12624         0         1
     12626     12625     12627         0         1
     12629     12628     12630         0         1
     12632     12631     12633         0         1
     12635     12634     12636         0         1
     12638     12637     12639         0         1
     12641     12640     12642         0         1
     12644     12643     12645         0         1
     12647     12646     12648         0         1
     12650     12649     12651         0         1
     12653     12652     12654         0         1
     12656     12655     12657         0         1
     12659     12658     12660         0         1
     12662     12661     12663         0         1
     12665     12664     12666         0         1
     12668     12667     12669         0         1
     12671     12670     12672         0         1
     12674     12673     12675         0         1
     12677     12676     12678         0         1
     12680     12679     12681         0         1
     12683     12682     12684         0         1
     12686     12685     12687         0         1
     12689     12688     12690         0         1
     12692     12691     12693         0         1
     12695     12694     12696         0         1
     12698     12697     12699         0         1
     12701     12700     12702         0         1
     12704     12703     12705         0         1
     12707     12706     12708         0         1
     12710     12709     12711         0         1
     12713     12712     12714         0         1
     12716     12715     12717         0         1
     12719     12718     12720         0         1
     12722     12721     12723         0         1
     12725     12724     12726         0         1
     12728     12727     12729         0         1
     12731     12730     12732         0         1
     12734     12733     12735         0         1
     12737     12736     12738         0         1
     12740     12739     12741         0         1
     12743     12742     12744         0         1
     12746     12745     12747         0         1
     12749     12748     12750         0         1
     12752     12751     12753         0         1
     12755     12754     12756         0         1
     12758     12757     12759         0         1
     12761     12760     12762         0         1
     12764     12763     12765         0         1
     12767     12766     12768         0         1
     12770     12769     12771         0         1
     12773     12772     12774         0         1
     12776     12775     12777         0         1
     12779     12778     12780         0         1
     12782     12781     12783         0         1
     12785     12784     12786         0         1
     12788     12787     12789         0         1
     12791     12790     12792         0         1
     12794     12793     12795         0         1
     12797     12796     12798         0         1
     12800     12799     12801         0         1
     12803     12802     12804         0         1
     12806     12805     12807         0         1
     12809     12808     12810         0         1
     12812     12811     12813         0         1
     12815     12814     12816         0         1
     12818     12817     12819         0         1
     12821     12820     12822         0         1
     12824     12823     12825         0         1
     12827     12826     12828         0         1
     12830     12829     12831         0         1
     12833     12832     12834         0         1
     12836     12835     12837         0         1
     12839     12838     12840         0         1
     12842     12841     12843         0         1
     12845     12844     12846         0         1
     12848     12847     12849         0         1
     12851     12850     12852         0         1
     12854     12853     12855         0         1
     12857     12856     12858         0         1
     12860     12859     12861         0         1
     12863     12862     12864         0         1
     12866     12865     12867         0         1
     12869     12868     12870         0         1
     12872     12871     12873         0         1
     12875     12874     12876         0         1
     12878     12877     12879         0         1
     12881     12880     12882         0         1
     12884     12883     12885         0         1
     12887     12886     12888         0         1
     12890     12889     12891         0         1
     12893     12892     12894         0         1
     12896     12895     12897         0         1
     12899     12898     12900         0         1
     12902     12901     12903         0         1
     12905     12904     12906         0         1
     12908     12907     12909         0         1
     12911     12910     12912         0         1
     12914     12913     12915         0         1
     12917     12916     12918         0         1
     12920     12919     12921         0         1
     12923     12922     12924         0         1
     12926     12925     12927         0         1
     12929     12928     12930         0         1
     12932     12931     12933         0         1
     12935     12934     12936         0         1
     12938     12937     12939         0         1
     12941     12940     12942         0         1
     12944     12943     12945         0         1
     12947     12946     12948         0         1
     12950     12949     12951         0         1
     12953     12952     12954         0         1
     12956     12955     12957         0         1
     12959     12958     12960         0         1
     12962     12961     12963         0         1
     12965     12964     12966         0         1
     12968     12967     12969         0         1
     12971     12970     12972         0         1
     12974     12973     12975         0         1
     12977     12976     12978         0         1
     12980     12979     12981         0         1
     12983     12982     12984         0         1
     12986     12985     12987         0         1
     12989     12988     12990         0         1
     12992     12991     12993         0         1
     12995     12994     12996         0         1
     12998     12997     12999         0         1
     13001     13000     13002         0         1
     13004     13003     13005         0         1
     13007     13006     13008         0         1
     13010     13009     13011         0         1
     13013     13012     13014         0         1
     13016     13015     13017         0         1
     13019     13018     13020         0         1
     13022     13021     13023         0         1
     13025     13024     13026         0         1
     13028     13027     13029         0         1
     13031     13030     13032         0         1
     13034     13033     13035         0         1
     13037     13036     13038         0         1
     13040     13039     13041         0         1
     13043     13042     13044         0         1
     13046     13045     13047         0         1
     13049     13048     13050         0         1
     13052     13051     13053         0         1
     13055     13054     13056         0         1
     13058     13057     13059         0         1
     13061     13060     13062         0         1
     13064     13063     13065         0         1
     13067     13066     13068         0         1
     13070     13069     13071         0         1
     13073     13072     13074         0         1
     13076     13075     13077         0         1
     13079     13078     13080         0         1
     13082     13081     13083         0         1
     13085     13084     13086         0         1
     13088     13087     13089         0         1
     13091     13090     13092         0         1
     13094     13093     13095         0         1
     13097     13096     13098         0         1
     13100     13099     13101         0         1
     13103     13102     13104         0         1
     13106     13105     13107         0         1
     13109     13108     13110         0         1
     13112     13111     13113         0         1
     13115     13114     13116         0         1
     13118     13117     13119         0         1
     13121     13120     13122         0         1
     13124     13123     13125         0         1
     13127     13126     13128         0         1
     13130     13129     13131         0         1
     13133     13132     13134         0         1
     13136     13135     13137         0         1
     13139     13138     13140         0         1
     13142     13141     13143         0         1
     13145     13144     13146         0         1
     13148     13147     13149         0         1
     13151     13150     13152         0         1
     13154     13153     13155         0         1
     13157     13156     13158         0         1
     13160     13159     13161         0         1
     13163     13162     13164         0         1
     13166     13165     13167         0         1
     13169     13168     13170         0         1
     13172     13171     13173         0         1
     13175     13174     13176         0         1
     13178     13177     13179         0         1
     13181     13180     13182         0         1
     13184     13183     13185         0         1
     13187     13186     13188         0         1
     13190     13189     13191         0         1
     13193     13192     13194         0         1
     13196     13195     13197         0         1
     13199     13198     13200         0         1
     13202     13201     13203         0         1
     13205     13204     13206         0         1
     13208     13207     13209         0         1
     13211     13210     13212         0         1
     13214     13213     13215         0         1
     13217     13216     13218         0         1
     13220     13219     13221         0         1
     13223     13222     13224         0         1
     13226     13225     13227         0         1
     13229     13228     13230         0         1
     13232     13231     13233         0         1
     13235     13234     13236         0         1
     13238     13237     13239         0         1
     13241     13240     13242         0         1
     13244     13243     13245         0         1
     13247     13246     13248         0         1
     13250     13249     13251         0         1
     13253     13252     13254         0         1
     13256     13255     13257         0         1
     13259     13258     13260         0         1
     13262     13261     13263         0         1
     13265     13264     13266         0         1
     13268     13267     13269         0         1
     13271     13270     13272         0         1
     13274     13273     13275         0         1
     13277     13276     13278         0         1
     13280     13279     13281         0         1
     13283     13282     13284         0         1
     13286     13285     13287         0         1
     13289     13288     13290         0         1
     13292     13291     13293         0         1
     13295     13294     13296         0         1
     13298     13297     13299         0         1
     13301     13300     13302         0         1
     13304     13303     13305         0         1
     13307     13306     13308         0         1
     13310     13309     13311         0         1
     13313     13312     13314         0         1
     13316     13315     13317         0         1
     13319     13318     13320         0         1
     13322     13321     13323         0         1
     13325     13324     13326         0         1
     13328     13327     13329         0         1
     13331     13330     13332         0         1
     13334     13333     13335         0         1
     13337     13336     13338         0         1
     13340     13339     13341         0         1
     13343     13342     13344         0         1
     13346     13345     13347         0         1
     13349     13348     13350         0         1
     13352     13351     13353         0         1
     13355     13354     13356         0         1
     13358     13357     13359         0         1
     13361     13360     13362         0         1
     13364     13363     13365         0         1
     13367     13366     13368         0         1
     13370     13369     13371         0         1
     13373     13372     13374         0         1
     13376     13375     13377         0         1
     13379     13378     13380         0         1
     13382     13381     13383         0         1
     13385     13384     13386         0         1
     13388     13387     13389         0         1
     13391     13390     13392         0         1
     13394     13393     13395         0         1
     13397     13396     13398         0         1
     13400     13399     13401         0         1
     13403     13402     13404         0         1
     13406     13405     13407         0         1
     13409     13408     13410         0         1
     13412     13411     13413         0         1
     13415     13414     13416         0         1
     13418     13417     13419         0         1
     13421     13420     13422         0         1
     13424     13423     13425         0         1
     13427     13426     13428         0         1
     13430     13429     13431         0         1
     13433     13432     13434         0         1
     13436     13435     13437         0         1
     13439     13438     13440         0         1
     13442     13441     13443         0         1
     13445     13444     13446         0         1
     13448     13447     13449         0         1
     13451     13450     13452         0         1
     13454     13453     13455         0         1
     13457     13456     13458         0         1
     13460     13459     13461         0         1
     13463     13462     13464         0         1
     13466     13465     13467         0         1
     13469     13468     13470         0         1
     13472     13471     13473         0         1
     13475     13474     13476         0         1
     13478     13477     13479         0         1
     13481     13480     13482         0         1
     13484     13483     13485         0         1
     13487     13486     13488         0         1
     13490     13489     13491         0         1
     13493     13492     13494         0         1
     13496     13495     13497         0         1
     13499     13498     13500         0         1
     13502     13501     13503         0         1
     13505     13504     13506         0         1
     13508     13507     13509         0         1
     13511     13510     13512         0         1
     13514     13513     13515         0         1
     13517     13516     13518         0         1
     13520     13519     13521         0         1
     13523     13522     13524         0         1
     13526     13525     13527         0         1
     13529     13528     13530         0         1
     13532     13531     13533         0         1
     13535     13534     13536         0         1
     13538     13537     13539         0         1
     13541     13540     13542         0         1
     13544     13543     13545         0         1
     13547     13546     13548         0         1
     13550     13549     13551         0         1
     13553     13552     13554         0         1
     13556     13555     13557         0         1
     13559     13558     13560         0         1
     13562     13561     13563         0         1
     13565     13564     13566         0         1
     13568     13567     13569         0         1
     13571     13570     13572         0         1
     13574     13573     13575         0         1
     13577     13576     13578         0         1
     13580     13579     13581         0         1
     13583     13582     13584         0         1
     13586     13585     13587         0         1
     13589     13588     13590         0         1
     13592     13591     13593         0         1
     13595     13594     13596         0         1
     13598     13597     13599         0         1
     13601     13600     13602         0         1
     13604     13603     13605         0         1
     13607     13606     13608         0         1
     13610     13609     13611         0         1
     13613     13612     13614         0         1
     13616     13615     13617         0         1
     13619     13618     13620         0         1
     13622     13621     13623         0         1
     13625     13624     13626         0         1
     13628     13627     13629         0         1
     13631     13630     13632         0         1
     13634     13633     13635         0         1
     13637     13636     13638         0         1
     13640     13639     13641         0         1
     13643     13642     13644         0         1
     13646     13645     13647         0         1
     13649     13648     13650         0         1
     13652     13651     13653         0         1
     13655     13654     13656         0         1
     13658     13657     13659         0         1
     13661     13660     13662         0         1
     13664     13663     13665         0         1
     13667     13666     13668         0         1
     13670     13669     13671         0         1
     13673     13672     13674         0         1
     13676     13675     13677         0         1
     13679     13678     13680         0         1
     13682     13681     13683         0         1
     13685     13684     13686         0         1
     13688     13687     13689         0         1
     13691     13690     13692         0         1
     13694     13693     13695         0         1
     13697     13696     13698         0         1
     13700     13699     13701         0         1
     13703     13702     13704         0         1
     13706     13705     13707         0         1
     13709     13708     13710         0         1
     13712     13711     13713         0         1
     13715     13714     13716         0         1
     13718     13717     13719         0         1
     13721     13720     13722         0         1
     13724     13723     13725         0         1
     13727     13726     13728         0         1
     13730     13729     13731         0         1
     13733     13732     13734         0         1
     13736     13735     13737         0         1
     13739     13738     13740         0         1
     13742     13741     13743         0         1
     13745     13744     13746         0         1
     13748     13747     13749         0         1
     13751     13750     13752         0         1
     13754     13753     13755         0         1
     13757     13756     13758         0         1
     13760     13759     13761         0         1
     13763     13762     13764         0         1
     13766     13765     13767         0         1
     13769     13768     13770         0         1
     13772     13771     13773         0         1
     13775     13774     13776         0         1
     13778     13777     13779         0         1
     13781     13780     13782         0         1
     13784     13783     13785         0         1
     13787     13786     13788         0         1
     13790     13789     13791         0         1
     13793     13792     13794         0         1
     13796     13795     13797         0         1
     13799     13798     13800         0         1
     13802     13801     13803         0         1
     13805     13804     13806         0         1
     13808     13807     13809         0         1
     13811     13810     13812         0         1
     13814     13813     13815         0         1
     13817     13816     13818         0         1
     13820     13819     13821         0         1
     13823     13822     13824         0         1
     13826     13825     13827         0         1
     13829     13828     13830         0         1
     13832     13831     13833         0         1
     13835     13834     13836         0         1
     13838     13837     13839         0         1
     13841     13840     13842         0         1
     13844     13843     13845         0         1
     13847     13846     13848         0         1
     13850     13849     13851         0         1
     13853     13852     13854         0         1
     13856     13855     13857         0         1
     13859     13858     13860         0         1
     13862     13861     13863         0         1
     13865     13864     13866         0         1
     13868     13867     13869         0         1
     13871     13870     13872         0         1
     13874     13873     13875         0         1
     13877     13876     13878         0         1
     13880     13879     13881         0         1
     13883     13882     13884         0         1
     13886     13885     13887         0         1
     13889     13888     13890         0         1
     13892     13891     13893         0         1
     13895     13894     13896         0         1
     13898     13897     13899         0         1
     13901     13900     13902         0         1
     13904     13903     13905         0         1
     13907     13906     13908         0         1
     13910     13909     13911         0         1
     13913     13912     13914         0         1
     13916     13915     13917         0         1
     13919     13918     13920         0         1
     13922     13921     13923         0         1
     13925     13924     13926         0         1
     13928     13927     13929         0         1
     13931     13930     13932         0         1
     13934     13933     13935         0         1
     13937     13936     13938         0         1
     13940     13939     13941         0         1
     13943     13942     13944         0         1
     13946     13945     13947         0         1
     13949     13948     13950         0         1
     13952     13951     13953         0         1
     13955     13954     13956         0         1
     13958     13957     13959         0         1
     13961     13960     13962         0         1
     13964     13963     13965         0         1
     13967     13966     13968         0         1
     13970     13969     13971         0         1
     13973     13972     13974         0         1
     13976     13975     13977         0         1
     13979     13978     13980         0         1
     13982     13981     13983         0         1
     13985     13984     13986         0         1
     13988     13987     13989         0         1
     13991     13990     13992         0         1
     13994     13993     13995         0         1
     13997     13996     13998         0         1
     14000     13999     14001         0         1
     14003     14002     14004         0         1
     14006     14005     14007         0         1
     14009     14008     14010         0         1
     14012     14011     14013         0         1
     14015     14014     14016         0         1
     14018     14017     14019         0         1
     14021     14020     14022         0         1
     14024     14023     14025         0         1
     14027     14026     14028         0         1
     14030     14029     14031         0         1
     14033     14032     14034         0         1
     14036     14035     14037         0         1
     14039     14038     14040         0         1
     14042     14041     14043         0         1
     14045     14044     14046         0         1
     14048     14047     14049         0         1
     14051     14050     14052         0         1
     14054     14053     14055         0         1
     14057     14056     14058         0         1
     14060     14059     14061         0         1
     14063     14062     14064         0         1
     14066     14065     14067         0         1
     14069     14068     14070         0         1
     14072     14071     14073         0         1
     14075     14074     14076         0         1
     14078     14077     14079         0         1
     14081     14080     14082         0         1
     14084     14083     14085         0         1
     14087     14086     14088         0         1
     14090     14089     14091         0         1
     14093     14092     14094         0         1
     14096     14095     14097         0         1
     14099     14098     14100         0         1
     14102     14101     14103         0         1
     14105     14104     14106         0         1
     14108     14107     14109         0         1
     14111     14110     14112         0         1
     14114     14113     14115         0         1
     14117     14116     14118         0         1
     14120     14119     14121         0         1
     14123     14122     14124         0         1
     14126     14125     14127         0         1
     14129     14128     14130         0         1
     14132     14131     14133         0         1
     14135     14134     14136         0         1
     14138     14137     14139         0         1
     14141     14140     14142         0         1
     14144     14143     14145         0         1
     14147     14146     14148         0         1
     14150     14149     14151         0         1
     14153     14152     14154         0         1
     14156     14155     14157         0         1
     14159     14158     14160         0         1
     14162     14161     14163         0         1
     14165     14164     14166         0         1
     14168     14167     14169         0         1
     14171     14170     14172         0         1
     14174     14173     14175         0         1
     14177     14176     14178         0         1
     14180     14179     14181         0         1
     14183     14182     14184         0         1
     14186     14185     14187         0         1
     14189     14188     14190         0         1
     14192     14191     14193         0         1
     14195     14194     14196         0         1
     14198     14197     14199         0         1
     14201     14200     14202         0         1
     14204     14203     14205         0         1
     14207     14206     14208         0         1
     14210     14209     14211         0         1
     14213     14212     14214         0         1
     14216     14215     14217         0         1
     14219     14218     14220         0         1
     14222     14221     14223         0         1
     14225     14224     14226         0         1
     14228     14227     14229         0         1
     14231     14230     14232         0         1
     14234     14233     14235         0         1
     14237     14236     14238         0         1
     14240     14239     14241         0         1
     14243     14242     14244         0         1
     14246     14245     14247         0         1
     14249     14248     14250         0         1
     14252     14251     14253         0         1
     14255     14254     14256         0         1
     14258     14257     14259         0         1
     14261     14260     14262         0         1
     14264     14263     14265         0         1
     14267     14266     14268         0         1
     14270     14269     14271         0         1
     14273     14272     14274         0         1
     14276     14275     14277         0         1
     14279     14278     14280         0         1
     14282     14281     14283         0         1
     14285     14284     14286         0         1
     14288     14287     14289         0         1
     14291     14290     14292         0         1
     14294     14293     14295         0         1
     14297     14296     14298         0         1
     14300     14299     14301         0         1
     14303     14302     14304         0         1
     14306     14305     14307         0         1
     14309     14308     14310         0         1
     14312     14311     14313         0         1
     14315     14314     14316         0         1
     14318     14317     14319         0         1
     14321     14320     14322         0         1
     14324     14323     14325         0         1
     14327     14326     14328         0         1
     14330     14329     14331         0         1
     14333     14332     14334         0         1
     14336     14335     14337         0         1
     14339     14338     14340         0         1
     14342     14341     14343         0         1
     14345     14344     14346         0         1
     14348     14347     14349         0         1
     14351     14350     14352         0         1
     14354     14353     14355         0         1
     14357     14356     14358         0         1
     14360     14359     14361         0         1
     14363     14362     14364         0         1
     14366     14365     14367         0         1
     14369     14368     14370         0         1
     14372     14371     14373         0         1
     14375     14374     14376         0         1
     14378     14377     14379         0         1
     14381     14380     14382         0         1
     14384     14383     14385         0         1
     14387     14386     14388         0         1
     14390     14389     14391         0         1
     14393     14392     14394         0         1
     14396     14395     14397         0         1
     14399     14398     14400         0         1
     14402     14401     14403         0         1
     14405     14404     14406         0         1
     14408     14407     14409         0         1
     14411     14410     14412         0         1
     14414     14413     14415         0         1
     14417     14416     14418         0         1
     14420     14419     14421         0         1
     14423     14422     14424         0         1
     14426     14425     14427         0         1
     14429     14428     14430         0         1
     14432     14431     14433         0         1
     14435     14434     14436         0         1
     14438     14437     14439         0         1
     14441     14440     14442         0         1
     14444     14443     14445         0         1
     14447     14446     14448         0         1
     14450     14449     14451         0         1
     14453     14452     14454         0         1
     14456     14455     14457         0         1
     14459     14458     14460         0         1
     14462     14461     14463         0         1
     14465     14464     14466         0         1
     14468     14467     14469         0         1
     14471     14470     14472         0         1
     14474     14473     14475         0         1
     14477     14476     14478         0         1
     14480     14479     14481         0         1
     14483     14482     14484         0         1
     14486     14485     14487         0         1
     14489     14488     14490         0         1
     14492     14491     14493         0         1
     14495     14494     14496         0         1
     14498     14497     14499         0         1
     14501     14500     14502         0         1
     14504     14503     14505         0         1
     14507     14506     14508         0         1
     14510     14509     14511         0         1
     14513     14512     14514         0         1
     14516     14515     14517         0         1
     14519     14518     14520         0         1
     14522     14521     14523         0         1
     14525     14524     14526         0         1
     14528     14527     14529         0         1
     14531     14530     14532         0         1
     14534     14533     14535         0         1
     14537     14536     14538         0         1
     14540     14539     14541         0         1
     14543     14542     14544         0         1
     14546     14545     14547         0         1
     14549     14548     14550         0         1
     14552     14551     14553         0         1
     14555     14554     14556         0         1
     14558     14557     14559         0         1
     14561     14560     14562         0         1
     14564     14563     14565         0         1
     14567     14566     14568         0         1
     14570     14569     14571         0         1
     14573     14572     14574         0         1
     14576     14575     14577         0         1
     14579     14578     14580         0         1
     14582     14581     14583         0         1
     14585     14584     14586         0         1
     14588     14587     14589         0         1
     14591     14590     14592         0         1
     14594     14593     14595         0         1
     14597     14596     14598         0         1
     14600     14599     14601         0         1
     14603     14602     14604         0         1
     14606     14605     14607         0         1
     14609     14608     14610         0         1
     14612     14611     14613         0         1
     14615     14614     14616         0         1
     14618     14617     14619         0         1
     14621     14620     14622         0         1
     14624     14623     14625         0         1
     14627     14626     14628         0         1
     14630     14629     14631         0         1
     14633     14632     14634         0         1
     14636     14635     14637         0         1
     14639     14638     14640         0         1
     14642     14641     14643         0         1
     14645     14644     14646         0         1
     14648     14647     14649         0         1
     14651     14650     14652         0         1
     14654     14653     14655         0         1
     14657     14656     14658         0         1
     14660     14659     14661         0         1
     14663     14662     14664         0         1
     14666     14665     14667         0         1
     14669     14668     14670         0         1
     14672     14671     14673         0         1
     14675     14674     14676         0         1
     14678     14677     14679         0         1
     14681     14680     14682         0         1
     14684     14683     14685         0         1
     14687     14686     14688         0         1
     14690     14689     14691         0         1
     14693     14692     14694         0         1
     14696     14695     14697         0         1
     14699     14698     14700         0         1
     14702     14701     14703         0         1
     14705     14704     14706         0         1
     14708     14707     14709         0         1
     14711     14710     14712         0         1
     14714     14713     14715         0         1
     14717     14716     14718         0         1
     14720     14719     14721         0         1
     14723     14722     14724         0         1
     14726     14725     14727         0         1
     14729     14728     14730         0         1
     14732     14731     14733         0         1
     14735     14734     14736         0         1
     14738     14737     14739         0         1
     14741     14740     14742         0         1
     14744     14743     14745         0         1
     14747     14746     14748         0         1
     14750     14749     14751         0         1
     14753     14752     14754         0         1
     14756     14755     14757         0         1
     14759     14758     14760         0         1
     14762     14761     14763         0         1
     14765     14764     14766         0         1
     14768     14767     14769         0         1
     14771     14770     14772         0         1
     14774     14773     14775         0         1
     14777     14776     14778         0         1
     14780     14779     14781         0         1
     14783     14782     14784         0         1
     14786     14785     14787         0         1
     14789     14788     14790         0         1
     14792     14791     14793         0         1
     14795     14794     14796         0         1
     14798     14797     14799         0         1
     14801     14800     14802         0         1
     14804     14803     14805         0         1
     14807     14806     14808         0         1
     14810     14809     14811         0         1
     14813     14812     14814         0         1
     14816     14815     14817         0         1
     14819     14818     14820         0         1
     14822     14821     14823         0         1
     14825     14824     14826         0         1
     14828     14827     14829         0         1
     14831     14830     14832         0         1
     14834     14833     14835         0         1
     14837     14836     14838         0         1
     14840     14839     14841         0         1
     14843     14842     14844         0         1
     14846     14845     14847         0         1
     14849     14848     14850         0         1
     14852     14851     14853         0         1
     14855     14854     14856         0         1
     14858     14857     14859         0         1
     14861     14860     14862         0         1
     14864     14863     14865         0         1
     14867     14866     14868         0         1
     14870     14869     14871         0         1
     14873     14872     14874         0         1
     14876     14875     14877         0         1
     14879     14878     14880         0         1
     14882     14881     14883         0         1
     14885     14884     14886         0         1
     14888     14887     14889         0         1
     14891     14890     14892         0         1
     14894     14893     14895         0         1
     14897     14896     14898         0         1
     14900     14899     14901         0         1
     14903     14902     14904         0         1
     14906     14905     14907         0         1
     14909     14908     14910         0         1
     14912     14911     14913         0         1
     14915     14914     14916         0         1
     14918     14917     14919         0         1
     14921     14920     14922         0         1
     14924     14923     14925         0         1
     14927     14926     14928         0         1
     14930     14929     14931         0         1
     14933     14932     14934         0         1
     14936     14935     14937         0         1
     14939     14938     14940         0         1
     14942     14941     14943         0         1
     14945     14944     14946         0         1
     14948     14947     14949         0         1
     14951     14950     14952         0         1
     14954     14953     14955         0         1
     14957     14956     14958         0         1
     14960     14959     14961         0         1
     14963     14962     14964         0         1
     14966     14965     14967         0         1
     14969     14968     14970         0         1
     14972     14971     14973         0         1
     14975     14974     14976         0         1
     14978     14977     14979         0         1
     14981     14980     14982         0         1
     14984     14983     14985         0         1
     14987     14986     14988         0         1
     14990     14989     14991         0         1
     14993     14992     14994         0         1
     14996     14995     14997         0         1
     14999     14998     15000         0         1
     15002     15001     15003         0         1
     15005     15004     15006         0         1
     15008     15007     15009         0         1
     15011     15010     15012         0         1
     15014     15013     15015         0         1
     15017     15016     15018         0         1
     15020     15019     15021         0         1
     15023     15022     15024         0         1
     15026     15025     15027         0         1
     15029     15028     15030         0         1
     15032     15031     15033         0         1
     15035     15034     15036         0         1
     15038     15037     15039         0         1
     15041     15040     15042         0         1
     15044     15043     15045         0         1
     15047     15046     15048         0         1
     15050     15049     15051         0         1
     15053     15052     15054         0         1
     15056     15055     15057         0         1
     15059     15058     15060         0         1
     15062     15061     15063         0         1
     15065     15064     15066         0         1
     15068     15067     15069         0         1
     15071     15070     15072         0         1
     15074     15073     15075         0         1
     15077     15076     15078         0         1
     15080     15079     15081         0         1
     15083     15082     15084         0         1
     15086     15085     15087         0         1
     15089     15088     15090         0         1
     15092     15091     15093         0         1
     15095     15094     15096         0         1
     15098     15097     15099         0         1
     15101     15100     15102         0         1
     15104     15103     15105         0         1
     15107     15106     15108         0         1
     15110     15109     15111         0         1
     15113     15112     15114         0         1
     15116     15115     15117         0         1
     15119     15118     15120         0         1
     15122     15121     15123         0         1
     15125     15124     15126         0         1
     15128     15127     15129         0         1
     15131     15130     15132         0         1
     15134     15133     15135         0         1
     15137     15136     15138         0         1
     15140     15139     15141         0         1
     15143     15142     15144         0         1
     15146     15145     15147         0         1
     15149     15148     15150         0         1
     15152     15151     15153         0         1
     15155     15154     15156         0         1
     15158     15157     15159         0         1
     15161     15160     15162         0         1
     15164     15163     15165         0         1
     15167     15166     15168         0         1
     15170     15169     15171         0         1
     15173     15172     15174         0         1
     15176     15175     15177         0         1
     15179     15178     15180         0         1
     15182     15181     15183         0         1
     15185     15184     15186         0         1
     15188     15187     15189         0         1
     15191     15190     15192         0         1
     15194     15193     15195         0         1
     15197     15196     15198         0         1
     15200     15199     15201         0         1
     15203     15202     15204         0         1
     15206     15205     15207         0         1
     15209     15208     15210         0         1
     15212     15211     15213         0         1
     15215     15214     15216         0         1
     15218     15217     15219         0         1
     15221     15220     15222         0         1
     15224     15223     15225         0         1
     15227     15226     15228         0         1
     15230     15229     15231         0         1
     15233     15232     15234         0         1
     15236     15235     15237         0         1
     15239     15238     15240         0         1
     15242     15241     15243         0         1
     15245     15244     15246         0         1
     15248     15247     15249         0         1
     15251     15250     15252         0         1
     15254     15253     15255         0         1
     15257     15256     15258         0         1
     15260     15259     15261         0         1
     15263     15262     15264         0         1
     15266     15265     15267         0         1
     15269     15268     15270         0         1
     15272     15271     15273         0         1
     15275     15274     15276         0         1
     15278     15277     15279         0         1
     15281     15280     15282         0         1
     15284     15283     15285         0         1
     15287     15286     15288         0         1
     15290     15289     15291         0         1
     15293     15292     15294         0         1
     15296     15295     15297         0         1
     15299     15298     15300         0         1
     15302     15301     15303         0         1
     15305     15304     15306         0         1
     15308     15307     15309         0         1
     15311     15310     15312         0         1
     15314     15313     15315         0         1
     15317     15316     15318         0         1
     15320     15319     15321         0         1
     15323     15322     15324         0         1
     15326     15325     15327         0         1
     15329     15328     15330         0         1
     15332     15331     15333         0         1
     15335     15334     15336         0         1
     15338     15337     15339         0         1
     15341     15340     15342         0         1
     15344     15343     15345         0         1
     15347     15346     15348         0         1
     15350     15349     15351         0         1
     15353     15352     15354         0         1
     15356     15355     15357         0         1
     15359     15358     15360         0         1
     15362     15361     15363         0         1
     15365     15364     15366         0         1
     15368     15367     15369         0         1
     15371     15370     15372         0         1
     15374     15373     15375         0         1
     15377     15376     15378         0         1
     15380     15379     15381         0         1
     15383     15382     15384         0         1
     15386     15385     15387         0         1
     15389     15388     15390         0         1
     15392     15391     15393         0         1
     15395     15394     15396         0         1
     15398     15397     15399         0         1
     15401     15400     15402         0         1
     15404     15403     15405         0         1
     15407     15406     15408         0         1
     15410     15409     15411         0         1
     15413     15412     15414         0         1
     15416     15415     15417         0         1
     15419     15418     15420         0         1
     15422     15421     15423         0         1
     15425     15424     15426         0         1
     15428     15427     15429         0         1
     15431     15430     15432         0         1
     15434     15433     15435         0         1
     15437     15436     15438         0         1
     15440     15439     15441         0         1
     15443     15442     15444         0         1
     15446     15445     15447         0         1
     15449     15448     15450         0         1
     15452     15451     15453         0         1
     15455     15454     15456         0         1
     15458     15457     15459         0         1
     15461     15460     15462         0         1
     15464     15463     15465         0         1
     15467     15466     15468         0         1
     15470     15469     15471         0         1
     15473     15472     15474         0         1
     15476     15475     15477         0         1
     15479     15478     15480         0         1
     15482     15481     15483         0         1
     15485     15484     15486         0         1
     15488     15487     15489         0         1
     15491     15490     15492         0         1
     15494     15493     15495         0         1
     15497     15496     15498         0         1
     15500     15499     15501         0         1
     15503     15502     15504         0         1
     15506     15505     15507         0         1
     15509     15508     15510         0         1
     15512     15511     15513         0         1
     15515     15514     15516         0         1
     15518     15517     15519         0         1
     15521     15520     15522         0         1
     15524     15523     15525         0         1
     15527     15526     15528         0         1
     15530     15529     15531         0         1
     15533     15532     15534         0         1
     15536     15535     15537         0         1
     15539     15538     15540         0         1
     15542     15541     15543         0         1
     15545     15544     15546         0         1
     15548     15547     15549         0         1
     15551     15550     15552         0         1
     15554     15553     15555         0         1
     15557     15556     15558         0         1
     15560     15559     15561         0         1
     15563     15562     15564         0         1
     15566     15565     15567         0         1
     15569     15568     15570         0         1
     15572     15571     15573         0         1
     15575     15574     15576         0         1
     15578     15577     15579         0         1
     15581     15580     15582         0         1
     15584     15583     15585         0         1
     15587     15586     15588         0         1
     15590     15589     15591         0         1
     15593     15592     15594         0         1
     15596     15595     15597         0         1
     15599     15598     15600         0         1
     15602     15601     15603         0         1
     15605     15604     15606         0         1
     15608     15607     15609         0         1
     15611     15610     15612         0         1
     15614     15613     15615         0         1
     15617     15616     15618         0         1
     15620     15619     15621         0         1
     15623     15622     15624         0         1
     15626     15625     15627         0         1
     15629     15628     15630         0         1
     15632     15631     15633         0         1
     15635     15634     15636         0         1
     15638     15637     15639         0         1
     15641     15640     15642         0         1
     15644     15643     15645         0         1
     15647     15646     15648         0         1
     15650     15649     15651         0         1
     15653     15652     15654         0         1
     15656     15655     15657         0         1
     15659     15658     15660         0         1
     15662     15661     15663         0         1
     15665     15664     15666         0         1
     15668     15667     15669         0         1
     15671     15670     15672         0         1
     15674     15673     15675         0         1
     15677     15676     15678         0         1
     15680     15679     15681         0         1
     15683     15682     15684         0         1
     15686     15685     15687         0         1
     15689     15688     15690         0         1
     15692     15691     15693         0         1
     15695     15694     15696         0         1
     15698     15697     15699         0         1
     15701     15700     15702         0         1
     15704     15703     15705         0         1
     15707     15706     15708         0         1
     15710     15709     15711         0         1
     15713     15712     15714         0         1
     15716     15715     15717         0         1
     15719     15718     15720         0         1
     15722     15721     15723         0         1
     15725     15724     15726         0         1
     15728     15727     15729         0         1
     15731     15730     15732         0         1
     15734     15733     15735         0         1
     15737     15736     15738         0         1
     15740     15739     15741         0         1
     15743     15742     15744         0         1
     15746     15745     15747         0         1
     15749     15748     15750         0         1
     15752     15751     15753         0         1
     15755     15754     15756         0         1
     15758     15757     15759         0         1
     15761     15760     15762         0         1
     15764     15763     15765         0         1
     15767     15766     15768         0         1
     15770     15769     15771         0         1
     15773     15772     15774         0         1
     15776     15775     15777         0         1
     15779     15778     15780         0         1
     15782     15781     15783         0         1
     15785     15784     15786         0         1
     15788     15787     15789         0         1
     15791     15790     15792         0         1
     15794     15793     15795         0         1
     15797     15796     15798         0         1
     15800     15799     15801         0         1
     15803     15802     15804         0         1
     15806     15805     15807         0         1
     15809     15808     15810         0         1
     15812     15811     15813         0         1
     15815     15814     15816         0         1
     15818     15817     15819         0         1
     15821     15820     15822         0         1
     15824     15823     15825         0         1
     15827     15826     15828         0         1
     15830     15829     15831         0         1
     15833     15832     15834         0         1
     15836     15835     15837         0         1
     15839     15838     15840         0         1
     15842     15841     15843         0         1
     15845     15844     15846         0         1
     15848     15847     15849         0         1
     15851     15850     15852         0         1
     15854     15853     15855         0         1
     15857     15856     15858         0         1
     15860     15859     15861         0         1
     15863     15862     15864         0         1
     15866     15865     15867         0         1
     15869     15868     15870         0         1
     15872     15871     15873         0         1
     15875     15874     15876         0         1
     15878     15877     15879         0         1
     15881     15880     15882         0         1
     15884     15883     15885         0         1
     15887     15886     15888         0         1
     15890     15889     15891         0         1
     15893     15892     15894         0         1
     15896     15895     15897         0         1
     15899     15898     15900         0         1
     15902     15901     15903         0         1
     15905     15904     15906         0         1
     15908     15907     15909         0         1
     15911     15910     15912         0         1
     15914     15913     15915         0         1
     15917     15916     15918         0         1
     15920     15919     15921         0         1
     15923     15922     15924         0         1
     15926     15925     15927         0         1
     15929     15928     15930         0         1
     15932     15931     15933         0         1
     15935     15934     15936         0         1
     15938     15937     15939         0         1
     15941     15940     15942         0         1
     15944     15943     15945         0         1
     15947     15946     15948         0         1
     15950     15949     15951         0         1
     15953     15952     15954         0         1
     15956     15955     15957         0         1
     15959     15958     15960         0         1
     15962     15961     15963         0         1
     15965     15964     15966         0         1
     15968     15967     15969         0         1
     15971     15970     15972         0         1
     15974     15973     15975         0         1
     15977     15976     15978         0         1
     15980     15979     15981         0         1
     15983     15982     15984         0         1
     15986     15985     15987         0         1
     15989     15988     15990         0         1
     15992     15991     15993         0         1
     15995     15994     15996         0         1
     15998     15997     15999         0         1
     16001     16000     16002         0         1
     16004     16003     16005         0         1
     16007     16006     16008         0         1
     16010     16009     16011         0         1
     16013     16012     16014         0         1
     16016     16015     16017         0         1
     16019     16018     16020         0         1
     16022     16021     16023         0         1
     16025     16024     16026         0         1
     16028     16027     16029         0         1
     16031     16030     16032         0         1
     16034     16033     16035         0         1
     16037     16036     16038         0         1
     16040     16039     16041         0         1
     16043     16042     16044         0         1
     16046     16045     16047         0         1
     16049     16048     16050         0         1
     16052     16051     16053         0         1
     16055     16054     16056         0         1
     16058     16057     16059         0         1
     16061     16060     16062         0         1
     16064     16063     16065         0         1
     16067     16066     16068         0         1
     16070     16069     16071         0         1
     16073     16072     16074         0         1
     16076     16075     16077         0         1
     16079     16078     16080         0         1
     16082     16081     16083         0         1
     16085     16084     16086         0         1
     16088     16087     16089         0         1
     16091     16090     16092         0         1
     16094     16093     16095         0         1
     16097     16096     16098         0         1
     16100     16099     16101         0         1
     16103     16102     16104         0         1
     16106     16105     16107         0         1
     16109     16108     16110         0         1
     16112     16111     16113         0         1
     16115     16114     16116         0         1
     16118     16117     16119         0         1
     16121     16120     16122         0         1
     16124     16123     16125         0         1
     16127     16126     16128         0         1
     16130     16129     16131         0         1
     16133     16132     16134         0         1
     16136     16135     16137         0         1
     16139     16138     16140         0         1
     16142     16141     16143         0         1
     16145     16144     16146         0         1
     16148     16147     16149         0         1
     16151     16150     16152         0         1
     16154     16153     16155         0         1
     16157     16156     16158         0         1
     16160     16159     16161         0         1
     16163     16162     16164         0         1
     16166     16165     16167         0         1
     16169     16168     16170         0         1
     16172     16171     16173         0         1
     16175     16174     16176         0         1
     16178     16177     16179         0         1
     16181     16180     16182         0         1
     16184     16183     16185         0         1
     16187     16186     16188         0         1
     16190     16189     16191         0         1
     16193     16192     16194         0         1
     16196     16195     16197         0         1
     16199     16198     16200         0         1
     16202     16201     16203         0         1
     16205     16204     16206         0         1
     16208     16207     16209         0         1
     16211     16210     16212         0         1
     16214     16213     16215         0         1
     16217     16216     16218         0         1
     16220     16219     16221         0         1
     16223     16222     16224         0         1
     16226     16225     16227         0         1
     16229     16228     16230         0         1
     16232     16231     16233         0         1
     16235     16234     16236         0         1
     16238     16237     16239         0         1
     16241     16240     16242         0         1
     16244     16243     16245         0         1
     16247     16246     16248         0         1
     16250     16249     16251         0         1
     16253     16252     16254         0         1
     16256     16255     16257         0         1
     16259     16258     16260         0         1
     16262     16261     16263         0         1
     16265     16264     16266         0         1
     16268     16267     16269         0         1
     16271     16270     16272         0         1
     16274     16273     16275         0         1
     16277     16276     16278         0         1
     16280     16279     16281         0         1
     16283     16282     16284         0         1
     16286     16285     16287         0         1
     16289     16288     16290         0         1
     16292     16291     16293         0         1
     16295     16294     16296         0         1
     16298     16297     16299         0         1
     16301     16300     16302         0         1
     16304     16303     16305         0         1
     16307     16306     16308         0         1
     16310     16309     16311         0         1
     16313     16312     16314         0         1
     16316     16315     16317         0         1
     16319     16318     16320         0         1
     16322     16321     16323         0         1
     16325     16324     16326         0         1
     16328     16327     16329         0         1
     16331     16330     16332         0         1
     16334     16333     16335         0         1
     16337     16336     16338         0         1
     16340     16339     16341         0         1
     16343     16342     16344         0         1
     16346     16345     16347         0         1
     16349     16348     16350         0         1
     16352     16351     16353         0         1
     16355     16354     16356         0         1
     16358     16357     16359         0         1
     16361     16360     16362         0         1
     16364     16363     16365         0         1
     16367     16366     16368         0         1
     16370     16369     16371         0         1
     16373     16372     16374         0         1
     16376     16375     16377         0         1
     16379     16378     16380         0         1
     16382     16381     16383         0         1
     16385     16384     16386         0         1
     16388     16387     16389         0         1
     16391     16390     16392         0         1
     16394     16393     16395         0         1
     16397     16396     16398         0         1
     16400     16399     16401         0         1
     16403     16402     16404         0         1
     16406     16405     16407         0         1
     16409     16408     16410         0         1
     16412     16411     16413         0         1
     16415     16414     16416         0         1
     16418     16417     16419         0         1
     16421     16420     16422         0         1
     16424     16423     16425         0         1
     16427     16426     16428         0         1
     16430     16429     16431         0         1
     16433     16432     16434         0         1
     16436     16435     16437         0         1
     16439     16438     16440         0         1
     16442     16441     16443         0         1
     16445     16444     16446         0         1
     16448     16447     16449         0         1
     16451     16450     16452         0         1
     16454     16453     16455         0         1
     16457     16456     16458         0         1
     16460     16459     16461         0         1
     16463     16462     16464         0         1
     16466     16465     16467         0         1
     16469     16468     16470         0         1
     16472     16471     16473         0         1
     16475     16474     16476         0         1
     16478     16477     16479         0         1
     16481     16480     16482         0         1
     16484     16483     16485         0         1
     16487     16486     16488         0         1
     16490     16489     16491         0         1
     16493     16492     16494         0         1
     16496     16495     16497         0         1
     16499     16498     16500         0         1
     16502     16501     16503         0         1
     16505     16504     16506         0         1
     16508     16507     16509         0         1
     16511     16510     16512         0         1
     16514     16513     16515         0         1
     16517     16516     16518         0         1
     16520     16519     16521         0         1
     16523     16522     16524         0         1
     16526     16525     16527         0         1
     16529     16528     16530         0         1
     16532     16531     16533         0         1
     16535     16534     16536         0         1
     16538     16537     16539         0         1
     16541     16540     16542         0         1
     16544     16543     16545         0         1
     16547     16546     16548         0         1
     16550     16549     16551         0         1
     16553     16552     16554         0         1
     16556     16555     16557         0         1
     16559     16558     16560         0         1
     16562     16561     16563         0         1
     16565     16564     16566         0         1
     16568     16567     16569         0         1
     16571     16570     16572         0         1
     16574     16573     16575         0         1
     16577     16576     16578         0         1
     16580     16579     16581         0         1
     16583     16582     16584         0         1
     16586     16585     16587         0         1
     16589     16588     16590         0         1
     16592     16591     16593         0         1
     16595     16594     16596         0         1
     16598     16597     16599         0         1
     16601     16600     16602         0         1
     16604     16603     16605         0         1
     16607     16606     16608         0         1
     16610     16609     16611         0         1
     16613     16612     16614         0         1
     16616     16615     16617         0         1
     16619     16618     16620         0         1
     16622     16621     16623         0         1
     16625     16624     16626         0         1
     16628     16627     16629         0         1
     16631     16630     16632         0         1
     16634     16633     16635         0         1
     16637     16636     16638         0         1
     16640     16639     16641         0         1
     16643     16642     16644         0         1
     16646     16645     16647         0         1
     16649     16648     16650         0         1
     16652     16651     16653         0         1
     16655     16654     16656         0         1
     16658     16657     16659         0         1
     16661     16660     16662         0         1
     16664     16663     16665         0         1
     16667     16666     16668         0         1
     16670     16669     16671         0         1
     16673     16672     16674         0         1
     16676     16675     16677         0         1
     16679     16678     16680         0         1
     16682     16681     16683         0         1
     16685     16684     16686         0         1
     16688     16687     16689         0         1
     16691     16690     16692         0         1
     16694     16693     16695         0         1
     16697     16696     16698         0         1
     16700     16699     16701         0         1
     16703     16702     16704         0         1
     16706     16705     16707         0         1
     16709     16708     16710         0         1
     16712     16711     16713         0         1
     16715     16714     16716         0         1
     16718     16717     16719         0         1
     16721     16720     16722         0         1
     16724     16723     16725         0         1
     16727     16726     16728         0         1
     16730     16729     16731         0         1
     16733     16732     16734         0         1
     16736     16735     16737         0         1
     16739     16738     16740         0         1
     16742     16741     16743         0         1
     16745     16744     16746         0         1
     16748     16747     16749         0         1
     16751     16750     16752         0         1
     16754     16753     16755         0         1
     16757     16756     16758         0         1
     16760     16759     16761         0         1
     16763     16762     16764         0         1
     16766     16765     16767         0         1
     16769     16768     16770         0         1
     16772     16771     16773         0         1
     16775     16774     16776         0         1
     16778     16777     16779         0         1
     16781     16780     16782         0         1
     16784     16783     16785         0         1
     16787     16786     16788         0         1
     16790     16789     16791         0         1
     16793     16792     16794         0         1
     16796     16795     16797         0         1
     16799     16798     16800         0         1
     16802     16801     16803         0         1
     16805     16804     16806         0         1
     16808     16807     16809         0         1
     16811     16810     16812         0         1
     16814     16813     16815         0         1
     16817     16816     16818         0         1
     16820     16819     16821         0         1
     16823     16822     16824         0         1
     16826     16825     16827         0         1
     16829     16828     16830         0         1
     16832     16831     16833         0         1
     16835     16834     16836         0         1
     16838     16837     16839         0         1
     16841     16840     16842         0         1
     16844     16843     16845         0         1
     16847     16846     16848         0         1
     16850     16849     16851         0         1
     16853     16852     16854         0         1
     16856     16855     16857         0         1
     16859     16858     16860         0         1
     16862     16861     16863         0         1
     16865     16864     16866         0         1
     16868     16867     16869         0         1
     16871     16870     16872         0         1
     16874     16873     16875         0         1
     16877     16876     16878         0         1
     16880     16879     16881         0         1
     16883     16882     16884         0         1
     16886     16885     16887         0         1
     16889     16888     16890         0         1
     16892     16891     16893         0         1
     16895     16894     16896         0         1
     16898     16897     16899         0         1
     16901     16900     16902         0         1
     16904     16903     16905         0         1
     16907     16906     16908         0         1
     16910     16909     16911         0         1
     16913     16912     16914         0         1
     16916     16915     16917         0         1
     16919     16918     16920         0         1
     16922     16921     16923         0         1
     16925     16924     16926         0         1
     16928     16927     16929         0         1
     16931     16930     16932         0         1
     16934     16933     16935         0         1
     16937     16936     16938         0         1
     16940     16939     16941         0         1
     16943     16942     16944         0         1
     16946     16945     16947         0         1
     16949     16948     16950         0         1
     16952     16951     16953         0         1
     16955     16954     16956         0         1
     16958     16957     16959         0         1
     16961     16960     16962         0         1
     16964     16963     16965         0         1
     16967     16966     16968         0         1
     16970     16969     16971         0         1
     16973     16972     16974         0         1
     16976     16975     16977         0         1
     16979     16978     16980         0         1
     16982     16981     16983         0         1
     16985     16984     16986         0         1
     16988     16987     16989         0         1
     16991     16990     16992         0         1
     16994     16993     16995         0         1
     16997     16996     16998         0         1
     17000     16999     17001         0         1
     17003     17002     17004         0         1
     17006     17005     17007         0         1
     17009     17008     17010         0         1
     17012     17011     17013         0         1
     17015     17014     17016         0         1
     17018     17017     17019         0         1
     17021     17020     17022         0         1
     17024     17023     17025         0         1
     17027     17026     17028         0         1
     17030     17029     17031         0         1
     17033     17032     17034         0         1
     17036     17035     17037         0         1
     17039     17038     17040         0         1
     17042     17041     17043         0         1
     17045     17044     17046         0         1
     17048     17047     17049         0         1
     17051     17050     17052         0         1
     17054     17053     17055         0         1
     17057     17056     17058         0         1
     17060     17059     17061         0         1
     17063     17062     17064         0         1
     17066     17065     17067         0         1
     17069     17068     17070         0         1
     17072     17071     17073         0         1
     17075     17074     17076         0         1
     17078     17077     17079         0         1
     17081     17080     17082         0         1
     17084     17083     17085         0         1
     17087     17086     17088         0         1
     17090     17089     17091         0         1
     17093     17092     17094         0         1
     17096     17095     17097         0         1
     17099     17098     17100         0         1
     17102     17101     17103         0         1
     17105     17104     17106         0         1
     17108     17107     17109         0         1
     17111     17110     17112         0         1
     17114     17113     17115         0         1
     17117     17116     17118         0         1
     17120     17119     17121         0         1
     17123     17122     17124         0         1
     17126     17125     17127         0         1
     17129     17128     17130         0         1
     17132     17131     17133         0         1
     17135     17134     17136         0         1
     17138     17137     17139         0         1
     17141     17140     17142         0         1
     17144     17143     17145         0         1
     17147     17146     17148         0         1
     17150     17149     17151         0         1
     17153     17152     17154         0         1
     17156     17155     17157         0         1
     17159     17158     17160         0         1
     17162     17161     17163         0         1
     17165     17164     17166         0         1
     17168     17167     17169         0         1
     17171     17170     17172         0         1
     17174     17173     17175         0         1
     17177     17176     17178         0         1
     17180     17179     17181         0         1
     17183     17182     17184         0         1
     17186     17185     17187         0         1
     17189     17188     17190         0         1
     17192     17191     17193         0         1
     17195     17194     17196         0         1
     17198     17197     17199         0         1
     17201     17200     17202         0         1
     17204     17203     17205         0         1
     17207     17206     17208         0         1
     17210     17209     17211         0         1
     17213     17212     17214         0         1
     17216     17215     17217         0         1
     17219     17218     17220         0         1
     17222     17221     17223         0         1
     17225     17224     17226         0         1
     17228     17227     17229         0         1
     17231     17230     17232         0         1
     17234     17233     17235         0         1
     17237     17236     17238         0         1
     17240     17239     17241         0         1
     17243     17242     17244         0         1
     17246     17245     17247         0         1
     17249     17248     17250         0         1
     17252     17251     17253         0         1
     17255     17254     17256         0         1
     17258     17257     17259         0         1
     17261     17260     17262         0         1
     17264     17263     17265         0         1
     17267     17266     17268         0         1
     17270     17269     17271         0         1
     17273     17272     17274         0         1
     17276     17275     17277         0         1
     17279     17278     17280         0         1
     17282     17281     17283         0         1
     17285     17284     17286         0         1
     17288     17287     17289         0         1
     17291     17290     17292         0         1
     17294     17293     17295         0         1
     17297     17296     17298         0         1
     17300     17299     17301         0         1
     17303     17302     17304         0         1
     17306     17305     17307         0         1
     17309     17308     17310         0         1
     17312     17311     17313         0         1
     17315     17314     17316         0         1
     17318     17317     17319         0         1
     17321     17320     17322         0         1
     17324     17323     17325         0         1
     17327     17326     17328         0         1
     17330     17329     17331         0         1
     17333     17332     17334         0         1
     17336     17335     17337         0         1
     17339     17338     17340         0         1
     17342     17341     17343         0         1
     17345     17344     17346         0         1
     17348     17347     17349         0         1
     17351     17350     17352         0         1
     17354     17353     17355         0         1
     17357     17356     17358         0         1
     17360     17359     17361         0         1
     17363     17362     17364         0         1
     17366     17365     17367         0         1
     17369     17368     17370         0         1
     17372     17371     17373         0         1
     17375     17374     17376         0         1
     17378     17377     17379         0         1
     17381     17380     17382         0         1
     17384     17383     17385         0         1
     17387     17386     17388         0         1
     17390     17389     17391         0         1
     17393     17392     17394         0         1
     17396     17395     17397         0         1
     17399     17398     17400         0         1
     17402     17401     17403         0         1
     17405     17404     17406         0         1
     17408     17407     17409         0         1
     17411     17410     17412         0         1
     17414     17413     17415         0         1
     17417     17416     17418         0         1
     17420     17419     17421         0         1
     17423     17422     17424         0         1
     17426     17425     17427         0         1
     17429     17428     17430         0         1
     17432     17431     17433         0         1
     17435     17434     17436         0         1
     17438     17437     17439         0         1
     17441     17440     17442         0         1
     17444     17443     17445         0         1
     17447     17446     17448         0         1
     17450     17449     17451         0         1
     17453     17452     17454         0         1
     17456     17455     17457         0         1
     17459     17458     17460         0         1
     17462     17461     17463         0         1
     17465     17464     17466         0         1
     17468     17467     17469         0         1
     17471     17470     17472         0         1
     17474     17473     17475         0         1
     17477     17476     17478         0         1
     17480     17479     17481         0         1
     17483     17482     17484         0         1
     17486     17485     17487         0         1
     17489     17488     17490         0         1
     17492     17491     17493         0         1
     17495     17494     17496         0         1
     17498     17497     17499         0         1
     17501     17500     17502         0         1
     17504     17503     17505         0         1
     17507     17506     17508         0         1
     17510     17509     17511         0         1
     17513     17512     17514         0         1
     17516     17515     17517         0         1
     17519     17518     17520         0         1
     17522     17521     17523         0         1
     17525     17524     17526         0         1
     17528     17527     17529         0         1
     17531     17530     17532         0         1
     17534     17533     17535         0         1
     17537     17536     17538         0         1
     17540     17539     17541         0         1
     17543     17542     17544         0         1
     17546     17545     17547         0         1
     17549     17548     17550         0         1
     17552     17551     17553         0         1
     17555     17554     17556         0         1
     17558     17557     17559         0         1
     17561     17560     17562         0         1
     17564     17563     17565         0         1
     17567     17566     17568         0         1
     17570     17569     17571         0         1
     17573     17572     17574         0         1
     17576     17575     17577         0         1
     17579     17578     17580         0         1
     17582     17581     17583         0         1
     17585     17584     17586         0         1
     17588     17587     17589         0         1
     17591     17590     17592         0         1
     17594     17593     17595         0         1
     17597     17596     17598         0         1
     17600     17599     17601         0         1
     17603     17602     17604         0         1
     17606     17605     17607         0         1
     17609     17608     17610         0         1
     17612     17611     17613         0         1
     17615     17614     17616         0         1
     17618     17617     17619         0         1
     17621     17620     17622         0         1
     17624     17623     17625         0         1
     17627     17626     17628         0         1
     17630     17629     17631         0         1
     17633     17632     17634         0         1
     17636     17635     17637         0         1
     17639     17638     17640         0         1
     17642     17641     17643         0         1
     17645     17644     17646         0         1
     17648     17647     17649         0         1
     17651     17650     17652         0         1
     17654     17653     17655         0         1
     17657     17656     17658         0         1
     17660     17659     17661         0         1
     17663     17662     17664         0         1
     17666     17665     17667         0         1
     17669     17668     17670         0         1
     17672     17671     17673         0         1
     17675     17674     17676         0         1
     17678     17677     17679         0         1
     17681     17680     17682         0         1
     17684     17683     17685         0         1
     17687     17686     17688         0         1
     17690     17689     17691         0         1
     17693     17692     17694         0         1
     17696     17695     17697         0         1
     17699     17698     17700         0         1
     17702     17701     17703         0         1
     17705     17704     17706         0         1
     17708     17707     17709         0         1
     17711     17710     17712         0         1
     17714     17713     17715         0         1
     17717     17716     17718         0         1
     17720     17719     17721         0         1
     17723     17722     17724         0         1
     17726     17725     17727         0         1
     17729     17728     17730         0         1
     17732     17731     17733         0         1
     17735     17734     17736         0         1
     17738     17737     17739         0         1
     17741     17740     17742         0         1
     17744     17743     17745         0         1
     17747     17746     17748         0         1
     17750     17749     17751         0         1
     17753     17752     17754         0         1
     17756     17755     17757         0         1
     17759     17758     17760         0         1
     17762     17761     17763         0         1
     17765     17764     17766         0         1
     17768     17767     17769         0         1
     17771     17770     17772         0         1
     17774     17773     17775         0         1
     17777     17776     17778         0         1
     17780     17779     17781         0         1
     17783     17782     17784         0         1
     17786     17785     17787         0         1
     17789     17788     17790         0         1
     17792     17791     17793         0         1
     17795     17794     17796         0         1
     17798     17797     17799         0         1
     17801     17800     17802         0         1
     17804     17803     17805         0         1
     17807     17806     17808         0         1
     17810     17809     17811         0         1
     17813     17812     17814         0         1
     17816     17815     17817         0         1
     17819     17818     17820         0         1
     17822     17821     17823         0         1
     17825     17824     17826         0         1
     17828     17827     17829         0         1
     17831     17830     17832         0         1
     17834     17833     17835         0         1
     17837     17836     17838         0         1
     17840     17839     17841         0         1
     17843     17842     17844         0         1
     17846     17845     17847         0         1
     17849     17848     17850         0         1
     17852     17851     17853         0         1
     17855     17854     17856         0         1
     17858     17857     17859         0         1
     17861     17860     17862         0         1
     17864     17863     17865         0         1
     17867     17866     17868         0         1
     17870     17869     17871         0         1
     17873     17872     17874         0         1
     17876     17875     17877         0         1
     17879     17878     17880         0         1
     17882     17881     17883         0         1
     17885     17884     17886         0         1
     17888     17887     17889         0         1
     17891     17890     17892         0         1
     17894     17893     17895         0         1
     17897     17896     17898         0         1
     17900     17899     17901         0         1
     17903     17902     17904         0         1
     17906     17905     17907         0         1
     17909     17908     17910         0         1
     17912     17911     17913         0         1
     17915     17914     17916         0         1
     17918     17917     17919         0         1
     17921     17920     17922         0         1
     17924     17923     17925         0         1
     17927     17926     17928         0         1
     17930     17929     17931         0         1
     17933     17932     17934         0         1
     17936     17935     17937         0         1
     17939     17938     17940         0         1
     17942     17941     17943         0         1
     17945     17944     17946         0         1
     17948     17947     17949         0         1
     17951     17950     17952         0         1
     17954     17953     17955         0         1
     17957     17956     17958         0         1
     17960     17959     17961         0         1
     17963     17962     17964         0         1
     17966     17965     17967         0         1
     17969     17968     17970         0         1
     17972     17971     17973         0         1
     17975     17974     17976         0         1
     17978     17977     17979         0         1
     17981     17980     17982         0         1
     17984     17983     17985         0         1
     17987     17986     17988         0         1
     17990     17989     17991         0         1
     17993     17992     17994         0         1
     17996     17995     17997         0         1
     17999     17998     18000         0         1
     18002     18001     18003         0         1
     18005     18004     18006         0         1
     18008     18007     18009         0         1
     18011     18010     18012         0         1
     18014     18013     18015         0         1
     18017     18016     18018         0         1
     18020     18019     18021         0         1
     18023     18022     18024         0         1
     18026     18025     18027         0         1
     18029     18028     18030         0         1
     18032     18031     18033         0         1
     18035     18034     18036         0         1
     18038     18037     18039         0         1
     18041     18040     18042         0         1
     18044     18043     18045         0         1
     18047     18046     18048         0         1
     18050     18049     18051         0         1
     18053     18052     18054         0         1
     18056     18055     18057         0         1
     18059     18058     18060         0         1
     18062     18061     18063         0         1
     18065     18064     18066         0         1
     18068     18067     18069         0         1
     18071     18070     18072         0         1
     18074     18073     18075         0         1
     18077     18076     18078         0         1
     18080     18079     18081         0         1
     18083     18082     18084         0         1
     18086     18085     18087         0         1
     18089     18088     18090         0         1
     18092     18091     18093         0         1
     18095     18094     18096         0         1
     18098     18097     18099         0         1
     18101     18100     18102         0         1
     18104     18103     18105         0         1
     18107     18106     18108         0         1
     18110     18109     18111         0         1
     18113     18112     18114         0         1
     18116     18115     18117         0         1
     18119     18118     18120         0         1
     18122     18121     18123         0         1
     18125     18124     18126         0         1
     18128     18127     18129         0         1
     18131     18130     18132         0         1
     18134     18133     18135         0         1
     18137     18136     18138         0         1
     18140     18139     18141         0         1
     18143     18142     18144         0         1
     18146     18145     18147         0         1
     18149     18148     18150         0         1
     18152     18151     18153         0         1
     18155     18154     18156         0         1
     18158     18157     18159         0         1
     18161     18160     18162         0         1
     18164     18163     18165         0         1
     18167     18166     18168         0         1
     18170     18169     18171         0         1
     18173     18172     18174         0         1
     18176     18175     18177         0         1
     18179     18178     18180         0         1
     18182     18181     18183         0         1
     18185     18184     18186         0         1
     18188     18187     18189         0         1
     18191     18190     18192         0         1
     18194     18193     18195         0         1
     18197     18196     18198         0         1
     18200     18199     18201         0         1
     18203     18202     18204         0         1
     18206     18205     18207         0         1
     18209     18208     18210         0         1
     18212     18211     18213         0         1
     18215     18214     18216         0         1
     18218     18217     18219         0         1
     18221     18220     18222         0         1
     18224     18223     18225         0         1
     18227     18226     18228         0         1
     18230     18229     18231         0         1
     18233     18232     18234         0         1
     18236     18235     18237         0         1
     18239     18238     18240         0         1
     18242     18241     18243         0         1
     18245     18244     18246         0         1
     18248     18247     18249         0         1
     18251     18250     18252         0         1
     18254     18253     18255         0         1
     18257     18256     18258         0         1
     18260     18259     18261         0         1
     18263     18262     18264         0         1
     18266     18265     18267         0         1
     18269     18268     18270         0         1
     18272     18271     18273         0         1
     18275     18274     18276         0         1
     18278     18277     18279         0         1
     18281     18280     18282         0         1
     18284     18283     18285         0         1
     18287     18286     18288         0         1
     18290     18289     18291         0         1
     18293     18292     18294         0         1
     18296     18295     18297         0         1
     18299     18298     18300         0         1
     18302     18301     18303         0         1
     18305     18304     18306         0         1
     18308     18307     18309         0         1
     18311     18310     18312         0         1
     18314     18313     18315         0         1
     18317     18316     18318         0         1
     18320     18319     18321         0         1
     18323     18322     18324         0         1
     18326     18325     18327         0         1
     18329     18328     18330         0         1
     18332     18331     18333         0         1
     18335     18334     18336         0         1
     18338     18337     18339         0         1
     18341     18340     18342         0         1
     18344     18343     18345         0         1
     18347     18346     18348         0         1
     18350     18349     18351         0         1
     18353     18352     18354         0         1
     18356     18355     18357         0         1
     18359     18358     18360         0         1
     18362     18361     18363         0         1
     18365     18364     18366         0         1
     18368     18367     18369         0         1
     18371     18370     18372         0         1
     18374     18373     18375         0         1
     18377     18376     18378         0         1
     18380     18379     18381         0         1
     18383     18382     18384         0         1
     18386     18385     18387         0         1
     18389     18388     18390         0         1
     18392     18391     18393         0         1
     18395     18394     18396         0         1
     18398     18397     18399         0         1
     18401     18400     18402         0         1
     18404     18403     18405         0         1
     18407     18406     18408         0         1
     18410     18409     18411         0         1
     18413     18412     18414         0         1
     18416     18415     18417         0         1
     18419     18418     18420         0         1
     18422     18421     18423         0         1
     18425     18424     18426         0         1
     18428     18427     18429         0         1
     18431     18430     18432         0         1
     18434     18433     18435         0         1
     18437     18436     18438         0         1
     18440     18439     18441         0         1
     18443     18442     18444         0         1
     18446     18445     18447         0         1
     18449     18448     18450         0         1
     18452     18451     18453         0         1
     18455     18454     18456         0         1
     18458     18457     18459         0         1
     18461     18460     18462         0         1
     18464     18463     18465         0         1
     18467     18466     18468         0         1
     18470     18469     18471         0         1
     18473     18472     18474         0         1
     18476     18475     18477         0         1
     18479     18478     18480         0         1
     18482     18481     18483         0         1
     18485     18484     18486         0         1
     18488     18487     18489         0         1
     18491     18490     18492         0         1
     18494     18493     18495         0         1
     18497     18496     18498         0         1
     18500     18499     18501         0         1
     18503     18502     18504         0         1
     18506     18505     18507         0         1
     18509     18508     18510         0         1
     18512     18511     18513         0         1
     18515     18514     18516         0         1
     18518     18517     18519         0         1
     18521     18520     18522         0         1
     18524     18523     18525         0         1
     18527     18526     18528         0         1
     18530     18529     18531         0         1
     18533     18532     18534         0         1
     18536     18535     18537         0         1
     18539     18538     18540         0         1
     18542     18541     18543         0         1
     18545     18544     18546         0         1
     18548     18547     18549         0         1
     18551     18550     18552         0         1
     18554     18553     18555         0         1
     18557     18556     18558         0         1
     18560     18559     18561         0         1
     18563     18562     18564         0         1
     18566     18565     18567         0         1
     18569     18568     18570         0         1
     18572     18571     18573         0         1
     18575     18574     18576         0         1
     18578     18577     18579         0         1
     18581     18580     18582         0         1
     18584     18583     18585         0         1
     18587     18586     18588         0         1
     18590     18589     18591         0         1
     18593     18592     18594         0         1
     18596     18595     18597         0         1
     18599     18598     18600         0         1
     18602     18601     18603         0         1
     18605     18604     18606         0         1
     18608     18607     18609         0         1
     18611     18610     18612         0         1
     18614     18613     18615         0         1
     18617     18616     18618         0         1
     18620     18619     18621         0         1
     18623     18622     18624         0         1
     18626     18625     18627         0         1
     18629     18628     18630         0         1
     18632     18631     18633         0         1
     18635     18634     18636         0         1
     18638     18637     18639         0         1
     18641     18640     18642         0         1
     18644     18643     18645         0         1
     18647     18646     18648         0         1
     18650     18649     18651         0         1
     18653     18652     18654         0         1
     18656     18655     18657         0         1
     18659     18658     18660         0         1
     18662     18661     18663         0         1
     18665     18664     18666         0         1
     18668     18667     18669         0         1
     18671     18670     18672         0         1
     18674     18673     18675         0         1
     18677     18676     18678         0         1
     18680     18679     18681         0         1
     18683     18682     18684         0         1
     18686     18685     18687         0         1
     18689     18688     18690         0         1
     18692     18691     18693         0         1
     18695     18694     18696         0         1
     18698     18697     18699         0         1
     18701     18700     18702         0         1
     18704     18703     18705         0         1
     18707     18706     18708         0         1
     18710     18709     18711         0         1
     18713     18712     18714         0         1
     18716     18715     18717         0         1
     18719     18718     18720         0         1
     18722     18721     18723         0         1
     18725     18724     18726         0         1
     18728     18727     18729         0         1
     18731     18730     18732         0         1
     18734     18733     18735         0         1
     18737     18736     18738         0         1
     18740     18739     18741         0         1
     18743     18742     18744         0         1
     18746     18745     18747         0         1
     18749     18748     18750         0         1
     18752     18751     18753         0         1
     18755     18754     18756         0         1
     18758     18757     18759         0         1
     18761     18760     18762         0         1
     18764     18763     18765         0         1
     18767     18766     18768         0         1
     18770     18769     18771         0         1
     18773     18772     18774         0         1
     18776     18775     18777         0         1
     18779     18778     18780         0         1
     18782     18781     18783         0         1
     18785     18784     18786         0         1
     18788     18787     18789         0         1
     18791     18790     18792         0         1
     18794     18793     18795         0         1
     18797     18796     18798         0         1
     18800     18799     18801         0         1
     18803     18802     18804         0         1
     18806     18805     18807         0         1
     18809     18808     18810         0         1
     18812     18811     18813         0         1
     18815     18814     18816         0         1
     18818     18817     18819         0         1
     18821     18820     18822         0         1
     18824     18823     18825         0         1
     18827     18826     18828         0         1
     18830     18829     18831         0         1
     18833     18832     18834         0         1
     18836     18835     18837         0         1
     18839     18838     18840         0         1
     18842     18841     18843         0         1
     18845     18844     18846         0         1
     18848     18847     18849         0         1
     18851     18850     18852         0         1
     18854     18853     18855         0         1
     18857     18856     18858         0         1
     18860     18859     18861         0         1
     18863     18862     18864         0         1
     18866     18865     18867         0         1
     18869     18868     18870         0         1
     18872     18871     18873         0         1
     18875     18874     18876         0         1
     18878     18877     18879         0         1
     18881     18880     18882         0         1
     18884     18883     18885         0         1
     18887     18886     18888         0         1
     18890     18889     18891         0         1
     18893     18892     18894         0         1
     18896     18895     18897         0         1
     18899     18898     18900         0         1
     18902     18901     18903         0         1
     18905     18904     18906         0         1
     18908     18907     18909         0         1
     18911     18910     18912         0         1
     18914     18913     18915         0         1
     18917     18916     18918         0         1
     18920     18919     18921         0         1
     18923     18922     18924         0         1
     18926     18925     18927         0         1
     18929     18928     18930         0         1
     18932     18931     18933         0         1
     18935     18934     18936         0         1
     18938     18937     18939         0         1
     18941     18940     18942         0         1
     18944     18943     18945         0         1
     18947     18946     18948         0         1
     18950     18949     18951         0         1
     18953     18952     18954         0         1
     18956     18955     18957         0         1
     18959     18958     18960         0         1
     18962     18961     18963         0         1
     18965     18964     18966         0         1
     18968     18967     18969         0         1
     18971     18970     18972         0         1
     18974     18973     18975         0         1
     18977     18976     18978         0         1
     18980     18979     18981         0         1
     18983     18982     18984         0         1
     18986     18985     18987         0         1
     18989     18988     18990         0         1
     18992     18991     18993         0         1
     18995     18994     18996         0         1
     18998     18997     18999         0         1
     19001     19000     19002         0         1
     19004     19003     19005         0         1
     19007     19006     19008         0         1
     19010     19009     19011         0         1
     19013     19012     19014         0         1
     19016     19015     19017         0         1
     19019     19018     19020         0         1
     19022     19021     19023         0         1
     19025     19024     19026         0         1
     19028     19027     19029         0         1
     19031     19030     19032         0         1
     19034     19033     19035         0         1
     19037     19036     19038         0         1
     19040     19039     19041         0         1
     19043     19042     19044         0         1
     19046     19045     19047         0         1
     19049     19048     19050         0         1
     19052     19051     19053         0         1
     19055     19054     19056         0         1
     19058     19057     19059         0         1
     19061     19060     19062         0         1
     19064     19063     19065         0         1
     19067     19066     19068         0         1
     19070     19069     19071         0         1
     19073     19072     19074         0         1
     19076     19075     19077         0         1
     19079     19078     19080         0         1
     19082     19081     19083         0         1
     19085     19084     19086         0         1
     19088     19087     19089         0         1
     19091     19090     19092         0         1
     19094     19093     19095         0         1
     19097     19096     19098         0         1
     19100     19099     19101         0         1
     19103     19102     19104         0         1
     19106     19105     19107         0         1
     19109     19108     19110         0         1
     19112     19111     19113         0         1
     19115     19114     19116         0         1
     19118     19117     19119         0         1
     19121     19120     19122         0         1
     19124     19123     19125         0         1
     19127     19126     19128         0         1
     19130     19129     19131         0         1
     19133     19132     19134         0         1
     19136     19135     19137         0         1
     19139     19138     19140         0         1
     19142     19141     19143         0         1
     19145     19144     19146         0         1
     19148     19147     19149         0         1
     19151     19150     19152         0         1
     19154     19153     19155         0         1
     19157     19156     19158         0         1
     19160     19159     19161         0         1
     19163     19162     19164         0         1
     19166     19165     19167         0         1
     19169     19168     19170         0         1
     19172     19171     19173         0         1
     19175     19174     19176         0         1
     19178     19177     19179         0         1
     19181     19180     19182         0         1
     19184     19183     19185         0         1
     19187     19186     19188         0         1
     19190     19189     19191         0         1
     19193     19192     19194         0         1
     19196     19195     19197         0         1
     19199     19198     19200         0         1
     19202     19201     19203         0         1
     19205     19204     19206         0         1
     19208     19207     19209         0         1
     19211     19210     19212         0         1
     19214     19213     19215         0         1
     19217     19216     19218         0         1
     19220     19219     19221         0         1
     19223     19222     19224         0         1
     19226     19225     19227         0         1
     19229     19228     19230         0         1
     19232     19231     19233         0         1
     19235     19234     19236         0         1
     19238     19237     19239         0         1
     19241     19240     19242         0         1
     19244     19243     19245         0         1
     19247     19246     19248         0         1
     19250     19249     19251         0         1
     19253     19252     19254         0         1
     19256     19255     19257         0         1
     19259     19258     19260         0         1
     19262     19261     19263         0         1
     19265     19264     19266         0         1
     19268     19267     19269         0         1
     19271     19270     19272         0         1
     19274     19273     19275         0         1
     19277     19276     19278         0         1
     19280     19279     19281         0         1
     19283     19282     19284         0         1
     19286     19285     19287         0         1
     19289     19288     19290         0         1
     19292     19291     19293         0         1
     19295     19294     19296         0         1
     19298     19297     19299         0         1
     19301     19300     19302         0         1
     19304     19303     19305         0         1
     19307     19306     19308         0         1
     19310     19309     19311         0         1
     19313     19312     19314         0         1
     19316     19315     19317         0         1
     19319     19318     19320         0         1
     19322     19321     19323         0         1
     19325     19324     19326         0         1
     19328     19327     19329         0         1
     19331     19330     19332         0         1
     19334     19333     19335         0         1
     19337     19336     19338         0         1
     19340     19339     19341         0         1
     19343     19342     19344         0         1
     19346     19345     19347         0         1
     19349     19348     19350         0         1
     19352     19351     19353         0         1
     19355     19354     19356         0         1
     19358     19357     19359         0         1
     19361     19360     19362         0         1
     19364     19363     19365         0         1
     19367     19366     19368         0         1
     19370     19369     19371         0         1
     19373     19372     19374         0         1
     19376     19375     19377         0         1
     19379     19378     19380         0         1
     19382     19381     19383         0         1
     19385     19384     19386         0         1
     19388     19387     19389         0         1
     19391     19390     19392         0         1
     19394     19393     19395         0         1
     19397     19396     19398         0         1
     19400     19399     19401         0         1
     19403     19402     19404         0         1
     19406     19405     19407         0         1
     19409     19408     19410         0         1
     19412     19411     19413         0         1
     19415     19414     19416         0         1
     19418     19417     19419         0         1
     19421     19420     19422         0         1
     19424     19423     19425         0         1
     19427     19426     19428         0         1
     19430     19429     19431         0         1
     19433     19432     19434         0         1
     19436     19435     19437         0         1
     19439     19438     19440         0         1
     19442     19441     19443         0         1
     19445     19444     19446         0         1
     19448     19447     19449         0         1
     19451     19450     19452         0         1
     19454     19453     19455         0         1
     19457     19456     19458         0         1
     19460     19459     19461         0         1
     19463     19462     19464         0         1
     19466     19465     19467         0         1
     19469     19468     19470         0         1
     19472     19471     19473         0         1
     19475     19474     19476         0         1
     19478     19477     19479         0         1
     19481     19480     19482         0         1
     19484     19483     19485         0         1
     19487     19486     19488         0         1
     19490     19489     19491         0         1
     19493     19492     19494         0         1
     19496     19495     19497         0         1
     19499     19498     19500         0         1
     19502     19501     19503         0         1
     19505     19504     19506         0         1
     19508     19507     19509         0         1
     19511     19510     19512         0         1
     19514     19513     19515         0         1
     19517     19516     19518         0         1
     19520     19519     19521         0         1
     19523     19522     19524         0         1
     19526     19525     19527         0         1
     19529     19528     19530         0         1
     19532     19531     19533         0         1
     19535     19534     19536         0         1
     19538     19537     19539         0         1
     19541     19540     19542         0         1
     19544     19543     19545         0         1
     19547     19546     19548         0         1
     19550     19549     19551         0         1
     19553     19552     19554         0         1
     19556     19555     19557         0         1
     19559     19558     19560         0         1
     19562     19561     19563         0         1
     19565     19564     19566         0         1
     19568     19567     19569         0         1
     19571     19570     19572         0         1
     19574     19573     19575         0         1
     19577     19576     19578         0         1
     19580     19579     19581         0         1
     19583     19582     19584         0         1
     19586     19585     19587         0         1
     19589     19588     19590         0         1
     19592     19591     19593         0         1
     19595     19594     19596         0         1
     19598     19597     19599         0         1
     19601     19600     19602         0         1
     19604     19603     19605         0         1
     19607     19606     19608         0         1
     19610     19609     19611         0         1
     19613     19612     19614         0         1
     19616     19615     19617         0         1
     19619     19618     19620         0         1
     19622     19621     19623         0         1
     19625     19624     19626         0         1
     19628     19627     19629         0         1
     19631     19630     19632         0         1
     19634     19633     19635         0         1
     19637     19636     19638         0         1
     19640     19639     19641         0         1
     19643     19642     19644         0         1
     19646     19645     19647         0         1
     19649     19648     19650         0         1
     19652     19651     19653         0         1
     19655     19654     19656         0         1
     19658     19657     19659         0         1
     19661     19660     19662         0         1
     19664     19663     19665         0         1
     19667     19666     19668         0         1
     19670     19669     19671         0         1
     19673     19672     19674         0         1
     19676     19675     19677         0         1
     19679     19678     19680         0         1
     19682     19681     19683         0         1
     19685     19684     19686         0         1
     19688     19687     19689         0         1
     19691     19690     19692         0         1
     19694     19693     19695         0         1
     19697     19696     19698         0         1
     19700     19699     19701         0         1
     19703     19702     19704         0         1
     19706     19705     19707         0         1
     19709     19708     19710         0         1
     19712     19711     19713         0         1
     19715     19714     19716         0         1
     19718     19717     19719         0         1
     19721     19720     19722         0         1
     19724     19723     19725         0         1
     19727     19726     19728         0         1
     19730     19729     19731         0         1
     19733     19732     19734         0         1
     19736     19735     19737         0         1
     19739     19738     19740         0         1
     19742     19741     19743         0         1
     19745     19744     19746         0         1
     19748     19747     19749         0         1
     19751     19750     19752         0         1
     19754     19753     19755         0         1
     19757     19756     19758         0         1
     19760     19759     19761         0         1
     19763     19762     19764         0         1
     19766     19765     19767         0         1
     19769     19768     19770         0         1
     19772     19771     19773         0         1
     19775     19774     19776         0         1
     19778     19777     19779         0         1
     19781     19780     19782         0         1
     19784     19783     19785         0         1
     19787     19786     19788         0         1
     19790     19789     19791         0         1
     19793     19792     19794         0         1
     19796     19795     19797         0         1
     19799     19798     19800         0         1
     19802     19801     19803         0         1
     19805     19804     19806         0         1
     19808     19807     19809         0         1
     19811     19810     19812         0         1
     19814     19813     19815         0         1
     19817     19816     19818         0         1
     19820     19819     19821         0         1
     19823     19822     19824         0         1
     19826     19825     19827         0         1
     19829     19828     19830         0         1
     19832     19831     19833         0         1
     19835     19834     19836         0         1
     19838     19837     19839         0         1
     19841     19840     19842         0         1
     19844     19843     19845         0         1
     19847     19846     19848         0         1
     19850     19849     19851         0         1
     19853     19852     19854         0         1
     19856     19855     19857         0         1
     19859     19858     19860         0         1
     19862     19861     19863         0         1
     19865     19864     19866         0         1
     19868     19867     19869         0         1
     19871     19870     19872         0         1
     19874     19873     19875         0         1
     19877     19876     19878         0         1
     19880     19879     19881         0         1
     19883     19882     19884         0         1
     19886     19885     19887         0         1
     19889     19888     19890         0         1
     19892     19891     19893         0         1
     19895     19894     19896         0         1
     19898     19897     19899         0         1
     19901     19900     19902         0         1
     19904     19903     19905         0         1
     19907     19906     19908         0         1
     19910     19909     19911         0         1
     19913     19912     19914         0         1
     19916     19915     19917         0         1
     19919     19918     19920         0         1
     19922     19921     19923         0         1
     19925     19924     19926         0         1
     19928     19927     19929         0         1
     19931     19930     19932         0         1
     19934     19933     19935         0         1
     19937     19936     19938         0         1
     19940     19939     19941         0         1
     19943     19942     19944         0         1
     19946     19945     19947         0         1
     19949     19948     19950         0         1
     19952     19951     19953         0         1
     19955     19954     19956         0         1
     19958     19957     19959         0         1
     19961     19960     19962         0         1
     19964     19963     19965         0         1
     19967     19966     19968         0         1
     19970     19969     19971         0         1
     19973     19972     19974         0         1
     19976     19975     19977         0         1
     19979     19978     19980         0         1
     19982     19981     19983         0         1
     19985     19984     19986         0         1
     19988     19987     19989         0         1
     19991     19990     19992         0         1
     19994     19993     19995         0         1
     19997     19996     19998         0         1
     20000     19999     20001         0         1
     20003     20002     20004         0         1
     20006     20005     20007         0         1
     20009     20008     20010         0         1
     20012     20011     20013         0         1
     20015     20014     20016         0         1
     20018     20017     20019         0         1
     20021     20020     20022         0         1
     20024     20023     20025         0         1
     20027     20026     20028         0         1
     20030     20029     20031         0         1
     20033     20032     20034         0         1
     20036     20035     20037         0         1
     20039     20038     20040         0         1
     20042     20041     20043         0         1
     20045     20044     20046         0         1
     20048     20047     20049         0         1
     20051     20050     20052         0         1
     20054     20053     20055         0         1
     20057     20056     20058         0         1
     20060     20059     20061         0         1
     20063     20062     20064         0         1
     20066     20065     20067         0         1
     20069     20068     20070         0         1
     20072     20071     20073         0         1
     20075     20074     20076         0         1
     20078     20077     20079         0         1
     20081     20080     20082         0         1
     20084     20083     20085         0         1
     20087     20086     20088         0         1
     20090     20089     20091         0         1
     20093     20092     20094         0         1
     20096     20095     20097         0         1
     20099     20098     20100         0         1
     20102     20101     20103         0         1
     20105     20104     20106         0         1
     20108     20107     20109         0         1
     20111     20110     20112         0         1
     20114     20113     20115         0         1
     20117     20116     20118         0         1
     20120     20119     20121         0         1
     20123     20122     20124         0         1
     20126     20125     20127         0         1
     20129     20128     20130         0         1
     20132     20131     20133         0         1
     20135     20134     20136         0         1
     20138     20137     20139         0         1
     20141     20140     20142         0         1
     20144     20143     20145         0         1
     20147     20146     20148         0         1
     20150     20149     20151         0         1
     20153     20152     20154         0         1
     20156     20155     20157         0         1
     20159     20158     20160         0         1
     20162     20161     20163         0         1
     20165     20164     20166         0         1
     20168     20167     20169         0         1
     20171     20170     20172         0         1
     20174     20173     20175         0         1
     20177     20176     20178         0         1
     20180     20179     20181         0         1
     20183     20182     20184         0         1
     20186     20185     20187         0         1
     20189     20188     20190         0         1
     20192     20191     20193         0         1
     20195     20194     20196         0         1
     20198     20197     20199         0         1
     20201     20200     20202         0         1
     20204     20203     20205         0         1
     20207     20206     20208         0         1
     20210     20209     20211         0         1
     20213     20212     20214         0         1
     20216     20215     20217         0         1
     20219     20218     20220         0         1
     20222     20221     20223         0         1
     20225     20224     20226         0         1
     20228     20227     20229         0         1
     20231     20230     20232         0         1
     20234     20233     20235         0         1
     20237     20236     20238         0         1
     20240     20239     20241         0         1
     20243     20242     20244         0         1
     20246     20245     20247         0         1
     20249     20248     20250         0         1
     20252     20251     20253         0         1
     20255     20254     20256         0         1
     20258     20257     20259         0         1
     20261     20260     20262         0         1
     20264     20263     20265         0         1
     20267     20266     20268         0         1
     20270     20269     20271         0         1
     20273     20272     20274         0         1
     20276     20275     20277         0         1
     20279     20278     20280         0         1
     20282     20281     20283         0         1
     20285     20284     20286         0         1
     20288     20287     20289         0         1
     20291     20290     20292         0         1
     20294     20293     20295         0         1
     20297     20296     20298         0         1
     20300     20299     20301         0         1
     20303     20302     20304         0         1
     20306     20305     20307         0         1
     20309     20308     20310         0         1
     20312     20311     20313         0         1
     20315     20314     20316         0         1
     20318     20317     20319         0         1
     20321     20320     20322         0         1
     20324     20323     20325         0         1
     20327     20326     20328         0         1
     20330     20329     20331         0         1
     20333     20332     20334         0         1
     20336     20335     20337         0         1
     20339     20338     20340         0         1
     20342     20341     20343         0         1
     20345     20344     20346         0         1
     20348     20347     20349         0         1
     20351     20350     20352         0         1
     20354     20353     20355         0         1
     20357     20356     20358         0         1
     20360     20359     20361         0         1
     20363     20362     20364         0         1
     20366     20365     20367         0         1
     20369     20368     20370         0         1
     20372     20371     20373         0         1
     20375     20374     20376         0         1
     20378     20377     20379         0         1
     20381     20380     20382         0         1
     20384     20383     20385         0         1
     20387     20386     20388         0         1
     20390     20389     20391         0         1
     20393     20392     20394         0         1
     20396     20395     20397         0         1
     20399     20398     20400         0         1
     20402     20401     20403         0         1
     20405     20404     20406         0         1
     20408     20407     20409         0         1
     20411     20410     20412         0         1
     20414     20413     20415         0         1
     20417     20416     20418         0         1
     20420     20419     20421         0         1
     20423     20422     20424         0         1
     20426     20425     20427         0         1
     20429     20428     20430         0         1
     20432     20431     20433         0         1
     20435     20434     20436         0         1
     20438     20437     20439         0         1
     20441     20440     20442         0         1
     20444     20443     20445         0         1
     20447     20446     20448         0         1
     20450     20449     20451         0         1
     20453     20452     20454         0         1
     20456     20455     20457         0         1
     20459     20458     20460         0         1
     20462     20461     20463         0         1
     20465     20464     20466         0         1
     20468     20467     20469         0         1
     20471     20470     20472         0         1
     20474     20473     20475         0         1
     20477     20476     20478         0         1
     20480     20479     20481         0         1
     20483     20482     20484         0         1
     20486     20485     20487         0         1
     20489     20488     20490         0         1
     20492     20491     20493         0         1
     20495     20494     20496         0         1
     20498     20497     20499         0         1
     20501     20500     20502         0         1
     20504     20503     20505         0         1
     20507     20506     20508         0         1
     20510     20509     20511         0         1
     20513     20512     20514         0         1
     20516     20515     20517         0         1
     20519     20518     20520         0         1
     20522     20521     20523         0         1
     20525     20524     20526         0         1
     20528     20527     20529         0         1
     20531     20530     20532         0         1
     20534     20533     20535         0         1
     20537     20536     20538         0         1
     20540     20539     20541         0         1
     20543     20542     20544         0         1
     20546     20545     20547         0         1
     20549     20548     20550         0         1
     20552     20551     20553         0         1
     20555     20554     20556         0         1
     20558     20557     20559         0         1
     20561     20560     20562         0         1
     20564     20563     20565         0         1
     20567     20566     20568         0         1
     20570     20569     20571         0         1
     20573     20572     20574         0         1
     20576     20575     20577         0         1
     20579     20578     20580         0         1
     20582     20581     20583         0         1
     20585     20584     20586         0         1
     20588     20587     20589         0         1
     20591     20590     20592         0         1
     20594     20593     20595         0         1
     20597     20596     20598         0         1
     20600     20599     20601         0         1
     20603     20602     20604         0         1
     20606     20605     20607         0         1
     20609     20608     20610         0         1
     20612     20611     20613         0         1
     20615     20614     20616         0         1
     20618     20617     20619         0         1
     20621     20620     20622         0         1
     20624     20623     20625         0         1
     20627     20626     20628         0         1
     20630     20629     20631         0         1
     20633     20632     20634         0         1
     20636     20635     20637         0         1
     20639     20638     20640         0         1
     20642     20641     20643         0         1
     20645     20644     20646         0         1
     20648     20647     20649         0         1
     20651     20650     20652         0         1
     20654     20653     20655         0         1
     20657     20656     20658         0         1
     20660     20659     20661         0         1
     20663     20662     20664         0         1
     20666     20665     20667         0         1
     20669     20668     20670         0         1
     20672     20671     20673         0         1
     20675     20674     20676         0         1
     20678     20677     20679         0         1
     20681     20680     20682         0         1
     20684     20683     20685         0         1
     20687     20686     20688         0         1
     20690     20689     20691         0         1
     20693     20692     20694         0         1
     20696     20695     20697         0         1
     20699     20698     20700         0         1
     20702     20701     20703         0         1
     20705     20704     20706         0         1
     20708     20707     20709         0         1
     20711     20710     20712         0         1
     20714     20713     20715         0         1
     20717     20716     20718         0         1
     20720     20719     20721         0         1
     20723     20722     20724         0         1
     20726     20725     20727         0         1
     20729     20728     20730         0         1
     20732     20731     20733         0         1
     20735     20734     20736         0         1
     20738     20737     20739         0         1
     20741     20740     20742         0         1
     20744     20743     20745         0         1
     20747     20746     20748         0         1
     20750     20749     20751         0         1
     20753     20752     20754         0         1
     20756     20755     20757         0         1
     20759     20758     20760         0         1
     20762     20761     20763         0         1
     20765     20764     20766         0         1
     20768     20767     20769         0         1
     20771     20770     20772         0         1
     20774     20773     20775         0         1
     20777     20776     20778         0         1
     20780     20779     20781         0         1
     20783     20782     20784         0         1
     20786     20785     20787         0         1
     20789     20788     20790         0         1
     20792     20791     20793         0         1
     20795     20794     20796         0         1
     20798     20797     20799         0         1
     20801     20800     20802         0         1
     20804     20803     20805         0         1
     20807     20806     20808         0         1
     20810     20809     20811         0         1
     20813     20812     20814         0         1
     20816     20815     20817         0         1
     20819     20818     20820         0         1
     20822     20821     20823         0         1
     20825     20824     20826         0         1
     20828     20827     20829         0         1
     20831     20830     20832         0         1
     20834     20833     20835         0         1
     20837     20836     20838         0         1
     20840     20839     20841         0         1
     20843     20842     20844         0         1
     20846     20845     20847         0         1
     20849     20848     20850         0         1
     20852     20851     20853         0         1
     20855     20854     20856         0         1
     20858     20857     20859         0         1
     20861     20860     20862         0         1
     20864     20863     20865         0         1
     20867     20866     20868         0         1
     20870     20869     20871         0         1
     20873     20872     20874         0         1
     20876     20875     20877         0         1
     20879     20878     20880         0         1
     20882     20881     20883         0         1
     20885     20884     20886         0         1
     20888     20887     20889         0         1
     20891     20890     20892         0         1
     20894     20893     20895         0         1
     20897     20896     20898         0         1
     20900     20899     20901         0         1
     20903     20902     20904         0         1
     20906     20905     20907         0         1
     20909     20908     20910         0         1
     20912     20911     20913         0         1
     20915     20914     20916         0         1
     20918     20917     20919         0         1
     20921     20920     20922         0         1
     20924     20923     20925         0         1
     20927     20926     20928         0         1
     20930     20929     20931         0         1
     20933     20932     20934         0         1
     20936     20935     20937         0         1
     20939     20938     20940         0         1
     20942     20941     20943         0         1
     20945     20944     20946         0         1
     20948     20947     20949         0         1
     20951     20950     20952         0         1
     20954     20953     20955         0         1
     20957     20956     20958         0         1
     20960     20959     20961         0         1
     20963     20962     20964         0         1
     20966     20965     20967         0         1
     20969     20968     20970         0         1
     20972     20971     20973         0         1
     20975     20974     20976         0         1
     20978     20977     20979         0         1
     20981     20980     20982         0         1
     20984     20983     20985         0         1
     20987     20986     20988         0         1
     20990     20989     20991         0         1
     20993     20992     20994         0         1
     20996     20995     20997         0         1
     20999     20998     21000         0         1
     21002     21001     21003         0         1
     21005     21004     21006         0         1
     21008     21007     21009         0         1
     21011     21010     21012         0         1
     21014     21013     21015         0         1
     21017     21016     21018         0         1
     21020     21019     21021         0         1
     21023     21022     21024         0         1
     21026     21025     21027         0         1
     21029     21028     21030         0         1
     21032     21031     21033         0         1
     21035     21034     21036         0         1
     21038     21037     21039         0         1
     21041     21040     21042         0         1
     21044     21043     21045         0         1
     21047     21046     21048         0         1
     21050     21049     21051         0         1
     21053     21052     21054         0         1
     21056     21055     21057         0         1
     21059     21058     21060         0         1
     21062     21061     21063         0         1
     21065     21064     21066         0         1
     21068     21067     21069         0         1
     21071     21070     21072         0         1
     21074     21073     21075         0         1
     21077     21076     21078         0         1
     21080     21079     21081         0         1
     21083     21082     21084         0         1
     21086     21085     21087         0         1
     21089     21088     21090         0         1
     21092     21091     21093         0         1
     21095     21094     21096         0         1
     21098     21097     21099         0         1
     21101     21100     21102         0         1
     21104     21103     21105         0         1
     21107     21106     21108         0         1
     21110     21109     21111         0         1
     21113     21112     21114         0         1
     21116     21115     21117         0         1
     21119     21118     21120         0         1
     21122     21121     21123         0         1
     21125     21124     21126         0         1
     21128     21127     21129         0         1
     21131     21130     21132         0         1
     21134     21133     21135         0         1
     21137     21136     21138         0         1
     21140     21139     21141         0         1
     21143     21142     21144         0         1
     21146     21145     21147         0         1
     21149     21148     21150         0         1
     21152     21151     21153         0         1
     21155     21154     21156         0         1
     21158     21157     21159         0         1
     21161     21160     21162         0         1
     21164     21163     21165         0         1
     21167     21166     21168         0         1
     21170     21169     21171         0         1
     21173     21172     21174         0         1
     21176     21175     21177         0         1
     21179     21178     21180         0         1
     21182     21181     21183         0         1
     21185     21184     21186         0         1
     21188     21187     21189         0         1
     21191     21190     21192         0         1
     21194     21193     21195         0         1
     21197     21196     21198         0         1
     21200     21199     21201         0         1
     21203     21202     21204         0         1
     21206     21205     21207         0         1
     21209     21208     21210         0         1
     21212     21211     21213         0         1
     21215     21214     21216         0         1
     21218     21217     21219         0         1
     21221     21220     21222         0         1
     21224     21223     21225         0         1
     21227     21226     21228         0         1
     21230     21229     21231         0         1
     21233     21232     21234         0         1
     21236     21235     21237         0         1
     21239     21238     21240         0         1
     21242     21241     21243         0         1
     21245     21244     21246         0         1
     21248     21247     21249         0         1
     21251     21250     21252         0         1
     21254     21253     21255         0         1
     21257     21256     21258         0         1
     21260     21259     21261         0         1
     21263     21262     21264         0         1
     21266     21265     21267         0         1
     21269     21268     21270         0         1
     21272     21271     21273         0         1
     21275     21274     21276         0         1
     21278     21277     21279         0         1
     21281     21280     21282         0         1
     21284     21283     21285         0         1
     21287     21286     21288         0         1
     21290     21289     21291         0         1
     21293     21292     21294         0         1
     21296     21295     21297         0         1
     21299     21298     21300         0         1
     21302     21301     21303         0         1
     21305     21304     21306         0         1
     21308     21307     21309         0         1
     21311     21310     21312         0         1
     21314     21313     21315         0         1
     21317     21316     21318         0         1
     21320     21319     21321         0         1
     21323     21322     21324         0         1
     21326     21325     21327         0         1
     21329     21328     21330         0         1
     21332     21331     21333         0         1
     21335     21334     21336         0         1
     21338     21337     21339         0         1
     21341     21340     21342         0         1
     21344     21343     21345         0         1
     21347     21346     21348         0         1
     21350     21349     21351         0         1
     21353     21352     21354         0         1
     21356     21355     21357         0         1
     21359     21358     21360         0         1
     21362     21361     21363         0         1
     21365     21364     21366         0         1
     21368     21367     21369         0         1
     21371     21370     21372         0         1
     21374     21373     21375         0         1
     21377     21376     21378         0         1
     21380     21379     21381         0         1
     21383     21382     21384         0         1
     21386     21385     21387         0         1
     21389     21388     21390         0         1
     21392     21391     21393         0         1
     21395     21394     21396         0         1
     21398     21397     21399         0         1
     21401     21400     21402         0         1
     21404     21403     21405         0         1
     21407     21406     21408         0         1
     21410     21409     21411         0         1
     21413     21412     21414         0         1
     21416     21415     21417         0         1
     21419     21418     21420         0         1
     21422     21421     21423         0         1
     21425     21424     21426         0         1
     21428     21427     21429         0         1
     21431     21430     21432         0         1
     21434     21433     21435         0         1
     21437     21436     21438         0         1
     21440     21439     21441         0         1
     21443     21442     21444         0         1
     21446     21445     21447         0         1
     21449     21448     21450         0         1
     21452     21451     21453         0         1
     21455     21454     21456         0         1
     21458     21457     21459         0         1
     21461     21460     21462         0         1
     21464     21463     21465         0         1
     21467     21466     21468         0         1
     21470     21469     21471         0         1
     21473     21472     21474         0         1
     21476     21475     21477         0         1
     21479     21478     21480         0         1
     21482     21481     21483         0         1
     21485     21484     21486         0         1
     21488     21487     21489         0         1
     21491     21490     21492         0         1
     21494     21493     21495         0         1
     21497     21496     21498         0         1
     21500     21499     21501         0         1
     21503     21502     21504         0         1
     21506     21505     21507         0         1
     21509     21508     21510         0         1
     21512     21511     21513         0         1
     21515     21514     21516         0         1
     21518     21517     21519         0         1
     21521     21520     21522         0         1
     21524     21523     21525         0         1
     21527     21526     21528         0         1
     21530     21529     21531         0         1
     21533     21532     21534         0         1
     21536     21535     21537         0         1
     21539     21538     21540         0         1
     21542     21541     21543         0         1
     21545     21544     21546         0         1
     21548     21547     21549         0         1
     21551     21550     21552         0         1
     21554     21553     21555         0         1
     21557     21556     21558         0         1
     21560     21559     21561         0         1
     21563     21562     21564         0         1
     21566     21565     21567         0         1
     21569     21568     21570         0         1
     21572     21571     21573         0         1
     21575     21574     21576         0         1
     21578     21577     21579         0         1
     21581     21580     21582         0         1
     21584     21583     21585         0         1
     21587     21586     21588         0         1
     21590     21589     21591         0         1
     21593     21592     21594         0         1
     21596     21595     21597         0         1
     21599     21598     21600         0         1
     21602     21601     21603         0         1
     21605     21604     21606         0         1
     21608     21607     21609         0         1
     21611     21610     21612         0         1
     21614     21613     21615         0         1
     21617     21616     21618         0         1
     21620     21619     21621         0         1
     21623     21622     21624         0         1
     21626     21625     21627         0         1
     21629     21628     21630         0         1
     21632     21631     21633         0         1
     21635     21634     21636         0         1
     21638     21637     21639         0         1
     21641     21640     21642         0         1
     21644     21643     21645         0         1
     21647     21646     21648         0         1
     21650     21649     21651         0         1
     21653     21652     21654         0         1
     21656     21655     21657         0         1
     21659     21658     21660         0         1
     21662     21661     21663         0         1
     21665     21664     21666         0         1
     21668     21667     21669         0         1
     21671     21670     21672         0         1
     21674     21673     21675         0         1
     21677     21676     21678         0         1
     21680     21679     21681         0         1
     21683     21682     21684         0         1
     21686     21685     21687         0         1
     21689     21688     21690         0         1
     21692     21691     21693         0         1
     21695     21694     21696         0         1
     21698     21697     21699         0         1
     21701     21700     21702         0         1
     21704     21703     21705         0         1
     21707     21706     21708         0         1
     21710     21709     21711         0         1
     21713     21712     21714         0         1
     21716     21715     21717         0         1
     21719     21718     21720         0         1
     21722     21721     21723         0         1
     21725     21724     21726         0         1
     21728     21727     21729         0         1
     21731     21730     21732         0         1
     21734     21733     21735         0         1
     21737     21736     21738         0         1
     21740     21739     21741         0         1
     21743     21742     21744         0         1
     21746     21745     21747         0         1
     21749     21748     21750         0         1
     21752     21751     21753         0         1
     21755     21754     21756         0         1
     21758     21757     21759         0         1
     21761     21760     21762         0         1
     21764     21763     21765         0         1
     21767     21766     21768         0         1
     21770     21769     21771         0         1
     21773     21772     21774         0         1
     21776     21775     21777         0         1
     21779     21778     21780         0         1
     21782     21781     21783         0         1
     21785     21784     21786         0         1
     21788     21787     21789         0         1
     21791     21790     21792         0         1
     21794     21793     21795         0         1
     21797     21796     21798         0         1
     21800     21799     21801         0         1
     21803     21802     21804         0         1
     21806     21805     21807         0         1
     21809     21808     21810         0         1
     21812     21811     21813         0         1
     21815     21814     21816         0         1
     21818     21817     21819         0         1
     21821     21820     21822         0         1
     21824     21823     21825         0         1
     21827     21826     21828         0         1
     21830     21829     21831         0         1
     21833     21832     21834         0         1
     21836     21835     21837         0         1
     21839     21838     21840         0         1
     21842     21841     21843         0         1
     21845     21844     21846         0         1
     21848     21847     21849         0         1
     21851     21850     21852         0         1
     21854     21853     21855         0         1
     21857     21856     21858         0         1
     21860     21859     21861         0         1
     21863     21862     21864         0         1
     21866     21865     21867         0         1
     21869     21868     21870         0         1
     21872     21871     21873         0         1
     21875     21874     21876         0         1
     21878     21877     21879         0         1
     21881     21880     21882         0         1
     21884     21883     21885         0         1
     21887     21886     21888         0         1
     21890     21889     21891         0         1
     21893     21892     21894         0         1
     21896     21895     21897         0         1
     21899     21898     21900         0         1
     21902     21901     21903         0         1
     21905     21904     21906         0         1
     21908     21907     21909         0         1
     21911     21910     21912         0         1
     21914     21913     21915         0         1
     21917     21916     21918         0         1
     21920     21919     21921         0         1
     21923     21922     21924         0         1
     21926     21925     21927         0         1
     21929     21928     21930         0         1
     21932     21931     21933         0         1
     21935     21934     21936         0         1
     21938     21937     21939         0         1
     21941     21940     21942         0         1
     21944     21943     21945         0         1
     21947     21946     21948         0         1
     21950     21949     21951         0         1
     21953     21952     21954         0         1
     21956     21955     21957         0         1
     21959     21958     21960         0         1
     21962     21961     21963         0         1
     21965     21964     21966         0         1
     21968     21967     21969         0         1
     21971     21970     21972         0         1
     21974     21973     21975         0         1
     21977     21976     21978         0         1
     21980     21979     21981         0         1
     21983     21982     21984         0         1
     21986     21985     21987         0         1
     21989     21988     21990         0         1
     21992     21991     21993         0         1
     21995     21994     21996         0         1
     21998     21997     21999         0         1
     22001     22000     22002         0         1
     22004     22003     22005         0         1
     22007     22006     22008         0         1
     22010     22009     22011         0         1
     22013     22012     22014         0         1
     22016     22015     22017         0         1
     22019     22018     22020         0         1
     22022     22021     22023         0         1
     22025     22024     22026         0         1
     22028     22027     22029         0         1
     22031     22030     22032         0         1
     22034     22033     22035         0         1
     22037     22036     22038         0         1
     22040     22039     22041         0         1
     22043     22042     22044         0         1
     22046     22045     22047         0         1
     22049     22048     22050         0         1
     22052     22051     22053         0         1
     22055     22054     22056         0         1
     22058     22057     22059         0         1
     22061     22060     22062         0         1
     22064     22063     22065         0         1
     22067     22066     22068         0         1
     22070     22069     22071         0         1
     22073     22072     22074         0         1
     22076     22075     22077         0         1
     22079     22078     22080         0         1
     22082     22081     22083         0         1
     22085     22084     22086         0         1
     22088     22087     22089         0         1
     22091     22090     22092         0         1
     22094     22093     22095         0         1
     22097     22096     22098         0         1
     22100     22099     22101         0         1
     22103     22102     22104         0         1
     22106     22105     22107         0         1
     22109     22108     22110         0         1
     22112     22111     22113         0         1
     22115     22114     22116         0         1
     22118     22117     22119         0         1
     22121     22120     22122         0         1
     22124     22123     22125         0         1
     22127     22126     22128         0         1
     22130     22129     22131         0         1
     22133     22132     22134         0         1
     22136     22135     22137         0         1
     22139     22138     22140         0         1
     22142     22141     22143         0         1
     22145     22144     22146         0         1
     22148     22147     22149         0         1
     22151     22150     22152         0         1
     22154     22153     22155         0         1
     22157     22156     22158         0         1
     22160     22159     22161         0         1
     22163     22162     22164         0         1
     22166     22165     22167         0         1
     22169     22168     22170         0         1
     22172     22171     22173         0         1
     22175     22174     22176         0         1
     22178     22177     22179         0         1
     22181     22180     22182         0         1
     22184     22183     22185         0         1
     22187     22186     22188         0         1
     22190     22189     22191         0         1
     22193     22192     22194         0         1
     22196     22195     22197         0         1
     22199     22198     22200         0         1
     22202     22201     22203         0         1
     22205     22204     22206         0         1
     22208     22207     22209         0         1
     22211     22210     22212         0         1
     22214     22213     22215         0         1
     22217     22216     22218         0         1
     22220     22219     22221         0         1
     22223     22222     22224         0         1
     22226     22225     22227         0         1
     22229     22228     22230         0         1
     22232     22231     22233         0         1
     22235     22234     22236         0         1
     22238     22237     22239         0         1
     22241     22240     22242         0         1
     22244     22243     22245         0         1
     22247     22246     22248         0         1
     22250     22249     22251         0         1
     22253     22252     22254         0         1
     22256     22255     22257         0         1
     22259     22258     22260         0         1
     22262     22261     22263         0         1
     22265     22264     22266         0         1
     22268     22267     22269         0         1
     22271     22270     22272         0         1
     22274     22273     22275         0         1
     22277     22276     22278         0         1
     22280     22279     22281         0         1
     22283     22282     22284         0         1
     22286     22285     22287         0         1
     22289     22288     22290         0         1
     22292     22291     22293         0         1
     22295     22294     22296         0         1
     22298     22297     22299         0         1
     22301     22300     22302         0         1
     22304     22303     22305         0         1
     22307     22306     22308         0         1
     22310     22309     22311         0         1
     22313     22312     22314         0         1
     22316     22315     22317         0         1
     22319     22318     22320         0         1
     22322     22321     22323         0         1
     22325     22324     22326         0         1
     22328     22327     22329         0         1
     22331     22330     22332         0         1
     22334     22333     22335         0         1
     22337     22336     22338         0         1
     22340     22339     22341         0         1
     22343     22342     22344         0         1
     22346     22345     22347         0         1
     22349     22348     22350         0         1
     22352     22351     22353         0         1
     22355     22354     22356         0         1
     22358     22357     22359         0         1
     22361     22360     22362         0         1
     22364     22363     22365         0         1
     22367     22366     22368         0         1
     22370     22369     22371         0         1
     22373     22372     22374         0         1
     22376     22375     22377         0         1
     22379     22378     22380         0         1
     22382     22381     22383         0         1
     22385     22384     22386         0         1
     22388     22387     22389         0         1
     22391     22390     22392         0         1
     22394     22393     22395         0         1
     22397     22396     22398         0         1
     22400     22399     22401         0         1
     22403     22402     22404         0         1
     22406     22405     22407         0         1
     22409     22408     22410         0         1
     22412     22411     22413         0         1
     22415     22414     22416         0         1
     22418     22417     22419         0         1
     22421     22420     22422         0         1
     22424     22423     22425         0         1
     22427     22426     22428         0         1
     22430     22429     22431         0         1
     22433     22432     22434         0         1
     22436     22435     22437         0         1
     22439     22438     22440         0         1
     22442     22441     22443         0         1
     22445     22444     22446         0         1
     22448     22447     22449         0         1
     22451     22450     22452         0         1
     22454     22453     22455         0         1
     22457     22456     22458         0         1
     22460     22459     22461         0         1
     22463     22462     22464         0         1
     22466     22465     22467         0         1
     22469     22468     22470         0         1
     22472     22471     22473         0         1
     22475     22474     22476         0         1
     22478     22477     22479         0         1
     22481     22480     22482         0         1
     22484     22483     22485         0         1
     22487     22486     22488         0         1
     22490     22489     22491         0         1
     22493     22492     22494         0         1
     22496     22495     22497         0         1
     22499     22498     22500         0         1
     22502     22501     22503         0         1
     22505     22504     22506         0         1
     22508     22507     22509         0         1
     22511     22510     22512         0         1
     22514     22513     22515         0         1
     22517     22516     22518         0         1
     22520     22519     22521         0         1
     22523     22522     22524         0         1
     22526     22525     22527         0         1
     22529     22528     22530         0         1
     22532     22531     22533         0         1
     22535     22534     22536         0         1
     22538     22537     22539         0         1
     22541     22540     22542         0         1
     22544     22543     22545         0         1
     22547     22546     22548         0         1
     22550     22549     22551         0         1
     22553     22552     22554         0         1
     22556     22555     22557         0         1
     22559     22558     22560         0         1
     22562     22561     22563         0         1
     22565     22564     22566         0         1
     22568     22567     22569         0         1
     22571     22570     22572         0         1
     22574     22573     22575         0         1
     22577     22576     22578         0         1
     22580     22579     22581         0         1
     22583     22582     22584         0         1
     22586     22585     22587         0         1
     22589     22588     22590         0         1
     22592     22591     22593         0         1
     22595     22594     22596         0         1
     22598     22597     22599         0         1
     22601     22600     22602         0         1
     22604     22603     22605         0         1
     22607     22606     22608         0         1
     22610     22609     22611         0         1
     22613     22612     22614         0         1
     22616     22615     22617         0         1
     22619     22618     22620         0         1
     22622     22621     22623         0         1
     22625     22624     22626         0         1
     22628     22627     22629         0         1
     22631     22630     22632         0         1
     22634     22633     22635         0         1
     22637     22636     22638         0         1
     22640     22639     22641         0         1
     22643     22642     22644         0         1
     22646     22645     22647         0         1
     22649     22648     22650         0         1
     22652     22651     22653         0         1
     22655     22654     22656         0         1
     22658     22657     22659         0         1
     22661     22660     22662         0         1
     22664     22663     22665         0         1
     22667     22666     22668         0         1
     22670     22669     22671         0         1
     22673     22672     22674         0         1
     22676     22675     22677         0         1
     22679     22678     22680         0         1
     22682     22681     22683         0         1
     22685     22684     22686         0         1
     22688     22687     22689         0         1
     22691     22690     22692         0         1
     22694     22693     22695         0         1
     22697     22696     22698         0         1
     22700     22699     22701         0         1
     22703     22702     22704         0         1
     22706     22705     22707         0         1
     22709     22708     22710         0         1
     22712     22711     22713         0         1
     22715     22714     22716         0         1
     22718     22717     22719         0         1
     22721     22720     22722         0         1
     22724     22723     22725         0         1
     22727     22726     22728         0         1
     22730     22729     22731         0         1
     22733     22732     22734         0         1
     22736     22735     22737         0         1
     22739     22738     22740         0         1
     22742     22741     22743         0         1
     22745     22744     22746         0         1
     22748     22747     22749         0         1
     22751     22750     22752         0         1
     22754     22753     22755         0         1
     22757     22756     22758         0         1
     22760     22759     22761         0         1
     22763     22762     22764         0         1
     22766     22765     22767         0         1
     22769     22768     22770         0         1
     22772     22771     22773         0         1
     22775     22774     22776         0         1
     22778     22777     22779         0         1
     22781     22780     22782         0         1
     22784     22783     22785         0         1
     22787     22786     22788         0         1
     22790     22789     22791         0         1
     22793     22792     22794         0         1
     22796     22795     22797         0         1
     22799     22798     22800         0         1
     22802     22801     22803         0         1
     22805     22804     22806         0         1
     22808     22807     22809         0         1
     22811     22810     22812         0         1
     22814     22813     22815         0         1
     22817     22816     22818         0         1
     22820     22819     22821         0         1
     22823     22822     22824         0         1
     22826     22825     22827         0         1
     22829     22828     22830         0         1
     22832     22831     22833         0         1
     22835     22834     22836         0         1
     22838     22837     22839         0         1
     22841     22840     22842         0         1
     22844     22843     22845         0         1
     22847     22846     22848         0         1
     22850     22849     22851         0         1
     22853     22852     22854         0         1
     22856     22855     22857         0         1
     22859     22858     22860         0         1
     22862     22861     22863         0         1
     22865     22864     22866         0         1
     22868     22867     22869         0         1
     22871     22870     22872         0         1
     22874     22873     22875         0         1
     22877     22876     22878         0         1
     22880     22879     22881         0         1
     22883     22882     22884         0         1
     22886     22885     22887         0         1
     22889     22888     22890         0         1
     22892     22891     22893         0         1
     22895     22894     22896         0         1
     22898     22897     22899         0         1
     22901     22900     22902         0         1
     22904     22903     22905         0         1
     22907     22906     22908         0         1
     22910     22909     22911         0         1
     22913     22912     22914         0         1
     22916     22915     22917         0         1
     22919     22918     22920         0         1
     22922     22921     22923         0         1
     22925     22924     22926         0         1
     22928     22927     22929         0         1
     22931     22930     22932         0         1
     22934     22933     22935         0         1
     22937     22936     22938         0         1
     22940     22939     22941         0         1
     22943     22942     22944         0         1
     22946     22945     22947         0         1
     22949     22948     22950         0         1
     22952     22951     22953         0         1
     22955     22954     22956         0         1
     22958     22957     22959         0         1
     22961     22960     22962         0         1
     22964     22963     22965         0         1
     22967     22966     22968         0         1
     22970     22969     22971         0         1
     22973     22972     22974         0         1
     22976     22975     22977         0         1
     22979     22978     22980         0         1
     22982     22981     22983         0         1
     22985     22984     22986         0         1
     22988     22987     22989         0         1
     22991     22990     22992         0         1
     22994     22993     22995         0         1
     22997     22996     22998         0         1
     23000     22999     23001         0         1
     23003     23002     23004         0         1
     23006     23005     23007         0         1
     23009     23008     23010         0         1
     23012     23011     23013         0         1
     23015     23014     23016         0         1
     23018     23017     23019         0         1
     23021     23020     23022         0         1
     23024     23023     23025         0         1
     23027     23026     23028         0         1
     23030     23029     23031         0         1
     23033     23032     23034         0         1
     23036     23035     23037         0         1
     23039     23038     23040         0         1
     23042     23041     23043         0         1
     23045     23044     23046         0         1
     23048     23047     23049         0         1
     23051     23050     23052         0         1
     23054     23053     23055         0         1
     23057     23056     23058         0         1
     23060     23059     23061         0         1
     23063     23062     23064         0         1
     23066     23065     23067         0         1
     23069     23068     23070         0         1
     23072     23071     23073         0         1
     23075     23074     23076         0         1
     23078     23077     23079         0         1
     23081     23080     23082         0         1
     23084     23083     23085         0         1
     23087     23086     23088         0         1
     23090     23089     23091         0         1
     23093     23092     23094         0         1
     23096     23095     23097         0         1
     23099     23098     23100         0         1
     23102     23101     23103         0         1
     23105     23104     23106         0         1
     23108     23107     23109         0         1
     23111     23110     23112         0         1
     23114     23113     23115         0         1
     23117     23116     23118         0         1
     23120     23119     23121         0         1
     23123     23122     23124         0         1
     23126     23125     23127         0         1
     23129     23128     23130         0         1
     23132     23131     23133         0         1
     23135     23134     23136         0         1
     23138     23137     23139         0         1
     23141     23140     23142         0         1
     23144     23143     23145         0         1
     23147     23146     23148         0         1
     23150     23149     23151         0         1
     23153     23152     23154         0         1
     23156     23155     23157         0         1
     23159     23158     23160         0         1
     23162     23161     23163         0         1
     23165     23164     23166         0         1
     23168     23167     23169         0         1
     23171     23170     23172         0         1
     23174     23173     23175         0         1
     23177     23176     23178         0         1
     23180     23179     23181         0         1
     23183     23182     23184         0         1
     23186     23185     23187         0         1
     23189     23188     23190         0         1
     23192     23191     23193         0         1
     23195     23194     23196         0         1
     23198     23197     23199         0         1
     23201     23200     23202         0         1
     23204     23203     23205         0         1
     23207     23206     23208         0         1
     23210     23209     23211         0         1
     23213     23212     23214         0         1
     23216     23215     23217         0         1
     23219     23218     23220         0         1
     23222     23221     23223         0         1
     23225     23224     23226         0         1
     23228     23227     23229         0         1
     23231     23230     23232         0         1
     23234     23233     23235         0         1
     23237     23236     23238         0         1
     23240     23239     23241         0         1
     23243     23242     23244         0         1
     23246     23245     23247         0         1
     23249     23248     23250         0         1
     23252     23251     23253         0         1
     23255     23254     23256         0         1
     23258     23257     23259         0         1
     23261     23260     23262         0         1
     23264     23263     23265         0         1
     23267     23266     23268         0         1
     23270     23269     23271         0         1
     23273     23272     23274         0         1
     23276     23275     23277         0         1
     23279     23278     23280         0         1
     23282     23281     23283         0         1
     23285     23284     23286         0         1
     23288     23287     23289         0         1
     23291     23290     23292         0         1
     23294     23293     23295         0         1
     23297     23296     23298         0         1
     23300     23299     23301         0         1
     23303     23302     23304         0         1
     23306     23305     23307         0         1
     23309     23308     23310         0         1
     23312     23311     23313         0         1
     23315     23314     23316         0         1
     23318     23317     23319         0         1
     23321     23320     23322         0         1
     23324     23323     23325         0         1
     23327     23326     23328         0         1
     23330     23329     23331         0         1
     23333     23332     23334         0         1
     23336     23335     23337         0         1
     23339     23338     23340         0         1
     23342     23341     23343         0         1
     23345     23344     23346         0         1
     23348     23347     23349         0         1
     23351     23350     23352         0         1
     23354     23353     23355         0         1
     23357     23356     23358         0         1
     23360     23359     23361         0         1
     23363     23362     23364         0         1
     23366     23365     23367         0         1
     23369     23368     23370         0         1
     23372     23371     23373         0         1
     23375     23374     23376         0         1
     23378     23377     23379         0         1
     23381     23380     23382         0         1
     23384     23383     23385         0         1
     23387     23386     23388         0         1
     23390     23389     23391         0         1
     23393     23392     23394         0         1
     23396     23395     23397         0         1
     23399     23398     23400         0         1
     23402     23401     23403         0         1
     23405     23404     23406         0         1
     23408     23407     23409         0         1
     23411     23410     23412         0         1
     23414     23413     23415         0         1
     23417     23416     23418         0         1
     23420     23419     23421         0         1
     23423     23422     23424         0         1
     23426     23425     23427         0         1
     23429     23428     23430         0         1
     23432     23431     23433         0         1
     23435     23434     23436         0         1
     23438     23437     23439         0         1
     23441     23440     23442         0         1
     23444     23443     23445         0         1
     23447     23446     23448         0         1
     23450     23449     23451         0         1
     23453     23452     23454         0         1
     23456     23455     23457         0         1
     23459     23458     23460         0         1
     23462     23461     23463         0         1
     23465     23464     23466         0         1
     23468     23467     23469         0         1
     23471     23470     23472         0         1
     23474     23473     23475         0         1
     23477     23476     23478         0         1
     23480     23479     23481         0         1
     23483     23482     23484         0         1
     23486     23485     23487         0         1
     23489     23488     23490         0         1
     23492     23491     23493         0         1
     23495     23494     23496         0         1
     23498     23497     23499         0         1
     23501     23500     23502         0         1
     23504     23503     23505         0         1
     23507     23506     23508         0         1
     23510     23509     23511         0         1
     23513     23512     23514         0         1
     23516     23515     23517         0         1
     23519     23518     23520         0         1
     23522     23521     23523         0         1
     23525     23524     23526         0         1
     23528     23527     23529         0         1
     23531     23530     23532         0         1
     23534     23533     23535         0         1
     23537     23536     23538         0         1
     23540     23539     23541         0         1
     23543     23542     23544         0         1
     23546     23545     23547         0         1
     23549     23548     23550         0         1
     23552     23551     23553         0         1
     23555     23554     23556         0         1
     23558     23557     23559         0         1
     23561     23560     23562         0         1
     23564     23563     23565         0         1
     23567     23566     23568         0         1
     23570     23569     23571         0         1
     23573     23572     23574         0         1
     23576     23575     23577         0         1
     23579     23578     23580         0         1
     23582     23581     23583         0         1
     23585     23584     23586         0         1
     23588     23587     23589         0         1
     23591     23590     23592         0         1
     23594     23593     23595         0         1
     23597     23596     23598         0         1
     23600     23599     23601         0         1
     23603     23602     23604         0         1
     23606     23605     23607         0         1
     23609     23608     23610         0         1
     23612     23611     23613         0         1
     23615     23614     23616         0         1
     23618     23617     23619         0         1
     23621     23620     23622         0         1
     23624     23623     23625         0         1
     23627     23626     23628         0         1
     23630     23629     23631         0         1
     23633     23632     23634         0         1
     23636     23635     23637         0         1
     23639     23638     23640         0         1
     23642     23641     23643         0         1
     23645     23644     23646         0         1
     23648     23647     23649         0         1
     23651     23650     23652         0         1
     23654     23653     23655         0         1
     23657     23656     23658         0         1
     23660     23659     23661         0         1
     23663     23662     23664         0         1
     23666     23665     23667         0         1
     23669     23668     23670         0         1
     23672     23671     23673         0         1
     23675     23674     23676         0         1
     23678     23677     23679         0         1
     23681     23680     23682         0         1
     23684     23683     23685         0         1
     23687     23686     23688         0         1
     23690     23689     23691         0         1
     23693     23692     23694         0         1
     23696     23695     23697         0         1
     23699     23698     23700         0         1
     23702     23701     23703         0         1
     23705     23704     23706         0         1
     23708     23707     23709         0         1
     23711     23710     23712         0         1
     23714     23713     23715         0         1
     23717     23716     23718         0         1
     23720     23719     23721         0         1
     23723     23722     23724         0         1
     23726     23725     23727         0         1
     23729     23728     23730         0         1
     23732     23731     23733         0         1
     23735     23734     23736         0         1
     23738     23737     23739         0         1
     23741     23740     23742         0         1
     23744     23743     23745         0         1
     23747     23746     23748         0         1
     23750     23749     23751         0         1
     23753     23752     23754         0         1
     23756     23755     23757         0         1
     23759     23758     23760         0         1
     23762     23761     23763         0         1
     23765     23764     23766         0         1
     23768     23767     23769         0         1
     23771     23770     23772         0         1
     23774     23773     23775         0         1
     23777     23776     23778         0         1
     23780     23779     23781         0         1
     23783     23782     23784         0         1
     23786     23785     23787         0         1
     23789     23788     23790         0         1
     23792     23791     23793         0         1
     23795     23794     23796         0         1
     23798     23797     23799         0         1
     23801     23800     23802         0         1
     23804     23803     23805         0         1
     23807     23806     23808         0         1
     23810     23809     23811         0         1
     23813     23812     23814         0         1
     23816     23815     23817         0         1
     23819     23818     23820         0         1
     23822     23821     23823         0         1
     23825     23824     23826         0         1
     23828     23827     23829         0         1
     23831     23830     23832         0         1
     23834     23833     23835         0         1
     23837     23836     23838         0         1
     23840     23839     23841         0         1
     23843     23842     23844         0         1
     23846     23845     23847         0         1
     23849     23848     23850         0         1
     23852     23851     23853         0         1
     23855     23854     23856         0         1
     23858     23857     23859         0         1
     23861     23860     23862         0         1
     23864     23863     23865         0         1
     23867     23866     23868         0         1
     23870     23869     23871         0         1
     23873     23872     23874         0         1
     23876     23875     23877         0         1
     23879     23878     23880         0         1
     23882     23881     23883         0         1
     23885     23884     23886         0         1
     23888     23887     23889         0         1
     23891     23890     23892         0         1
     23894     23893     23895         0         1
     23897     23896     23898         0         1
     23900     23899     23901         0         1
     23903     23902     23904         0         1
     23906     23905     23907         0         1
     23909     23908     23910         0         1
     23912     23911     23913         0         1
     23915     23914     23916         0         1
     23918     23917     23919         0         1
     23921     23920     23922         0         1
     23924     23923     23925         0         1
     23927     23926     23928         0         1
     23930     23929     23931         0         1
     23933     23932     23934         0         1
     23936     23935     23937         0         1
     23939     23938     23940         0         1
     23942     23941     23943         0         1
     23945     23944     23946         0         1
     23948     23947     23949         0         1
     23951     23950     23952         0         1
     23954     23953     23955         0         1
     23957     23956     23958         0         1
     23960     23959     23961         0         1
     23963     23962     23964         0         1
     23966     23965     23967         0         1
     23969     23968     23970         0         1
     23972     23971     23973         0         1
     23975     23974     23976         0         1
     23978     23977     23979         0         1
     23981     23980     23982         0         1
     23984     23983     23985         0         1
     23987     23986     23988         0         1
     23990     23989     23991         0         1
     23993     23992     23994         0         1
     23996     23995     23997         0         1
     23999     23998     24000         0         1
     24002     24001     24003         0         1
     24005     24004     24006         0         1
     24008     24007     24009         0         1
     24011     24010     24012         0         1
     24014     24013     24015         0         1
     24017     24016     24018         0         1
     24020     24019     24021         0         1
     24023     24022     24024         0         1
     24026     24025     24027         0         1
     24029     24028     24030         0         1
     24032     24031     24033         0         1
     24035     24034     24036         0         1
     24038     24037     24039         0         1
     24041     24040     24042         0         1
     24044     24043     24045         0         1
     24047     24046     24048         0         1
     24050     24049     24051         0         1
     24053     24052     24054         0         1
     24056     24055     24057         0         1
     24059     24058     24060         0         1
     24062     24061     24063         0         1
     24065     24064     24066         0         1
     24068     24067     24069         0         1
     24071     24070     24072         0         1
     24074     24073     24075         0         1
     24077     24076     24078         0         1
     24080     24079     24081         0         1
     24083     24082     24084         0         1
     24086     24085     24087         0         1
     24089     24088     24090         0         1
     24092     24091     24093         0         1
     24095     24094     24096         0         1
     24098     24097     24099         0         1
     24101     24100     24102         0         1
     24104     24103     24105         0         1
     24107     24106     24108         0         1
     24110     24109     24111         0         1
     24113     24112     24114         0         1
     24116     24115     24117         0         1
     24119     24118     24120         0         1
     24122     24121     24123         0         1
     24125     24124     24126         0         1
     24128     24127     24129         0         1
     24131     24130     24132         0         1
     24134     24133     24135         0         1
     24137     24136     24138         0         1
     24140     24139     24141         0         1
     24143     24142     24144         0         1
     24146     24145     24147         0         1
     24149     24148     24150         0         1
     24152     24151     24153         0         1
     24155     24154     24156         0         1
     24158     24157     24159         0         1
     24161     24160     24162         0         1
     24164     24163     24165         0         1
     24167     24166     24168         0         1
     24170     24169     24171         0         1
     24173     24172     24174         0         1
     24176     24175     24177         0         1
     24179     24178     24180         0         1
     24182     24181     24183         0         1
     24185     24184     24186         0         1
     24188     24187     24189         0         1
     24191     24190     24192         0         1
     24194     24193     24195         0         1
     24197     24196     24198         0         1
     24200     24199     24201         0         1
     24203     24202     24204         0         1
     24206     24205     24207         0         1
     24209     24208     24210         0         1
     24212     24211     24213         0         1
     24215     24214     24216         0         1
     24218     24217     24219         0         1
     24221     24220     24222         0         1
     24224     24223     24225         0         1
     24227     24226     24228         0         1
     24230     24229     24231         0         1
     24233     24232     24234         0         1
     24236     24235     24237         0         1
     24239     24238     24240         0         1
     24242     24241     24243         0         1
     24245     24244     24246         0         1
     24248     24247     24249         0         1
     24251     24250     24252         0         1
     24254     24253     24255         0         1
     24257     24256     24258         0         1
     24260     24259     24261         0         1
     24263     24262     24264         0         1
     24266     24265     24267         0         1
     24269     24268     24270         0         1
     24272     24271     24273         0         1
     24275     24274     24276         0         1
     24278     24277     24279         0         1
     24281     24280     24282         0         1
     24284     24283     24285         0         1
     24287     24286     24288         0         1
     24290     24289     24291         0         1
     24293     24292     24294         0         1
     24296     24295     24297         0         1
     24299     24298     24300         0         1
     24302     24301     24303         0         1
     24305     24304     24306         0         1
     24308     24307     24309         0         1
     24311     24310     24312         0         1
     24314     24313     24315         0         1
     24317     24316     24318         0         1
     24320     24319     24321         0         1
     24323     24322     24324         0         1
     24326     24325     24327         0         1
     24329     24328     24330         0         1
     24332     24331     24333         0         1
     24335     24334     24336         0         1
     24338     24337     24339         0         1
     24341     24340     24342         0         1
     24344     24343     24345         0         1
     24347     24346     24348         0         1
     24350     24349     24351         0         1
     24353     24352     24354         0         1
     24356     24355     24357         0         1
     24359     24358     24360         0         1
     24362     24361     24363         0         1
     24365     24364     24366         0         1
     24368     24367     24369         0         1
     24371     24370     24372         0         1
     24374     24373     24375         0         1
     24377     24376     24378         0         1
     24380     24379     24381         0         1
     24383     24382     24384         0         1
     24386     24385     24387         0         1
     24389     24388     24390         0         1
     24392     24391     24393         0         1
     24395     24394     24396         0         1
     24398     24397     24399         0         1
     24401     24400     24402         0         1
     24404     24403     24405         0         1
     24407     24406     24408         0         1
     24410     24409     24411         0         1
     24413     24412     24414         0         1
     24416     24415     24417         0         1
     24419     24418     24420         0         1
     24422     24421     24423         0         1
     24425     24424     24426         0         1
     24428     24427     24429         0         1
     24431     24430     24432         0         1
     24434     24433     24435         0         1
     24437     24436     24438         0         1
     24440     24439     24441         0         1
     24443     24442     24444         0         1
     24446     24445     24447         0         1
     24449     24448     24450         0         1
     24452     24451     24453         0         1
     24455     24454     24456         0         1
     24458     24457     24459         0         1
     24461     24460     24462         0         1
     24464     24463     24465         0         1
     24467     24466     24468         0         1
     24470     24469     24471         0         1
     24473     24472     24474         0         1
     24476     24475     24477         0         1
     24479     24478     24480         0         1
     24482     24481     24483         0         1
     24485     24484     24486         0         1
     24488     24487     24489         0         1
     24491     24490     24492         0         1
     24494     24493     24495         0         1
     24497     24496     24498         0         1
     24500     24499     24501         0         1
     24503     24502     24504         0         1
     24506     24505     24507         0         1
     24509     24508     24510         0         1
     24512     24511     24513         0         1
     24515     24514     24516         0         1
     24518     24517     24519         0         1
     24521     24520     24522         0         1
     24524     24523     24525         0         1
     24527     24526     24528         0         1
     24530     24529     24531         0         1
     24533     24532     24534         0         1
     24536     24535     24537         0         1
     24539     24538     24540         0         1
     24542     24541     24543         0         1
     24545     24544     24546         0         1
     24548     24547     24549         0         1
     24551     24550     24552         0         1
     24554     24553     24555         0         1
     24557     24556     24558         0         1
     24560     24559     24561         0         1
     24563     24562     24564         0         1
     24566     24565     24567         0         1
     24569     24568     24570         0         1
     24572     24571     24573         0         1
     24575     24574     24576         0         1
     24578     24577     24579         0         1
     24581     24580     24582         0         1
     24584     24583     24585         0         1
     24587     24586     24588         0         1
     24590     24589     24591         0         1
     24593     24592     24594         0         1
     24596     24595     24597         0         1
     24599     24598     24600         0         1
     24602     24601     24603         0         1
     24605     24604     24606         0         1
     24608     24607     24609         0         1
     24611     24610     24612         0         1
     24614     24613     24615         0         1
     24617     24616     24618         0         1
     24620     24619     24621         0         1
     24623     24622     24624         0         1
     24626     24625     24627         0         1
     24629     24628     24630         0         1
     24632     24631     24633         0         1
     24635     24634     24636         0         1
     24638     24637     24639         0         1
     24641     24640     24642         0         1
     24644     24643     24645         0         1
     24647     24646     24648         0         1
     24650     24649     24651         0         1
     24653     24652     24654         0         1
     24656     24655     24657         0         1
     24659     24658     24660         0         1
     24662     24661     24663         0         1
     24665     24664     24666         0         1
     24668     24667     24669         0         1
     24671     24670     24672         0         1
     24674     24673     24675         0         1
     24677     24676     24678         0         1
     24680     24679     24681         0         1
     24683     24682     24684         0         1
     24686     24685     24687         0         1
     24689     24688     24690         0         1
     24692     24691     24693         0         1
     24695     24694     24696         0         1
     24698     24697     24699         0         1
     24701     24700     24702         0         1
     24704     24703     24705         0         1
     24707     24706     24708         0         1
     24710     24709     24711         0         1
     24713     24712     24714         0         1
     24716     24715     24717         0         1
     24719     24718     24720         0         1
     24722     24721     24723         0         1
     24725     24724     24726         0         1
     24728     24727     24729         0         1
     24731     24730     24732         0         1
     24734     24733     24735         0         1
     24737     24736     24738         0         1
     24740     24739     24741         0         1
     24743     24742     24744         0         1
     24746     24745     24747         0         1
     24749     24748     24750         0         1
     24752     24751     24753         0         1
     24755     24754     24756         0         1
     24758     24757     24759         0         1
     24761     24760     24762         0         1
     24764     24763     24765         0         1
     24767     24766     24768         0         1
     24770     24769     24771         0         1
     24773     24772     24774         0         1
     24776     24775     24777         0         1
     24779     24778     24780         0         1
     24782     24781     24783         0         1
     24785     24784     24786         0         1
     24788     24787     24789         0         1
     24791     24790     24792         0         1
     24794     24793     24795         0         1
     24797     24796     24798         0         1
     24800     24799     24801         0         1
     24803     24802     24804         0         1
     24806     24805     24807         0         1
     24809     24808     24810         0         1
     24812     24811     24813         0         1
     24815     24814     24816         0         1
     24818     24817     24819         0         1
     24821     24820     24822         0         1
     24824     24823     24825         0         1
     24827     24826     24828         0         1
     24830     24829     24831         0         1
     24833     24832     24834         0         1
     24836     24835     24837         0         1
     24839     24838     24840         0         1
     24842     24841     24843         0         1
     24845     24844     24846         0         1
     24848     24847     24849         0         1
     24851     24850     24852         0         1
     24854     24853     24855         0         1
     24857     24856     24858         0         1
     24860     24859     24861         0         1
     24863     24862     24864         0         1
     24866     24865     24867         0         1
     24869     24868     24870         0         1
     24872     24871     24873         0         1
     24875     24874     24876         0         1
     24878     24877     24879         0         1
     24881     24880     24882         0         1
     24884     24883     24885         0         1
     24887     24886     24888         0         1
     24890     24889     24891         0         1
     24893     24892     24894         0         1
     24896     24895     24897         0         1
     24899     24898     24900         0         1
     24902     24901     24903         0         1
     24905     24904     24906         0         1
     24908     24907     24909         0         1
     24911     24910     24912         0         1
     24914     24913     24915         0         1
     24917     24916     24918         0         1
     24920     24919     24921         0         1
     24923     24922     24924         0         1
     24926     24925     24927         0         1
     24929     24928     24930         0         1
     24932     24931     24933         0         1
     24935     24934     24936         0         1
     24938     24937     24939         0         1
     24941     24940     24942         0         1
     24944     24943     24945         0         1
     24947     24946     24948         0         1
     24950     24949     24951         0         1
     24953     24952     24954         0         1
     24956     24955     24957         0         1
     24959     24958     24960         0         1
     24962     24961     24963         0         1
     24965     24964     24966         0         1
     24968     24967     24969         0         1
     24971     24970     24972         0         1
     24974     24973     24975         0         1
     24977     24976     24978         0         1
     24980     24979     24981         0         1
     24983     24982     24984         0         1
     24986     24985     24987         0         1
     24989     24988     24990         0         1
     24992     24991     24993         0         1
     24995     24994     24996         0         1
     24998     24997     24999         0         1
     25001     25000     25002         0         1
     25004     25003     25005         0         1
     25007     25006     25008         0         1
     25010     25009     25011         0         1
     25013     25012     25014         0         1
     25016     25015     25017         0         1
     25019     25018     25020         0         1
     25022     25021     25023         0         1
     25025     25024     25026         0         1
     25028     25027     25029         0         1
     25031     25030     25032         0         1
     25034     25033     25035         0         1
     25037     25036     25038         0         1
     25040     25039     25041         0         1
     25043     25042     25044         0         1
     25046     25045     25047         0         1
     25049     25048     25050         0         1
     25052     25051     25053         0         1
     25055     25054     25056         0         1
     25058     25057     25059         0         1
     25061     25060     25062         0         1
     25064     25063     25065         0         1
     25067     25066     25068         0         1
     25070     25069     25071         0         1
     25073     25072     25074         0         1
     25076     25075     25077         0         1
     25079     25078     25080         0         1
     25082     25081     25083         0         1
     25085     25084     25086         0         1
     25088     25087     25089         0         1
     25091     25090     25092         0         1
     25094     25093     25095         0         1
     25097     25096     25098         0         1
     25100     25099     25101         0         1
     25103     25102     25104         0         1
     25106     25105     25107         0         1
     25109     25108     25110         0         1
     25112     25111     25113         0         1
     25115     25114     25116         0         1
     25118     25117     25119         0         1
     25121     25120     25122         0         1
     25124     25123     25125         0         1
     25127     25126     25128         0         1
     25130     25129     25131         0         1
     25133     25132     25134         0         1
     25136     25135     25137         0         1
     25139     25138     25140         0         1
     25142     25141     25143         0         1
     25145     25144     25146         0         1
     25148     25147     25149         0         1
     25151     25150     25152         0         1
     25154     25153     25155         0         1
     25157     25156     25158         0         1
     25160     25159     25161         0         1
     25163     25162     25164         0         1
     25166     25165     25167         0         1
     25169     25168     25170         0         1
     25172     25171     25173         0         1
     25175     25174     25176         0         1
     25178     25177     25179         0         1
     25181     25180     25182         0         1
     25184     25183     25185         0         1
     25187     25186     25188         0         1
     25190     25189     25191         0         1
     25193     25192     25194         0         1
     25196     25195     25197         0         1
     25199     25198     25200         0         1
     25202     25201     25203         0         1
     25205     25204     25206         0         1
     25208     25207     25209         0         1
     25211     25210     25212         0         1
     25214     25213     25215         0         1
     25217     25216     25218         0         1
     25220     25219     25221         0         1
     25223     25222     25224         0         1
     25226     25225     25227         0         1
     25229     25228     25230         0         1
     25232     25231     25233         0         1
     25235     25234     25236         0         1
     25238     25237     25239         0         1
     25241     25240     25242         0         1
     25244     25243     25245         0         1
     25247     25246     25248         0         1
     25250     25249     25251         0         1
     25253     25252     25254         0         1
     25256     25255     25257         0         1
     25259     25258     25260         0         1
     25262     25261     25263         0         1
     25265     25264     25266         0         1
     25268     25267     25269         0         1
     25271     25270     25272         0         1
     25274     25273     25275         0         1
     25277     25276     25278         0         1
     25280     25279     25281         0         1
     25283     25282     25284         0         1
     25286     25285     25287         0         1
     25289     25288     25290         0         1
     25292     25291     25293         0         1
     25295     25294     25296         0         1
     25298     25297     25299         0         1
     25301     25300     25302         0         1
     25304     25303     25305         0         1
     25307     25306     25308         0         1
     25310     25309     25311         0         1
     25313     25312     25314         0         1
     25316     25315     25317         0         1
     25319     25318     25320         0         1
     25322     25321     25323         0         1
     25325     25324     25326         0         1
     25328     25327     25329         0         1
     25331     25330     25332         0         1
     25334     25333     25335         0         1
     25337     25336     25338         0         1
     25340     25339     25341         0         1
     25343     25342     25344         0         1
     25346     25345     25347         0         1
     25349     25348     25350         0         1
     25352     25351     25353         0         1
     25355     25354     25356         0         1
     25358     25357     25359         0         1
     25361     25360     25362         0         1
     25364     25363     25365         0         1
     25367     25366     25368         0         1
     25370     25369     25371         0         1
     25373     25372     25374         0         1
     25376     25375     25377         0         1
     25379     25378     25380         0         1
     25382     25381     25383         0         1
     25385     25384     25386         0         1
     25388     25387     25389         0         1
     25391     25390     25392         0         1
     25394     25393     25395         0         1
     25397     25396     25398         0         1
     25400     25399     25401         0         1
     25403     25402     25404         0         1
     25406     25405     25407         0         1
     25409     25408     25410         0         1
     25412     25411     25413         0         1
     25415     25414     25416         0         1
     25418     25417     25419         0         1
     25421     25420     25422         0         1
     25424     25423     25425         0         1
     25427     25426     25428         0         1
     25430     25429     25431         0         1
     25433     25432     25434         0         1
     25436     25435     25437         0         1
     25439     25438     25440         0         1
     25442     25441     25443         0         1
     25445     25444     25446         0         1
     25448     25447     25449         0         1
     25451     25450     25452         0         1
     25454     25453     25455         0         1
     25457     25456     25458         0         1
     25460     25459     25461         0         1
     25463     25462     25464         0         1
     25466     25465     25467         0         1
     25469     25468     25470         0         1
     25472     25471     25473         0         1
     25475     25474     25476         0         1
     25478     25477     25479         0         1
     25481     25480     25482         0         1
     25484     25483     25485         0         1
     25487     25486     25488         0         1
     25490     25489     25491         0         1
     25493     25492     25494         0         1
     25496     25495     25497         0         1
     25499     25498     25500         0         1
     25502     25501     25503         0         1
     25505     25504     25506         0         1
     25508     25507     25509         0         1
     25511     25510     25512         0         1
     25514     25513     25515         0         1
     25517     25516     25518         0         1
     25520     25519     25521         0         1
     25523     25522     25524         0         1
     25526     25525     25527         0         1
     25529     25528     25530         0         1
     25532     25531     25533         0         1
     25535     25534     25536         0         1
     25538     25537     25539         0         1
     25541     25540     25542         0         1
     25544     25543     25545         0         1
     25547     25546     25548         0         1
     25550     25549     25551         0         1
     25553     25552     25554         0         1
     25556     25555     25557         0         1
     25559     25558     25560         0         1
     25562     25561     25563         0         1
     25565     25564     25566         0         1
     25568     25567     25569         0         1
     25571     25570     25572         0         1
     25574     25573     25575         0         1
     25577     25576     25578         0         1
     25580     25579     25581         0         1
     25583     25582     25584         0         1
     25586     25585     25587         0         1
     25589     25588     25590         0         1
     25592     25591     25593         0         1
     25595     25594     25596         0         1
     25598     25597     25599         0         1
     25601     25600     25602         0         1
     25604     25603     25605         0         1
     25607     25606     25608         0         1
     25610     25609     25611         0         1
     25613     25612     25614         0         1
     25616     25615     25617         0         1
     25619     25618     25620         0         1
     25622     25621     25623         0         1
     25625     25624     25626         0         1
     25628     25627     25629         0         1
     25631     25630     25632         0         1
     25634     25633     25635         0         1
     25637     25636     25638         0         1
     25640     25639     25641         0         1
     25643     25642     25644         0         1
     25646     25645     25647         0         1
     25649     25648     25650         0         1
     25652     25651     25653         0         1
     25655     25654     25656         0         1
     25658     25657     25659         0         1
     25661     25660     25662         0         1
     25664     25663     25665         0         1
     25667     25666     25668         0         1
     25670     25669     25671         0         1
     25673     25672     25674         0         1
     25676     25675     25677         0         1
     25679     25678     25680         0         1
     25682     25681     25683         0         1
     25685     25684     25686         0         1
     25688     25687     25689         0         1
     25691     25690     25692         0         1
     25694     25693     25695         0         1
     25697     25696     25698         0         1
     25700     25699     25701         0         1
     25703     25702     25704         0         1
     25706     25705     25707         0         1
     25709     25708     25710         0         1
     25712     25711     25713         0         1
     25715     25714     25716         0         1
     25718     25717     25719         0         1
     25721     25720     25722         0         1
     25724     25723     25725         0         1
     25727     25726     25728         0         1
     25730     25729     25731         0         1
     25733     25732     25734         0         1
     25736     25735     25737         0         1
     25739     25738     25740         0         1
     25742     25741     25743         0         1
     25745     25744     25746         0         1
     25748     25747     25749         0         1
     25751     25750     25752         0         1
     25754     25753     25755         0         1
     25757     25756     25758         0         1
     25760     25759     25761         0         1
     25763     25762     25764         0         1
     25766     25765     25767         0         1
     25769     25768     25770         0         1
     25772     25771     25773         0         1
     25775     25774     25776         0         1
     25778     25777     25779         0         1
     25781     25780     25782         0         1
     25784     25783     25785         0         1
     25787     25786     25788         0         1
     25790     25789     25791         0         1
     25793     25792     25794         0         1
     25796     25795     25797         0         1
     25799     25798     25800         0         1
     25802     25801     25803         0         1
     25805     25804     25806         0         1
     25808     25807     25809         0         1
     25811     25810     25812         0         1
     25814     25813     25815         0         1
     25817     25816     25818         0         1
     25820     25819     25821         0         1
     25823     25822     25824         0         1
     25826     25825     25827         0         1
     25829     25828     25830         0         1
     25832     25831     25833         0         1
     25835     25834     25836         0         1
     25838     25837     25839         0         1
     25841     25840     25842         0         1
     25844     25843     25845         0         1
     25847     25846     25848         0         1
     25850     25849     25851         0         1
     25853     25852     25854         0         1
     25856     25855     25857         0         1
     25859     25858     25860         0         1
     25862     25861     25863         0         1
     25865     25864     25866         0         1
     25868     25867     25869         0         1
     25871     25870     25872         0         1
     25874     25873     25875         0         1
     25877     25876     25878         0         1
     25880     25879     25881         0         1
     25883     25882     25884         0         1
     25886     25885     25887         0         1
     25889     25888     25890         0         1
     25892     25891     25893         0         1
     25895     25894     25896         0         1
     25898     25897     25899         0         1
     25901     25900     25902         0         1
     25904     25903     25905         0         1
     25907     25906     25908         0         1
     25910     25909     25911         0         1
     25913     25912     25914         0         1
     25916     25915     25917         0         1
     25919     25918     25920         0         1
     25922     25921     25923         0         1
     25925     25924     25926         0         1
     25928     25927     25929         0         1
     25931     25930     25932         0         1
     25934     25933     25935         0         1
     25937     25936     25938         0         1
     25940     25939     25941         0         1
     25943     25942     25944         0         1
     25946     25945     25947         0         1
     25949     25948     25950         0         1
     25952     25951     25953         0         1
     25955     25954     25956         0         1
     25958     25957     25959         0         1
     25961     25960     25962         0         1
     25964     25963     25965         0         1
     25967     25966     25968         0         1
     25970     25969     25971         0         1
     25973     25972     25974         0         1
     25976     25975     25977         0         1
     25979     25978     25980         0         1
     25982     25981     25983         0         1
     25985     25984     25986         0         1
     25988     25987     25989         0         1
     25991     25990     25992         0         1
     25994     25993     25995         0         1
     25997     25996     25998         0         1
     26000     25999     26001         0         1
     26003     26002     26004         0         1
     26006     26005     26007         0         1
     26009     26008     26010         0         1
     26012     26011     26013         0         1
     26015     26014     26016         0         1
     26018     26017     26019         0         1
     26021     26020     26022         0         1
     26024     26023     26025         0         1
     26027     26026     26028         0         1
     26030     26029     26031         0         1
     26033     26032     26034         0         1
     26036     26035     26037         0         1
     26039     26038     26040         0         1
     26042     26041     26043         0         1
     26045     26044     26046         0         1
     26048     26047     26049         0         1
     26051     26050     26052         0         1
     26054     26053     26055         0         1
     26057     26056     26058         0         1
     26060     26059     26061         0         1
     26063     26062     26064         0         1
     26066     26065     26067         0         1
     26069     26068     26070         0         1
     26072     26071     26073         0         1
     26075     26074     26076         0         1
     26078     26077     26079         0         1
     26081     26080     26082         0         1
     26084     26083     26085         0         1
     26087     26086     26088         0         1
     26090     26089     26091         0         1
     26093     26092     26094         0         1
     26096     26095     26097         0         1
     26099     26098     26100         0         1
     26102     26101     26103         0         1
     26105     26104     26106         0         1
     26108     26107     26109         0         1
     26111     26110     26112         0         1
     26114     26113     26115         0         1
     26117     26116     26118         0         1
     26120     26119     26121         0         1
     26123     26122     26124         0         1
     26126     26125     26127         0         1
     26129     26128     26130         0         1
     26132     26131     26133         0         1
     26135     26134     26136         0         1
     26138     26137     26139         0         1
     26141     26140     26142         0         1
     26144     26143     26145         0         1
     26147     26146     26148         0         1
     26150     26149     26151         0         1
     26153     26152     26154         0         1
     26156     26155     26157         0         1
     26159     26158     26160         0         1
     26162     26161     26163         0         1
     26165     26164     26166         0         1
     26168     26167     26169         0         1
     26171     26170     26172         0         1
     26174     26173     26175         0         1
     26177     26176     26178         0         1
     26180     26179     26181         0         1
     26183     26182     26184         0         1
     26186     26185     26187         0         1
     26189     26188     26190         0         1
     26192     26191     26193         0         1
     26195     26194     26196         0         1
     26198     26197     26199         0         1
     26201     26200     26202         0         1
     26204     26203     26205         0         1
     26207     26206     26208         0         1
     26210     26209     26211         0         1
     26213     26212     26214         0         1
     26216     26215     26217         0         1
     26219     26218     26220         0         1
     26222     26221     26223         0         1
     26225     26224     26226         0         1
     26228     26227     26229         0         1
     26231     26230     26232         0         1
     26234     26233     26235         0         1
     26237     26236     26238         0         1
     26240     26239     26241         0         1
     26243     26242     26244         0         1
     26246     26245     26247         0         1
     26249     26248     26250         0         1
     26252     26251     26253         0         1
     26255     26254     26256         0         1
     26258     26257     26259         0         1
     26261     26260     26262         0         1
     26264     26263     26265         0         1
     26267     26266     26268         0         1
     26270     26269     26271         0         1
     26273     26272     26274         0         1
     26276     26275     26277         0         1
     26279     26278     26280         0         1
     26282     26281     26283         0         1
     26285     26284     26286         0         1
     26288     26287     26289         0         1
     26291     26290     26292         0         1
     26294     26293     26295         0         1
     26297     26296     26298         0         1
     26300     26299     26301         0         1
     26303     26302     26304         0         1
     26306     26305     26307         0         1
     26309     26308     26310         0         1
     26312     26311     26313         0         1
     26315     26314     26316         0         1
     26318     26317     26319         0         1
     26321     26320     26322         0         1
     26324     26323     26325         0         1
     26327     26326     26328         0         1
     26330     26329     26331         0         1
     26333     26332     26334         0         1
     26336     26335     26337         0         1
     26339     26338     26340         0         1
     26342     26341     26343         0         1
     26345     26344     26346         0         1
     26348     26347     26349         0         1
     26351     26350     26352         0         1
     26354     26353     26355         0         1
     26357     26356     26358         0         1
     26360     26359     26361         0         1
     26363     26362     26364         0         1
     26366     26365     26367         0         1
     26369     26368     26370         0         1
     26372     26371     26373         0         1
     26375     26374     26376         0         1
     26378     26377     26379         0         1
     26381     26380     26382         0         1
     26384     26383     26385         0         1
     26387     26386     26388         0         1
     26390     26389     26391         0         1
     26393     26392     26394         0         1
     26396     26395     26397         0         1
     26399     26398     26400         0         1
     26402     26401     26403         0         1
     26405     26404     26406         0         1
     26408     26407     26409         0         1
     26411     26410     26412         0         1
     26414     26413     26415         0         1
     26417     26416     26418         0         1
     26420     26419     26421         0         1
     26423     26422     26424         0         1
     26426     26425     26427         0         1
     26429     26428     26430         0         1
     26432     26431     26433         0         1
     26435     26434     26436         0         1
     26438     26437     26439         0         1
     26441     26440     26442         0         1
     26444     26443     26445         0         1
     26447     26446     26448         0         1
     26450     26449     26451         0         1
     26453     26452     26454         0         1
     26456     26455     26457         0         1
     26459     26458     26460         0         1
     26462     26461     26463         0         1
     26465     26464     26466         0         1
     26468     26467     26469         0         1
     26471     26470     26472         0         1
     26474     26473     26475         0         1
     26477     26476     26478         0         1
     26480     26479     26481         0         1
     26483     26482     26484         0         1
     26486     26485     26487         0         1
     26489     26488     26490         0         1
     26492     26491     26493         0         1
     26495     26494     26496         0         1
     26498     26497     26499         0         1
     26501     26500     26502         0         1
     26504     26503     26505         0         1
     26507     26506     26508         0         1
     26510     26509     26511         0         1
     26513     26512     26514         0         1
     26516     26515     26517         0         1
     26519     26518     26520         0         1
     26522     26521     26523         0         1
     26525     26524     26526         0         1
     26528     26527     26529         0         1
     26531     26530     26532         0         1
     26534     26533     26535         0         1
     26537     26536     26538         0         1
     26540     26539     26541         0         1
     26543     26542     26544         0         1
     26546     26545     26547         0         1
     26549     26548     26550         0         1
     26552     26551     26553         0         1
     26555     26554     26556         0         1
     26558     26557     26559         0         1
     26561     26560     26562         0         1
     26564     26563     26565         0         1
     26567     26566     26568         0         1
     26570     26569     26571         0         1
     26573     26572     26574         0         1
     26576     26575     26577         0         1
     26579     26578     26580         0         1
     26582     26581     26583         0         1
     26585     26584     26586         0         1
     26588     26587     26589         0         1
     26591     26590     26592         0         1
     26594     26593     26595         0         1
     26597     26596     26598         0         1
     26600     26599     26601         0         1
     26603     26602     26604         0         1
     26606     26605     26607         0         1
     26609     26608     26610         0         1
     26612     26611     26613         0         1
     26615     26614     26616         0         1
     26618     26617     26619         0         1
     26621     26620     26622         0         1
     26624     26623     26625         0         1
     26627     26626     26628         0         1
     26630     26629     26631         0         1
     26633     26632     26634         0         1
     26636     26635     26637         0         1
     26639     26638     26640         0         1
     26642     26641     26643         0         1
     26645     26644     26646         0         1
     26648     26647     26649         0         1
     26651     26650     26652         0         1
     26654     26653     26655         0         1
     26657     26656     26658         0         1
     26660     26659     26661         0         1
     26663     26662     26664         0         1
     26666     26665     26667         0         1
     26669     26668     26670         0         1
     26672     26671     26673         0         1
     26675     26674     26676         0         1
     26678     26677     26679         0         1
     26681     26680     26682         0         1
     26684     26683     26685         0         1
     26687     26686     26688         0         1
     26690     26689     26691         0         1
     26693     26692     26694         0         1
     26696     26695     26697         0         1
     26699     26698     26700         0         1
     26702     26701     26703         0         1
     26705     26704     26706         0         1
     26708     26707     26709         0         1
     26711     26710     26712         0         1
     26714     26713     26715         0         1
     26717     26716     26718         0         1
     26720     26719     26721         0         1
     26723     26722     26724         0         1
     26726     26725     26727         0         1
     26729     26728     26730         0         1
     26732     26731     26733         0         1
     26735     26734     26736         0         1
     26738     26737     26739         0         1
     26741     26740     26742         0         1
     26744     26743     26745         0         1
     26747     26746     26748         0         1
     26750     26749     26751         0         1
     26753     26752     26754         0         1
     26756     26755     26757         0         1
     26759     26758     26760         0         1
     26762     26761     26763         0         1
     26765     26764     26766         0         1
     26768     26767     26769         0         1
     26771     26770     26772         0         1
     26774     26773     26775         0         1
     26777     26776     26778         0         1
     26780     26779     26781         0         1
     26783     26782     26784         0         1
     26786     26785     26787         0         1
     26789     26788     26790         0         1
     26792     26791     26793         0         1
     26795     26794     26796         0         1
     26798     26797     26799         0         1
     26801     26800     26802         0         1
     26804     26803     26805         0         1
     26807     26806     26808         0         1
     26810     26809     26811         0         1
     26813     26812     26814         0         1
     26816     26815     26817         0         1
     26819     26818     26820         0         1
     26822     26821     26823         0         1
     26825     26824     26826         0         1
     26828     26827     26829         0         1
     26831     26830     26832         0         1
     26834     26833     26835         0         1
     26837     26836     26838         0         1
     26840     26839     26841         0         1
     26843     26842     26844         0         1
     26846     26845     26847         0         1
     26849     26848     26850         0         1
     26852     26851     26853         0         1
     26855     26854     26856         0         1
     26858     26857     26859         0         1
     26861     26860     26862         0         1
     26864     26863     26865         0         1
     26867     26866     26868         0         1
     26870     26869     26871         0         1
     26873     26872     26874         0         1
     26876     26875     26877         0         1
     26879     26878     26880         0         1
     26882     26881     26883         0         1
     26885     26884     26886         0         1
     26888     26887     26889         0         1
     26891     26890     26892         0         1
     26894     26893     26895         0         1
     26897     26896     26898         0         1
     26900     26899     26901         0         1
     26903     26902     26904         0         1
     26906     26905     26907         0         1
     26909     26908     26910         0         1
     26912     26911     26913         0         1
     26915     26914     26916         0         1
     26918     26917     26919         0         1
     26921     26920     26922         0         1
     26924     26923     26925         0         1
     26927     26926     26928         0         1
     26930     26929     26931         0         1
     26933     26932     26934         0         1
     26936     26935     26937         0         1
     26939     26938     26940         0         1
     26942     26941     26943         0         1
     26945     26944     26946         0         1
     26948     26947     26949         0         1
     26951     26950     26952         0         1
     26954     26953     26955         0         1
     26957     26956     26958         0         1
     26960     26959     26961         0         1
     26963     26962     26964         0         1
     26966     26965     26967         0         1
     26969     26968     26970         0         1
     26972     26971     26973         0         1
     26975     26974     26976         0         1
     26978     26977     26979         0         1
     26981     26980     26982         0         1
     26984     26983     26985         0         1
     26987     26986     26988         0         1
     26990     26989     26991         0         1
     26993     26992     26994         0         1
     26996     26995     26997         0         1
     26999     26998     27000         0         1
     27002     27001     27003         0         1
     27005     27004     27006         0         1
     27008     27007     27009         0         1
     27011     27010     27012         0         1
     27014     27013     27015         0         1
     27017     27016     27018         0         1
     27020     27019     27021         0         1
     27023     27022     27024         0         1
     27026     27025     27027         0         1
     27029     27028     27030         0         1
     27032     27031     27033         0         1
     27035     27034     27036         0         1
     27038     27037     27039         0         1
     27041     27040     27042         0         1
     27044     27043     27045         0         1
     27047     27046     27048         0         1
     27050     27049     27051         0         1
     27053     27052     27054         0         1
     27056     27055     27057         0         1
     27059     27058     27060         0         1
     27062     27061     27063         0         1
     27065     27064     27066         0         1
     27068     27067     27069         0         1
     27071     27070     27072         0         1
     27074     27073     27075         0         1
     27077     27076     27078         0         1
     27080     27079     27081         0         1
     27083     27082     27084         0         1
     27086     27085     27087         0         1
     27089     27088     27090         0         1
     27092     27091     27093         0         1
     27095     27094     27096         0         1
     27098     27097     27099         0         1
     27101     27100     27102         0         1
     27104     27103     27105         0         1
     27107     27106     27108         0         1
     27110     27109     27111         0         1
     27113     27112     27114         0         1
     27116     27115     27117         0         1
     27119     27118     27120         0         1
     27122     27121     27123         0         1
     27125     27124     27126         0         1
     27128     27127     27129         0         1
     27131     27130     27132         0         1
     27134     27133     27135         0         1
     27137     27136     27138         0         1
     27140     27139     27141         0         1
     27143     27142     27144         0         1
     27146     27145     27147         0         1
     27149     27148     27150         0         1
     27152     27151     27153         0         1
     27155     27154     27156         0         1
     27158     27157     27159         0         1
     27161     27160     27162         0         1
     27164     27163     27165         0         1
     27167     27166     27168         0         1
     27170     27169     27171         0         1
     27173     27172     27174         0         1
     27176     27175     27177         0         1
     27179     27178     27180         0         1
     27182     27181     27183         0         1
     27185     27184     27186         0         1
     27188     27187     27189         0         1
     27191     27190     27192         0         1
     27194     27193     27195         0         1
     27197     27196     27198         0         1
     27200     27199     27201         0         1
     27203     27202     27204         0         1
     27206     27205     27207         0         1
     27209     27208     27210         0         1
     27212     27211     27213         0         1
     27215     27214     27216         0         1
     27218     27217     27219         0         1
     27221     27220     27222         0         1
     27224     27223     27225         0         1
     27227     27226     27228         0         1
     27230     27229     27231         0         1
     27233     27232     27234         0         1
     27236     27235     27237         0         1
     27239     27238     27240         0         1
     27242     27241     27243         0         1
     27245     27244     27246         0         1
     27248     27247     27249         0         1
     27251     27250     27252         0         1
     27254     27253     27255         0         1
     27257     27256     27258         0         1
     27260     27259     27261         0         1
     27263     27262     27264         0         1
     27266     27265     27267         0         1
     27269     27268     27270         0         1
     27272     27271     27273         0         1
     27275     27274     27276         0         1
     27278     27277     27279         0         1
     27281     27280     27282         0         1
     27284     27283     27285         0         1
     27287     27286     27288         0         1
     27290     27289     27291         0         1
     27293     27292     27294         0         1
     27296     27295     27297         0         1
     27299     27298     27300         0         1
     27302     27301     27303         0         1
     27305     27304     27306         0         1
     27308     27307     27309         0         1
     27311     27310     27312         0         1
     27314     27313     27315         0         1
     27317     27316     27318         0         1
     27320     27319     27321         0         1
     27323     27322     27324         0         1
     27326     27325     27327         0         1
     27329     27328     27330         0         1
     27332     27331     27333         0         1
     27335     27334     27336         0         1
     27338     27337     27339         0         1
     27341     27340     27342         0         1
     27344     27343     27345         0         1
     27347     27346     27348         0         1
     27350     27349     27351         0         1
     27353     27352     27354         0         1
     27356     27355     27357         0         1
     27359     27358     27360         0         1
     27362     27361     27363         0         1
     27365     27364     27366         0         1
     27368     27367     27369         0         1
     27371     27370     27372         0         1
     27374     27373     27375         0         1
     27377     27376     27378         0         1
     27380     27379     27381         0         1
     27383     27382     27384         0         1
     27386     27385     27387         0         1
     27389     27388     27390         0         1
     27392     27391     27393         0         1
     27395     27394     27396         0         1
     27398     27397     27399         0         1
     27401     27400     27402         0         1
     27404     27403     27405         0         1
     27407     27406     27408         0         1
     27410     27409     27411         0         1
     27413     27412     27414         0         1
     27416     27415     27417         0         1
     27419     27418     27420         0         1
     27422     27421     27423         0         1
     27425     27424     27426         0         1
     27428     27427     27429         0         1
     27431     27430     27432         0         1
     27434     27433     27435         0         1
     27437     27436     27438         0         1
     27440     27439     27441         0         1
     27443     27442     27444         0         1
     27446     27445     27447         0         1
     27449     27448     27450         0         1
     27452     27451     27453         0         1
     27455     27454     27456         0         1
     27458     27457     27459         0         1
     27461     27460     27462         0         1
     27464     27463     27465         0         1
     27467     27466     27468         0         1
     27470     27469     27471         0         1
     27473     27472     27474         0         1
     27476     27475     27477         0         1
     27479     27478     27480         0         1
     27482     27481     27483         0         1
     27485     27484     27486         0         1
     27488     27487     27489         0         1
     27491     27490     27492         0         1
     27494     27493     27495         0         1
     27497     27496     27498         0         1
     27500     27499     27501         0         1
     27503     27502     27504         0         1
     27506     27505     27507         0         1
     27509     27508     27510         0         1
     27512     27511     27513         0         1
     27515     27514     27516         0         1
     27518     27517     27519         0         1
     27521     27520     27522         0         1
     27524     27523     27525         0         1
     27527     27526     27528         0         1
     27530     27529     27531         0         1
     27533     27532     27534         0         1
     27536     27535     27537         0         1
     27539     27538     27540         0         1
     27542     27541     27543         0         1
     27545     27544     27546         0         1
     27548     27547     27549         0         1
     27551     27550     27552         0         1
     27554     27553     27555         0         1
     27557     27556     27558         0         1
     27560     27559     27561         0         1
     27563     27562     27564         0         1
     27566     27565     27567         0         1
     27569     27568     27570         0         1
     27572     27571     27573         0         1
     27575     27574     27576         0         1
     27578     27577     27579         0         1
     27581     27580     27582         0         1
     27584     27583     27585         0         1
     27587     27586     27588         0         1
     27590     27589     27591         0         1
     27593     27592     27594         0         1
     27596     27595     27597         0         1
     27599     27598     27600         0         1
     27602     27601     27603         0         1
     27605     27604     27606         0         1
     27608     27607     27609         0         1
     27611     27610     27612         0         1
     27614     27613     27615         0         1
     27617     27616     27618         0         1
     27620     27619     27621         0         1
     27623     27622     27624         0         1
     27626     27625     27627         0         1
     27629     27628     27630         0         1
     27632     27631     27633         0         1
     27635     27634     27636         0         1
     27638     27637     27639         0         1
     27641     27640     27642         0         1
     27644     27643     27645         0         1
     27647     27646     27648         0         1
     27650     27649     27651         0         1
     27653     27652     27654         0         1
     27656     27655     27657         0         1
     27659     27658     27660         0         1
     27662     27661     27663         0         1
     27665     27664     27666         0         1
     27668     27667     27669         0         1
     27671     27670     27672         0         1
     27674     27673     27675         0         1
     27677     27676     27678         0         1
     27680     27679     27681         0         1
     27683     27682     27684         0         1
     27686     27685     27687         0         1
     27689     27688     27690         0         1
     27692     27691     27693         0         1
     27695     27694     27696         0         1
     27698     27697     27699         0         1
     27701     27700     27702         0         1
     27704     27703     27705         0         1
     27707     27706     27708         0         1
     27710     27709     27711         0         1
     27713     27712     27714         0         1
     27716     27715     27717         0         1
     27719     27718     27720         0         1
     27722     27721     27723         0         1
     27725     27724     27726         0         1
     27728     27727     27729         0         1
     27731     27730     27732         0         1
     27734     27733     27735         0         1
     27737     27736     27738         0         1
     27740     27739     27741         0         1
     27743     27742     27744         0         1
     27746     27745     27747         0         1
     27749     27748     27750         0         1
     27752     27751     27753         0         1
     27755     27754     27756         0         1
     27758     27757     27759         0         1
     27761     27760     27762         0         1
     27764     27763     27765         0         1
     27767     27766     27768         0         1
     27770     27769     27771         0         1
     27773     27772     27774         0         1
     27776     27775     27777         0         1
     27779     27778     27780         0         1
     27782     27781     27783         0         1
     27785     27784     27786         0         1
     27788     27787     27789         0         1
     27791     27790     27792         0         1
     27794     27793     27795         0         1
     27797     27796     27798         0         1
     27800     27799     27801         0         1
     27803     27802     27804         0         1
     27806     27805     27807         0         1
     27809     27808     27810         0         1
     27812     27811     27813         0         1
     27815     27814     27816         0         1
     27818     27817     27819         0         1
     27821     27820     27822         0         1
     27824     27823     27825         0         1
     27827     27826     27828         0         1
     27830     27829     27831         0         1
     27833     27832     27834         0         1
     27836     27835     27837         0         1
     27839     27838     27840         0         1
     27842     27841     27843         0         1
     27845     27844     27846         0         1
     27848     27847     27849         0         1
     27851     27850     27852         0         1
     27854     27853     27855         0         1
     27857     27856     27858         0         1
     27860     27859     27861         0         1
     27863     27862     27864         0         1
     27866     27865     27867         0         1
     27869     27868     27870         0         1
     27872     27871     27873         0         1
     27875     27874     27876         0         1
     27878     27877     27879         0         1
     27881     27880     27882         0         1
     27884     27883     27885         0         1
     27887     27886     27888         0         1
     27890     27889     27891         0         1
     27893     27892     27894         0         1
     27896     27895     27897         0         1
     27899     27898     27900         0         1
     27902     27901     27903         0         1
     27905     27904     27906         0         1
     27908     27907     27909         0         1
     27911     27910     27912         0         1
     27914     27913     27915         0         1
     27917     27916     27918         0         1
     27920     27919     27921         0         1
     27923     27922     27924         0         1
     27926     27925     27927         0         1
     27929     27928     27930         0         1
     27932     27931     27933         0         1
     27935     27934     27936         0         1
     27938     27937     27939         0         1
     27941     27940     27942         0         1
     27944     27943     27945         0         1
     27947     27946     27948         0         1
     27950     27949     27951         0         1
     27953     27952     27954         0         1
     27956     27955     27957         0         1
     27959     27958     27960         0         1
     27962     27961     27963         0         1
     27965     27964     27966         0         1
     27968     27967     27969         0         1
     27971     27970     27972         0         1
     27974     27973     27975         0         1
     27977     27976     27978         0         1
     27980     27979     27981         0         1
     27983     27982     27984         0         1
     27986     27985     27987         0         1
     27989     27988     27990         0         1
     27992     27991     27993         0         1
     27995     27994     27996         0         1
     27998     27997     27999         0         1
     28001     28000     28002         0         1
     28004     28003     28005         0         1
     28007     28006     28008         0         1
     28010     28009     28011         0         1
     28013     28012     28014         0         1
     28016     28015     28017         0         1
     28019     28018     28020         0         1
     28022     28021     28023         0         1
     28025     28024     28026         0         1
     28028     28027     28029         0         1
     28031     28030     28032         0         1
     28034     28033     28035         0         1
     28037     28036     28038         0         1
     28040     28039     28041         0         1
     28043     28042     28044         0         1
     28046     28045     28047         0         1
     28049     28048     28050         0         1
     28052     28051     28053         0         1
     28055     28054     28056         0         1
     28058     28057     28059         0         1
     28061     28060     28062         0         1
     28064     28063     28065         0         1
     28067     28066     28068         0         1
     28070     28069     28071         0         1
     28073     28072     28074         0         1
     28076     28075     28077         0         1
     28079     28078     28080         0         1
     28082     28081     28083         0         1
     28085     28084     28086         0         1
     28088     28087     28089         0         1
     28091     28090     28092         0         1
     28094     28093     28095         0         1
     28097     28096     28098         0         1
     28100     28099     28101         0         1
     28103     28102     28104         0         1
     28106     28105     28107         0         1
     28109     28108     28110         0         1
     28112     28111     28113         0         1
     28115     28114     28116         0         1
     28118     28117     28119         0         1
     28121     28120     28122         0         1
     28124     28123     28125         0         1
     28127     28126     28128         0         1
     28130     28129     28131         0         1
     28133     28132     28134         0         1
     28136     28135     28137         0         1
     28139     28138     28140         0         1
     28142     28141     28143         0         1
     28145     28144     28146         0         1
     28148     28147     28149         0         1
     28151     28150     28152         0         1
     28154     28153     28155         0         1
     28157     28156     28158         0         1
     28160     28159     28161         0         1
     28163     28162     28164         0         1
     28166     28165     28167         0         1
     28169     28168     28170         0         1
     28172     28171     28173         0         1
     28175     28174     28176         0         1
     28178     28177     28179         0         1
     28181     28180     28182         0         1
     28184     28183     28185         0         1
     28187     28186     28188         0         1
     28190     28189     28191         0         1
     28193     28192     28194         0         1
     28196     28195     28197         0         1
     28199     28198     28200         0         1
     28202     28201     28203         0         1
     28205     28204     28206         0         1
     28208     28207     28209         0         1
     28211     28210     28212         0         1
     28214     28213     28215         0         1
     28217     28216     28218         0         1
     28220     28219     28221         0         1
     28223     28222     28224         0         1
     28226     28225     28227         0         1
     28229     28228     28230         0         1
     28232     28231     28233         0         1
     28235     28234     28236         0         1
     28238     28237     28239         0         1
     28241     28240     28242         0         1
     28244     28243     28245         0         1
     28247     28246     28248         0         1
     28250     28249     28251         0         1
     28253     28252     28254         0         1
     28256     28255     28257         0         1
     28259     28258     28260         0         1
     28262     28261     28263         0         1
     28265     28264     28266         0         1
     28268     28267     28269         0         1
     28271     28270     28272         0         1
     28274     28273     28275         0         1
     28277     28276     28278         0         1
     28280     28279     28281         0         1
     28283     28282     28284         0         1
     28286     28285     28287         0         1
     28289     28288     28290         0         1
     28292     28291     28293         0         1
     28295     28294     28296         0         1
     28298     28297     28299         0         1
     28301     28300     28302         0         1
     28304     28303     28305         0         1
     28307     28306     28308         0         1
     28310     28309     28311         0         1
     28313     28312     28314         0         1
     28316     28315     28317         0         1
     28319     28318     28320         0         1
     28322     28321     28323         0         1
     28325     28324     28326         0         1
     28328     28327     28329         0         1
     28331     28330     28332         0         1
     28334     28333     28335         0         1
     28337     28336     28338         0         1
     28340     28339     28341         0         1
     28343     28342     28344         0         1
     28346     28345     28347         0         1
     28349     28348     28350         0         1
     28352     28351     28353         0         1
     28355     28354     28356         0         1
     28358     28357     28359         0         1
     28361     28360     28362         0         1
     28364     28363     28365         0         1
     28367     28366     28368         0         1
     28370     28369     28371         0         1
     28373     28372     28374         0         1
     28376     28375     28377         0         1
     28379     28378     28380         0         1
     28382     28381     28383         0         1
     28385     28384     28386         0         1
     28388     28387     28389         0         1
     28391     28390     28392         0         1
     28394     28393     28395         0         1
     28397     28396     28398         0         1
     28400     28399     28401         0         1
     28403     28402     28404         0         1
     28406     28405     28407         0         1
     28409     28408     28410         0         1
     28412     28411     28413         0         1
     28415     28414     28416         0         1
     28418     28417     28419         0         1
     28421     28420     28422         0         1
     28424     28423     28425         0         1
     28427     28426     28428         0         1
     28430     28429     28431         0         1
     28433     28432     28434         0         1
     28436     28435     28437         0         1
     28439     28438     28440         0         1
     28442     28441     28443         0         1
     28445     28444     28446         0         1
     28448     28447     28449         0         1
     28451     28450     28452         0         1
     28454     28453     28455         0         1
     28457     28456     28458         0         1
     28460     28459     28461         0         1
     28463     28462     28464         0         1
     28466     28465     28467         0         1
     28469     28468     28470         0         1
     28472     28471     28473         0         1
     28475     28474     28476         0         1
     28478     28477     28479         0         1
     28481     28480     28482         0         1
     28484     28483     28485         0         1
     28487     28486     28488         0         1
     28490     28489     28491         0         1
     28493     28492     28494         0         1
     28496     28495     28497         0         1
     28499     28498     28500         0         1
     28502     28501     28503         0         1
     28505     28504     28506         0         1
     28508     28507     28509         0         1
     28511     28510     28512         0         1
     28514     28513     28515         0         1
     28517     28516     28518         0         1
     28520     28519     28521         0         1
     28523     28522     28524         0         1
     28526     28525     28527         0         1
     28529     28528     28530         0         1
     28532     28531     28533         0         1
     28535     28534     28536         0         1
     28538     28537     28539         0         1
     28541     28540     28542         0         1
     28544     28543     28545         0         1
     28547     28546     28548         0         1
     28550     28549     28551         0         1
     28553     28552     28554         0         1
     28556     28555     28557         0         1
     28559     28558     28560         0         1
     28562     28561     28563         0         1
     28565     28564     28566         0         1
     28568     28567     28569         0         1
     28571     28570     28572         0         1
     28574     28573     28575         0         1
     28577     28576     28578         0         1
     28580     28579     28581         0         1
     28583     28582     28584         0         1
     28586     28585     28587         0         1
     28589     28588     28590         0         1
     28592     28591     28593         0         1
     28595     28594     28596         0         1
     28598     28597     28599         0         1
     28601     28600     28602         0         1
     28604     28603     28605         0         1
     28607     28606     28608         0         1
     28610     28609     28611         0         1
     28613     28612     28614         0         1
     28616     28615     28617         0         1
     28619     28618     28620         0         1
     28622     28621     28623         0         1
     28625     28624     28626         0         1
     28628     28627     28629         0         1
     28631     28630     28632         0         1
     28634     28633     28635         0         1
     28637     28636     28638         0         1
     28640     28639     28641         0         1
     28643     28642     28644         0         1
     28646     28645     28647         0         1
     28649     28648     28650         0         1
     28652     28651     28653         0         1
     28655     28654     28656         0         1
     28658     28657     28659         0         1
     28661     28660     28662         0         1
     28664     28663     28665         0         1
     28667     28666     28668         0         1
     28670     28669     28671         0         1
     28673     28672     28674         0         1
     28676     28675     28677         0         1
     28679     28678     28680         0         1
     28682     28681     28683         0         1
     28685     28684     28686         0         1
     28688     28687     28689         0         1
     28691     28690     28692         0         1
     28694     28693     28695         0         1
     28697     28696     28698         0         1
     28700     28699     28701         0         1
     28703     28702     28704         0         1
     28706     28705     28707         0         1
     28709     28708     28710         0         1
     28712     28711     28713         0         1
     28715     28714     28716         0         1
     28718     28717     28719         0         1
     28721     28720     28722         0         1
     28724     28723     28725         0         1
     28727     28726     28728         0         1
     28730     28729     28731         0         1
     28733     28732     28734         0         1
     28736     28735     28737         0         1
     28739     28738     28740         0         1
     28742     28741     28743         0         1
     28745     28744     28746         0         1
     28748     28747     28749         0         1
     28751     28750     28752         0         1
     28754     28753     28755         0         1
     28757     28756     28758         0         1
     28760     28759     28761         0         1
     28763     28762     28764         0         1
     28766     28765     28767         0         1
     28769     28768     28770         0         1
     28772     28771     28773         0         1
     28775     28774     28776         0         1
     28778     28777     28779         0         1
     28781     28780     28782         0         1
     28784     28783     28785         0         1
     28787     28786     28788         0         1
     28790     28789     28791         0         1
     28793     28792     28794         0         1
     28796     28795     28797         0         1
     28799     28798     28800         0         1
     28802     28801     28803         0         1
     28805     28804     28806         0         1
     28808     28807     28809         0         1
     28811     28810     28812         0         1
     28814     28813     28815         0         1
     28817     28816     28818         0         1
     28820     28819     28821         0         1
     28823     28822     28824         0         1
     28826     28825     28827         0         1
     28829     28828     28830         0         1
     28832     28831     28833         0         1
     28835     28834     28836         0         1
     28838     28837     28839         0         1
     28841     28840     28842         0         1
     28844     28843     28845         0         1
     28847     28846     28848         0         1
     28850     28849     28851         0         1
     28853     28852     28854         0         1
     28856     28855     28857         0         1
     28859     28858     28860         0         1
     28862     28861     28863         0         1
     28865     28864     28866         0         1
     28868     28867     28869         0         1
     28871     28870     28872         0         1
     28874     28873     28875         0         1
     28877     28876     28878         0         1
     28880     28879     28881         0         1
     28883     28882     28884         0         1
     28886     28885     28887         0         1
     28889     28888     28890         0         1
     28892     28891     28893         0         1
     28895     28894     28896         0         1
     28898     28897     28899         0         1
     28901     28900     28902         0         1
     28904     28903     28905         0         1
     28907     28906     28908         0         1
     28910     28909     28911         0         1
     28913     28912     28914         0         1
     28916     28915     28917         0         1
     28919     28918     28920         0         1
     28922     28921     28923         0         1
     28925     28924     28926         0         1
     28928     28927     28929         0         1
     28931     28930     28932         0         1
     28934     28933     28935         0         1
     28937     28936     28938         0         1
     28940     28939     28941         0         1
     28943     28942     28944         0         1
     28946     28945     28947         0         1
     28949     28948     28950         0         1
     28952     28951     28953         0         1
     28955     28954     28956         0         1
     28958     28957     28959         0         1
     28961     28960     28962         0         1
     28964     28963     28965         0         1
     28967     28966     28968         0         1
     28970     28969     28971         0         1
     28973     28972     28974         0         1
     28976     28975     28977         0         1
     28979     28978     28980         0         1
     28982     28981     28983         0         1
     28985     28984     28986         0         1
     28988     28987     28989         0         1
     28991     28990     28992         0         1
     28994     28993     28995         0         1
     28997     28996     28998         0         1
     29000     28999     29001         0         1
     29003     29002     29004         0         1
     29006     29005     29007         0         1
     29009     29008     29010         0         1
     29012     29011     29013         0         1
     29015     29014     29016         0         1
     29018     29017     29019         0         1
     29021     29020     29022         0         1
     29024     29023     29025         0         1
     29027     29026     29028         0         1
     29030     29029     29031         0         1
     29033     29032     29034         0         1
     29036     29035     29037         0         1
     29039     29038     29040         0         1
     29042     29041     29043         0         1
     29045     29044     29046         0         1
     29048     29047     29049         0         1
     29051     29050     29052         0         1
     29054     29053     29055         0         1
     29057     29056     29058         0         1
     29060     29059     29061         0         1
     29063     29062     29064         0         1
     29066     29065     29067         0         1
     29069     29068     29070         0         1
     29072     29071     29073         0         1
     29075     29074     29076         0         1
     29078     29077     29079         0         1
     29081     29080     29082         0         1
     29084     29083     29085         0         1
     29087     29086     29088         0         1
     29090     29089     29091         0         1
     29093     29092     29094         0         1
     29096     29095     29097         0         1
     29099     29098     29100         0         1
     29102     29101     29103         0         1
     29105     29104     29106         0         1
     29108     29107     29109         0         1
     29111     29110     29112         0         1
     29114     29113     29115         0         1
     29117     29116     29118         0         1
     29120     29119     29121         0         1
     29123     29122     29124         0         1
     29126     29125     29127         0         1
     29129     29128     29130         0         1
     29132     29131     29133         0         1
     29135     29134     29136         0         1
     29138     29137     29139         0         1
     29141     29140     29142         0         1
     29144     29143     29145         0         1
     29147     29146     29148         0         1
     29150     29149     29151         0         1
     29153     29152     29154         0         1
     29156     29155     29157         0         1
     29159     29158     29160         0         1
     29162     29161     29163         0         1
     29165     29164     29166         0         1
     29168     29167     29169         0         1
     29171     29170     29172         0         1
     29174     29173     29175         0         1
     29177     29176     29178         0         1
     29180     29179     29181         0         1
     29183     29182     29184         0         1
     29186     29185     29187         0         1
     29189     29188     29190         0         1
     29192     29191     29193         0         1
     29195     29194     29196         0         1
     29198     29197     29199         0         1
     29201     29200     29202         0         1
     29204     29203     29205         0         1
     29207     29206     29208         0         1
     29210     29209     29211         0         1
     29213     29212     29214         0         1
     29216     29215     29217         0         1
     29219     29218     29220         0         1
     29222     29221     29223         0         1
     29225     29224     29226         0         1
     29228     29227     29229         0         1
     29231     29230     29232         0         1
     29234     29233     29235         0         1
     29237     29236     29238         0         1
     29240     29239     29241         0         1
     29243     29242     29244         0         1
     29246     29245     29247         0         1
     29249     29248     29250         0         1
     29252     29251     29253         0         1
     29255     29254     29256         0         1
     29258     29257     29259         0         1
     29261     29260     29262         0         1
     29264     29263     29265         0         1
     29267     29266     29268         0         1
     29270     29269     29271         0         1
     29273     29272     29274         0         1
     29276     29275     29277         0         1
     29279     29278     29280         0         1
     29282     29281     29283         0         1
     29285     29284     29286         0         1
     29288     29287     29289         0         1
     29291     29290     29292         0         1
     29294     29293     29295         0         1
     29297     29296     29298         0         1
     29300     29299     29301         0         1
     29303     29302     29304         0         1
     29306     29305     29307         0         1
     29309     29308     29310         0         1
     29312     29311     29313         0         1
     29315     29314     29316         0         1
     29318     29317     29319         0         1
     29321     29320     29322         0         1
     29324     29323     29325         0         1
     29327     29326     29328         0         1
     29330     29329     29331         0         1
     29333     29332     29334         0         1
     29336     29335     29337         0         1
     29339     29338     29340         0         1
     29342     29341     29343         0         1
     29345     29344     29346         0         1
     29348     29347     29349         0         1
     29351     29350     29352         0         1
     29354     29353     29355         0         1
     29357     29356     29358         0         1
     29360     29359     29361         0         1
     29363     29362     29364         0         1
     29366     29365     29367         0         1
     29369     29368     29370         0         1
     29372     29371     29373         0         1
     29375     29374     29376         0         1
     29378     29377     29379         0         1
     29381     29380     29382         0         1
     29384     29383     29385         0         1
     29387     29386     29388         0         1
     29390     29389     29391         0         1
     29393     29392     29394         0         1
     29396     29395     29397         0         1
     29399     29398     29400         0         1
     29402     29401     29403         0         1
     29405     29404     29406         0         1
     29408     29407     29409         0         1
     29411     29410     29412         0         1
     29414     29413     29415         0         1
     29417     29416     29418         0         1
     29420     29419     29421         0         1
     29423     29422     29424         0         1
     29426     29425     29427         0         1
     29429     29428     29430         0         1
     29432     29431     29433         0         1
     29435     29434     29436         0         1
     29438     29437     29439         0         1
     29441     29440     29442         0         1
     29444     29443     29445         0         1
     29447     29446     29448         0         1
     29450     29449     29451         0         1
     29453     29452     29454         0         1
     29456     29455     29457         0         1
     29459     29458     29460         0         1
     29462     29461     29463         0         1
     29465     29464     29466         0         1
     29468     29467     29469         0         1
     29471     29470     29472         0         1
     29474     29473     29475         0         1
     29477     29476     29478         0         1
     29480     29479     29481         0         1
     29483     29482     29484         0         1
     29486     29485     29487         0         1
     29489     29488     29490         0         1
     29492     29491     29493         0         1
     29495     29494     29496         0         1
     29498     29497     29499         0         1
     29501     29500     29502         0         1
     29504     29503     29505         0         1
     29507     29506     29508         0         1
     29510     29509     29511         0         1
     29513     29512     29514         0         1
     29516     29515     29517         0         1
     29519     29518     29520         0         1
     29522     29521     29523         0         1
     29525     29524     29526         0         1
     29528     29527     29529         0         1
     29531     29530     29532         0         1
     29534     29533     29535         0         1
     29537     29536     29538         0         1
     29540     29539     29541         0         1
     29543     29542     29544         0         1
     29546     29545     29547         0         1
     29549     29548     29550         0         1
     29552     29551     29553         0         1
     29555     29554     29556         0         1
     29558     29557     29559         0         1
     29561     29560     29562         0         1
     29564     29563     29565         0         1
     29567     29566     29568         0         1
     29570     29569     29571         0         1
     29573     29572     29574         0         1
     29576     29575     29577         0         1
     29579     29578     29580         0         1
     29582     29581     29583         0         1
     29585     29584     29586         0         1
     29588     29587     29589         0         1
     29591     29590     29592         0         1
     29594     29593     29595         0         1
     29597     29596     29598         0         1
     29600     29599     29601         0         1
     29603     29602     29604         0         1
     29606     29605     29607         0         1
     29609     29608     29610         0         1
     29612     29611     29613         0         1
     29615     29614     29616         0         1
     29618     29617     29619         0         1
     29621     29620     29622         0         1
     29624     29623     29625         0         1
     29627     29626     29628         0         1
     29630     29629     29631         0         1
     29633     29632     29634         0         1
     29636     29635     29637         0         1
     29639     29638     29640         0         1
     29642     29641     29643         0         1
     29645     29644     29646         0         1
     29648     29647     29649         0         1
     29651     29650     29652         0         1
     29654     29653     29655         0         1
     29657     29656     29658         0         1
     29660     29659     29661         0         1
     29663     29662     29664         0         1
     29666     29665     29667         0         1
     29669     29668     29670         0         1
     29672     29671     29673         0         1
     29675     29674     29676         0         1
     29678     29677     29679         0         1
     29681     29680     29682         0         1
     29684     29683     29685         0         1
     29687     29686     29688         0         1
     29690     29689     29691         0         1
     29693     29692     29694         0         1
     29696     29695     29697         0         1
     29699     29698     29700         0         1
     29702     29701     29703         0         1
     29705     29704     29706         0         1
     29708     29707     29709         0         1
     29711     29710     29712         0         1
     29714     29713     29715         0         1
     29717     29716     29718         0         1
     29720     29719     29721         0         1
     29723     29722     29724         0         1
     29726     29725     29727         0         1
     29729     29728     29730         0         1
     29732     29731     29733         0         1
     29735     29734     29736         0         1
     29738     29737     29739         0         1
     29741     29740     29742         0         1
     29744     29743     29745         0         1
     29747     29746     29748         0         1
     29750     29749     29751         0         1
     29753     29752     29754         0         1
     29756     29755     29757         0         1
     29759     29758     29760         0         1
     29762     29761     29763         0         1
     29765     29764     29766         0         1
     29768     29767     29769         0         1
     29771     29770     29772         0         1
     29774     29773     29775         0         1
     29777     29776     29778         0         1
     29780     29779     29781         0         1
     29783     29782     29784         0         1
     29786     29785     29787         0         1
     29789     29788     29790         0         1
     29792     29791     29793         0         1
     29795     29794     29796         0         1
     29798     29797     29799         0         1
     29801     29800     29802         0         1
     29804     29803     29805         0         1
     29807     29806     29808         0         1
     29810     29809     29811         0         1
     29813     29812     29814         0         1
     29816     29815     29817         0         1
     29819     29818     29820         0         1
     29822     29821     29823         0         1
     29825     29824     29826         0         1
     29828     29827     29829         0         1
     29831     29830     29832         0         1
     29834     29833     29835         0         1
     29837     29836     29838         0         1
     29840     29839     29841         0         1
     29843     29842     29844         0         1
     29846     29845     29847         0         1
     29849     29848     29850         0         1
     29852     29851     29853         0         1
     29855     29854     29856         0         1
     29858     29857     29859         0         1
     29861     29860     29862         0         1
     29864     29863     29865         0         1
     29867     29866     29868         0         1
     29870     29869     29871         0         1
     29873     29872     29874         0         1
     29876     29875     29877         0         1
     29879     29878     29880         0         1
     29882     29881     29883         0         1
     29885     29884     29886         0         1
     29888     29887     29889         0         1
     29891     29890     29892         0         1
     29894     29893     29895         0         1
     29897     29896     29898         0         1
     29900     29899     29901         0         1
     29903     29902     29904         0         1
     29906     29905     29907         0         1
     29909     29908     29910         0         1
     29912     29911     29913         0         1
     29915     29914     29916         0         1
     29918     29917     29919         0         1
     29921     29920     29922         0         1
     29924     29923     29925         0         1
     29927     29926     29928         0         1
     29930     29929     29931         0         1
     29933     29932     29934         0         1
     29936     29935     29937         0         1
     29939     29938     29940         0         1
     29942     29941     29943         0         1
     29945     29944     29946         0         1
     29948     29947     29949         0         1
     29951     29950     29952         0         1
     29954     29953     29955         0         1
     29957     29956     29958         0         1
     29960     29959     29961         0         1
     29963     29962     29964         0         1
     29966     29965     29967         0         1
     29969     29968     29970         0         1
     29972     29971     29973         0         1
     29975     29974     29976         0         1
     29978     29977     29979         0         1
     29981     29980     29982         0         1
     29984     29983     29985         0         1
     29987     29986     29988         0         1
     29990     29989     29991         0         1
     29993     29992     29994         0         1
     29996     29995     29997         0         1
     29999     29998     30000         0         1
     30002     30001     30003         0         1
     30005     30004     30006         0         1
     30008     30007     30009         0         1
     30011     30010     30012         0         1
     30014     30013     30015         0         1
     30017     30016     30018         0         1
     30020     30019     30021         0         1
     30023     30022     30024         0         1
     30026     30025     30027         0         1
     30029     30028     30030         0         1
     30032     30031     30033         0         1
     30035     30034     30036         0         1
     30038     30037     30039         0         1
     30041     30040     30042         0         1
     30044     30043     30045         0         1
     30047     30046     30048         0         1
     30050     30049     30051         0         1
     30053     30052     30054         0         1
     30056     30055     30057         0         1
     30059     30058     30060         0         1
     30062     30061     30063         0         1
     30065     30064     30066         0         1
     30068     30067     30069         0         1
     30071     30070     30072         0         1
     30074     30073     30075         0         1
     30077     30076     30078         0         1
     30080     30079     30081         0         1
     30083     30082     30084         0         1
     30086     30085     30087         0         1
     30089     30088     30090         0         1
     30092     30091     30093         0         1
     30095     30094     30096         0         1
     30098     30097     30099         0         1
     30101     30100     30102         0         1
     30104     30103     30105         0         1
     30107     30106     30108         0         1
     30110     30109     30111         0         1
     30113     30112     30114         0         1
     30116     30115     30117         0         1
     30119     30118     30120         0         1
     30122     30121     30123         0         1
     30125     30124     30126         0         1
     30128     30127     30129         0         1
     30131     30130     30132         0         1
     30134     30133     30135         0         1
     30137     30136     30138         0         1
     30140     30139     30141         0         1
     30143     30142     30144         0         1
     30146     30145     30147         0         1
     30149     30148     30150         0         1
     30152     30151     30153         0         1
     30155     30154     30156         0         1
     30158     30157     30159         0         1
     30161     30160     30162         0         1
     30164     30163     30165         0         1
     30167     30166     30168         0         1
     30170     30169     30171         0         1
     30173     30172     30174         0         1
     30176     30175     30177         0         1
     30179     30178     30180         0         1
     30182     30181     30183         0         1
     30185     30184     30186         0         1
     30188     30187     30189         0         1
     30191     30190     30192         0         1
     30194     30193     30195         0         1
     30197     30196     30198         0         1
     30200     30199     30201         0         1
     30203     30202     30204         0         1
     30206     30205     30207         0         1
     30209     30208     30210         0         1
     30212     30211     30213         0         1
     30215     30214     30216         0         1
     30218     30217     30219         0         1
     30221     30220     30222         0         1
     30224     30223     30225         0         1
     30227     30226     30228         0         1
     30230     30229     30231         0         1
     30233     30232     30234         0         1
     30236     30235     30237         0         1
     30239     30238     30240         0         1
     30242     30241     30243         0         1
     30245     30244     30246         0         1
     30248     30247     30249         0         1
     30251     30250     30252         0         1
     30254     30253     30255         0         1
     30257     30256     30258         0         1
     30260     30259     30261         0         1
     30263     30262     30264         0         1
     30266     30265     30267         0         1
     30269     30268     30270         0         1
     30272     30271     30273         0         1
     30275     30274     30276         0         1
     30278     30277     30279         0         1
     30281     30280     30282         0         1
     30284     30283     30285         0         1
     30287     30286     30288         0         1
     30290     30289     30291         0         1
     30293     30292     30294         0         1
     30296     30295     30297         0         1
     30299     30298     30300         0         1
     30302     30301     30303         0         1
     30305     30304     30306         0         1
     30308     30307     30309         0         1
     30311     30310     30312         0         1
     30314     30313     30315         0         1
     30317     30316     30318         0         1
     30320     30319     30321         0         1
     30323     30322     30324         0         1
     30326     30325     30327         0         1
     30329     30328     30330         0         1
     30332     30331     30333         0         1
     30335     30334     30336         0         1
     30338     30337     30339         0         1
     30341     30340     30342         0         1
     30344     30343     30345         0         1
     30347     30346     30348         0         1
     30350     30349     30351         0         1
     30353     30352     30354         0         1
     30356     30355     30357         0         1
     30359     30358     30360         0         1
     30362     30361     30363         0         1
     30365     30364     30366         0         1
     30368     30367     30369         0         1
     30371     30370     30372         0         1
     30374     30373     30375         0         1
     30377     30376     30378         0         1
     30380     30379     30381         0         1
     30383     30382     30384         0         1
     30386     30385     30387         0         1
     30389     30388     30390         0         1
     30392     30391     30393         0         1
     30395     30394     30396         0         1
     30398     30397     30399         0         1
     30401     30400     30402         0         1
     30404     30403     30405         0         1
     30407     30406     30408         0         1
     30410     30409     30411         0         1
     30413     30412     30414         0         1
     30416     30415     30417         0         1
     30419     30418     30420         0         1
     30422     30421     30423         0         1
     30425     30424     30426         0         1
     30428     30427     30429         0         1
     30431     30430     30432         0         1
     30434     30433     30435         0         1
     30437     30436     30438         0         1
     30440     30439     30441         0         1
     30443     30442     30444         0         1
     30446     30445     30447         0         1
     30449     30448     30450         0         1
     30452     30451     30453         0         1
     30455     30454     30456         0         1
     30458     30457     30459         0         1
     30461     30460     30462         0         1
     30464     30463     30465         0         1
     30467     30466     30468         0         1
     30470     30469     30471         0         1
     30473     30472     30474         0         1
     30476     30475     30477         0         1
     30479     30478     30480         0         1
     30482     30481     30483         0         1
     30485     30484     30486         0         1
     30488     30487     30489         0         1
     30491     30490     30492         0         1
     30494     30493     30495         0         1
     30497     30496     30498         0         1
     30500     30499     30501         0         1
     30503     30502     30504         0         1
     30506     30505     30507         0         1
     30509     30508     30510         0         1
     30512     30511     30513         0         1
     30515     30514     30516         0         1
     30518     30517     30519         0         1
     30521     30520     30522         0         1
     30524     30523     30525         0         1
     30527     30526     30528         0         1
     30530     30529     30531         0         1
     30533     30532     30534         0         1
     30536     30535     30537         0         1
     30539     30538     30540         0         1
     30542     30541     30543         0         1
     30545     30544     30546         0         1
     30548     30547     30549         0         1
     30551     30550     30552         0         1
     30554     30553     30555         0         1
     30557     30556     30558         0         1
     30560     30559     30561         0         1
     30563     30562     30564         0         1
     30566     30565     30567         0         1
     30569     30568     30570         0         1
     30572     30571     30573         0         1
     30575     30574     30576         0         1
     30578     30577     30579         0         1
     30581     30580     30582         0         1
     30584     30583     30585         0         1
     30587     30586     30588         0         1
     30590     30589     30591         0         1
     30593     30592     30594         0         1
     30596     30595     30597         0         1
     30599     30598     30600         0         1
     30602     30601     30603         0         1
     30605     30604     30606         0         1
     30608     30607     30609         0         1
     30611     30610     30612         0         1
     30614     30613     30615         0         1
     30617     30616     30618         0         1
     30620     30619     30621         0         1
     30623     30622     30624         0         1
     30626     30625     30627         0         1
     30629     30628     30630         0         1
     30632     30631     30633         0         1
     30635     30634     30636         0         1
     30638     30637     30639         0         1
     30641     30640     30642         0         1
     30644     30643     30645         0         1
     30647     30646     30648         0         1
     30650     30649     30651         0         1
     30653     30652     30654         0         1
     30656     30655     30657         0         1
     30659     30658     30660         0         1
     30662     30661     30663         0         1
     30665     30664     30666         0         1
     30668     30667     30669         0         1
     30671     30670     30672         0         1
     30674     30673     30675         0         1
     30677     30676     30678         0         1
     30680     30679     30681         0         1
     30683     30682     30684         0         1
     30686     30685     30687         0         1
     30689     30688     30690         0         1
     30692     30691     30693         0         1
     30695     30694     30696         0         1
     30698     30697     30699         0         1
     30701     30700     30702         0         1
     30704     30703     30705         0         1
     30707     30706     30708         0         1
     30710     30709     30711         0         1
     30713     30712     30714         0         1
     30716     30715     30717         0         1
     30719     30718     30720         0         1
     30722     30721     30723         0         1
     30725     30724     30726         0         1
     30728     30727     30729         0         1
     30731     30730     30732         0         1
     30734     30733     30735         0         1
     30737     30736     30738         0         1
     30740     30739     30741         0         1
     30743     30742     30744         0         1
     30746     30745     30747         0         1
     30749     30748     30750         0         1
     30752     30751     30753         0         1
     30755     30754     30756         0         1
     30758     30757     30759         0         1
     30761     30760     30762         0         1
     30764     30763     30765         0         1
     30767     30766     30768         0         1
     30770     30769     30771         0         1
     30773     30772     30774         0         1
     30776     30775     30777         0         1
     30779     30778     30780         0         1
     30782     30781     30783         0         1
     30785     30784     30786         0         1
     30788     30787     30789         0         1
     30791     30790     30792         0         1
     30794     30793     30795         0         1
     30797     30796     30798         0         1
     30800     30799     30801         0         1
     30803     30802     30804         0         1
     30806     30805     30807         0         1
     30809     30808     30810         0         1
     30812     30811     30813         0         1
     30815     30814     30816         0         1
     30818     30817     30819         0         1
     30821     30820     30822         0         1
     30824     30823     30825         0         1
     30827     30826     30828         0         1
     30830     30829     30831         0         1
     30833     30832     30834         0         1
     30836     30835     30837         0         1
     30839     30838     30840         0         1
     30842     30841     30843         0         1
     30845     30844     30846         0         1
     30848     30847     30849         0         1
     30851     30850     30852         0         1
     30854     30853     30855         0         1
     30857     30856     30858         0         1
     30860     30859     30861         0         1
     30863     30862     30864         0         1
     30866     30865     30867         0         1
     30869     30868     30870         0         1
     30872     30871     30873         0         1
     30875     30874     30876         0         1
     30878     30877     30879         0         1
     30881     30880     30882         0         1
     30884     30883     30885         0         1
     30887     30886     30888         0         1
     30890     30889     30891         0         1
     30893     30892     30894         0         1
     30896     30895     30897         0         1
     30899     30898     30900         0         1
     30902     30901     30903         0         1
     30905     30904     30906         0         1
     30908     30907     30909         0         1
     30911     30910     30912         0         1
     30914     30913     30915         0         1
     30917     30916     30918         0         1
     30920     30919     30921         0         1
     30923     30922     30924         0         1
     30926     30925     30927         0         1
     30929     30928     30930         0         1
     30932     30931     30933         0         1
     30935     30934     30936         0         1
     30938     30937     30939         0         1
     30941     30940     30942         0         1
     30944     30943     30945         0         1
     30947     30946     30948         0         1
     30950     30949     30951         0         1
     30953     30952     30954         0         1
     30956     30955     30957         0         1
     30959     30958     30960         0         1
     30962     30961     30963         0         1
     30965     30964     30966         0         1
     30968     30967     30969         0         1
     30971     30970     30972         0         1
     30974     30973     30975         0         1
     30977     30976     30978         0         1
     30980     30979     30981         0         1
     30983     30982     30984         0         1
     30986     30985     30987         0         1
     30989     30988     30990         0         1
     30992     30991     30993         0         1
     30995     30994     30996         0         1
     30998     30997     30999         0         1
     31001     31000     31002         0         1
     31004     31003     31005         0         1
     31007     31006     31008         0         1
     31010     31009     31011         0         1
     31013     31012     31014         0         1
     31016     31015     31017         0         1
     31019     31018     31020         0         1
     31022     31021     31023         0         1
     31025     31024     31026         0         1
     31028     31027     31029         0         1
     31031     31030     31032         0         1
     31034     31033     31035         0         1
     31037     31036     31038         0         1
     31040     31039     31041         0         1
     31043     31042     31044         0         1
     31046     31045     31047         0         1
     31049     31048     31050         0         1
     31052     31051     31053         0         1
     31055     31054     31056         0         1
     31058     31057     31059         0         1
     31061     31060     31062         0         1
     31064     31063     31065         0         1
     31067     31066     31068         0         1
     31070     31069     31071         0         1
     31073     31072     31074         0         1
     31076     31075     31077         0         1
     31079     31078     31080         0         1
     31082     31081     31083         0         1
     31085     31084     31086         0         1
     31088     31087     31089         0         1
     31091     31090     31092         0         1
     31094     31093     31095         0         1
     31097     31096     31098         0         1
     31100     31099     31101         0         1
     31103     31102     31104         0         1
     31106     31105     31107         0         1
     31109     31108     31110         0         1
     31112     31111     31113         0         1
     31115     31114     31116         0         1
     31118     31117     31119         0         1
     31121     31120     31122         0         1
     31124     31123     31125         0         1
     31127     31126     31128         0         1
     31130     31129     31131         0         1
     31133     31132     31134         0         1
     31136     31135     31137         0         1
     31139     31138     31140         0         1
     31142     31141     31143         0         1
     31145     31144     31146         0         1
     31148     31147     31149         0         1
     31151     31150     31152         0         1
     31154     31153     31155         0         1
     31157     31156     31158         0         1
     31160     31159     31161         0         1
     31163     31162     31164         0         1
     31166     31165     31167         0         1
     31169     31168     31170         0         1
     31172     31171     31173         0         1
     31175     31174     31176         0         1
     31178     31177     31179         0         1
     31181     31180     31182         0         1
     31184     31183     31185         0         1
     31187     31186     31188         0         1
     31190     31189     31191         0         1
     31193     31192     31194         0         1
     31196     31195     31197         0         1
     31199     31198     31200         0         1
     31202     31201     31203         0         1
     31205     31204     31206         0         1
     31208     31207     31209         0         1
     31211     31210     31212         0         1
     31214     31213     31215         0         1
     31217     31216     31218         0         1
     31220     31219     31221         0         1
     31223     31222     31224         0         1
     31226     31225     31227         0         1
     31229     31228     31230         0         1
     31232     31231     31233         0         1
     31235     31234     31236         0         1
     31238     31237     31239         0         1
     31241     31240     31242         0         1
     31244     31243     31245         0         1
     31247     31246     31248         0         1
     31250     31249     31251         0         1
     31253     31252     31254         0         1
     31256     31255     31257         0         1
     31259     31258     31260         0         1
     31262     31261     31263         0         1
     31265     31264     31266         0         1
     31268     31267     31269         0         1
     31271     31270     31272         0         1
     31274     31273     31275         0         1
     31277     31276     31278         0         1
     31280     31279     31281         0         1
     31283     31282     31284         0         1
     31286     31285     31287         0         1
     31289     31288     31290         0         1
     31292     31291     31293         0         1
     31295     31294     31296         0         1
     31298     31297     31299         0         1
     31301     31300     31302         0         1
     31304     31303     31305         0         1
     31307     31306     31308         0         1
     31310     31309     31311         0         1
     31313     31312     31314         0         1
     31316     31315     31317         0         1
     31319     31318     31320         0         1
     31322     31321     31323         0         1
     31325     31324     31326         0         1
     31328     31327     31329         0         1
     31331     31330     31332         0         1
     31334     31333     31335         0         1
     31337     31336     31338         0         1
     31340     31339     31341         0         1
     31343     31342     31344         0         1
     31346     31345     31347         0         1
     31349     31348     31350         0         1
     31352     31351     31353         0         1
     31355     31354     31356         0         1
     31358     31357     31359         0         1
     31361     31360     31362         0         1
     31364     31363     31365         0         1
     31367     31366     31368         0         1
     31370     31369     31371         0         1
     31373     31372     31374         0         1
     31376     31375     31377         0         1
     31379     31378     31380         0         1
     31382     31381     31383         0         1
     31385     31384     31386         0         1
     31388     31387     31389         0         1
     31391     31390     31392         0         1
     31394     31393     31395         0         1
     31397     31396     31398         0         1
     31400     31399     31401         0         1
     31403     31402     31404         0         1
     31406     31405     31407         0         1
     31409     31408     31410         0         1
     31412     31411     31413         0         1
     31415     31414     31416         0         1
     31418     31417     31419         0         1
     31421     31420     31422         0         1
     31424     31423     31425         0         1
     31427     31426     31428         0         1
     31430     31429     31431         0         1
     31433     31432     31434         0         1
     31436     31435     31437         0         1
     31439     31438     31440         0         1
     31442     31441     31443         0         1
     31445     31444     31446         0         1
     31448     31447     31449         0         1
     31451     31450     31452         0         1
     31454     31453     31455         0         1
     31457     31456     31458         0         1
     31460     31459     31461         0         1
     31463     31462     31464         0         1
     31466     31465     31467         0         1
     31469     31468     31470         0         1
     31472     31471     31473         0         1
     31475     31474     31476         0         1
     31478     31477     31479         0         1
     31481     31480     31482         0         1
     31484     31483     31485         0         1
     31487     31486     31488         0         1
     31490     31489     31491         0         1
     31493     31492     31494         0         1
     31496     31495     31497         0         1
     31499     31498     31500         0         1
     31502     31501     31503         0         1
     31505     31504     31506         0         1
     31508     31507     31509         0         1
     31511     31510     31512         0         1
     31514     31513     31515         0         1
     31517     31516     31518         0         1
     31520     31519     31521         0         1
     31523     31522     31524         0         1
     31526     31525     31527         0         1
     31529     31528     31530         0         1
     31532     31531     31533         0         1
     31535     31534     31536         0         1
     31538     31537     31539         0         1
     31541     31540     31542         0         1
     31544     31543     31545         0         1
     31547     31546     31548         0         1
     31550     31549     31551         0         1
     31553     31552     31554         0         1
     31556     31555     31557         0         1
     31559     31558     31560         0         1
     31562     31561     31563         0         1
     31565     31564     31566         0         1
     31568     31567     31569         0         1
     31571     31570     31572         0         1
     31574     31573     31575         0         1
     31577     31576     31578         0         1
     31580     31579     31581         0         1
     31583     31582     31584         0         1
     31586     31585     31587         0         1
     31589     31588     31590         0         1
     31592     31591     31593         0         1
     31595     31594     31596         0         1
     31598     31597     31599         0         1
     31601     31600     31602         0         1
     31604     31603     31605         0         1
     31607     31606     31608         0         1
     31610     31609     31611         0         1
     31613     31612     31614         0         1
     31616     31615     31617         0         1
     31619     31618     31620         0         1
     31622     31621     31623         0         1
     31625     31624     31626         0         1
     31628     31627     31629         0         1
     31631     31630     31632         0         1
     31634     31633     31635         0         1
     31637     31636     31638         0         1
     31640     31639     31641         0         1
     31643     31642     31644         0         1
     31646     31645     31647         0         1
     31649     31648     31650         0         1
     31652     31651     31653         0         1
     31655     31654     31656         0         1
     31658     31657     31659         0         1
     31661     31660     31662         0         1
     31664     31663     31665         0         1
     31667     31666     31668         0         1
     31670     31669     31671         0         1
     31673     31672     31674         0         1
     31676     31675     31677         0         1
     31679     31678     31680         0         1
     31682     31681     31683         0         1
     31685     31684     31686         0         1
     31688     31687     31689         0         1
     31691     31690     31692         0         1
     31694     31693     31695         0         1
     31697     31696     31698         0         1
     31700     31699     31701         0         1
     31703     31702     31704         0         1
     31706     31705     31707         0         1
     31709     31708     31710         0         1
     31712     31711     31713         0         1
     31715     31714     31716         0         1
     31718     31717     31719         0         1
     31721     31720     31722         0         1
     31724     31723     31725         0         1
     31727     31726     31728         0         1
     31730     31729     31731         0         1
     31733     31732     31734         0         1
     31736     31735     31737         0         1
     31739     31738     31740         0         1
     31742     31741     31743         0         1
     31745     31744     31746         0         1
     31748     31747     31749         0         1
     31751     31750     31752         0         1
     31754     31753     31755         0         1
     31757     31756     31758         0         1
     31760     31759     31761         0         1
     31763     31762     31764         0         1
     31766     31765     31767         0         1
     31769     31768     31770         0         1
     31772     31771     31773         0         1
     31775     31774     31776         0         1
     31778     31777     31779         0         1
     31781     31780     31782         0         1
     31784     31783     31785         0         1
     31787     31786     31788         0         1
     31790     31789     31791         0         1
     31793     31792     31794         0         1
     31796     31795     31797         0         1
     31799     31798     31800         0         1
     31802     31801     31803         0         1
     31805     31804     31806         0         1
     31808     31807     31809         0         1
     31811     31810     31812         0         1
     31814     31813     31815         0         1
     31817     31816     31818         0         1
     31820     31819     31821         0         1
     31823     31822     31824         0         1
     31826     31825     31827         0         1
     31829     31828     31830         0         1
     31832     31831     31833         0         1
     31835     31834     31836         0         1
     31838     31837     31839         0         1
     31841     31840     31842         0         1
     31844     31843     31845         0         1
     31847     31846     31848         0         1
     31850     31849     31851         0         1
     31853     31852     31854         0         1
     31856     31855     31857         0         1
     31859     31858     31860         0         1
     31862     31861     31863         0         1
     31865     31864     31866         0         1
     31868     31867     31869         0         1
     31871     31870     31872         0         1
     31874     31873     31875         0         1
     31877     31876     31878         0         1
     31880     31879     31881         0         1
     31883     31882     31884         0         1
     31886     31885     31887         0         1
     31889     31888     31890         0         1
     31892     31891     31893         0         1
     31895     31894     31896         0         1
     31898     31897     31899         0         1
     31901     31900     31902         0         1
     31904     31903     31905         0         1
     31907     31906     31908         0         1
     31910     31909     31911         0         1
     31913     31912     31914         0         1
     31916     31915     31917         0         1
     31919     31918     31920         0         1
     31922     31921     31923         0         1
     31925     31924     31926         0         1
     31928     31927     31929         0         1
     31931     31930     31932         0         1
     31934     31933     31935         0         1
     31937     31936     31938         0         1
     31940     31939     31941         0         1
     31943     31942     31944         0         1
     31946     31945     31947         0         1
     31949     31948     31950         0         1
     31952     31951     31953         0         1
     31955     31954     31956         0         1
     31958     31957     31959         0         1
     31961     31960     31962         0         1
     31964     31963     31965         0         1
     31967     31966     31968         0         1
     31970     31969     31971         0         1
     31973     31972     31974         0         1
     31976     31975     31977         0         1
     31979     31978     31980         0         1
     31982     31981     31983         0         1
     31985     31984     31986         0         1
     31988     31987     31989         0         1
     31991     31990     31992         0         1
     31994     31993     31995         0         1
     31997     31996     31998         0         1
     32000     31999     32001         0         1
     32003     32002     32004         0         1
     32006     32005     32007         0         1
     32009     32008     32010         0         1
     32012     32011     32013         0         1
     32015     32014     32016         0         1
     32018     32017     32019         0         1
     32021     32020     32022         0         1
     32024     32023     32025         0         1
     32027     32026     32028         0         1
     32030     32029     32031         0         1
     32033     32032     32034         0         1
     32036     32035     32037         0         1
     32039     32038     32040         0         1
     32042     32041     32043         0         1
     32045     32044     32046         0         1
     32048     32047     32049         0         1
     32051     32050     32052         0         1
     32054     32053     32055         0         1
     32057     32056     32058         0         1
     32060     32059     32061         0         1
     32063     32062     32064         0         1
     32066     32065     32067         0         1
     32069     32068     32070         0         1
     32072     32071     32073         0         1
     32075     32074     32076         0         1
     32078     32077     32079         0         1
     32081     32080     32082         0         1
     32084     32083     32085         0         1
     32087     32086     32088         0         1
     32090     32089     32091         0         1
     32093     32092     32094         0         1
     32096     32095     32097         0         1
     32099     32098     32100         0         1
     32102     32101     32103         0         1
     32105     32104     32106         0         1
     32108     32107     32109         0         1
     32111     32110     32112         0         1
     32114     32113     32115         0         1
     32117     32116     32118         0         1
     32120     32119     32121         0         1
     32123     32122     32124         0         1
     32126     32125     32127         0         1
     32129     32128     32130         0         1
     32132     32131     32133         0         1
     32135     32134     32136         0         1
     32138     32137     32139         0         1
     32141     32140     32142         0         1
     32144     32143     32145         0         1
     32147     32146     32148         0         1
     32150     32149     32151         0         1
     32153     32152     32154         0         1
     32156     32155     32157         0         1
     32159     32158     32160         0         1
     32162     32161     32163         0         1
     32165     32164     32166         0         1
     32168     32167     32169         0         1
     32171     32170     32172         0         1
     32174     32173     32175         0         1
     32177     32176     32178         0         1
     32180     32179     32181         0         1
     32183     32182     32184         0         1
     32186     32185     32187         0         1
     32189     32188     32190         0         1
     32192     32191     32193         0         1
     32195     32194     32196         0         1
     32198     32197     32199         0         1
     32201     32200     32202         0         1
     32204     32203     32205         0         1
     32207     32206     32208         0         1
     32210     32209     32211         0         1
     32213     32212     32214         0         1
     32216     32215     32217         0         1
     32219     32218     32220         0         1
     32222     32221     32223         0         1
     32225     32224     32226         0         1
     32228     32227     32229         0         1
     32231     32230     32232         0         1
     32234     32233     32235         0         1
     32237     32236     32238         0         1
     32240     32239     32241         0         1
     32243     32242     32244         0         1
     32246     32245     32247         0         1
     32249     32248     32250         0         1
     32252     32251     32253         0         1
     32255     32254     32256         0         1
     32258     32257     32259         0         1
     32261     32260     32262         0         1
     32264     32263     32265         0         1
     32267     32266     32268         0         1
     32270     32269     32271         0         1
     32273     32272     32274         0         1
     32276     32275     32277         0         1
     32279     32278     32280         0         1
     32282     32281     32283         0         1
     32285     32284     32286         0         1
     32288     32287     32289         0         1
     32291     32290     32292         0         1
     32294     32293     32295         0         1
     32297     32296     32298         0         1
     32300     32299     32301         0         1
     32303     32302     32304         0         1
     32306     32305     32307         0         1
     32309     32308     32310         0         1
     32312     32311     32313         0         1
     32315     32314     32316         0         1
     32318     32317     32319         0         1
     32321     32320     32322         0         1
     32324     32323     32325         0         1
     32327     32326     32328         0         1
     32330     32329     32331         0         1
     32333     32332     32334         0         1
     32336     32335     32337         0         1
     32339     32338     32340         0         1
     32342     32341     32343         0         1
     32345     32344     32346         0         1
     32348     32347     32349         0         1
     32351     32350     32352         0         1
     32354     32353     32355         0         1
     32357     32356     32358         0         1
     32360     32359     32361         0         1
     32363     32362     32364         0         1
     32366     32365     32367         0         1
     32369     32368     32370         0         1
     32372     32371     32373         0         1
     32375     32374     32376         0         1
     32378     32377     32379         0         1
     32381     32380     32382         0         1
     32384     32383     32385         0         1
     32387     32386     32388         0         1
     32390     32389     32391         0         1
     32393     32392     32394         0         1
     32396     32395     32397         0         1
     32399     32398     32400         0         1
     32402     32401     32403         0         1
     32405     32404     32406         0         1
     32408     32407     32409         0         1
     32411     32410     32412         0         1
     32414     32413     32415         0         1
     32417     32416     32418         0         1
     32420     32419     32421         0         1
     32423     32422     32424         0         1
     32426     32425     32427         0         1
     32429     32428     32430         0         1
     32432     32431     32433         0         1
     32435     32434     32436         0         1
     32438     32437     32439         0         1
     32441     32440     32442         0         1
     32444     32443     32445         0         1
     32447     32446     32448         0         1
     32450     32449     32451         0         1
     32453     32452     32454         0         1
     32456     32455     32457         0         1
     32459     32458     32460         0         1
     32462     32461     32463         0         1
     32465     32464     32466         0         1
     32468     32467     32469         0         1
     32471     32470     32472         0         1
     32474     32473     32475         0         1
     32477     32476     32478         0         1
     32480     32479     32481         0         1
     32483     32482     32484         0         1
     32486     32485     32487         0         1
     32489     32488     32490         0         1
     32492     32491     32493         0         1
     32495     32494     32496         0         1
     32498     32497     32499         0         1
     32501     32500     32502         0         1
     32504     32503     32505         0         1
     32507     32506     32508         0         1
     32510     32509     32511         0         1
     32513     32512     32514         0         1
     32516     32515     32517         0         1
     32519     32518     32520         0         1
     32522     32521     32523         0         1
     32525     32524     32526         0         1
     32528     32527     32529         0         1
     32531     32530     32532         0         1
     32534     32533     32535         0         1
     32537     32536     32538         0         1
     32540     32539     32541         0         1
     32543     32542     32544         0         1
     32546     32545     32547         0         1
     32549     32548     32550         0         1
     32552     32551     32553         0         1
     32555     32554     32556         0         1
     32558     32557     32559         0         1
     32561     32560     32562         0         1
     32564     32563     32565         0         1
     32567     32566     32568         0         1
     32570     32569     32571         0         1
     32573     32572     32574         0         1
     32576     32575     32577         0         1
     32579     32578     32580         0         1
     32582     32581     32583         0         1
     32585     32584     32586         0         1
     32588     32587     32589         0         1
     32591     32590     32592         0         1
     32594     32593     32595         0         1
     32597     32596     32598         0         1
     32600     32599     32601         0         1
     32603     32602     32604         0         1
     32606     32605     32607         0         1
     32609     32608     32610         0         1
     32612     32611     32613         0         1
     32615     32614     32616         0         1
     32618     32617     32619         0         1
     32621     32620     32622         0         1
     32624     32623     32625         0         1
     32627     32626     32628         0         1
     32630     32629     32631         0         1
     32633     32632     32634         0         1
     32636     32635     32637         0         1
     32639     32638     32640         0         1
     32642     32641     32643         0         1
     32645     32644     32646         0         1
     32648     32647     32649         0         1
     32651     32650     32652         0         1
     32654     32653     32655         0         1
     32657     32656     32658         0         1
     32660     32659     32661         0         1
     32663     32662     32664         0         1
     32666     32665     32667         0         1
     32669     32668     32670         0         1
     32672     32671     32673         0         1
     32675     32674     32676         0         1
     32678     32677     32679         0         1
     32681     32680     32682         0         1
     32684     32683     32685         0         1
     32687     32686     32688         0         1
     32690     32689     32691         0         1
     32693     32692     32694         0         1
     32696     32695     32697         0         1
     32699     32698     32700         0         1
     32702     32701     32703         0         1
     32705     32704     32706         0         1
     32708     32707     32709         0         1
     32711     32710     32712         0         1
     32714     32713     32715         0         1
     32717     32716     32718         0         1
     32720     32719     32721         0         1
     32723     32722     32724         0         1
     32726     32725     32727         0         1
     32729     32728     32730         0         1
     32732     32731     32733         0         1
     32735     32734     32736         0         1
     32738     32737     32739         0         1
     32741     32740     32742         0         1
     32744     32743     32745         0         1
     32747     32746     32748         0         1
     32750     32749     32751         0         1
     32753     32752     32754         0         1
     32756     32755     32757         0         1
     32759     32758     32760         0         1
     32762     32761     32763         0         1
     32765     32764     32766         0         1
     32768     32767     32769         0         1
     32771     32770     32772         0         1
     32774     32773     32775         0         1
     32777     32776     32778         0         1
     32780     32779     32781         0         1
     32783     32782     32784         0         1
     32786     32785     32787         0         1
     32789     32788     32790         0         1
     32792     32791     32793         0         1
     32795     32794     32796         0         1
     32798     32797     32799         0         1
     32801     32800     32802         0         1
     32804     32803     32805         0         1
     32807     32806     32808         0         1
     32810     32809     32811         0         1
     32813     32812     32814         0         1
     32816     32815     32817         0         1
     32819     32818     32820         0         1
     32822     32821     32823         0         1
     32825     32824     32826         0         1
     32828     32827     32829         0         1
     32831     32830     32832         0         1
     32834     32833     32835         0         1
     32837     32836     32838         0         1
     32840     32839     32841         0         1
     32843     32842     32844         0         1
     32846     32845     32847         0         1
     32849     32848     32850         0         1
     32852     32851     32853         0         1
     32855     32854     32856         0         1
     32858     32857     32859         0         1
     32861     32860     32862         0         1
     32864     32863     32865         0         1
     32867     32866     32868         0         1
     32870     32869     32871         0         1
     32873     32872     32874         0         1
     32876     32875     32877         0         1
     32879     32878     32880         0         1
     32882     32881     32883         0         1
     32885     32884     32886         0         1
     32888     32887     32889         0         1
     32891     32890     32892         0         1
     32894     32893     32895         0         1
     32897     32896     32898         0         1
     32900     32899     32901         0         1
     32903     32902     32904         0         1
     32906     32905     32907         0         1
     32909     32908     32910         0         1
     32912     32911     32913         0         1
     32915     32914     32916         0         1
     32918     32917     32919         0         1
     32921     32920     32922         0         1
     32924     32923     32925         0         1
     32927     32926     32928         0         1
     32930     32929     32931         0         1
     32933     32932     32934         0         1
     32936     32935     32937         0         1
     32939     32938     32940         0         1
     32942     32941     32943         0         1
     32945     32944     32946         0         1
     32948     32947     32949         0         1
     32951     32950     32952         0         1
     32954     32953     32955         0         1
     32957     32956     32958         0         1
     32960     32959     32961         0         1
     32963     32962     32964         0         1
     32966     32965     32967         0         1
     32969     32968     32970         0         1
     32972     32971     32973         0         1
     32975     32974     32976         0         1
     32978     32977     32979         0         1
     32981     32980     32982         0         1
     32984     32983     32985         0         1
     32987     32986     32988         0         1
     32990     32989     32991         0         1
     32993     32992     32994         0         1
     32996     32995     32997         0         1
     32999     32998     33000         0         1
     33002     33001     33003         0         1
     33005     33004     33006         0         1
     33008     33007     33009         0         1
     33011     33010     33012         0         1
     33014     33013     33015         0         1
     33017     33016     33018         0         1
     33020     33019     33021         0         1
     33023     33022     33024         0         1
     33026     33025     33027         0         1
     33029     33028     33030         0         1
     33032     33031     33033         0         1
     33035     33034     33036         0         1
     33038     33037     33039         0         1
     33041     33040     33042         0         1
     33044     33043     33045         0         1
     33047     33046     33048         0         1
     33050     33049     33051         0         1
     33053     33052     33054         0         1
     33056     33055     33057         0         1
     33059     33058     33060         0         1
     33062     33061     33063         0         1
     33065     33064     33066         0         1
     33068     33067     33069         0         1
     33071     33070     33072         0         1
     33074     33073     33075         0         1
     33077     33076     33078         0         1
     33080     33079     33081         0         1
     33083     33082     33084         0         1
     33086     33085     33087         0         1
     33089     33088     33090         0         1
     33092     33091     33093         0         1
     33095     33094     33096         0         1
     33098     33097     33099         0         1
     33101     33100     33102         0         1
     33104     33103     33105         0         1
     33107     33106     33108         0         1
     33110     33109     33111         0         1
     33113     33112     33114         0         1
     33116     33115     33117         0         1
     33119     33118     33120         0         1
     33122     33121     33123         0         1
     33125     33124     33126         0         1
     33128     33127     33129         0         1
     33131     33130     33132         0         1
     33134     33133     33135         0         1
     33137     33136     33138         0         1
     33140     33139     33141         0         1
     33143     33142     33144         0         1
     33146     33145     33147         0         1
     33149     33148     33150         0         1
     33152     33151     33153         0         1
     33155     33154     33156         0         1
     33158     33157     33159         0         1
     33161     33160     33162         0         1
     33164     33163     33165         0         1
     33167     33166     33168         0         1
     33170     33169     33171         0         1
     33173     33172     33174         0         1
     33176     33175     33177         0         1
     33179     33178     33180         0         1
     33182     33181     33183         0         1
     33185     33184     33186         0         1
     33188     33187     33189         0         1
     33191     33190     33192         0         1
     33194     33193     33195         0         1
     33197     33196     33198         0         1
     33200     33199     33201         0         1
     33203     33202     33204         0         1
     33206     33205     33207         0         1
     33209     33208     33210         0         1
     33212     33211     33213         0         1
     33215     33214     33216         0         1
     33218     33217     33219         0         1
     33221     33220     33222         0         1
     33224     33223     33225         0         1
     33227     33226     33228         0         1
     33230     33229     33231         0         1
     33233     33232     33234         0         1
     33236     33235     33237         0         1
     33239     33238     33240         0         1
     33242     33241     33243         0         1
     33245     33244     33246         0         1
     33248     33247     33249         0         1
     33251     33250     33252         0         1
     33254     33253     33255         0         1
     33257     33256     33258         0         1
     33260     33259     33261         0         1
     33263     33262     33264         0         1
     33266     33265     33267         0         1
     33269     33268     33270         0         1
     33272     33271     33273         0         1
     33275     33274     33276         0         1
     33278     33277     33279         0         1
     33281     33280     33282         0         1
     33284     33283     33285         0         1
     33287     33286     33288         0         1
     33290     33289     33291         0         1
     33293     33292     33294         0         1
     33296     33295     33297         0         1
     33299     33298     33300         0         1
     33302     33301     33303         0         1
     33305     33304     33306         0         1
     33308     33307     33309         0         1
     33311     33310     33312         0         1
     33314     33313     33315         0         1
     33317     33316     33318         0         1
     33320     33319     33321         0         1
     33323     33322     33324         0         1
     33326     33325     33327         0         1
     33329     33328     33330         0         1
     33332     33331     33333         0         1
     33335     33334     33336         0         1
     33338     33337     33339         0         1
     33341     33340     33342         0         1
     33344     33343     33345         0         1
     33347     33346     33348         0         1
     33350     33349     33351         0         1
     33353     33352     33354         0         1
     33356     33355     33357         0         1
     33359     33358     33360         0         1
     33362     33361     33363         0         1
     33365     33364     33366         0         1
     33368     33367     33369         0         1
     33371     33370     33372         0         1
     33374     33373     33375         0         1
     33377     33376     33378         0         1
     33380     33379     33381         0         1
     33383     33382     33384         0         1
     33386     33385     33387         0         1
     33389     33388     33390         0         1
     33392     33391     33393         0         1
     33395     33394     33396         0         1
     33398     33397     33399         0         1
     33401     33400     33402         0         1
     33404     33403     33405         0         1
     33407     33406     33408         0         1
     33410     33409     33411         0         1
     33413     33412     33414         0         1
     33416     33415     33417         0         1
     33419     33418     33420         0         1
     33422     33421     33423         0         1
     33425     33424     33426         0         1
     33428     33427     33429         0         1
     33431     33430     33432         0         1
     33434     33433     33435         0         1
     33437     33436     33438         0         1
     33440     33439     33441         0         1
     33443     33442     33444         0         1
     33446     33445     33447         0         1
     33449     33448     33450         0         1
     33452     33451     33453         0         1
     33455     33454     33456         0         1
     33458     33457     33459         0         1
     33461     33460     33462         0         1
     33464     33463     33465         0         1
     33467     33466     33468         0         1
     33470     33469     33471         0         1
     33473     33472     33474         0         1
     33476     33475     33477         0         1
     33479     33478     33480         0         1
     33482     33481     33483         0         1
     33485     33484     33486         0         1
     33488     33487     33489         0         1
     33491     33490     33492         0         1
     33494     33493     33495         0         1
     33497     33496     33498         0         1
     33500     33499     33501         0         1
     33503     33502     33504         0         1
     33506     33505     33507         0         1
     33509     33508     33510         0         1
     33512     33511     33513         0         1
     33515     33514     33516         0         1
     33518     33517     33519         0         1
     33521     33520     33522         0         1
     33524     33523     33525         0         1
     33527     33526     33528         0         1
     33530     33529     33531         0         1
     33533     33532     33534         0         1
     33536     33535     33537         0         1
     33539     33538     33540         0         1
     33542     33541     33543         0         1
     33545     33544     33546         0         1
     33548     33547     33549         0         1
     33551     33550     33552         0         1
     33554     33553     33555         0         1
     33557     33556     33558         0         1
     33560     33559     33561         0         1
     33563     33562     33564         0         1
     33566     33565     33567         0         1
     33569     33568     33570         0         1
     33572     33571     33573         0         1
     33575     33574     33576         0         1
     33578     33577     33579         0         1
     33581     33580     33582         0         1
     33584     33583     33585         0         1
     33587     33586     33588         0         1
     33590     33589     33591         0         1
     33593     33592     33594         0         1
     33596     33595     33597         0         1
     33599     33598     33600         0         1
     33602     33601     33603         0         1
     33605     33604     33606         0         1
     33608     33607     33609         0         1
     33611     33610     33612         0         1
     33614     33613     33615         0         1
     33617     33616     33618         0         1
     33620     33619     33621         0         1
     33623     33622     33624         0         1
     33626     33625     33627         0         1
     33629     33628     33630         0         1
     33632     33631     33633         0         1
     33635     33634     33636         0         1
     33638     33637     33639         0         1
     33641     33640     33642         0         1
     33644     33643     33645         0         1
     33647     33646     33648         0         1
     33650     33649     33651         0         1
     33653     33652     33654         0         1
     33656     33655     33657         0         1
     33659     33658     33660         0         1
     33662     33661     33663         0         1
     33665     33664     33666         0         1
     33668     33667     33669         0         1
     33671     33670     33672         0         1
     33674     33673     33675         0         1
     33677     33676     33678         0         1
     33680     33679     33681         0         1
     33683     33682     33684         0         1
     33686     33685     33687         0         1
     33689     33688     33690         0         1
     33692     33691     33693         0         1
     33695     33694     33696         0         1
     33698     33697     33699         0         1
     33701     33700     33702         0         1
     33704     33703     33705         0         1
     33707     33706     33708         0         1
     33710     33709     33711         0         1
     33713     33712     33714         0         1
     33716     33715     33717         0         1
     33719     33718     33720         0         1
     33722     33721     33723         0         1
     33725     33724     33726         0         1
     33728     33727     33729         0         1
     33731     33730     33732         0         1
     33734     33733     33735         0         1
     33737     33736     33738         0         1
     33740     33739     33741         0         1
     33743     33742     33744         0         1
     33746     33745     33747         0         1
     33749     33748     33750         0         1
     33752     33751     33753         0         1
     33755     33754     33756         0         1
     33758     33757     33759         0         1
     33761     33760     33762         0         1
     33764     33763     33765         0         1
     33767     33766     33768         0         1
     33770     33769     33771         0         1
     33773     33772     33774         0         1
     33776     33775     33777         0         1
     33779     33778     33780         0         1
     33782     33781     33783         0         1
     33785     33784     33786         0         1
     33788     33787     33789         0         1
     33791     33790     33792         0         1
     33794     33793     33795         0         1
     33797     33796     33798         0         1
     33800     33799     33801         0         1
     33803     33802     33804         0         1
     33806     33805     33807         0         1
     33809     33808     33810         0         1
     33812     33811     33813         0         1
     33815     33814     33816         0         1
     33818     33817     33819         0         1
     33821     33820     33822         0         1
     33824     33823     33825         0         1
     33827     33826     33828         0         1
     33830     33829     33831         0         1
     33833     33832     33834         0         1
     33836     33835     33837         0         1
     33839     33838     33840         0         1
     33842     33841     33843         0         1
     33845     33844     33846         0         1
     33848     33847     33849         0         1
     33851     33850     33852         0         1
     33854     33853     33855         0         1
     33857     33856     33858         0         1
     33860     33859     33861         0         1
     33863     33862     33864         0         1
     33866     33865     33867         0         1
     33869     33868     33870         0         1
     33872     33871     33873         0         1
     33875     33874     33876         0         1
     33878     33877     33879         0         1
     33881     33880     33882         0         1
     33884     33883     33885         0         1
     33887     33886     33888         0         1
     33890     33889     33891         0         1
     33893     33892     33894         0         1
     33896     33895     33897         0         1
     33899     33898     33900         0         1
     33902     33901     33903         0         1
     33905     33904     33906         0         1
     33908     33907     33909         0         1
     33911     33910     33912         0         1
     33914     33913     33915         0         1
     33917     33916     33918         0         1
     33920     33919     33921         0         1
     33923     33922     33924         0         1
     33926     33925     33927         0         1
     33929     33928     33930         0         1
     33932     33931     33933         0         1
     33935     33934     33936         0         1
     33938     33937     33939         0         1
     33941     33940     33942         0         1
     33944     33943     33945         0         1
     33947     33946     33948         0         1
     33950     33949     33951         0         1
     33953     33952     33954         0         1
     33956     33955     33957         0         1
     33959     33958     33960         0         1
     33962     33961     33963         0         1
     33965     33964     33966         0         1
     33968     33967     33969         0         1
     33971     33970     33972         0         1
     33974     33973     33975         0         1
     33977     33976     33978         0         1
     33980     33979     33981         0         1
     33983     33982     33984         0         1
     33986     33985     33987         0         1
     33989     33988     33990         0         1
     33992     33991     33993         0         1
     33995     33994     33996         0         1
     33998     33997     33999         0         1
     34001     34000     34002         0         1
     34004     34003     34005         0         1
     34007     34006     34008         0         1
     34010     34009     34011         0         1
     34013     34012     34014         0         1
     34016     34015     34017         0         1
     34019     34018     34020         0         1
     34022     34021     34023         0         1
     34025     34024     34026         0         1
     34028     34027     34029         0         1
     34031     34030     34032         0         1
     34034     34033     34035         0         1
     34037     34036     34038         0         1
     34040     34039     34041         0         1
     34043     34042     34044         0         1
     34046     34045     34047         0         1
     34049     34048     34050         0         1
     34052     34051     34053         0         1
     34055     34054     34056         0         1
     34058     34057     34059         0         1
     34061     34060     34062         0         1
     34064     34063     34065         0         1
     34067     34066     34068         0         1
     34070     34069     34071         0         1
     34073     34072     34074         0         1
     34076     34075     34077         0         1
     34079     34078     34080         0         1
     34082     34081     34083         0         1
     34085     34084     34086         0         1
     34088     34087     34089         0         1
     34091     34090     34092         0         1
     34094     34093     34095         0         1
     34097     34096     34098         0         1
     34100     34099     34101         0         1
     34103     34102     34104         0         1
     34106     34105     34107         0         1
     34109     34108     34110         0         1
     34112     34111     34113         0         1
     34115     34114     34116         0         1
     34118     34117     34119         0         1
     34121     34120     34122         0         1
     34124     34123     34125         0         1
     34127     34126     34128         0         1
     34130     34129     34131         0         1
     34133     34132     34134         0         1
     34136     34135     34137         0         1
     34139     34138     34140         0         1
     34142     34141     34143         0         1
     34145     34144     34146         0         1
     34148     34147     34149         0         1
     34151     34150     34152         0         1
     34154     34153     34155         0         1
     34157     34156     34158         0         1
     34160     34159     34161         0         1
     34163     34162     34164         0         1
     34166     34165     34167         0         1
     34169     34168     34170         0         1
     34172     34171     34173         0         1
     34175     34174     34176         0         1
     34178     34177     34179         0         1
     34181     34180     34182         0         1
     34184     34183     34185         0         1
     34187     34186     34188         0         1
     34190     34189     34191         0         1
     34193     34192     34194         0         1
     34196     34195     34197         0         1
     34199     34198     34200         0         1
     34202     34201     34203         0         1
     34205     34204     34206         0         1
     34208     34207     34209         0         1
     34211     34210     34212         0         1
     34214     34213     34215         0         1
     34217     34216     34218         0         1
     34220     34219     34221         0         1
     34223     34222     34224         0         1
     34226     34225     34227         0         1
     34229     34228     34230         0         1
     34232     34231     34233         0         1
     34235     34234     34236         0         1
     34238     34237     34239         0         1
     34241     34240     34242         0         1
     34244     34243     34245         0         1
     34247     34246     34248         0         1
     34250     34249     34251         0         1
     34253     34252     34254         0         1
     34256     34255     34257         0         1
     34259     34258     34260         0         1
     34262     34261     34263         0         1
     34265     34264     34266         0         1
     34268     34267     34269         0         1
     34271     34270     34272         0         1
     34274     34273     34275         0         1
     34277     34276     34278         0         1
     34280     34279     34281         0         1
     34283     34282     34284         0         1
     34286     34285     34287         0         1
     34289     34288     34290         0         1
     34292     34291     34293         0         1
     34295     34294     34296         0         1
     34298     34297     34299         0         1
     34301     34300     34302         0         1
     34304     34303     34305         0         1
     34307     34306     34308         0         1
     34310     34309     34311         0         1
     34313     34312     34314         0         1
     34316     34315     34317         0         1
     34319     34318     34320         0         1
     34322     34321     34323         0         1
     34325     34324     34326         0         1
     34328     34327     34329         0         1
     34331     34330     34332         0         1
     34334     34333     34335         0         1
     34337     34336     34338         0         1
     34340     34339     34341         0         1
     34343     34342     34344         0         1
     34346     34345     34347         0         1
     34349     34348     34350         0         1
     34352     34351     34353         0         1
     34355     34354     34356         0         1
     34358     34357     34359         0         1
     34361     34360     34362         0         1
     34364     34363     34365         0         1
     34367     34366     34368         0         1
     34370     34369     34371         0         1
     34373     34372     34374         0         1
     34376     34375     34377         0         1
     34379     34378     34380         0         1
     34382     34381     34383         0         1
     34385     34384     34386         0         1
     34388     34387     34389         0         1
     34391     34390     34392         0         1
     34394     34393     34395         0         1
     34397     34396     34398         0         1
     34400     34399     34401         0         1
     34403     34402     34404         0         1
     34406     34405     34407         0         1
     34409     34408     34410         0         1
     34412     34411     34413         0         1
     34415     34414     34416         0         1
     34418     34417     34419         0         1
     34421     34420     34422         0         1
     34424     34423     34425         0         1
     34427     34426     34428         0         1
     34430     34429     34431         0         1
     34433     34432     34434         0         1
     34436     34435     34437         0         1
     34439     34438     34440         0         1
     34442     34441     34443         0         1
     34445     34444     34446         0         1
     34448     34447     34449         0         1
     34451     34450     34452         0         1
     34454     34453     34455         0         1
     34457     34456     34458         0         1
     34460     34459     34461         0         1
     34463     34462     34464         0         1
     34466     34465     34467         0         1
     34469     34468     34470         0         1
     34472     34471     34473         0         1
     34475     34474     34476         0         1
     34478     34477     34479         0         1
     34481     34480     34482         0         1
     34484     34483     34485         0         1
     34487     34486     34488         0         1
     34490     34489     34491         0         1
     34493     34492     34494         0         1
     34496     34495     34497         0         1
     34499     34498     34500         0         1
     34502     34501     34503         0         1
     34505     34504     34506         0         1
     34508     34507     34509         0         1
     34511     34510     34512         0         1
     34514     34513     34515         0         1
     34517     34516     34518         0         1
     34520     34519     34521         0         1
     34523     34522     34524         0         1
     34526     34525     34527         0         1
     34529     34528     34530         0         1
     34532     34531     34533         0         1
     34535     34534     34536         0         1
     34538     34537     34539         0         1
     34541     34540     34542         0         1
     34544     34543     34545         0         1
     34547     34546     34548         0         1
     34550     34549     34551         0         1
     34553     34552     34554         0         1
     34556     34555     34557         0         1
     34559     34558     34560         0         1
     34562     34561     34563         0         1
     34565     34564     34566         0         1
     34568     34567     34569         0         1
     34571     34570     34572         0         1
     34574     34573     34575         0         1
     34577     34576     34578         0         1
     34580     34579     34581         0         1
     34583     34582     34584         0         1
     34586     34585     34587         0         1
     34589     34588     34590         0         1
     34592     34591     34593         0         1
     34595     34594     34596         0         1
     34598     34597     34599         0         1
     34601     34600     34602         0         1
     34604     34603     34605         0         1
     34607     34606     34608         0         1
     34610     34609     34611         0         1
     34613     34612     34614         0         1
     34616     34615     34617         0         1
     34619     34618     34620         0         1
     34622     34621     34623         0         1
     34625     34624     34626         0         1
     34628     34627     34629         0         1
     34631     34630     34632         0         1
     34634     34633     34635         0         1
     34637     34636     34638         0         1
     34640     34639     34641         0         1
     34643     34642     34644         0         1
     34646     34645     34647         0         1
     34649     34648     34650         0         1
     34652     34651     34653         0         1
     34655     34654     34656         0         1
     34658     34657     34659         0         1
     34661     34660     34662         0         1
     34664     34663     34665         0         1
     34667     34666     34668         0         1
     34670     34669     34671         0         1
     34673     34672     34674         0         1
     34676     34675     34677         0         1
     34679     34678     34680         0         1
     34682     34681     34683         0         1
     34685     34684     34686         0         1
     34688     34687     34689         0         1
     34691     34690     34692         0         1
     34694     34693     34695         0         1
     34697     34696     34698         0         1
     34700     34699     34701         0         1
     34703     34702     34704         0         1
     34706     34705     34707         0         1
     34709     34708     34710         0         1
     34712     34711     34713         0         1
     34715     34714     34716         0         1
     34718     34717     34719         0         1
     34721     34720     34722         0         1
     34724     34723     34725         0         1
     34727     34726     34728         0         1
     34730     34729     34731         0         1
     34733     34732     34734         0         1
     34736     34735     34737         0         1
     34739     34738     34740         0         1
     34742     34741     34743         0         1
     34745     34744     34746         0         1
     34748     34747     34749         0         1
     34751     34750     34752         0         1
     34754     34753     34755         0         1
     34757     34756     34758         0         1
     34760     34759     34761         0         1
     34763     34762     34764         0         1
     34766     34765     34767         0         1
     34769     34768     34770         0         1
     34772     34771     34773         0         1
     34775     34774     34776         0         1
     34778     34777     34779         0         1
     34781     34780     34782         0         1
     34784     34783     34785         0         1
     34787     34786     34788         0         1
     34790     34789     34791         0         1
     34793     34792     34794         0         1
     34796     34795     34797         0         1
     34799     34798     34800         0         1
     34802     34801     34803         0         1
     34805     34804     34806         0         1
     34808     34807     34809         0         1
     34811     34810     34812         0         1
     34814     34813     34815         0         1
     34817     34816     34818         0         1
     34820     34819     34821         0         1
     34823     34822     34824         0         1
     34826     34825     34827         0         1
     34829     34828     34830         0         1
     34832     34831     34833         0         1
     34835     34834     34836         0         1
     34838     34837     34839         0         1
     34841     34840     34842         0         1
     34844     34843     34845         0         1
     34847     34846     34848         0         1
     34850     34849     34851         0         1
     34853     34852     34854         0         1
     34856     34855     34857         0         1
     34859     34858     34860         0         1
     34862     34861     34863         0         1
     34865     34864     34866         0         1
     34868     34867     34869         0         1
     34871     34870     34872         0         1
     34874     34873     34875         0         1
     34877     34876     34878         0         1
     34880     34879     34881         0         1
     34883     34882     34884         0         1
     34886     34885     34887         0         1
     34889     34888     34890         0         1
     34892     34891     34893         0         1
     34895     34894     34896         0         1
     34898     34897     34899         0         1
     34901     34900     34902         0         1
     34904     34903     34905         0         1
     34907     34906     34908         0         1
     34910     34909     34911         0         1
     34913     34912     34914         0         1
     34916     34915     34917         0         1
     34919     34918     34920         0         1
     34922     34921     34923         0         1
     34925     34924     34926         0         1
     34928     34927     34929         0         1
     34931     34930     34932         0         1
     34934     34933     34935         0         1
     34937     34936     34938         0         1
     34940     34939     34941         0         1
     34943     34942     34944         0         1
     34946     34945     34947         0         1
     34949     34948     34950         0         1
     34952     34951     34953         0         1
     34955     34954     34956         0         1
     34958     34957     34959         0         1
     34961     34960     34962         0         1
     34964     34963     34965         0         1
     34967     34966     34968         0         1
     34970     34969     34971         0         1
     34973     34972     34974         0         1
     34976     34975     34977         0         1
     34979     34978     34980         0         1
     34982     34981     34983         0         1
     34985     34984     34986         0         1
     34988     34987     34989         0         1
     34991     34990     34992         0         1
     34994     34993     34995         0         1
     34997     34996     34998         0         1
     35000     34999     35001         0         1
     35003     35002     35004         0         1
     35006     35005     35007         0         1
     35009     35008     35010         0         1
     35012     35011     35013         0         1
     35015     35014     35016         0         1
     35018     35017     35019         0         1
     35021     35020     35022         0         1
     35024     35023     35025         0         1
     35027     35026     35028         0         1
     35030     35029     35031         0         1
     35033     35032     35034         0         1
     35036     35035     35037         0         1
     35039     35038     35040         0         1
     35042     35041     35043         0         1
     35045     35044     35046         0         1
     35048     35047     35049         0         1
     35051     35050     35052         0         1
     35054     35053     35055         0         1
     35057     35056     35058         0         1
     35060     35059     35061         0         1
     35063     35062     35064         0         1
     35066     35065     35067         0         1
     35069     35068     35070         0         1
     35072     35071     35073         0         1
     35075     35074     35076         0         1
     35078     35077     35079         0         1
     35081     35080     35082         0         1
     35084     35083     35085         0         1
     35087     35086     35088         0         1
     35090     35089     35091         0         1
     35093     35092     35094         0         1
     35096     35095     35097         0         1
     35099     35098     35100         0         1
     35102     35101     35103         0         1
     35105     35104     35106         0         1
     35108     35107     35109         0         1
     35111     35110     35112         0         1
     35114     35113     35115         0         1
     35117     35116     35118         0         1
     35120     35119     35121         0         1
     35123     35122     35124         0         1
     35126     35125     35127         0         1
     35129     35128     35130         0         1
     35132     35131     35133         0         1
     35135     35134     35136         0         1
     35138     35137     35139         0         1
     35141     35140     35142         0         1
     35144     35143     35145         0         1
     35147     35146     35148         0         1
     35150     35149     35151         0         1
     35153     35152     35154         0         1
     35156     35155     35157         0         1
     35159     35158     35160         0         1
     35162     35161     35163         0         1
     35165     35164     35166         0         1
     35168     35167     35169         0         1
     35171     35170     35172         0         1
     35174     35173     35175         0         1
     35177     35176     35178         0         1
     35180     35179     35181         0         1
     35183     35182     35184         0         1
     35186     35185     35187         0         1
     35189     35188     35190         0         1
     35192     35191     35193         0         1
     35195     35194     35196         0         1
     35198     35197     35199         0         1
     35201     35200     35202         0         1
     35204     35203     35205         0         1
     35207     35206     35208         0         1
     35210     35209     35211         0         1
     35213     35212     35214         0         1
     35216     35215     35217         0         1
     35219     35218     35220         0         1
     35222     35221     35223         0         1
     35225     35224     35226         0         1
     35228     35227     35229         0         1
     35231     35230     35232         0         1
     35234     35233     35235         0         1
     35237     35236     35238         0         1
     35240     35239     35241         0         1
     35243     35242     35244         0         1
     35246     35245     35247         0         1
     35249     35248     35250         0         1
     35252     35251     35253         0         1
     35255     35254     35256         0         1
     35258     35257     35259         0         1
     35261     35260     35262         0         1
     35264     35263     35265         0         1
     35267     35266     35268         0         1
     35270     35269     35271         0         1
     35273     35272     35274         0         1
     35276     35275     35277         0         1
     35279     35278     35280         0         1
     35282     35281     35283         0         1
     35285     35284     35286         0         1
     35288     35287     35289         0         1
     35291     35290     35292         0         1
     35294     35293     35295         0         1
     35297     35296     35298         0         1
     35300     35299     35301         0         1
     35303     35302     35304         0         1
     35306     35305     35307         0         1
     35309     35308     35310         0         1
     35312     35311     35313         0         1
     35315     35314     35316         0         1
     35318     35317     35319         0         1
     35321     35320     35322         0         1
     35324     35323     35325         0         1
     35327     35326     35328         0         1
     35330     35329     35331         0         1
     35333     35332     35334         0         1
     35336     35335     35337         0         1
     35339     35338     35340         0         1
     35342     35341     35343         0         1
     35345     35344     35346         0         1
     35348     35347     35349         0         1
     35351     35350     35352         0         1
     35354     35353     35355         0         1
     35357     35356     35358         0         1
     35360     35359     35361         0         1
     35363     35362     35364         0         1
     35366     35365     35367         0         1
     35369     35368     35370         0         1
     35372     35371     35373         0         1
     35375     35374     35376         0         1
     35378     35377     35379         0         1
     35381     35380     35382         0         1
     35384     35383     35385         0         1
     35387     35386     35388         0         1
     35390     35389     35391         0         1
     35393     35392     35394         0         1
     35396     35395     35397         0         1
     35399     35398     35400         0         1
     35402     35401     35403         0         1
     35405     35404     35406         0         1
     35408     35407     35409         0         1
     35411     35410     35412         0         1
     35414     35413     35415         0         1
     35417     35416     35418         0         1
     35420     35419     35421         0         1
     35423     35422     35424         0         1
     35426     35425     35427         0         1
     35429     35428     35430         0         1
     35432     35431     35433         0         1
     35435     35434     35436         0         1
     35438     35437     35439         0         1
     35441     35440     35442         0         1
     35444     35443     35445         0         1
     35447     35446     35448         0         1
     35450     35449     35451         0         1
     35453     35452     35454         0         1
     35456     35455     35457         0         1
     35459     35458     35460         0         1
     35462     35461     35463         0         1
     35465     35464     35466         0         1
     35468     35467     35469         0         1
     35471     35470     35472         0         1
     35474     35473     35475         0         1
     35477     35476     35478         0         1
     35480     35479     35481         0         1
     35483     35482     35484         0         1
     35486     35485     35487         0         1
     35489     35488     35490         0         1
     35492     35491     35493         0         1
     35495     35494     35496         0         1
     35498     35497     35499         0         1
     35501     35500     35502         0         1
     35504     35503     35505         0         1
     35507     35506     35508         0         1
     35510     35509     35511         0         1
     35513     35512     35514         0         1
     35516     35515     35517         0         1
     35519     35518     35520         0         1
     35522     35521     35523         0         1
     35525     35524     35526         0         1
     35528     35527     35529         0         1
     35531     35530     35532         0         1
     35534     35533     35535         0         1
     35537     35536     35538         0         1
     35540     35539     35541         0         1
     35543     35542     35544         0         1
     35546     35545     35547         0         1
     35549     35548     35550         0         1
     35552     35551     35553         0         1
     35555     35554     35556         0         1
     35558     35557     35559         0         1
     35561     35560     35562         0         1
     35564     35563     35565         0         1
     35567     35566     35568         0         1
     35570     35569     35571         0         1
     35573     35572     35574         0         1
     35576     35575     35577         0         1
     35579     35578     35580         0         1
     35582     35581     35583         0         1
     35585     35584     35586         0         1
     35588     35587     35589         0         1
     35591     35590     35592         0         1
     35594     35593     35595         0         1
     35597     35596     35598         0         1
     35600     35599     35601         0         1
     35603     35602     35604         0         1
     35606     35605     35607         0         1
     35609     35608     35610         0         1
     35612     35611     35613         0         1
     35615     35614     35616         0         1
     35618     35617     35619         0         1
     35621     35620     35622         0         1
     35624     35623     35625         0         1
     35627     35626     35628         0         1
     35630     35629     35631         0         1
     35633     35632     35634         0         1
     35636     35635     35637         0         1
     35639     35638     35640         0         1
     35642     35641     35643         0         1
     35645     35644     35646         0         1
     35648     35647     35649         0         1
     35651     35650     35652         0         1
     35654     35653     35655         0         1
     35657     35656     35658         0         1
     35660     35659     35661         0         1
     35663     35662     35664         0         1
     35666     35665     35667         0         1
     35669     35668     35670         0         1
     35672     35671     35673         0         1
     35675     35674     35676         0         1
     35678     35677     35679         0         1
     35681     35680     35682         0         1
     35684     35683     35685         0         1
     35687     35686     35688         0         1
     35690     35689     35691         0         1
     35693     35692     35694         0         1
     35696     35695     35697         0         1
     35699     35698     35700         0         1
     35702     35701     35703         0         1
     35705     35704     35706         0         1
     35708     35707     35709         0         1
     35711     35710     35712         0         1
     35714     35713     35715         0         1
     35717     35716     35718         0         1
     35720     35719     35721         0         1
     35723     35722     35724         0         1
     35726     35725     35727         0         1
     35729     35728     35730         0         1
     35732     35731     35733         0         1
     35735     35734     35736         0         1
     35738     35737     35739         0         1
     35741     35740     35742         0         1
     35744     35743     35745         0         1
     35747     35746     35748         0         1
     35750     35749     35751         0         1
     35753     35752     35754         0         1
     35756     35755     35757         0         1
     35759     35758     35760         0         1
     35762     35761     35763         0         1
     35765     35764     35766         0         1
     35768     35767     35769         0         1
     35771     35770     35772         0         1
     35774     35773     35775         0         1
     35777     35776     35778         0         1
     35780     35779     35781         0         1
     35783     35782     35784         0         1
     35786     35785     35787         0         1
     35789     35788     35790         0         1
     35792     35791     35793         0         1
     35795     35794     35796         0         1
     35798     35797     35799         0         1
     35801     35800     35802         0         1
     35804     35803     35805         0         1
     35807     35806     35808         0         1
     35810     35809     35811         0         1
     35813     35812     35814         0         1
     35816     35815     35817         0         1
     35819     35818     35820         0         1
     35822     35821     35823         0         1
     35825     35824     35826         0         1
     35828     35827     35829         0         1
     35831     35830     35832         0         1
     35834     35833     35835         0         1
     35837     35836     35838         0         1
     35840     35839     35841         0         1
     35843     35842     35844         0         1
     35846     35845     35847         0         1
     35849     35848     35850         0         1
     35852     35851     35853         0         1
     35855     35854     35856         0         1
     35858     35857     35859         0         1
     35861     35860     35862         0         1
     35864     35863     35865         0         1
     35867     35866     35868         0         1
     35870     35869     35871         0         1
     35873     35872     35874         0         1
     35876     35875     35877         0         1
     35879     35878     35880         0         1
     35882     35881     35883         0         1
     35885     35884     35886         0         1
     35888     35887     35889         0         1
     35891     35890     35892         0         1
     35894     35893     35895         0         1
     35897     35896     35898         0         1
     35900     35899     35901         0         1
     35903     35902     35904         0         1
     35906     35905     35907         0         1
     35909     35908     35910         0         1
     35912     35911     35913         0         1
     35915     35914     35916         0         1
     35918     35917     35919         0         1
     35921     35920     35922         0         1
     35924     35923     35925         0         1
     35927     35926     35928         0         1
     35930     35929     35931         0         1
     35933     35932     35934         0         1
     35936     35935     35937         0         1
     35939     35938     35940         0         1
     35942     35941     35943         0         1
     35945     35944     35946         0         1
     35948     35947     35949         0         1
     35951     35950     35952         0         1
     35954     35953     35955         0         1
     35957     35956     35958         0         1
     35960     35959     35961         0         1
     35963     35962     35964         0         1
     35966     35965     35967         0         1
     35969     35968     35970         0         1
     35972     35971     35973         0         1
     35975     35974     35976         0         1
     35978     35977     35979         0         1
     35981     35980     35982         0         1
     35984     35983     35985         0         1
     35987     35986     35988         0         1
     35990     35989     35991         0         1
     35993     35992     35994         0         1
     35996     35995     35997         0         1
     35999     35998     36000         0         1
     36002     36001     36003         0         1
     36005     36004     36006         0         1
     36008     36007     36009         0         1
     36011     36010     36012         0         1
     36014     36013     36015         0         1
     36017     36016     36018         0         1
     36020     36019     36021         0         1
     36023     36022     36024         0         1
     36026     36025     36027         0         1
     36029     36028     36030         0         1
     36032     36031     36033         0         1
     36035     36034     36036         0         1
     36038     36037     36039         0         1
     36041     36040     36042         0         1
     36044     36043     36045         0         1
     36047     36046     36048         0         1
     36050     36049     36051         0         1
     36053     36052     36054         0         1
     36056     36055     36057         0         1
     36059     36058     36060         0         1
     36062     36061     36063         0         1
     36065     36064     36066         0         1
     36068     36067     36069         0         1
     36071     36070     36072         0         1
     36074     36073     36075         0         1
     36077     36076     36078         0         1
     36080     36079     36081         0         1
     36083     36082     36084         0         1
     36086     36085     36087         0         1
     36089     36088     36090         0         1
     36092     36091     36093         0         1
     36095     36094     36096         0         1
     36098     36097     36099         0         1
     36101     36100     36102         0         1
     36104     36103     36105         0         1
     36107     36106     36108         0         1
     36110     36109     36111         0         1
     36113     36112     36114         0         1
     36116     36115     36117         0         1
     36119     36118     36120         0         1
     36122     36121     36123         0         1
     36125     36124     36126         0         1
     36128     36127     36129         0         1
     36131     36130     36132         0         1
     36134     36133     36135         0         1
     36137     36136     36138         0         1
     36140     36139     36141         0         1
     36143     36142     36144         0         1
     36146     36145     36147         0         1
     36149     36148     36150         0         1
     36152     36151     36153         0         1
     36155     36154     36156         0         1
     36158     36157     36159         0         1
     36161     36160     36162         0         1
     36164     36163     36165         0         1
     36167     36166     36168         0         1
     36170     36169     36171         0         1
     36173     36172     36174         0         1
     36176     36175     36177         0         1
     36179     36178     36180         0         1
     36182     36181     36183         0         1
     36185     36184     36186         0         1
     36188     36187     36189         0         1
     36191     36190     36192         0         1
     36194     36193     36195         0         1
     36197     36196     36198         0         1
     36200     36199     36201         0         1
     36203     36202     36204         0         1
     36206     36205     36207         0         1
     36209     36208     36210         0         1
     36212     36211     36213         0         1
     36215     36214     36216         0         1
     36218     36217     36219         0         1
     36221     36220     36222         0         1
     36224     36223     36225         0         1
     36227     36226     36228         0         1
     36230     36229     36231         0         1
     36233     36232     36234         0         1
     36236     36235     36237         0         1
     36239     36238     36240         0         1
     36242     36241     36243         0         1
     36245     36244     36246         0         1
     36248     36247     36249         0         1
     36251     36250     36252         0         1
     36254     36253     36255         0         1
     36257     36256     36258         0         1
     36260     36259     36261         0         1
     36263     36262     36264         0         1
     36266     36265     36267         0         1
     36269     36268     36270         0         1
     36272     36271     36273         0         1
     36275     36274     36276         0         1
     36278     36277     36279         0         1
     36281     36280     36282         0         1
     36284     36283     36285         0         1
     36287     36286     36288         0         1
     36290     36289     36291         0         1
     36293     36292     36294         0         1
     36296     36295     36297         0         1
     36299     36298     36300         0         1
     36302     36301     36303         0         1
     36305     36304     36306         0         1
     36308     36307     36309         0         1
     36311     36310     36312         0         1
     36314     36313     36315         0         1
     36317     36316     36318         0         1
     36320     36319     36321         0         1
     36323     36322     36324         0         1
     36326     36325     36327         0         1
     36329     36328     36330         0         1
     36332     36331     36333         0         1
     36335     36334     36336         0         1
     36338     36337     36339         0         1
     36341     36340     36342         0         1
     36344     36343     36345         0         1
     36347     36346     36348         0         1
     36350     36349     36351         0         1
     36353     36352     36354         0         1
     36356     36355     36357         0         1
     36359     36358     36360         0         1
     36362     36361     36363         0         1
     36365     36364     36366         0         1
     36368     36367     36369         0         1
     36371     36370     36372         0         1
     36374     36373     36375         0         1
     36377     36376     36378         0         1
     36380     36379     36381         0         1
     36383     36382     36384         0         1
     36386     36385     36387         0         1
     36389     36388     36390         0         1
     36392     36391     36393         0         1
     36395     36394     36396         0         1
     36398     36397     36399         0         1
     36401     36400     36402         0         1
     36404     36403     36405         0         1
     36407     36406     36408         0         1
     36410     36409     36411         0         1
     36413     36412     36414         0         1
     36416     36415     36417         0         1
     36419     36418     36420         0         1
     36422     36421     36423         0         1
     36425     36424     36426         0         1
     36428     36427     36429         0         1
     36431     36430     36432         0         1
     36434     36433     36435         0         1
     36437     36436     36438         0         1
     36440     36439     36441         0         1
     36443     36442     36444         0         1
     36446     36445     36447         0         1
     36449     36448     36450         0         1
     36452     36451     36453         0         1
     36455     36454     36456         0         1
     36458     36457     36459         0         1
     36461     36460     36462         0         1
     36464     36463     36465         0         1
     36467     36466     36468         0         1
     36470     36469     36471         0         1
     36473     36472     36474         0         1
     36476     36475     36477         0         1
     36479     36478     36480         0         1
     36482     36481     36483         0         1
     36485     36484     36486         0         1
     36488     36487     36489         0         1
     36491     36490     36492         0         1
     36494     36493     36495         0         1
     36497     36496     36498         0         1
     36500     36499     36501         0         1
     36503     36502     36504         0         1
     36506     36505     36507         0         1
     36509     36508     36510         0         1
     36512     36511     36513         0         1
     36515     36514     36516         0         1
     36518     36517     36519         0         1
     36521     36520     36522         0         1
     36524     36523     36525         0         1
     36527     36526     36528         0         1
     36530     36529     36531         0         1
     36533     36532     36534         0         1
     36536     36535     36537         0         1
     36539     36538     36540         0         1
     36542     36541     36543         0         1
     36545     36544     36546         0         1
     36548     36547     36549         0         1
     36551     36550     36552         0         1
     36554     36553     36555         0         1
     36557     36556     36558         0         1
     36560     36559     36561         0         1
     36563     36562     36564         0         1
     36566     36565     36567         0         1
     36569     36568     36570         0         1
     36572     36571     36573         0         1
     36575     36574     36576         0         1
     36578     36577     36579         0         1
     36581     36580     36582         0         1
     36584     36583     36585         0         1
     36587     36586     36588         0         1
     36590     36589     36591         0         1
     36593     36592     36594         0         1
     36596     36595     36597         0         1
     36599     36598     36600         0         1
     36602     36601     36603         0         1
     36605     36604     36606         0         1
     36608     36607     36609         0         1
     36611     36610     36612         0         1
     36614     36613     36615         0         1
     36617     36616     36618         0         1
     36620     36619     36621         0         1
     36623     36622     36624         0         1
     36626     36625     36627         0         1
     36629     36628     36630         0         1
     36632     36631     36633         0         1
     36635     36634     36636         0         1
     36638     36637     36639         0         1
     36641     36640     36642         0         1
     36644     36643     36645         0         1
     36647     36646     36648         0         1
     36650     36649     36651         0         1
     36653     36652     36654         0         1
     36656     36655     36657         0         1
     36659     36658     36660         0         1
     36662     36661     36663         0         1
     36665     36664     36666         0         1
     36668     36667     36669         0         1
     36671     36670     36672         0         1
     36674     36673     36675         0         1
     36677     36676     36678         0         1
     36680     36679     36681         0         1
     36683     36682     36684         0         1
     36686     36685     36687         0         1
     36689     36688     36690         0         1
     36692     36691     36693         0         1
     36695     36694     36696         0         1
     36698     36697     36699         0         1
     36701     36700     36702         0         1
     36704     36703     36705         0         1
     36707     36706     36708         0         1
     36710     36709     36711         0         1
     36713     36712     36714         0         1
     36716     36715     36717         0         1
     36719     36718     36720         0         1
     36722     36721     36723         0         1
     36725     36724     36726         0         1
     36728     36727     36729         0         1
     36731     36730     36732         0         1
     36734     36733     36735         0         1
     36737     36736     36738         0         1
     36740     36739     36741         0         1
     36743     36742     36744         0         1
     36746     36745     36747         0         1
     36749     36748     36750         0         1
     36752     36751     36753         0         1
     36755     36754     36756         0         1
     36758     36757     36759         0         1
     36761     36760     36762         0         1
     36764     36763     36765         0         1
     36767     36766     36768         0         1
     36770     36769     36771         0         1
     36773     36772     36774         0         1
     36776     36775     36777         0         1
     36779     36778     36780         0         1
     36782     36781     36783         0         1
     36785     36784     36786         0         1
     36788     36787     36789         0         1
     36791     36790     36792         0         1
     36794     36793     36795         0         1
     36797     36796     36798         0         1
     36800     36799     36801         0         1
     36803     36802     36804         0         1
     36806     36805     36807         0         1
     36809     36808     36810         0         1
     36812     36811     36813         0         1
     36815     36814     36816         0         1
     36818     36817     36819         0         1
     36821     36820     36822         0         1
     36824     36823     36825         0         1
     36827     36826     36828         0         1
     36830     36829     36831         0         1
     36833     36832     36834         0         1
     36836     36835     36837         0         1
     36839     36838     36840         0         1
     36842     36841     36843         0         1
     36845     36844     36846         0         1
     36848     36847     36849         0         1
     36851     36850     36852         0         1
     36854     36853     36855         0         1
     36857     36856     36858         0         1
     36860     36859     36861         0         1
     36863     36862     36864         0         1
     36866     36865     36867         0         1
     36869     36868     36870         0         1
     36872     36871     36873         0         1
     36875     36874     36876         0         1
     36878     36877     36879         0         1
     36881     36880     36882         0         1
     36884     36883     36885         0         1
     36887     36886     36888         0         1
     36890     36889     36891         0         1
     36893     36892     36894         0         1
     36896     36895     36897         0         1
     36899     36898     36900         0         1
     36902     36901     36903         0         1
     36905     36904     36906         0         1
     36908     36907     36909         0         1
     36911     36910     36912         0         1
     36914     36913     36915         0         1
     36917     36916     36918         0         1
     36920     36919     36921         0         1
     36923     36922     36924         0         1
     36926     36925     36927         0         1
     36929     36928     36930         0         1
     36932     36931     36933         0         1
     36935     36934     36936         0         1
     36938     36937     36939         0         1
     36941     36940     36942         0         1
     36944     36943     36945         0         1
     36947     36946     36948         0         1
     36950     36949     36951         0         1
     36953     36952     36954         0         1
     36956     36955     36957         0         1
     36959     36958     36960         0         1
     36962     36961     36963         0         1
     36965     36964     36966         0         1
     36968     36967     36969         0         1
     36971     36970     36972         0         1
     36974     36973     36975         0         1
     36977     36976     36978         0         1
     36980     36979     36981         0         1
     36983     36982     36984         0         1
     36986     36985     36987         0         1
     36989     36988     36990         0         1
     36992     36991     36993         0         1
     36995     36994     36996         0         1
     36998     36997     36999         0         1
     37001     37000     37002         0         1
     37004     37003     37005         0         1
     37007     37006     37008         0         1
     37010     37009     37011         0         1
     37013     37012     37014         0         1
     37016     37015     37017         0         1
     37019     37018     37020         0         1
     37022     37021     37023         0         1
     37025     37024     37026         0         1
     37028     37027     37029         0         1
     37031     37030     37032         0         1
     37034     37033     37035         0         1
     37037     37036     37038         0         1
     37040     37039     37041         0         1
     37043     37042     37044         0         1
     37046     37045     37047         0         1
     37049     37048     37050         0         1
     37052     37051     37053         0         1
     37055     37054     37056         0         1
     37058     37057     37059         0         1
     37061     37060     37062         0         1
     37064     37063     37065         0         1
     37067     37066     37068         0         1
     37070     37069     37071         0         1
     37073     37072     37074         0         1
     37076     37075     37077         0         1
     37079     37078     37080         0         1
     37082     37081     37083         0         1
     37085     37084     37086         0         1
     37088     37087     37089         0         1
     37091     37090     37092         0         1
     37094     37093     37095         0         1
     37097     37096     37098         0         1
     37100     37099     37101         0         1
     37103     37102     37104         0         1
     37106     37105     37107         0         1
     37109     37108     37110         0         1
     37112     37111     37113         0         1
     37115     37114     37116         0         1
     37118     37117     37119         0         1
     37121     37120     37122         0         1
     37124     37123     37125         0         1
     37127     37126     37128         0         1
     37130     37129     37131         0         1
     37133     37132     37134         0         1
     37136     37135     37137         0         1
     37139     37138     37140         0         1
     37142     37141     37143         0         1
     37145     37144     37146         0         1
     37148     37147     37149         0         1
     37151     37150     37152         0         1
     37154     37153     37155         0         1
     37157     37156     37158         0         1
     37160     37159     37161         0         1
     37163     37162     37164         0         1
     37166     37165     37167         0         1
     37169     37168     37170         0         1
     37172     37171     37173         0         1
     37175     37174     37176         0         1
     37178     37177     37179         0         1
     37181     37180     37182         0         1
     37184     37183     37185         0         1
     37187     37186     37188         0         1
     37190     37189     37191         0         1
     37193     37192     37194         0         1
     37196     37195     37197         0         1
     37199     37198     37200         0         1
     37202     37201     37203         0         1
     37205     37204     37206         0         1
     37208     37207     37209         0         1
     37211     37210     37212         0         1
     37214     37213     37215         0         1
     37217     37216     37218         0         1
     37220     37219     37221         0         1
     37223     37222     37224         0         1
     37226     37225     37227         0         1
     37229     37228     37230         0         1
     37232     37231     37233         0         1
     37235     37234     37236         0         1
     37238     37237     37239         0         1
     37241     37240     37242         0         1
     37244     37243     37245         0         1
     37247     37246     37248         0         1
     37250     37249     37251         0         1
     37253     37252     37254         0         1
     37256     37255     37257         0         1
     37259     37258     37260         0         1
     37262     37261     37263         0         1
     37265     37264     37266         0         1
     37268     37267     37269         0         1
     37271     37270     37272         0         1
     37274     37273     37275         0         1
     37277     37276     37278         0         1
     37280     37279     37281         0         1
     37283     37282     37284         0         1
     37286     37285     37287         0         1
     37289     37288     37290         0         1
     37292     37291     37293         0         1
     37295     37294     37296         0         1
     37298     37297     37299         0         1
     37301     37300     37302         0         1
     37304     37303     37305         0         1
     37307     37306     37308         0         1
     37310     37309     37311         0         1
     37313     37312     37314         0         1
     37316     37315     37317         0         1
     37319     37318     37320         0         1
     37322     37321     37323         0         1
     37325     37324     37326         0         1
     37328     37327     37329         0         1
     37331     37330     37332         0         1
     37334     37333     37335         0         1
     37337     37336     37338         0         1
     37340     37339     37341         0         1
     37343     37342     37344         0         1
     37346     37345     37347         0         1
     37349     37348     37350         0         1
     37352     37351     37353         0         1
     37355     37354     37356         0         1
     37358     37357     37359         0         1
     37361     37360     37362         0         1
     37364     37363     37365         0         1
     37367     37366     37368         0         1
     37370     37369     37371         0         1
     37373     37372     37374         0         1
     37376     37375     37377         0         1
     37379     37378     37380         0         1
     37382     37381     37383         0         1
     37385     37384     37386         0         1
     37388     37387     37389         0         1
     37391     37390     37392         0         1
     37394     37393     37395         0         1
     37397     37396     37398         0         1
     37400     37399     37401         0         1
     37403     37402     37404         0         1
     37406     37405     37407         0         1
     37409     37408     37410         0         1
     37412     37411     37413         0         1
     37415     37414     37416         0         1
     37418     37417     37419         0         1
     37421     37420     37422         0         1
     37424     37423     37425         0         1
     37427     37426     37428         0         1
     37430     37429     37431         0         1
     37433     37432     37434         0         1
     37436     37435     37437         0         1
     37439     37438     37440         0         1
     37442     37441     37443         0         1
     37445     37444     37446         0         1
     37448     37447     37449         0         1
     37451     37450     37452         0         1
     37454     37453     37455         0         1
     37457     37456     37458         0         1
     37460     37459     37461         0         1
     37463     37462     37464         0         1
     37466     37465     37467         0         1
     37469     37468     37470         0         1
     37472     37471     37473         0         1
     37475     37474     37476         0         1
     37478     37477     37479         0         1
     37481     37480     37482         0         1
     37484     37483     37485         0         1
     37487     37486     37488         0         1
     37490     37489     37491         0         1
     37493     37492     37494         0         1
     37496     37495     37497         0         1
     37499     37498     37500         0         1
     37502     37501     37503         0         1
     37505     37504     37506         0         1
     37508     37507     37509         0         1
     37511     37510     37512         0         1
     37514     37513     37515         0         1
     37517     37516     37518         0         1
     37520     37519     37521         0         1
     37523     37522     37524         0         1
     37526     37525     37527         0         1
     37529     37528     37530         0         1
     37532     37531     37533         0         1
     37535     37534     37536         0         1
     37538     37537     37539         0         1
     37541     37540     37542         0         1
     37544     37543     37545         0         1
     37547     37546     37548         0         1
     37550     37549     37551         0         1
     37553     37552     37554         0         1
     37556     37555     37557         0         1
     37559     37558     37560         0         1
     37562     37561     37563         0         1
     37565     37564     37566         0         1
     37568     37567     37569         0         1
     37571     37570     37572         0         1
     37574     37573     37575         0         1
     37577     37576     37578         0         1
     37580     37579     37581         0         1
     37583     37582     37584         0         1
     37586     37585     37587         0         1
     37589     37588     37590         0         1
     37592     37591     37593         0         1
     37595     37594     37596         0         1
     37598     37597     37599         0         1
     37601     37600     37602         0         1
     37604     37603     37605         0         1
     37607     37606     37608         0         1
     37610     37609     37611         0         1
     37613     37612     37614         0         1
     37616     37615     37617         0         1
     37619     37618     37620         0         1
     37622     37621     37623         0         1
     37625     37624     37626         0         1
     37628     37627     37629         0         1
     37631     37630     37632         0         1
     37634     37633     37635         0         1
     37637     37636     37638         0         1
     37640     37639     37641         0         1
     37643     37642     37644         0         1
     37646     37645     37647         0         1
     37649     37648     37650         0         1
     37652     37651     37653         0         1
     37655     37654     37656         0         1
     37658     37657     37659         0         1
     37661     37660     37662         0         1
     37664     37663     37665         0         1
     37667     37666     37668         0         1
     37670     37669     37671         0         1
     37673     37672     37674         0         1
     37676     37675     37677         0         1
     37679     37678     37680         0         1
     37682     37681     37683         0         1
     37685     37684     37686         0         1
     37688     37687     37689         0         1
     37691     37690     37692         0         1
     37694     37693     37695         0         1
     37697     37696     37698         0         1
     37700     37699     37701         0         1
     37703     37702     37704         0         1
     37706     37705     37707         0         1
     37709     37708     37710         0         1
     37712     37711     37713         0         1
     37715     37714     37716         0         1
     37718     37717     37719         0         1
     37721     37720     37722         0         1
     37724     37723     37725         0         1
     37727     37726     37728         0         1
     37730     37729     37731         0         1
     37733     37732     37734         0         1
     37736     37735     37737         0         1
     37739     37738     37740         0         1
     37742     37741     37743         0         1
     37745     37744     37746         0         1
     37748     37747     37749         0         1
     37751     37750     37752         0         1
     37754     37753     37755         0         1
     37757     37756     37758         0         1
     37760     37759     37761         0         1
     37763     37762     37764         0         1
     37766     37765     37767         0         1
     37769     37768     37770         0         1
     37772     37771     37773         0         1
     37775     37774     37776         0         1
     37778     37777     37779         0         1
     37781     37780     37782         0         1
     37784     37783     37785         0         1
     37787     37786     37788         0         1
     37790     37789     37791         0         1
     37793     37792     37794         0         1
     37796     37795     37797         0         1
     37799     37798     37800         0         1
     37802     37801     37803         0         1
     37805     37804     37806         0         1
     37808     37807     37809         0         1
     37811     37810     37812         0         1
     37814     37813     37815         0         1
     37817     37816     37818         0         1
     37820     37819     37821         0         1
     37823     37822     37824         0         1
     37826     37825     37827         0         1
     37829     37828     37830         0         1
     37832     37831     37833         0         1
     37835     37834     37836         0         1
     37838     37837     37839         0         1
     37841     37840     37842         0         1
     37844     37843     37845         0         1
     37847     37846     37848         0         1
     37850     37849     37851         0         1
     37853     37852     37854         0         1
     37856     37855     37857         0         1
     37859     37858     37860         0         1
     37862     37861     37863         0         1
     37865     37864     37866         0         1
     37868     37867     37869         0         1
     37871     37870     37872         0         1
     37874     37873     37875         0         1
     37877     37876     37878         0         1
     37880     37879     37881         0         1
     37883     37882     37884         0         1
     37886     37885     37887         0         1
     37889     37888     37890         0         1
     37892     37891     37893         0         1
     37895     37894     37896         0         1
     37898     37897     37899         0         1
     37901     37900     37902         0         1
     37904     37903     37905         0         1
     37907     37906     37908         0         1
     37910     37909     37911         0         1
     37913     37912     37914         0         1
     37916     37915     37917         0         1
     37919     37918     37920         0         1
     37922     37921     37923         0         1
     37925     37924     37926         0         1
     37928     37927     37929         0         1
     37931     37930     37932         0         1
     37934     37933     37935         0         1
     37937     37936     37938         0         1
     37940     37939     37941         0         1
     37943     37942     37944         0         1
     37946     37945     37947         0         1
     37949     37948     37950         0         1
     37952     37951     37953         0         1
     37955     37954     37956         0         1
     37958     37957     37959         0         1
     37961     37960     37962         0         1
     37964     37963     37965         0         1
     37967     37966     37968         0         1
     37970     37969     37971         0         1
     37973     37972     37974         0         1
     37976     37975     37977         0         1
     37979     37978     37980         0         1
     37982     37981     37983         0         1
     37985     37984     37986         0         1
     37988     37987     37989         0         1
     37991     37990     37992         0         1
     37994     37993     37995         0         1
     37997     37996     37998         0         1
     38000     37999     38001         0         1
     38003     38002     38004         0         1
     38006     38005     38007         0         1
     38009     38008     38010         0         1
     38012     38011     38013         0         1
     38015     38014     38016         0         1
     38018     38017     38019         0         1
     38021     38020     38022         0         1
     38024     38023     38025         0         1
     38027     38026     38028         0         1
     38030     38029     38031         0         1
     38033     38032     38034         0         1
     38036     38035     38037         0         1
     38039     38038     38040         0         1
     38042     38041     38043         0         1
     38045     38044     38046         0         1
     38048     38047     38049         0         1
     38051     38050     38052         0         1
     38054     38053     38055         0         1
     38057     38056     38058         0         1
     38060     38059     38061         0         1
     38063     38062     38064         0         1
     38066     38065     38067         0         1
     38069     38068     38070         0         1
     38072     38071     38073         0         1
     38075     38074     38076         0         1
     38078     38077     38079         0         1
     38081     38080     38082         0         1
     38084     38083     38085         0         1
     38087     38086     38088         0         1
     38090     38089     38091         0         1
     38093     38092     38094         0         1
     38096     38095     38097         0         1
     38099     38098     38100         0         1
     38102     38101     38103         0         1
     38105     38104     38106         0         1
     38108     38107     38109         0         1
     38111     38110     38112         0         1
     38114     38113     38115         0         1
     38117     38116     38118         0         1
     38120     38119     38121         0         1
     38123     38122     38124         0         1
     38126     38125     38127         0         1
     38129     38128     38130         0         1
     38132     38131     38133         0         1
     38135     38134     38136         0         1
     38138     38137     38139         0         1
     38141     38140     38142         0         1
     38144     38143     38145         0         1
     38147     38146     38148         0         1
     38150     38149     38151         0         1
     38153     38152     38154         0         1
     38156     38155     38157         0         1
     38159     38158     38160         0         1
     38162     38161     38163         0         1
     38165     38164     38166         0         1
     38168     38167     38169         0         1
     38171     38170     38172         0         1
     38174     38173     38175         0         1
     38177     38176     38178         0         1
     38180     38179     38181         0         1
     38183     38182     38184         0         1
     38186     38185     38187         0         1
     38189     38188     38190         0         1
     38192     38191     38193         0         1
     38195     38194     38196         0         1
     38198     38197     38199         0         1
     38201     38200     38202         0         1
     38204     38203     38205         0         1
     38207     38206     38208         0         1
     38210     38209     38211         0         1
     38213     38212     38214         0         1
     38216     38215     38217         0         1
     38219     38218     38220         0         1
     38222     38221     38223         0         1
     38225     38224     38226         0         1
     38228     38227     38229         0         1
     38231     38230     38232         0         1
     38234     38233     38235         0         1
     38237     38236     38238         0         1
     38240     38239     38241         0         1
     38243     38242     38244         0         1
     38246     38245     38247         0         1
     38249     38248     38250         0         1
     38252     38251     38253         0         1
     38255     38254     38256         0         1
     38258     38257     38259         0         1
     38261     38260     38262         0         1
     38264     38263     38265         0         1
     38267     38266     38268         0         1
     38270     38269     38271         0         1
     38273     38272     38274         0         1
     38276     38275     38277         0         1
     38279     38278     38280         0         1
     38282     38281     38283         0         1
     38285     38284     38286         0         1
     38288     38287     38289         0         1
     38291     38290     38292         0         1
     38294     38293     38295         0         1
     38297     38296     38298         0         1
     38300     38299     38301         0         1
     38303     38302     38304         0         1
     38306     38305     38307         0         1
     38309     38308     38310         0         1
     38312     38311     38313         0         1
     38315     38314     38316         0         1
     38318     38317     38319         0         1
     38321     38320     38322         0         1
     38324     38323     38325         0         1
     38327     38326     38328         0         1
     38330     38329     38331         0         1
     38333     38332     38334         0         1
     38336     38335     38337         0         1
     38339     38338     38340         0         1
     38342     38341     38343         0         1
     38345     38344     38346         0         1
     38348     38347     38349         0         1
     38351     38350     38352         0         1
     38354     38353     38355         0         1
     38357     38356     38358         0         1
     38360     38359     38361         0         1
     38363     38362     38364         0         1
     38366     38365     38367         0         1
     38369     38368     38370         0         1
     38372     38371     38373         0         1
     38375     38374     38376         0         1
     38378     38377     38379         0         1
     38381     38380     38382         0         1
     38384     38383     38385         0         1
     38387     38386     38388         0         1
     38390     38389     38391         0         1
     38393     38392     38394         0         1
     38396     38395     38397         0         1
     38399     38398     38400         0         1
     38402     38401     38403         0         1
     38405     38404     38406         0         1
     38408     38407     38409         0         1
     38411     38410     38412         0         1
     38414     38413     38415         0         1
     38417     38416     38418         0         1
     38420     38419     38421         0         1
     38423     38422     38424         0         1
     38426     38425     38427         0         1
     38429     38428     38430         0         1
     38432     38431     38433         0         1
     38435     38434     38436         0         1
     38438     38437     38439         0         1
     38441     38440     38442         0         1
     38444     38443     38445         0         1
     38447     38446     38448         0         1
     38450     38449     38451         0         1
     38453     38452     38454         0         1
     38456     38455     38457         0         1
     38459     38458     38460         0         1
     38462     38461     38463         0         1
     38465     38464     38466         0         1
     38468     38467     38469         0         1
     38471     38470     38472         0         1
     38474     38473     38475         0         1
     38477     38476     38478         0         1
     38480     38479     38481         0         1
     38483     38482     38484         0         1
     38486     38485     38487         0         1
     38489     38488     38490         0         1
     38492     38491     38493         0         1
     38495     38494     38496         0         1
     38498     38497     38499         0         1
     38501     38500     38502         0         1
     38504     38503     38505         0         1
     38507     38506     38508         0         1
     38510     38509     38511         0         1
     38513     38512     38514         0         1
     38516     38515     38517         0         1
     38519     38518     38520         0         1
     38522     38521     38523         0         1
     38525     38524     38526         0         1
     38528     38527     38529         0         1
     38531     38530     38532         0         1
     38534     38533     38535         0         1
     38537     38536     38538         0         1
     38540     38539     38541         0         1
     38543     38542     38544         0         1
     38546     38545     38547         0         1
     38549     38548     38550         0         1
     38552     38551     38553         0         1
     38555     38554     38556         0         1
     38558     38557     38559         0         1
     38561     38560     38562         0         1
     38564     38563     38565         0         1
     38567     38566     38568         0         1
     38570     38569     38571         0         1
     38573     38572     38574         0         1
     38576     38575     38577         0         1
     38579     38578     38580         0         1
     38582     38581     38583         0         1
     38585     38584     38586         0         1
     38588     38587     38589         0         1
     38591     38590     38592         0         1
     38594     38593     38595         0         1
     38597     38596     38598         0         1
     38600     38599     38601         0         1
     38603     38602     38604         0         1
     38606     38605     38607         0         1
     38609     38608     38610         0         1
     38612     38611     38613         0         1
     38615     38614     38616         0         1
     38618     38617     38619         0         1
     38621     38620     38622         0         1
     38624     38623     38625         0         1
     38627     38626     38628         0         1
     38630     38629     38631         0         1
     38633     38632     38634         0         1
     38636     38635     38637         0         1
     38639     38638     38640         0         1
     38642     38641     38643         0         1
     38645     38644     38646         0         1
     38648     38647     38649         0         1
     38651     38650     38652         0         1
     38654     38653     38655         0         1
     38657     38656     38658         0         1
     38660     38659     38661         0         1
     38663     38662     38664         0         1
     38666     38665     38667         0         1
     38669     38668     38670         0         1
     38672     38671     38673         0         1
     38675     38674     38676         0         1
     38678     38677     38679         0         1
     38681     38680     38682         0         1
     38684     38683     38685         0         1
     38687     38686     38688         0         1
     38690     38689     38691         0         1
     38693     38692     38694         0         1
     38696     38695     38697         0         1
     38699     38698     38700         0         1
     38702     38701     38703         0         1
     38705     38704     38706         0         1
     38708     38707     38709         0         1
     38711     38710     38712         0         1
     38714     38713     38715         0         1
     38717     38716     38718         0         1
     38720     38719     38721         0         1
     38723     38722     38724         0         1
     38726     38725     38727         0         1
     38729     38728     38730         0         1
     38732     38731     38733         0         1
     38735     38734     38736         0         1
     38738     38737     38739         0         1
     38741     38740     38742         0         1
     38744     38743     38745         0         1
     38747     38746     38748         0         1
     38750     38749     38751         0         1
     38753     38752     38754         0         1
     38756     38755     38757         0         1
     38759     38758     38760         0         1
     38762     38761     38763         0         1
     38765     38764     38766         0         1
     38768     38767     38769         0         1
     38771     38770     38772         0         1
     38774     38773     38775         0         1
     38777     38776     38778         0         1
     38780     38779     38781         0         1
     38783     38782     38784         0         1
     38786     38785     38787         0         1
     38789     38788     38790         0         1
     38792     38791     38793         0         1
     38795     38794     38796         0         1
     38798     38797     38799         0         1
     38801     38800     38802         0         1
     38804     38803     38805         0         1
     38807     38806     38808         0         1
     38810     38809     38811         0         1
     38813     38812     38814         0         1
     38816     38815     38817         0         1
     38819     38818     38820         0         1
     38822     38821     38823         0         1
     38825     38824     38826         0         1
     38828     38827     38829         0         1
     38831     38830     38832         0         1
     38834     38833     38835         0         1
     38837     38836     38838         0         1
     38840     38839     38841         0         1
     38843     38842     38844         0         1
     38846     38845     38847         0         1
     38849     38848     38850         0         1
     38852     38851     38853         0         1
     38855     38854     38856         0         1
     38858     38857     38859         0         1
     38861     38860     38862         0         1
     38864     38863     38865         0         1
     38867     38866     38868         0         1
     38870     38869     38871         0         1
     38873     38872     38874         0         1
     38876     38875     38877         0         1
     38879     38878     38880         0         1
     38882     38881     38883         0         1
     38885     38884     38886         0         1
     38888     38887     38889         0         1
     38891     38890     38892         0         1
     38894     38893     38895         0         1
     38897     38896     38898         0         1
     38900     38899     38901         0         1
     38903     38902     38904         0         1
     38906     38905     38907         0         1
     38909     38908     38910         0         1
     38912     38911     38913         0         1
     38915     38914     38916         0         1
     38918     38917     38919         0         1
     38921     38920     38922         0         1
     38924     38923     38925         0         1
     38927     38926     38928         0         1
     38930     38929     38931         0         1
     38933     38932     38934         0         1
     38936     38935     38937         0         1
     38939     38938     38940         0         1
     38942     38941     38943         0         1
     38945     38944     38946         0         1
     38948     38947     38949         0         1
     38951     38950     38952         0         1
     38954     38953     38955         0         1
     38957     38956     38958         0         1
     38960     38959     38961         0         1
     38963     38962     38964         0         1
     38966     38965     38967         0         1
     38969     38968     38970         0         1
     38972     38971     38973         0         1
     38975     38974     38976         0         1
     38978     38977     38979         0         1
     38981     38980     38982         0         1
     38984     38983     38985         0         1
     38987     38986     38988         0         1
     38990     38989     38991         0         1
     38993     38992     38994         0         1
     38996     38995     38997         0         1
     38999     38998     39000         0         1
     39002     39001     39003         0         1
     39005     39004     39006         0         1
     39008     39007     39009         0         1
     39011     39010     39012         0         1
     39014     39013     39015         0         1
     39017     39016     39018         0         1
     39020     39019     39021         0         1
     39023     39022     39024         0         1
     39026     39025     39027         0         1
     39029     39028     39030         0         1
     39032     39031     39033         0         1
     39035     39034     39036         0         1
     39038     39037     39039         0         1
     39041     39040     39042         0         1
     39044     39043     39045         0         1
     39047     39046     39048         0         1
     39050     39049     39051         0         1
     39053     39052     39054         0         1
     39056     39055     39057         0         1
     39059     39058     39060         0         1
     39062     39061     39063         0         1
     39065     39064     39066         0         1
     39068     39067     39069         0         1
     39071     39070     39072         0         1
     39074     39073     39075         0         1
     39077     39076     39078         0         1
     39080     39079     39081         0         1
     39083     39082     39084         0         1
     39086     39085     39087         0         1
     39089     39088     39090         0         1
     39092     39091     39093         0         1
     39095     39094     39096         0         1
     39098     39097     39099         0         1
     39101     39100     39102         0         1
     39104     39103     39105         0         1
     39107     39106     39108         0         1
     39110     39109     39111         0         1
     39113     39112     39114         0         1
     39116     39115     39117         0         1
     39119     39118     39120         0         1
     39122     39121     39123         0         1
     39125     39124     39126         0         1
     39128     39127     39129         0         1
     39131     39130     39132         0         1
     39134     39133     39135         0         1
     39137     39136     39138         0         1
     39140     39139     39141         0         1
     39143     39142     39144         0         1
     39146     39145     39147         0         1
     39149     39148     39150         0         1
     39152     39151     39153         0         1
     39155     39154     39156         0         1
     39158     39157     39159         0         1
     39161     39160     39162         0         1
     39164     39163     39165         0         1
     39167     39166     39168         0         1
     39170     39169     39171         0         1
     39173     39172     39174         0         1
     39176     39175     39177         0         1
     39179     39178     39180         0         1
     39182     39181     39183         0         1
     39185     39184     39186         0         1
     39188     39187     39189         0         1
     39191     39190     39192         0         1
     39194     39193     39195         0         1
     39197     39196     39198         0         1
     39200     39199     39201         0         1
     39203     39202     39204         0         1
     39206     39205     39207         0         1
     39209     39208     39210         0         1
     39212     39211     39213         0         1
     39215     39214     39216         0         1
     39218     39217     39219         0         1
     39221     39220     39222         0         1
     39224     39223     39225         0         1
     39227     39226     39228         0         1
     39230     39229     39231         0         1
     39233     39232     39234         0         1
     39236     39235     39237         0         1
     39239     39238     39240         0         1
     39242     39241     39243         0         1
     39245     39244     39246         0         1
     39248     39247     39249         0         1
     39251     39250     39252         0         1
     39254     39253     39255         0         1
     39257     39256     39258         0         1
     39260     39259     39261         0         1
     39263     39262     39264         0         1
     39266     39265     39267         0         1
     39269     39268     39270         0         1
     39272     39271     39273         0         1
     39275     39274     39276         0         1
     39278     39277     39279         0         1
     39281     39280     39282         0         1
     39284     39283     39285         0         1
     39287     39286     39288         0         1
     39290     39289     39291         0         1
     39293     39292     39294         0         1
     39296     39295     39297         0         1
     39299     39298     39300         0         1
     39302     39301     39303         0         1
     39305     39304     39306         0         1
     39308     39307     39309         0         1
     39311     39310     39312         0         1
     39314     39313     39315         0         1
     39317     39316     39318         0         1
     39320     39319     39321         0         1
     39323     39322     39324         0         1
     39326     39325     39327         0         1
     39329     39328     39330         0         1
     39332     39331     39333         0         1
     39335     39334     39336         0         1
     39338     39337     39339         0         1
     39341     39340     39342         0         1
     39344     39343     39345         0         1
     39347     39346     39348         0         1
     39350     39349     39351         0         1
     39353     39352     39354         0         1
     39356     39355     39357         0         1
     39359     39358     39360         0         1
     39362     39361     39363         0         1
     39365     39364     39366         0         1
     39368     39367     39369         0         1
     39371     39370     39372         0         1
     39374     39373     39375         0         1
     39377     39376     39378         0         1
     39380     39379     39381         0         1
     39383     39382     39384         0         1
     39386     39385     39387         0         1
     39389     39388     39390         0         1
     39392     39391     39393         0         1
     39395     39394     39396         0         1
     39398     39397     39399         0         1
     39401     39400     39402         0         1
     39404     39403     39405         0         1
     39407     39406     39408         0         1
     39410     39409     39411         0         1
     39413     39412     39414         0         1
     39416     39415     39417         0         1
     39419     39418     39420         0         1
     39422     39421     39423         0         1
     39425     39424     39426         0         1
     39428     39427     39429         0         1
     39431     39430     39432         0         1
     39434     39433     39435         0         1
     39437     39436     39438         0         1
     39440     39439     39441         0         1
     39443     39442     39444         0         1
     39446     39445     39447         0         1
     39449     39448     39450         0         1
     39452     39451     39453         0         1
     39455     39454     39456         0         1
     39458     39457     39459         0         1
     39461     39460     39462         0         1
     39464     39463     39465         0         1
     39467     39466     39468         0         1
     39470     39469     39471         0         1
     39473     39472     39474         0         1
     39476     39475     39477         0         1
     39479     39478     39480         0         1
     39482     39481     39483         0         1
     39485     39484     39486         0         1
     39488     39487     39489         0         1
     39491     39490     39492         0         1
     39494     39493     39495         0         1
     39497     39496     39498         0         1
     39500     39499     39501         0         1
     39503     39502     39504         0         1
     39506     39505     39507         0         1
     39509     39508     39510         0         1
     39512     39511     39513         0         1
     39515     39514     39516         0         1
     39518     39517     39519         0         1
     39521     39520     39522         0         1
     39524     39523     39525         0         1
     39527     39526     39528         0         1
     39530     39529     39531         0         1
     39533     39532     39534         0         1
     39536     39535     39537         0         1
     39539     39538     39540         0         1
     39542     39541     39543         0         1
     39545     39544     39546         0         1
     39548     39547     39549         0         1
     39551     39550     39552         0         1
     39554     39553     39555         0         1
     39557     39556     39558         0         1
     39560     39559     39561         0         1
     39563     39562     39564         0         1
     39566     39565     39567         0         1
     39569     39568     39570         0         1
     39572     39571     39573         0         1
     39575     39574     39576         0         1
     39578     39577     39579         0         1
     39581     39580     39582         0         1
     39584     39583     39585         0         1
     39587     39586     39588         0         1
     39590     39589     39591         0         1
     39593     39592     39594         0         1
     39596     39595     39597         0         1
     39599     39598     39600         0         1
     39602     39601     39603         0         1
     39605     39604     39606         0         1
     39608     39607     39609         0         1
     39611     39610     39612         0         1
     39614     39613     39615         0         1
     39617     39616     39618         0         1
     39620     39619     39621         0         1
     39623     39622     39624         0         1
     39626     39625     39627         0         1
     39629     39628     39630         0         1
     39632     39631     39633         0         1
     39635     39634     39636         0         1
     39638     39637     39639         0         1
     39641     39640     39642         0         1
     39644     39643     39645         0         1
     39647     39646     39648         0         1
     39650     39649     39651         0         1
     39653     39652     39654         0         1
     39656     39655     39657         0         1
     39659     39658     39660         0         1
     39662     39661     39663         0         1
     39665     39664     39666         0         1
     39668     39667     39669         0         1
     39671     39670     39672         0         1
     39674     39673     39675         0         1
     39677     39676     39678         0         1
     39680     39679     39681         0         1
     39683     39682     39684         0         1
     39686     39685     39687         0         1
     39689     39688     39690         0         1
     39692     39691     39693         0         1
     39695     39694     39696         0         1
     39698     39697     39699         0         1
     39701     39700     39702         0         1
     39704     39703     39705         0         1
     39707     39706     39708         0         1
     39710     39709     39711         0         1
     39713     39712     39714         0         1
     39716     39715     39717         0         1
     39719     39718     39720         0         1
     39722     39721     39723         0         1
     39725     39724     39726         0         1
     39728     39727     39729         0         1
     39731     39730     39732         0         1
     39734     39733     39735         0         1
     39737     39736     39738         0         1
     39740     39739     39741         0         1
     39743     39742     39744         0         1
     39746     39745     39747         0         1
     39749     39748     39750         0         1
     39752     39751     39753         0         1
     39755     39754     39756         0         1
     39758     39757     39759         0         1
     39761     39760     39762         0         1
     39764     39763     39765         0         1
     39767     39766     39768         0         1
     39770     39769     39771         0         1
     39773     39772     39774         0         1
     39776     39775     39777         0         1
     39779     39778     39780         0         1
     39782     39781     39783         0         1
     39785     39784     39786         0         1
     39788     39787     39789         0         1
     39791     39790     39792         0         1
     39794     39793     39795         0         1
     39797     39796     39798         0         1
     39800     39799     39801         0         1
     39803     39802     39804         0         1
     39806     39805     39807         0         1
     39809     39808     39810         0         1
     39812     39811     39813         0         1
     39815     39814     39816         0         1
     39818     39817     39819         0         1
     39821     39820     39822         0         1
     39824     39823     39825         0         1
     39827     39826     39828         0         1
     39830     39829     39831         0         1
     39833     39832     39834         0         1
     39836     39835     39837         0         1
     39839     39838     39840         0         1
     39842     39841     39843         0         1
     39845     39844     39846         0         1
     39848     39847     39849         0         1
     39851     39850     39852         0         1
     39854     39853     39855         0         1
     39857     39856     39858         0         1
     39860     39859     39861         0         1
     39863     39862     39864         0         1
     39866     39865     39867         0         1
     39869     39868     39870         0         1
     39872     39871     39873         0         1
     39875     39874     39876         0         1
     39878     39877     39879         0         1
     39881     39880     39882         0         1
     39884     39883     39885         0         1
     39887     39886     39888         0         1
     39890     39889     39891         0         1
     39893     39892     39894         0         1
     39896     39895     39897         0         1
     39899     39898     39900         0         1
     39902     39901     39903         0         1
     39905     39904     39906         0         1
     39908     39907     39909         0         1
     39911     39910     39912         0         1
     39914     39913     39915         0         1
     39917     39916     39918         0         1
     39920     39919     39921         0         1
     39923     39922     39924         0         1
     39926     39925     39927         0         1
     39929     39928     39930         0         1
     39932     39931     39933         0         1
     39935     39934     39936         0         1
     39938     39937     39939         0         1
     39941     39940     39942         0         1
     39944     39943     39945         0         1
     39947     39946     39948         0         1
     39950     39949     39951         0         1
     39953     39952     39954         0         1
     39956     39955     39957         0         1
     39959     39958     39960         0         1
     39962     39961     39963         0         1
     39965     39964     39966         0         1
     39968     39967     39969         0         1
     39971     39970     39972         0         1
     39974     39973     39975         0         1
     39977     39976     39978         0         1
     39980     39979     39981         0         1
     39983     39982     39984         0         1
     39986     39985     39987         0         1
     39989     39988     39990         0         1
     39992     39991     39993         0         1
     39995     39994     39996         0         1
     39998     39997     39999         0         1
     40001     40000     40002         0         1
     40004     40003     40005         0         1
     40007     40006     40008         0         1
     40010     40009     40011         0         1
     40013     40012     40014         0         1
     40016     40015     40017         0         1
     40019     40018     40020         0         1
     40022     40021     40023         0         1
     40025     40024     40026         0         1
     40028     40027     40029         0         1
     40031     40030     40032         0         1
     40034     40033     40035         0         1
     40037     40036     40038         0         1
     40040     40039     40041         0         1
     40043     40042     40044         0         1
     40046     40045     40047         0         1
     40049     40048     40050         0         1
     40052     40051     40053         0         1
     40055     40054     40056         0         1
     40058     40057     40059         0         1
     40061     40060     40062         0         1
     40064     40063     40065         0         1
     40067     40066     40068         0         1
     40070     40069     40071         0         1
     40073     40072     40074         0         1
     40076     40075     40077         0         1
     40079     40078     40080         0         1
     40082     40081     40083         0         1
     40085     40084     40086         0         1
     40088     40087     40089         0         1
     40091     40090     40092         0         1
     40094     40093     40095         0         1
     40097     40096     40098         0         1
     40100     40099     40101         0         1
     40103     40102     40104         0         1
     40106     40105     40107         0         1
     40109     40108     40110         0         1
     40112     40111     40113         0         1
     40115     40114     40116         0         1
     40118     40117     40119         0         1
     40121     40120     40122         0         1
     40124     40123     40125         0         1
     40127     40126     40128         0         1
     40130     40129     40131         0         1
     40133     40132     40134         0         1
     40136     40135     40137         0         1
     40139     40138     40140         0         1
     40142     40141     40143         0         1
     40145     40144     40146         0         1
     40148     40147     40149         0         1
     40151     40150     40152         0         1
     40154     40153     40155         0         1
     40157     40156     40158         0         1
     40160     40159     40161         0         1
     40163     40162     40164         0         1
     40166     40165     40167         0         1
     40169     40168     40170         0         1
     40172     40171     40173         0         1
     40175     40174     40176         0         1
     40178     40177     40179         0         1
     40181     40180     40182         0         1
     40184     40183     40185         0         1
     40187     40186     40188         0         1
     40190     40189     40191         0         1
     40193     40192     40194         0         1
     40196     40195     40197         0         1
     40199     40198     40200         0         1
     40202     40201     40203         0         1
     40205     40204     40206         0         1
     40208     40207     40209         0         1
     40211     40210     40212         0         1
     40214     40213     40215         0         1
     40217     40216     40218         0         1
     40220     40219     40221         0         1
     40223     40222     40224         0         1
     40226     40225     40227         0         1
     40229     40228     40230         0         1
     40232     40231     40233         0         1
     40235     40234     40236         0         1
     40238     40237     40239         0         1
     40241     40240     40242         0         1
     40244     40243     40245         0         1
     40247     40246     40248         0         1
     40250     40249     40251         0         1
     40253     40252     40254         0         1
     40256     40255     40257         0         1
     40259     40258     40260         0         1
     40262     40261     40263         0         1
     40265     40264     40266         0         1
     40268     40267     40269         0         1
     40271     40270     40272         0         1
     40274     40273     40275         0         1
     40277     40276     40278         0         1
     40280     40279     40281         0         1
     40283     40282     40284         0         1
     40286     40285     40287         0         1
     40289     40288     40290         0         1
     40292     40291     40293         0         1
     40295     40294     40296         0         1
     40298     40297     40299         0         1
     40301     40300     40302         0         1
     40304     40303     40305         0         1
     40307     40306     40308         0         1
     40310     40309     40311         0         1
     40313     40312     40314         0         1
     40316     40315     40317         0         1
     40319     40318     40320         0         1
     40322     40321     40323         0         1
     40325     40324     40326         0         1
     40328     40327     40329         0         1
     40331     40330     40332         0         1
     40334     40333     40335         0         1
     40337     40336     40338         0         1
     40340     40339     40341         0         1
     40343     40342     40344         0         1
     40346     40345     40347         0         1
     40349     40348     40350         0         1
     40352     40351     40353         0         1
     40355     40354     40356         0         1
     40358     40357     40359         0         1
     40361     40360     40362         0         1
     40364     40363     40365         0         1
     40367     40366     40368         0         1
     40370     40369     40371         0         1
     40373     40372     40374         0         1
     40376     40375     40377         0         1
     40379     40378     40380         0         1
     40382     40381     40383         0         1
     40385     40384     40386         0         1
     40388     40387     40389         0         1
     40391     40390     40392         0         1
     40394     40393     40395         0         1
     40397     40396     40398         0         1
     40400     40399     40401         0         1
     40403     40402     40404         0         1
     40406     40405     40407         0         1
     40409     40408     40410         0         1
     40412     40411     40413         0         1
     40415     40414     40416         0         1
     40418     40417     40419         0         1
     40421     40420     40422         0         1
     40424     40423     40425         0         1
     40427     40426     40428         0         1
     40430     40429     40431         0         1
     40433     40432     40434         0         1
     40436     40435     40437         0         1
     40439     40438     40440         0         1
     40442     40441     40443         0         1
     40445     40444     40446         0         1
     40448     40447     40449         0         1
     40451     40450     40452         0         1
     40454     40453     40455         0         1
     40457     40456     40458         0         1
     40460     40459     40461         0         1
     40463     40462     40464         0         1
     40466     40465     40467         0         1
     40469     40468     40470         0         1
     40472     40471     40473         0         1
     40475     40474     40476         0         1
     40478     40477     40479         0         1
     40481     40480     40482         0         1
     40484     40483     40485         0         1
     40487     40486     40488         0         1
     40490     40489     40491         0         1
     40493     40492     40494         0         1
     40496     40495     40497         0         1
     40499     40498     40500         0         1
     40502     40501     40503         0         1
     40505     40504     40506         0         1
     40508     40507     40509         0         1
     40511     40510     40512         0         1
     40514     40513     40515         0         1
     40517     40516     40518         0         1
     40520     40519     40521         0         1
     40523     40522     40524         0         1
     40526     40525     40527         0         1
     40529     40528     40530         0         1
     40532     40531     40533         0         1
     40535     40534     40536         0         1
     40538     40537     40539         0         1
     40541     40540     40542         0         1
     40544     40543     40545         0         1
     40547     40546     40548         0         1
     40550     40549     40551         0         1
     40553     40552     40554         0         1
     40556     40555     40557         0         1
     40559     40558     40560         0         1
     40562     40561     40563         0         1
     40565     40564     40566         0         1
     40568     40567     40569         0         1
     40571     40570     40572         0         1
     40574     40573     40575         0         1
     40577     40576     40578         0         1
     40580     40579     40581         0         1
     40583     40582     40584         0         1
     40586     40585     40587         0         1
     40589     40588     40590         0         1
     40592     40591     40593         0         1
     40595     40594     40596         0         1
     40598     40597     40599         0         1
     40601     40600     40602         0         1
     40604     40603     40605         0         1
     40607     40606     40608         0         1
     40610     40609     40611         0         1
     40613     40612     40614         0         1
     40616     40615     40617         0         1
     40619     40618     40620         0         1
     40622     40621     40623         0         1
     40625     40624     40626         0         1
     40628     40627     40629         0         1
     40631     40630     40632         0         1
     40634     40633     40635         0         1
     40637     40636     40638         0         1
     40640     40639     40641         0         1
     40643     40642     40644         0         1
     40646     40645     40647         0         1
     40649     40648     40650         0         1
     40652     40651     40653         0         1
     40655     40654     40656         0         1
     40658     40657     40659         0         1
     40661     40660     40662         0         1
     40664     40663     40665         0         1
     40667     40666     40668         0         1
     40670     40669     40671         0         1
     40673     40672     40674         0         1
     40676     40675     40677         0         1
     40679     40678     40680         0         1
     40682     40681     40683         0         1
     40685     40684     40686         0         1
     40688     40687     40689         0         1
     40691     40690     40692         0         1
     40694     40693     40695         0         1
     40697     40696     40698         0         1
     40700     40699     40701         0         1
     40703     40702     40704         0         1
     40706     40705     40707         0         1
     40709     40708     40710         0         1
     40712     40711     40713         0         1
     40715     40714     40716         0         1
     40718     40717     40719         0         1
     40721     40720     40722         0         1
     40724     40723     40725         0         1
     40727     40726     40728         0         1
     40730     40729     40731         0         1
     40733     40732     40734         0         1
     40736     40735     40737         0         1
     40739     40738     40740         0         1
     40742     40741     40743         0         1
     40745     40744     40746         0         1
     40748     40747     40749         0         1
     40751     40750     40752         0         1
     40754     40753     40755         0         1
     40757     40756     40758         0         1
     40760     40759     40761         0         1
     40763     40762     40764         0         1
     40766     40765     40767         0         1
     40769     40768     40770         0         1
     40772     40771     40773         0         1
     40775     40774     40776         0         1
     40778     40777     40779         0         1
     40781     40780     40782         0         1
     40784     40783     40785         0         1
     40787     40786     40788         0         1
     40790     40789     40791         0         1
     40793     40792     40794         0         1
     40796     40795     40797         0         1
     40799     40798     40800         0         1
     40802     40801     40803         0         1
     40805     40804     40806         0         1
     40808     40807     40809         0         1
     40811     40810     40812         0         1
     40814     40813     40815         0         1
     40817     40816     40818         0         1
     40820     40819     40821         0         1
     40823     40822     40824         0         1
     40826     40825     40827         0         1
     40829     40828     40830         0         1
     40832     40831     40833         0         1
     40835     40834     40836         0         1
     40838     40837     40839         0         1
     40841     40840     40842         0         1
     40844     40843     40845         0         1
     40847     40846     40848         0         1
     40850     40849     40851         0         1
     40853     40852     40854         0         1
     40856     40855     40857         0         1
     40859     40858     40860         0         1
     40862     40861     40863         0         1
     40865     40864     40866         0         1
     40868     40867     40869         0         1
     40871     40870     40872         0         1
     40874     40873     40875         0         1
     40877     40876     40878         0         1
     40880     40879     40881         0         1
     40883     40882     40884         0         1
     40886     40885     40887         0         1
     40889     40888     40890         0         1
     40892     40891     40893         0         1
     40895     40894     40896         0         1
     40898     40897     40899         0         1
     40901     40900     40902         0         1
     40904     40903     40905         0         1
     40907     40906     40908         0         1
     40910     40909     40911         0         1
     40913     40912     40914         0         1
     40916     40915     40917         0         1
     40919     40918     40920         0         1
     40922     40921     40923         0         1
     40925     40924     40926         0         1
     40928     40927     40929         0         1
     40931     40930     40932         0         1
     40934     40933     40935         0         1
     40937     40936     40938         0         1
     40940     40939     40941         0         1
     40943     40942     40944         0         1
     40946     40945     40947         0         1
     40949     40948     40950         0         1
     40952     40951     40953         0         1
     40955     40954     40956         0         1
     40958     40957     40959         0         1
     40961     40960     40962         0         1
     40964     40963     40965         0         1
     40967     40966     40968         0         1
     40970     40969     40971         0         1
     40973     40972     40974         0         1
     40976     40975     40977         0         1
     40979     40978     40980         0         1
     40982     40981     40983         0         1
     40985     40984     40986         0         1
     40988     40987     40989         0         1
     40991     40990     40992         0         1
     40994     40993     40995         0         1
     40997     40996     40998         0         1
     41000     40999     41001         0         1
     41003     41002     41004         0         1
     41006     41005     41007         0         1
     41009     41008     41010         0         1
     41012     41011     41013         0         1
     41015     41014     41016         0         1
     41018     41017     41019         0         1
     41021     41020     41022         0         1
     41024     41023     41025         0         1
     41027     41026     41028         0         1
     41030     41029     41031         0         1
     41033     41032     41034         0         1
     41036     41035     41037         0         1
     41039     41038     41040         0         1
     41042     41041     41043         0         1
     41045     41044     41046         0         1
     41048     41047     41049         0         1
     41051     41050     41052         0         1
     41054     41053     41055         0         1
     41057     41056     41058         0         1
     41060     41059     41061         0         1
     41063     41062     41064         0         1
     41066     41065     41067         0         1
     41069     41068     41070         0         1
     41072     41071     41073         0         1
     41075     41074     41076         0         1
     41078     41077     41079         0         1
     41081     41080     41082         0         1
     41084     41083     41085         0         1
     41087     41086     41088         0         1
     41090     41089     41091         0         1
     41093     41092     41094         0         1
     41096     41095     41097         0         1
     41099     41098     41100         0         1
     41102     41101     41103         0         1
     41105     41104     41106         0         1
     41108     41107     41109         0         1
     41111     41110     41112         0         1
     41114     41113     41115         0         1
     41117     41116     41118         0         1
     41120     41119     41121         0         1
     41123     41122     41124         0         1
     41126     41125     41127         0         1
     41129     41128     41130         0         1
     41132     41131     41133         0         1
     41135     41134     41136         0         1
     41138     41137     41139         0         1
     41141     41140     41142         0         1
     41144     41143     41145         0         1
     41147     41146     41148         0         1
     41150     41149     41151         0         1
     41153     41152     41154         0         1
     41156     41155     41157         0         1
     41159     41158     41160         0         1
     41162     41161     41163         0         1
     41165     41164     41166         0         1
     41168     41167     41169         0         1
     41171     41170     41172         0         1
     41174     41173     41175         0         1
     41177     41176     41178         0         1
     41180     41179     41181         0         1
     41183     41182     41184         0         1
     41186     41185     41187         0         1
     41189     41188     41190         0         1
     41192     41191     41193         0         1
     41195     41194     41196         0         1
     41198     41197     41199         0         1
     41201     41200     41202         0         1
     41204     41203     41205         0         1
     41207     41206     41208         0         1
     41210     41209     41211         0         1
     41213     41212     41214         0         1
     41216     41215     41217         0         1
     41219     41218     41220         0         1
     41222     41221     41223         0         1
     41225     41224     41226         0         1
     41228     41227     41229         0         1
     41231     41230     41232         0         1
     41234     41233     41235         0         1
     41237     41236     41238         0         1
     41240     41239     41241         0         1
     41243     41242     41244         0         1
     41246     41245     41247         0         1
     41249     41248     41250         0         1
     41252     41251     41253         0         1
     41255     41254     41256         0         1
     41258     41257     41259         0         1
     41261     41260     41262         0         1
     41264     41263     41265         0         1
     41267     41266     41268         0         1
     41270     41269     41271         0         1
     41273     41272     41274         0         1
     41276     41275     41277         0         1
     41279     41278     41280         0         1
     41282     41281     41283         0         1
     41285     41284     41286         0         1
     41288     41287     41289         0         1
     41291     41290     41292         0         1
     41294     41293     41295         0         1
     41297     41296     41298         0         1
     41300     41299     41301         0         1
     41303     41302     41304         0         1
     41306     41305     41307         0         1
     41309     41308     41310         0         1
     41312     41311     41313         0         1
     41315     41314     41316         0         1
     41318     41317     41319         0         1
     41321     41320     41322         0         1
     41324     41323     41325         0         1
     41327     41326     41328         0         1
     41330     41329     41331         0         1
     41333     41332     41334         0         1
     41336     41335     41337         0         1
     41339     41338     41340         0         1
     41342     41341     41343         0         1
     41345     41344     41346         0         1
     41348     41347     41349         0         1
     41351     41350     41352         0         1
     41354     41353     41355         0         1
     41357     41356     41358         0         1
     41360     41359     41361         0         1
     41363     41362     41364         0         1
     41366     41365     41367         0         1
     41369     41368     41370         0         1
     41372     41371     41373         0         1
     41375     41374     41376         0         1
     41378     41377     41379         0         1
     41381     41380     41382         0         1
     41384     41383     41385         0         1
     41387     41386     41388         0         1
     41390     41389     41391         0         1
     41393     41392     41394         0         1
     41396     41395     41397         0         1
     41399     41398     41400         0         1
     41402     41401     41403         0         1
     41405     41404     41406         0         1
     41408     41407     41409         0         1
     41411     41410     41412         0         1
     41414     41413     41415         0         1
     41417     41416     41418         0         1
     41420     41419     41421         0         1
     41423     41422     41424         0         1
     41426     41425     41427         0         1
     41429     41428     41430         0         1
     41432     41431     41433         0         1
     41435     41434     41436         0         1
     41438     41437     41439         0         1
     41441     41440     41442         0         1
     41444     41443     41445         0         1
     41447     41446     41448         0         1
     41450     41449     41451         0         1
     41453     41452     41454         0         1
     41456     41455     41457         0         1
     41459     41458     41460         0         1
     41462     41461     41463         0         1
     41465     41464     41466         0         1
     41468     41467     41469         0         1
     41471     41470     41472         0         1
     41474     41473     41475         0         1
     41477     41476     41478         0         1
     41480     41479     41481         0         1
     41483     41482     41484         0         1
     41486     41485     41487         0         1
     41489     41488     41490         0         1
     41492     41491     41493         0         1
     41495     41494     41496         0         1
     41498     41497     41499         0         1
     41501     41500     41502         0         1
     41504     41503     41505         0         1
     41507     41506     41508         0         1
     41510     41509     41511         0         1
     41513     41512     41514         0         1
     41516     41515     41517         0         1
     41519     41518     41520         0         1
     41522     41521     41523         0         1
     41525     41524     41526         0         1
     41528     41527     41529         0         1
     41531     41530     41532         0         1
     41534     41533     41535         0         1
     41537     41536     41538         0         1
     41540     41539     41541         0         1
     41543     41542     41544         0         1
     41546     41545     41547         0         1
     41549     41548     41550         0         1
     41552     41551     41553         0         1
     41555     41554     41556         0         1
     41558     41557     41559         0         1
     41561     41560     41562         0         1
     41564     41563     41565         0         1
     41567     41566     41568         0         1
     41570     41569     41571         0         1
     41573     41572     41574         0         1
     41576     41575     41577         0         1
     41579     41578     41580         0         1
     41582     41581     41583         0         1
     41585     41584     41586         0         1
     41588     41587     41589         0         1
     41591     41590     41592         0         1
     41594     41593     41595         0         1
     41597     41596     41598         0         1
     41600     41599     41601         0         1
     41603     41602     41604         0         1
     41606     41605     41607         0         1
     41609     41608     41610         0         1
     41612     41611     41613         0         1
     41615     41614     41616         0         1
     41618     41617     41619         0         1
     41621     41620     41622         0         1
     41624     41623     41625         0         1
     41627     41626     41628         0         1
     41630     41629     41631         0         1
     41633     41632     41634         0         1
     41636     41635     41637         0         1
     41639     41638     41640         0         1
     41642     41641     41643         0         1
     41645     41644     41646         0         1
     41648     41647     41649         0         1
     41651     41650     41652         0         1
     41654     41653     41655         0         1
     41657     41656     41658         0         1
     41660     41659     41661         0         1
     41663     41662     41664         0         1
     41666     41665     41667         0         1
     41669     41668     41670         0         1
     41672     41671     41673         0         1
     41675     41674     41676         0         1
     41678     41677     41679         0         1
     41681     41680     41682         0         1
     41684     41683     41685         0         1
     41687     41686     41688         0         1
     41690     41689     41691         0         1
     41693     41692     41694         0         1
     41696     41695     41697         0         1
     41699     41698     41700         0         1
     41702     41701     41703         0         1
     41705     41704     41706         0         1
     41708     41707     41709         0         1
     41711     41710     41712         0         1
     41714     41713     41715         0         1
     41717     41716     41718         0         1
     41720     41719     41721         0         1
     41723     41722     41724         0         1
     41726     41725     41727         0         1
     41729     41728     41730         0         1
     41732     41731     41733         0         1
     41735     41734     41736         0         1
     41738     41737     41739         0         1
     41741     41740     41742         0         1
     41744     41743     41745         0         1
     41747     41746     41748         0         1
     41750     41749     41751         0         1
     41753     41752     41754         0         1
     41756     41755     41757         0         1
     41759     41758     41760         0         1
     41762     41761     41763         0         1
     41765     41764     41766         0         1
     41768     41767     41769         0         1
     41771     41770     41772         0         1
     41774     41773     41775         0         1
     41777     41776     41778         0         1
     41780     41779     41781         0         1
     41783     41782     41784         0         1
     41786     41785     41787         0         1
     41789     41788     41790         0         1
     41792     41791     41793         0         1
     41795     41794     41796         0         1
     41798     41797     41799         0         1
     41801     41800     41802         0         1
     41804     41803     41805         0         1
     41807     41806     41808         0         1
     41810     41809     41811         0         1
     41813     41812     41814         0         1
     41816     41815     41817         0         1
     41819     41818     41820         0         1
     41822     41821     41823         0         1
     41825     41824     41826         0         1
     41828     41827     41829         0         1
     41831     41830     41832         0         1
     41834     41833     41835         0         1
     41837     41836     41838         0         1
     41840     41839     41841         0         1
     41843     41842     41844         0         1
     41846     41845     41847         0         1
     41849     41848     41850         0         1
     41852     41851     41853         0         1
     41855     41854     41856         0         1
     41858     41857     41859         0         1
     41861     41860     41862         0         1
     41864     41863     41865         0         1
     41867     41866     41868         0         1
     41870     41869     41871         0         1
     41873     41872     41874         0         1
     41876     41875     41877         0         1
     41879     41878     41880         0         1
     41882     41881     41883         0         1
     41885     41884     41886         0         1
     41888     41887     41889         0         1
     41891     41890     41892         0         1
     41894     41893     41895         0         1
     41897     41896     41898         0         1
     41900     41899     41901         0         1
     41903     41902     41904         0         1
     41906     41905     41907         0         1
     41909     41908     41910         0         1
     41912     41911     41913         0         1
     41915     41914     41916         0         1
     41918     41917     41919         0         1
     41921     41920     41922         0         1
     41924     41923     41925         0         1
     41927     41926     41928         0         1
     41930     41929     41931         0         1
     41933     41932     41934         0         1
     41936     41935     41937         0         1
     41939     41938     41940         0         1
     41942     41941     41943         0         1
     41945     41944     41946         0         1
     41948     41947     41949         0         1
     41951     41950     41952         0         1
     41954     41953     41955         0         1
     41957     41956     41958         0         1
     41960     41959     41961         0         1
     41963     41962     41964         0         1
     41966     41965     41967         0         1
     41969     41968     41970         0         1
     41972     41971     41973         0         1
     41975     41974     41976         0         1
     41978     41977     41979         0         1
     41981     41980     41982         0         1
     41984     41983     41985         0         1
     41987     41986     41988         0         1
     41990     41989     41991         0         1
     41993     41992     41994         0         1
     41996     41995     41997         0         1
     41999     41998     42000         0         1
     42002     42001     42003         0         1
     42005     42004     42006         0         1
     42008     42007     42009         0         1
     42011     42010     42012         0         1
     42014     42013     42015         0         1
     42017     42016     42018         0         1
     42020     42019     42021         0         1
     42023     42022     42024         0         1
     42026     42025     42027         0         1
     42029     42028     42030         0         1
     42032     42031     42033         0         1
     42035     42034     42036         0         1
     42038     42037     42039         0         1
     42041     42040     42042         0         1
     42044     42043     42045         0         1
     42047     42046     42048         0         1
     42050     42049     42051         0         1
     42053     42052     42054         0         1
     42056     42055     42057         0         1
     42059     42058     42060         0         1
     42062     42061     42063         0         1
     42065     42064     42066         0         1
     42068     42067     42069         0         1
     42071     42070     42072         0         1
     42074     42073     42075         0         1
     42077     42076     42078         0         1
     42080     42079     42081         0         1
     42083     42082     42084         0         1
     42086     42085     42087         0         1
     42089     42088     42090         0         1
     42092     42091     42093         0         1
     42095     42094     42096         0         1
     42098     42097     42099         0         1
     42101     42100     42102         0         1
     42104     42103     42105         0         1
     42107     42106     42108         0         1
     42110     42109     42111         0         1
     42113     42112     42114         0         1
     42116     42115     42117         0         1
     42119     42118     42120         0         1
     42122     42121     42123         0         1
     42125     42124     42126         0         1
     42128     42127     42129         0         1
     42131     42130     42132         0         1
     42134     42133     42135         0         1
     42137     42136     42138         0         1
     42140     42139     42141         0         1
     42143     42142     42144         0         1
     42146     42145     42147         0         1
     42149     42148     42150         0         1
     42152     42151     42153         0         1
     42155     42154     42156         0         1
     42158     42157     42159         0         1
     42161     42160     42162         0         1
     42164     42163     42165         0         1
     42167     42166     42168         0         1
     42170     42169     42171         0         1
     42173     42172     42174         0         1
     42176     42175     42177         0         1
     42179     42178     42180         0         1
     42182     42181     42183         0         1
     42185     42184     42186         0         1
     42188     42187     42189         0         1
     42191     42190     42192         0         1
     42194     42193     42195         0         1
     42197     42196     42198         0         1
     42200     42199     42201         0         1
     42203     42202     42204         0         1
     42206     42205     42207         0         1
     42209     42208     42210         0         1
     42212     42211     42213         0         1
     42215     42214     42216         0         1
     42218     42217     42219         0         1
     42221     42220     42222         0         1
     42224     42223     42225         0         1
     42227     42226     42228         0         1
     42230     42229     42231         0         1
     42233     42232     42234         0         1
     42236     42235     42237         0         1
     42239     42238     42240         0         1
     42242     42241     42243         0         1
     42245     42244     42246         0         1
     42248     42247     42249         0         1
     42251     42250     42252         0         1
     42254     42253     42255         0         1
     42257     42256     42258         0         1
     42260     42259     42261         0         1
     42263     42262     42264         0         1
     42266     42265     42267         0         1
     42269     42268     42270         0         1
     42272     42271     42273         0         1
     42275     42274     42276         0         1
     42278     42277     42279         0         1
     42281     42280     42282         0         1
     42284     42283     42285         0         1
     42287     42286     42288         0         1
     42290     42289     42291         0         1
     42293     42292     42294         0         1
     42296     42295     42297         0         1
     42299     42298     42300         0         1
     42302     42301     42303         0         1
     42305     42304     42306         0         1
     42308     42307     42309         0         1
     42311     42310     42312         0         1
     42314     42313     42315         0         1
     42317     42316     42318         0         1
     42320     42319     42321         0         1
     42323     42322     42324         0         1
     42326     42325     42327         0         1
     42329     42328     42330         0         1
     42332     42331     42333         0         1
     42335     42334     42336         0         1
     42338     42337     42339         0         1
     42341     42340     42342         0         1
     42344     42343     42345         0         1
     42347     42346     42348         0         1
     42350     42349     42351         0         1
     42353     42352     42354         0         1
     42356     42355     42357         0         1
     42359     42358     42360         0         1
     42362     42361     42363         0         1
     42365     42364     42366         0         1
     42368     42367     42369         0         1
     42371     42370     42372         0         1
     42374     42373     42375         0         1
     42377     42376     42378         0         1
     42380     42379     42381         0         1
     42383     42382     42384         0         1
     42386     42385     42387         0         1
     42389     42388     42390         0         1
     42392     42391     42393         0         1
     42395     42394     42396         0         1
     42398     42397     42399         0         1
     42401     42400     42402         0         1
     42404     42403     42405         0         1
     42407     42406     42408         0         1
     42410     42409     42411         0         1
     42413     42412     42414         0         1
     42416     42415     42417         0         1
     42419     42418     42420         0         1
     42422     42421     42423         0         1
     42425     42424     42426         0         1
     42428     42427     42429         0         1
     42431     42430     42432         0         1
     42434     42433     42435         0         1
     42437     42436     42438         0         1
     42440     42439     42441         0         1
     42443     42442     42444         0         1
     42446     42445     42447         0         1
     42449     42448     42450         0         1
     42452     42451     42453         0         1
     42455     42454     42456         0         1
     42458     42457     42459         0         1
     42461     42460     42462         0         1
     42464     42463     42465         0         1
     42467     42466     42468         0         1
     42470     42469     42471         0         1
     42473     42472     42474         0         1
     42476     42475     42477         0         1
     42479     42478     42480         0         1
     42482     42481     42483         0         1
     42485     42484     42486         0         1
     42488     42487     42489         0         1
     42491     42490     42492         0         1
     42494     42493     42495         0         1
     42497     42496     42498         0         1
     42500     42499     42501         0         1
     42503     42502     42504         0         1
     42506     42505     42507         0         1
     42509     42508     42510         0         1
     42512     42511     42513         0         1
     42515     42514     42516         0         1
     42518     42517     42519         0         1
     42521     42520     42522         0         1
     42524     42523     42525         0         1
     42527     42526     42528         0         1
     42530     42529     42531         0         1
     42533     42532     42534         0         1
     42536     42535     42537         0         1
     42539     42538     42540         0         1
     42542     42541     42543         0         1
     42545     42544     42546         0         1
     42548     42547     42549         0         1
     42551     42550     42552         0         1
     42554     42553     42555         0         1
     42557     42556     42558         0         1
     42560     42559     42561         0         1
     42563     42562     42564         0         1
     42566     42565     42567         0         1
     42569     42568     42570         0         1
     42572     42571     42573         0         1
     42575     42574     42576         0         1
     42578     42577     42579         0         1
     42581     42580     42582         0         1
     42584     42583     42585         0         1
     42587     42586     42588         0         1
     42590     42589     42591         0         1
     42593     42592     42594         0         1
     42596     42595     42597         0         1
     42599     42598     42600         0         1
     42602     42601     42603         0         1
     42605     42604     42606         0         1
     42608     42607     42609         0         1
     42611     42610     42612         0         1
     42614     42613     42615         0         1
     42617     42616     42618         0         1
     42620     42619     42621         0         1
     42623     42622     42624         0         1
     42626     42625     42627         0         1
     42629     42628     42630         0         1
     42632     42631     42633         0         1
     42635     42634     42636         0         1
     42638     42637     42639         0         1
     42641     42640     42642         0         1
     42644     42643     42645         0         1
     42647     42646     42648         0         1
     42650     42649     42651         0         1
     42653     42652     42654         0         1
     42656     42655     42657         0         1
     42659     42658     42660         0         1
     42662     42661     42663         0         1
     42665     42664     42666         0         1
     42668     42667     42669         0         1
     42671     42670     42672         0         1
     42674     42673     42675         0         1
     42677     42676     42678         0         1
     42680     42679     42681         0         1
     42683     42682     42684         0         1
     42686     42685     42687         0         1
     42689     42688     42690         0         1
     42692     42691     42693         0         1
     42695     42694     42696         0         1
     42698     42697     42699         0         1
     42701     42700     42702         0         1
     42704     42703     42705         0         1
     42707     42706     42708         0         1
     42710     42709     42711         0         1
     42713     42712     42714         0         1
     42716     42715     42717         0         1
     42719     42718     42720         0         1
     42722     42721     42723         0         1
     42725     42724     42726         0         1
     42728     42727     42729         0         1
     42731     42730     42732         0         1
     42734     42733     42735         0         1
     42737     42736     42738         0         1
     42740     42739     42741         0         1
     42743     42742     42744         0         1
     42746     42745     42747         0         1
     42749     42748     42750         0         1
     42752     42751     42753         0         1
     42755     42754     42756         0         1
     42758     42757     42759         0         1
     42761     42760     42762         0         1
     42764     42763     42765         0         1
     42767     42766     42768         0         1
     42770     42769     42771         0         1
     42773     42772     42774         0         1
     42776     42775     42777         0         1
     42779     42778     42780         0         1
     42782     42781     42783         0         1
     42785     42784     42786         0         1
     42788     42787     42789         0         1
     42791     42790     42792         0         1
     42794     42793     42795         0         1
     42797     42796     42798         0         1
     42800     42799     42801         0         1
     42803     42802     42804         0         1
     42806     42805     42807         0         1
     42809     42808     42810         0         1
     42812     42811     42813         0         1
     42815     42814     42816         0         1
     42818     42817     42819         0         1
     42821     42820     42822         0         1
     42824     42823     42825         0         1
     42827     42826     42828         0         1
     42830     42829     42831         0         1
     42833     42832     42834         0         1
     42836     42835     42837         0         1
     42839     42838     42840         0         1
     42842     42841     42843         0         1
     42845     42844     42846         0         1
     42848     42847     42849         0         1
     42851     42850     42852         0         1
     42854     42853     42855         0         1
     42857     42856     42858         0         1
     42860     42859     42861         0         1
     42863     42862     42864         0         1
     42866     42865     42867         0         1
     42869     42868     42870         0         1
     42872     42871     42873         0         1
     42875     42874     42876         0         1
     42878     42877     42879         0         1
     42881     42880     42882         0         1
     42884     42883     42885         0         1
     42887     42886     42888         0         1
     42890     42889     42891         0         1
     42893     42892     42894         0         1
     42896     42895     42897         0         1
     42899     42898     42900         0         1
     42902     42901     42903         0         1
     42905     42904     42906         0         1
     42908     42907     42909         0         1
     42911     42910     42912         0         1
     42914     42913     42915         0         1
     42917     42916     42918         0         1
     42920     42919     42921         0         1
     42923     42922     42924         0         1
     42926     42925     42927         0         1
     42929     42928     42930         0         1
     42932     42931     42933         0         1
     42935     42934     42936         0         1
     42938     42937     42939         0         1
     42941     42940     42942         0         1
     42944     42943     42945         0         1
     42947     42946     42948         0         1
     42950     42949     42951         0         1
     42953     42952     42954         0         1
     42956     42955     42957         0         1
     42959     42958     42960         0         1
     42962     42961     42963         0         1
     42965     42964     42966         0         1
     42968     42967     42969         0         1
     42971     42970     42972         0         1
     42974     42973     42975         0         1
     42977     42976     42978         0         1
     42980     42979     42981         0         1
     42983     42982     42984         0         1
     42986     42985     42987         0         1
     42989     42988     42990         0         1
     42992     42991     42993         0         1
     42995     42994     42996         0         1
     42998     42997     42999         0         1
     43001     43000     43002         0         1
     43004     43003     43005         0         1
     43007     43006     43008         0         1
     43010     43009     43011         0         1
     43013     43012     43014         0         1
     43016     43015     43017         0         1
     43019     43018     43020         0         1
     43022     43021     43023         0         1
     43025     43024     43026         0         1
     43028     43027     43029         0         1
     43031     43030     43032         0         1
     43034     43033     43035         0         1
     43037     43036     43038         0         1
     43040     43039     43041         0         1
     43043     43042     43044         0         1
     43046     43045     43047         0         1
     43049     43048     43050         0         1
     43052     43051     43053         0         1
     43055     43054     43056         0         1
     43058     43057     43059         0         1
     43061     43060     43062         0         1
     43064     43063     43065         0         1
     43067     43066     43068         0         1
     43070     43069     43071         0         1
     43073     43072     43074         0         1
     43076     43075     43077         0         1
     43079     43078     43080         0         1
     43082     43081     43083         0         1
     43085     43084     43086         0         1
     43088     43087     43089         0         1
     43091     43090     43092         0         1
     43094     43093     43095         0         1
     43097     43096     43098         0         1
     43100     43099     43101         0         1
     43103     43102     43104         0         1
     43106     43105     43107         0         1
     43109     43108     43110         0         1
     43112     43111     43113         0         1
     43115     43114     43116         0         1
     43118     43117     43119         0         1
     43121     43120     43122         0         1
     43124     43123     43125         0         1
     43127     43126     43128         0         1
     43130     43129     43131         0         1
     43133     43132     43134         0         1
     43136     43135     43137         0         1
     43139     43138     43140         0         1
     43142     43141     43143         0         1
     43145     43144     43146         0         1
     43148     43147     43149         0         1
     43151     43150     43152         0         1
     43154     43153     43155         0         1
     43157     43156     43158         0         1
     43160     43159     43161         0         1
     43163     43162     43164         0         1
     43166     43165     43167         0         1
     43169     43168     43170         0         1
     43172     43171     43173         0         1
     43175     43174     43176         0         1
     43178     43177     43179         0         1
     43181     43180     43182         0         1
     43184     43183     43185         0         1
     43187     43186     43188         0         1
     43190     43189     43191         0         1
     43193     43192     43194         0         1
     43196     43195     43197         0         1
     43199     43198     43200         0         1
     43202     43201     43203         0         1
     43205     43204     43206         0         1
     43208     43207     43209         0         1
     43211     43210     43212         0         1
     43214     43213     43215         0         1
     43217     43216     43218         0         1
     43220     43219     43221         0         1
     43223     43222     43224         0         1
     43226     43225     43227         0         1
     43229     43228     43230         0         1
     43232     43231     43233         0         1
     43235     43234     43236         0         1
     43238     43237     43239         0         1
     43241     43240     43242         0         1
     43244     43243     43245         0         1
     43247     43246     43248         0         1
     43250     43249     43251         0         1
     43253     43252     43254         0         1
     43256     43255     43257         0         1
     43259     43258     43260         0         1
     43262     43261     43263         0         1
     43265     43264     43266         0         1
     43268     43267     43269         0         1
     43271     43270     43272         0         1
     43274     43273     43275         0         1
     43277     43276     43278         0         1
     43280     43279     43281         0         1
     43283     43282     43284         0         1
     43286     43285     43287         0         1
     43289     43288     43290         0         1
     43292     43291     43293         0         1
     43295     43294     43296         0         1
     43298     43297     43299         0         1
     43301     43300     43302         0         1
     43304     43303     43305         0         1
     43307     43306     43308         0         1
     43310     43309     43311         0         1
     43313     43312     43314         0         1
     43316     43315     43317         0         1
     43319     43318     43320         0         1
     43322     43321     43323         0         1
     43325     43324     43326         0         1
     43328     43327     43329         0         1
     43331     43330     43332         0         1
     43334     43333     43335         0         1
     43337     43336     43338         0         1
     43340     43339     43341         0         1
     43343     43342     43344         0         1
     43346     43345     43347         0         1
     43349     43348     43350         0         1
     43352     43351     43353         0         1
     43355     43354     43356         0         1
     43358     43357     43359         0         1
     43361     43360     43362         0         1
     43364     43363     43365         0         1
     43367     43366     43368         0         1
     43370     43369     43371         0         1
     43373     43372     43374         0         1
     43376     43375     43377         0         1
     43379     43378     43380         0         1
     43382     43381     43383         0         1
     43385     43384     43386         0         1
     43388     43387     43389         0         1
     43391     43390     43392         0         1
     43394     43393     43395         0         1
     43397     43396     43398         0         1
     43400     43399     43401         0         1
     43403     43402     43404         0         1
     43406     43405     43407         0         1
     43409     43408     43410         0         1
     43412     43411     43413         0         1
     43415     43414     43416         0         1
     43418     43417     43419         0         1
     43421     43420     43422         0         1
     43424     43423     43425         0         1
     43427     43426     43428         0         1
     43430     43429     43431         0         1
     43433     43432     43434         0         1
     43436     43435     43437         0         1
     43439     43438     43440         0         1
     43442     43441     43443         0         1
     43445     43444     43446         0         1
     43448     43447     43449         0         1
     43451     43450     43452         0         1
     43454     43453     43455         0         1
     43457     43456     43458         0         1
     43460     43459     43461         0         1
     43463     43462     43464         0         1
     43466     43465     43467         0         1
     43469     43468     43470         0         1
     43472     43471     43473         0         1
     43475     43474     43476         0         1
     43478     43477     43479         0         1
     43481     43480     43482         0         1
     43484     43483     43485         0         1
     43487     43486     43488         0         1
     43490     43489     43491         0         1
     43493     43492     43494         0         1
     43496     43495     43497         0         1
     43499     43498     43500         0         1
     43502     43501     43503         0         1
     43505     43504     43506         0         1
     43508     43507     43509         0         1
     43511     43510     43512         0         1
     43514     43513     43515         0         1
     43517     43516     43518         0         1
     43520     43519     43521         0         1
     43523     43522     43524         0         1
     43526     43525     43527         0         1
     43529     43528     43530         0         1
     43532     43531     43533         0         1
     43535     43534     43536         0         1
     43538     43537     43539         0         1
     43541     43540     43542         0         1
     43544     43543     43545         0         1
     43547     43546     43548         0         1
     43550     43549     43551         0         1
     43553     43552     43554         0         1
     43556     43555     43557         0         1
     43559     43558     43560         0         1
     43562     43561     43563         0         1
     43565     43564     43566         0         1
     43568     43567     43569         0         1
     43571     43570     43572         0         1
     43574     43573     43575         0         1
     43577     43576     43578         0         1
     43580     43579     43581         0         1
     43583     43582     43584         0         1
     43586     43585     43587         0         1
     43589     43588     43590         0         1
     43592     43591     43593         0         1
     43595     43594     43596         0         1
     43598     43597     43599         0         1
     43601     43600     43602         0         1
     43604     43603     43605         0         1
     43607     43606     43608         0         1
     43610     43609     43611         0         1
     43613     43612     43614         0         1
     43616     43615     43617         0         1
     43619     43618     43620         0         1
     43622     43621     43623         0         1
     43625     43624     43626         0         1
     43628     43627     43629         0         1
     43631     43630     43632         0         1
     43634     43633     43635         0         1
     43637     43636     43638         0         1
     43640     43639     43641         0         1
     43643     43642     43644         0         1
     43646     43645     43647         0         1
     43649     43648     43650         0         1
     43652     43651     43653         0         1
     43655     43654     43656         0         1
     43658     43657     43659         0         1
     43661     43660     43662         0         1
     43664     43663     43665         0         1
     43667     43666     43668         0         1
     43670     43669     43671         0         1
     43673     43672     43674         0         1
     43676     43675     43677         0         1
     43679     43678     43680         0         1
     43682     43681     43683         0         1
     43685     43684     43686         0         1
     43688     43687     43689         0         1
     43691     43690     43692         0         1
     43694     43693     43695         0         1
     43697     43696     43698         0         1
     43700     43699     43701         0         1
     43703     43702     43704         0         1
     43706     43705     43707         0         1
     43709     43708     43710         0         1
     43712     43711     43713         0         1
     43715     43714     43716         0         1
     43718     43717     43719         0         1
     43721     43720     43722         0         1
     43724     43723     43725         0         1
     43727     43726     43728         0         1
     43730     43729     43731         0         1
     43733     43732     43734         0         1
     43736     43735     43737         0         1
     43739     43738     43740         0         1
     43742     43741     43743         0         1
     43745     43744     43746         0         1
     43748     43747     43749         0         1
     43751     43750     43752         0         1
     43754     43753     43755         0         1
     43757     43756     43758         0         1
     43760     43759     43761         0         1
     43763     43762     43764         0         1
     43766     43765     43767         0         1
     43769     43768     43770         0         1
     43772     43771     43773         0         1
     43775     43774     43776         0         1
     43778     43777     43779         0         1
     43781     43780     43782         0         1
     43784     43783     43785         0         1
     43787     43786     43788         0         1
     43790     43789     43791         0         1
     43793     43792     43794         0         1
     43796     43795     43797         0         1
     43799     43798     43800         0         1
     43802     43801     43803         0         1
     43805     43804     43806         0         1
     43808     43807     43809         0         1
     43811     43810     43812         0         1
     43814     43813     43815         0         1
     43817     43816     43818         0         1
     43820     43819     43821         0         1
     43823     43822     43824         0         1
     43826     43825     43827         0         1
     43829     43828     43830         0         1
     43832     43831     43833         0         1
     43835     43834     43836         0         1
     43838     43837     43839         0         1
     43841     43840     43842         0         1
     43844     43843     43845         0         1
     43847     43846     43848         0         1
     43850     43849     43851         0         1
     43853     43852     43854         0         1
     43856     43855     43857         0         1
     43859     43858     43860         0         1
     43862     43861     43863         0         1
     43865     43864     43866         0         1
     43868     43867     43869         0         1
     43871     43870     43872         0         1
     43874     43873     43875         0         1
     43877     43876     43878         0         1
     43880     43879     43881         0         1
     43883     43882     43884         0         1
     43886     43885     43887         0         1
     43889     43888     43890         0         1
     43892     43891     43893         0         1
     43895     43894     43896         0         1
     43898     43897     43899         0         1
     43901     43900     43902         0         1
     43904     43903     43905         0         1
     43907     43906     43908         0         1
     43910     43909     43911         0         1
     43913     43912     43914         0         1
     43916     43915     43917         0         1
     43919     43918     43920         0         1
     43922     43921     43923         0         1
     43925     43924     43926         0         1
     43928     43927     43929         0         1
     43931     43930     43932         0         1
     43934     43933     43935         0         1
     43937     43936     43938         0         1
     43940     43939     43941         0         1
     43943     43942     43944         0         1
     43946     43945     43947         0         1
     43949     43948     43950         0         1
     43952     43951     43953         0         1
     43955     43954     43956         0         1
     43958     43957     43959         0         1
     43961     43960     43962         0         1
     43964     43963     43965         0         1
     43967     43966     43968         0         1
     43970     43969     43971         0         1
     43973     43972     43974         0         1
     43976     43975     43977         0         1
     43979     43978     43980         0         1
     43982     43981     43983         0         1
     43985     43984     43986         0         1
     43988     43987     43989         0         1
     43991     43990     43992         0         1
     43994     43993     43995         0         1
     43997     43996     43998         0         1
     44000     43999     44001         0         1
     44003     44002     44004         0         1
     44006     44005     44007         0         1
     44009     44008     44010         0         1
     44012     44011     44013         0         1
     44015     44014     44016         0         1
     44018     44017     44019         0         1
     44021     44020     44022         0         1
     44024     44023     44025         0         1
     44027     44026     44028         0         1
     44030     44029     44031         0         1
     44033     44032     44034         0         1
     44036     44035     44037         0         1
     44039     44038     44040         0         1
     44042     44041     44043         0         1
     44045     44044     44046         0         1
     44048     44047     44049         0         1
     44051     44050     44052         0         1
     44054     44053     44055         0         1
     44057     44056     44058         0         1
     44060     44059     44061         0         1
     44063     44062     44064         0         1
     44066     44065     44067         0         1
     44069     44068     44070         0         1
     44072     44071     44073         0         1
     44075     44074     44076         0         1
     44078     44077     44079         0         1
     44081     44080     44082         0         1
     44084     44083     44085         0         1
     44087     44086     44088         0         1
     44090     44089     44091         0         1
     44093     44092     44094         0         1
     44096     44095     44097         0         1
     44099     44098     44100         0         1
     44102     44101     44103         0         1
     44105     44104     44106         0         1
     44108     44107     44109         0         1
     44111     44110     44112         0         1
     44114     44113     44115         0         1
     44117     44116     44118         0         1
     44120     44119     44121         0         1
     44123     44122     44124         0         1
     44126     44125     44127         0         1
     44129     44128     44130         0         1
     44132     44131     44133         0         1
     44135     44134     44136         0         1
     44138     44137     44139         0         1
     44141     44140     44142         0         1
     44144     44143     44145         0         1
     44147     44146     44148         0         1
     44150     44149     44151         0         1
     44153     44152     44154         0         1
     44156     44155     44157         0         1
     44159     44158     44160         0         1
     44162     44161     44163         0         1
     44165     44164     44166         0         1
     44168     44167     44169         0         1
     44171     44170     44172         0         1
     44174     44173     44175         0         1
     44177     44176     44178         0         1
     44180     44179     44181         0         1
     44183     44182     44184         0         1
     44186     44185     44187         0         1
     44189     44188     44190         0         1
     44192     44191     44193         0         1
     44195     44194     44196         0         1
     44198     44197     44199         0         1
     44201     44200     44202         0         1
     44204     44203     44205         0         1
     44207     44206     44208         0         1
     44210     44209     44211         0         1
     44213     44212     44214         0         1
     44216     44215     44217         0         1
     44219     44218     44220         0         1
     44222     44221     44223         0         1
     44225     44224     44226         0         1
     44228     44227     44229         0         1
     44231     44230     44232         0         1
     44234     44233     44235         0         1
     44237     44236     44238         0         1
     44240     44239     44241         0         1
     44243     44242     44244         0         1
     44246     44245     44247         0         1
     44249     44248     44250         0         1
     44252     44251     44253         0         1
     44255     44254     44256         0         1
     44258     44257     44259         0         1
     44261     44260     44262         0         1
     44264     44263     44265         0         1
     44267     44266     44268         0         1
     44270     44269     44271         0         1
     44273     44272     44274         0         1
     44276     44275     44277         0         1
     44279     44278     44280         0         1
     44282     44281     44283         0         1
     44285     44284     44286         0         1
     44288     44287     44289         0         1
     44291     44290     44292         0         1
     44294     44293     44295         0         1
     44297     44296     44298         0         1
     44300     44299     44301         0         1
     44303     44302     44304         0         1
     44306     44305     44307         0         1
     44309     44308     44310         0         1
     44312     44311     44313         0         1
     44315     44314     44316         0         1
     44318     44317     44319         0         1
     44321     44320     44322         0         1
     44324     44323     44325         0         1
     44327     44326     44328         0         1
     44330     44329     44331         0         1
     44333     44332     44334         0         1
     44336     44335     44337         0         1
     44339     44338     44340         0         1
     44342     44341     44343         0         1
     44345     44344     44346         0         1
     44348     44347     44349         0         1
     44351     44350     44352         0         1
     44354     44353     44355         0         1
     44357     44356     44358         0         1
     44360     44359     44361         0         1
     44363     44362     44364         0         1
     44366     44365     44367         0         1
     44369     44368     44370         0         1
     44372     44371     44373         0         1
     44375     44374     44376         0         1
     44378     44377     44379         0         1
     44381     44380     44382         0         1
     44384     44383     44385         0         1
     44387     44386     44388         0         1
     44390     44389     44391         0         1
     44393     44392     44394         0         1
     44396     44395     44397         0         1
     44399     44398     44400         0         1
     44402     44401     44403         0         1
     44405     44404     44406         0         1
     44408     44407     44409         0         1
     44411     44410     44412         0         1
     44414     44413     44415         0         1
     44417     44416     44418         0         1
     44420     44419     44421         0         1
     44423     44422     44424         0         1
     44426     44425     44427         0         1
     44429     44428     44430         0         1
     44432     44431     44433         0         1
     44435     44434     44436         0         1
     44438     44437     44439         0         1
     44441     44440     44442         0         1
     44444     44443     44445         0         1
     44447     44446     44448         0         1
     44450     44449     44451         0         1
     44453     44452     44454         0         1
     44456     44455     44457         0         1
     44459     44458     44460         0         1
     44462     44461     44463         0         1
     44465     44464     44466         0         1
     44468     44467     44469         0         1
     44471     44470     44472         0         1
     44474     44473     44475         0         1
     44477     44476     44478         0         1
     44480     44479     44481         0         1
     44483     44482     44484         0         1
     44486     44485     44487         0         1
     44489     44488     44490         0         1
     44492     44491     44493         0         1
     44495     44494     44496         0         1
     44498     44497     44499         0         1
     44501     44500     44502         0         1
     44504     44503     44505         0         1
     44507     44506     44508         0         1
     44510     44509     44511         0         1
     44513     44512     44514         0         1
     44516     44515     44517         0         1
     44519     44518     44520         0         1
     44522     44521     44523         0         1
     44525     44524     44526         0         1
     44528     44527     44529         0         1
     44531     44530     44532         0         1
     44534     44533     44535         0         1
     44537     44536     44538         0         1
     44540     44539     44541         0         1
     44543     44542     44544         0         1
     44546     44545     44547         0         1
     44549     44548     44550         0         1
     44552     44551     44553         0         1
     44555     44554     44556         0         1
     44558     44557     44559         0         1
     44561     44560     44562         0         1
     44564     44563     44565         0         1
     44567     44566     44568         0         1
     44570     44569     44571         0         1
     44573     44572     44574         0         1
     44576     44575     44577         0         1
     44579     44578     44580         0         1
     44582     44581     44583         0         1
     44585     44584     44586         0         1
     44588     44587     44589         0         1
     44591     44590     44592         0         1
     44594     44593     44595         0         1
     44597     44596     44598         0         1
     44600     44599     44601         0         1
     44603     44602     44604         0         1
     44606     44605     44607         0         1
     44609     44608     44610         0         1
     44612     44611     44613         0         1
     44615     44614     44616         0         1
     44618     44617     44619         0         1
     44621     44620     44622         0         1
     44624     44623     44625         0         1
     44627     44626     44628         0         1
     44630     44629     44631         0         1
     44633     44632     44634         0         1
     44636     44635     44637         0         1
     44639     44638     44640         0         1
     44642     44641     44643         0         1
     44645     44644     44646         0         1
     44648     44647     44649         0         1
     44651     44650     44652         0         1
     44654     44653     44655         0         1
     44657     44656     44658         0         1
     44660     44659     44661         0         1
     44663     44662     44664         0         1
     44666     44665     44667         0         1
     44669     44668     44670         0         1
     44672     44671     44673         0         1
     44675     44674     44676         0         1
     44678     44677     44679         0         1
     44681     44680     44682         0         1
     44684     44683     44685         0         1
     44687     44686     44688         0         1
     44690     44689     44691         0         1
     44693     44692     44694         0         1
     44696     44695     44697         0         1
     44699     44698     44700         0         1
     44702     44701     44703         0         1
     44705     44704     44706         0         1
     44708     44707     44709         0         1
     44711     44710     44712         0         1
     44714     44713     44715         0         1
     44717     44716     44718         0         1
     44720     44719     44721         0         1
     44723     44722     44724         0         1
     44726     44725     44727         0         1
     44729     44728     44730         0         1
     44732     44731     44733         0         1
     44735     44734     44736         0         1
     44738     44737     44739         0         1
     44741     44740     44742         0         1
     44744     44743     44745         0         1
     44747     44746     44748         0         1
     44750     44749     44751         0         1
     44753     44752     44754         0         1
     44756     44755     44757         0         1
     44759     44758     44760         0         1
     44762     44761     44763         0         1
     44765     44764     44766         0         1
     44768     44767     44769         0         1
     44771     44770     44772         0         1
     44774     44773     44775         0         1
     44777     44776     44778         0         1
     44780     44779     44781         0         1
     44783     44782     44784         0         1
     44786     44785     44787         0         1
     44789     44788     44790         0         1
     44792     44791     44793         0         1
     44795     44794     44796         0         1
     44798     44797     44799         0         1
     44801     44800     44802         0         1
     44804     44803     44805         0         1
     44807     44806     44808         0         1
     44810     44809     44811         0         1
     44813     44812     44814         0         1
     44816     44815     44817         0         1
     44819     44818     44820         0         1
     44822     44821     44823         0         1
     44825     44824     44826         0         1
     44828     44827     44829         0         1
     44831     44830     44832         0         1
     44834     44833     44835         0         1
     44837     44836     44838         0         1
     44840     44839     44841         0         1
     44843     44842     44844         0         1
     44846     44845     44847         0         1
     44849     44848     44850         0         1
     44852     44851     44853         0         1
     44855     44854     44856         0         1
     44858     44857     44859         0         1
     44861     44860     44862         0         1
     44864     44863     44865         0         1
     44867     44866     44868         0         1
     44870     44869     44871         0         1
     44873     44872     44874         0         1
     44876     44875     44877         0         1
     44879     44878     44880         0         1
     44882     44881     44883         0         1
     44885     44884     44886         0         1
     44888     44887     44889         0         1
     44891     44890     44892         0         1
     44894     44893     44895         0         1
     44897     44896     44898         0         1
     44900     44899     44901         0         1
     44903     44902     44904         0         1
     44906     44905     44907         0         1
     44909     44908     44910         0         1
     44912     44911     44913         0         1
     44915     44914     44916         0         1
     44918     44917     44919         0         1
     44921     44920     44922         0         1
     44924     44923     44925         0         1
     44927     44926     44928         0         1
     44930     44929     44931         0         1
     44933     44932     44934         0         1
     44936     44935     44937         0         1
     44939     44938     44940         0         1
     44942     44941     44943         0         1
     44945     44944     44946         0         1
     44948     44947     44949         0         1
     44951     44950     44952         0         1
     44954     44953     44955         0         1
     44957     44956     44958         0         1
     44960     44959     44961         0         1
     44963     44962     44964         0         1
     44966     44965     44967         0         1
     44969     44968     44970         0         1
     44972     44971     44973         0         1
     44975     44974     44976         0         1
     44978     44977     44979         0         1
     44981     44980     44982         0         1
     44984     44983     44985         0         1
     44987     44986     44988         0         1
     44990     44989     44991         0         1
     44993     44992     44994         0         1
     44996     44995     44997         0         1
     44999     44998     45000         0         1
     45002     45001     45003         0         1
     45005     45004     45006         0         1
     45008     45007     45009         0         1
     45011     45010     45012         0         1
     45014     45013     45015         0         1
     45017     45016     45018         0         1
     45020     45019     45021         0         1
     45023     45022     45024         0         1
     45026     45025     45027         0         1
     45029     45028     45030         0         1
     45032     45031     45033         0         1
     45035     45034     45036         0         1
     45038     45037     45039         0         1
     45041     45040     45042         0         1
     45044     45043     45045         0         1
     45047     45046     45048         0         1
     45050     45049     45051         0         1
     45053     45052     45054         0         1
     45056     45055     45057         0         1
     45059     45058     45060         0         1
     45062     45061     45063         0         1
     45065     45064     45066         0         1
     45068     45067     45069         0         1
     45071     45070     45072         0         1
     45074     45073     45075         0         1
     45077     45076     45078         0         1
     45080     45079     45081         0         1
     45083     45082     45084         0         1
     45086     45085     45087         0         1
     45089     45088     45090         0         1
     45092     45091     45093         0         1
     45095     45094     45096         0         1
     45098     45097     45099         0         1
     45101     45100     45102         0         1
     45104     45103     45105         0         1
     45107     45106     45108         0         1
     45110     45109     45111         0         1
     45113     45112     45114         0         1
     45116     45115     45117         0         1
     45119     45118     45120         0         1
     45122     45121     45123         0         1
     45125     45124     45126         0         1
     45128     45127     45129         0         1
     45131     45130     45132         0         1
     45134     45133     45135         0         1
     45137     45136     45138         0         1
     45140     45139     45141         0         1
     45143     45142     45144         0         1
     45146     45145     45147         0         1
     45149     45148     45150         0         1
     45152     45151     45153         0         1
     45155     45154     45156         0         1
     45158     45157     45159         0         1
     45161     45160     45162         0         1
     45164     45163     45165         0         1
     45167     45166     45168         0         1
     45170     45169     45171         0         1
     45173     45172     45174         0         1
     45176     45175     45177         0         1
     45179     45178     45180         0         1
     45182     45181     45183         0         1
     45185     45184     45186         0         1
     45188     45187     45189         0         1
     45191     45190     45192         0         1
     45194     45193     45195         0         1
     45197     45196     45198         0         1
     45200     45199     45201         0         1
     45203     45202     45204         0         1
     45206     45205     45207         0         1
     45209     45208     45210         0         1
     45212     45211     45213         0         1
     45215     45214     45216         0         1
     45218     45217     45219         0         1
     45221     45220     45222         0         1
     45224     45223     45225         0         1
     45227     45226     45228         0         1
     45230     45229     45231         0         1
     45233     45232     45234         0         1
     45236     45235     45237         0         1
     45239     45238     45240         0         1
     45242     45241     45243         0         1
     45245     45244     45246         0         1
     45248     45247     45249         0         1
     45251     45250     45252         0         1
     45254     45253     45255         0         1
     45257     45256     45258         0         1
     45260     45259     45261         0         1
     45263     45262     45264         0         1
     45266     45265     45267         0         1
     45269     45268     45270         0         1
     45272     45271     45273         0         1
     45275     45274     45276         0         1
     45278     45277     45279         0         1
     45281     45280     45282         0         1
     45284     45283     45285         0         1
     45287     45286     45288         0         1
     45290     45289     45291         0         1
     45293     45292     45294         0         1
     45296     45295     45297         0         1
     45299     45298     45300         0         1
     45302     45301     45303         0         1
     45305     45304     45306         0         1
     45308     45307     45309         0         1
     45311     45310     45312         0         1
     45314     45313     45315         0         1
     45317     45316     45318         0         1
     45320     45319     45321         0         1
     45323     45322     45324         0         1
     45326     45325     45327         0         1
     45329     45328     45330         0         1
     45332     45331     45333         0         1
     45335     45334     45336         0         1
     45338     45337     45339         0         1
     45341     45340     45342         0         1
     45344     45343     45345         0         1
     45347     45346     45348         0         1
     45350     45349     45351         0         1
     45353     45352     45354         0         1
     45356     45355     45357         0         1
     45359     45358     45360         0         1
     45362     45361     45363         0         1
     45365     45364     45366         0         1
     45368     45367     45369         0         1
     45371     45370     45372         0         1
     45374     45373     45375         0         1
     45377     45376     45378         0         1
     45380     45379     45381         0         1
     45383     45382     45384         0         1
     45386     45385     45387         0         1
     45389     45388     45390         0         1
     45392     45391     45393         0         1
     45395     45394     45396         0         1
     45398     45397     45399         0         1
     45401     45400     45402         0         1
     45404     45403     45405         0         1
     45407     45406     45408         0         1
     45410     45409     45411         0         1
     45413     45412     45414         0         1
     45416     45415     45417         0         1
     45419     45418     45420         0         1
     45422     45421     45423         0         1
     45425     45424     45426         0         1
     45428     45427     45429         0         1
     45431     45430     45432         0         1
     45434     45433     45435         0         1
     45437     45436     45438         0         1
     45440     45439     45441         0         1
     45443     45442     45444         0         1
     45446     45445     45447         0         1
     45449     45448     45450         0         1
     45452     45451     45453         0         1
     45455     45454     45456         0         1
     45458     45457     45459         0         1
     45461     45460     45462         0         1
     45464     45463     45465         0         1
     45467     45466     45468         0         1
     45470     45469     45471         0         1
     45473     45472     45474         0         1
     45476     45475     45477         0         1
     45479     45478     45480         0         1
     45482     45481     45483         0         1
     45485     45484     45486         0         1
     45488     45487     45489         0         1
     45491     45490     45492         0         1
     45494     45493     45495         0         1
     45497     45496     45498         0         1
     45500     45499     45501         0         1
     45503     45502     45504         0         1
     45506     45505     45507         0         1
     45509     45508     45510         0         1
     45512     45511     45513         0         1
     45515     45514     45516         0         1
     45518     45517     45519         0         1
     45521     45520     45522         0         1
     45524     45523     45525         0         1
     45527     45526     45528         0         1
     45530     45529     45531         0         1
     45533     45532     45534         0         1
     45536     45535     45537         0         1
     45539     45538     45540         0         1
     45542     45541     45543         0         1
     45545     45544     45546         0         1
     45548     45547     45549         0         1
     45551     45550     45552         0         1
     45554     45553     45555         0         1
     45557     45556     45558         0         1
     45560     45559     45561         0         1
     45563     45562     45564         0         1
     45566     45565     45567         0         1
     45569     45568     45570         0         1
     45572     45571     45573         0         1
     45575     45574     45576         0         1
     45578     45577     45579         0         1
     45581     45580     45582         0         1
     45584     45583     45585         0         1
     45587     45586     45588         0         1
     45590     45589     45591         0         1
     45593     45592     45594         0         1
     45596     45595     45597         0         1
     45599     45598     45600         0         1
     45602     45601     45603         0         1
     45605     45604     45606         0         1
     45608     45607     45609         0         1
     45611     45610     45612         0         1
     45614     45613     45615         0         1
     45617     45616     45618         0         1
     45620     45619     45621         0         1
     45623     45622     45624         0         1
     45626     45625     45627         0         1
     45629     45628     45630         0         1
     45632     45631     45633         0         1
     45635     45634     45636         0         1
     45638     45637     45639         0         1
     45641     45640     45642         0         1
     45644     45643     45645         0         1
     45647     45646     45648         0         1
     45650     45649     45651         0         1
     45653     45652     45654         0         1
     45656     45655     45657         0         1
     45659     45658     45660         0         1
     45662     45661     45663         0         1
     45665     45664     45666         0         1
     45668     45667     45669         0         1
     45671     45670     45672         0         1
     45674     45673     45675         0         1
     45677     45676     45678         0         1
     45680     45679     45681         0         1
     45683     45682     45684         0         1
     45686     45685     45687         0         1
     45689     45688     45690         0         1
     45692     45691     45693         0         1
     45695     45694     45696         0         1
     45698     45697     45699         0         1
     45701     45700     45702         0         1
     45704     45703     45705         0         1
     45707     45706     45708         0         1
     45710     45709     45711         0         1
     45713     45712     45714         0         1
     45716     45715     45717         0         1
     45719     45718     45720         0         1
     45722     45721     45723         0         1
     45725     45724     45726         0         1
     45728     45727     45729         0         1
     45731     45730     45732         0         1
     45734     45733     45735         0         1
     45737     45736     45738         0         1
     45740     45739     45741         0         1
     45743     45742     45744         0         1
     45746     45745     45747         0         1
     45749     45748     45750         0         1
     45752     45751     45753         0         1
     45755     45754     45756         0         1
     45758     45757     45759         0         1
     45761     45760     45762         0         1
     45764     45763     45765         0         1
     45767     45766     45768         0         1
     45770     45769     45771         0         1
     45773     45772     45774         0         1
     45776     45775     45777         0         1
     45779     45778     45780         0         1
     45782     45781     45783         0         1
     45785     45784     45786         0         1
     45788     45787     45789         0         1
     45791     45790     45792         0         1
     45794     45793     45795         0         1
     45797     45796     45798         0         1
     45800     45799     45801         0         1
     45803     45802     45804         0         1
     45806     45805     45807         0         1
     45809     45808     45810         0         1
     45812     45811     45813         0         1
     45815     45814     45816         0         1
     45818     45817     45819         0         1
     45821     45820     45822         0         1
     45824     45823     45825         0         1
     45827     45826     45828         0         1
     45830     45829     45831         0         1
     45833     45832     45834         0         1
     45836     45835     45837         0         1
     45839     45838     45840         0         1
     45842     45841     45843         0         1
     45845     45844     45846         0         1
     45848     45847     45849         0         1
     45851     45850     45852         0         1
     45854     45853     45855         0         1
     45857     45856     45858         0         1
     45860     45859     45861         0         1
     45863     45862     45864         0         1
     45866     45865     45867         0         1
     45869     45868     45870         0         1
     45872     45871     45873         0         1
     45875     45874     45876         0         1
     45878     45877     45879         0         1
     45881     45880     45882         0         1
     45884     45883     45885         0         1
     45887     45886     45888         0         1
     45890     45889     45891         0         1
     45893     45892     45894         0         1
     45896     45895     45897         0         1
     45899     45898     45900         0         1
     45902     45901     45903         0         1
     45905     45904     45906         0         1
     45908     45907     45909         0         1
     45911     45910     45912         0         1
     45914     45913     45915         0         1
     45917     45916     45918         0         1
     45920     45919     45921         0         1
     45923     45922     45924         0         1
     45926     45925     45927         0         1
     45929     45928     45930         0         1
     45932     45931     45933         0         1
     45935     45934     45936         0         1
     45938     45937     45939         0         1
     45941     45940     45942         0         1
     45944     45943     45945         0         1
     45947     45946     45948         0         1
     45950     45949     45951         0         1
     45953     45952     45954         0         1
     45956     45955     45957         0         1
     45959     45958     45960         0         1
     45962     45961     45963         0         1
     45965     45964     45966         0         1
     45968     45967     45969         0         1
     45971     45970     45972         0         1
     45974     45973     45975         0         1
     45977     45976     45978         0         1
     45980     45979     45981         0         1
     45983     45982     45984         0         1
     45986     45985     45987         0         1
     45989     45988     45990         0         1
     45992     45991     45993         0         1
     45995     45994     45996         0         1
     45998     45997     45999         0         1
     46001     46000     46002         0         1
     46004     46003     46005         0         1
     46007     46006     46008         0         1
     46010     46009     46011         0         1
     46013     46012     46014         0         1
     46016     46015     46017         0         1
     46019     46018     46020         0         1
     46022     46021     46023         0         1
     46025     46024     46026         0         1
     46028     46027     46029         0         1
     46031     46030     46032         0         1
     46034     46033     46035         0         1
     46037     46036     46038         0         1
     46040     46039     46041         0         1
     46043     46042     46044         0         1
     46046     46045     46047         0         1
     46049     46048     46050         0         1
     46052     46051     46053         0         1
     46055     46054     46056         0         1
     46058     46057     46059         0         1
     46061     46060     46062         0         1
     46064     46063     46065         0         1
     46067     46066     46068         0         1
     46070     46069     46071         0         1
     46073     46072     46074         0         1
     46076     46075     46077         0         1
     46079     46078     46080         0         1
     46082     46081     46083         0         1
     46085     46084     46086         0         1
     46088     46087     46089         0         1
     46091     46090     46092         0         1
     46094     46093     46095         0         1
     46097     46096     46098         0         1
     46100     46099     46101         0         1
     46103     46102     46104         0         1
     46106     46105     46107         0         1
     46109     46108     46110         0         1
     46112     46111     46113         0         1
     46115     46114     46116         0         1
     46118     46117     46119         0         1
     46121     46120     46122         0         1
     46124     46123     46125         0         1
     46127     46126     46128         0         1
     46130     46129     46131         0         1
     46133     46132     46134         0         1
     46136     46135     46137         0         1
     46139     46138     46140         0         1
     46142     46141     46143         0         1
     46145     46144     46146         0         1
     46148     46147     46149         0         1
     46151     46150     46152         0         1
     46154     46153     46155         0         1
     46157     46156     46158         0         1
     46160     46159     46161         0         1
     46163     46162     46164         0         1
     46166     46165     46167         0         1
     46169     46168     46170         0         1
     46172     46171     46173         0         1
     46175     46174     46176         0         1
     46178     46177     46179         0         1
     46181     46180     46182         0         1
     46184     46183     46185         0         1
     46187     46186     46188         0         1
     46190     46189     46191         0         1
     46193     46192     46194         0         1
     46196     46195     46197         0         1
     46199     46198     46200         0         1
     46202     46201     46203         0         1
     46205     46204     46206         0         1
     46208     46207     46209         0         1
     46211     46210     46212         0         1
     46214     46213     46215         0         1
     46217     46216     46218         0         1
     46220     46219     46221         0         1
     46223     46222     46224         0         1
     46226     46225     46227         0         1
     46229     46228     46230         0         1
     46232     46231     46233         0         1
     46235     46234     46236         0         1
     46238     46237     46239         0         1
     46241     46240     46242         0         1
     46244     46243     46245         0         1
     46247     46246     46248         0         1
     46250     46249     46251         0         1
     46253     46252     46254         0         1
     46256     46255     46257         0         1
     46259     46258     46260         0         1
     46262     46261     46263         0         1
     46265     46264     46266         0         1
     46268     46267     46269         0         1
     46271     46270     46272         0         1
     46274     46273     46275         0         1
     46277     46276     46278         0         1
     46280     46279     46281         0         1
     46283     46282     46284         0         1
     46286     46285     46287         0         1
     46289     46288     46290         0         1
     46292     46291     46293         0         1
     46295     46294     46296         0         1
     46298     46297     46299         0         1
     46301     46300     46302         0         1
     46304     46303     46305         0         1
     46307     46306     46308         0         1
     46310     46309     46311         0         1
     46313     46312     46314         0         1
     46316     46315     46317         0         1
     46319     46318     46320         0         1
     46322     46321     46323         0         1
     46325     46324     46326         0         1
     46328     46327     46329         0         1
     46331     46330     46332         0         1
     46334     46333     46335         0         1
     46337     46336     46338         0         1
     46340     46339     46341         0         1
     46343     46342     46344         0         1
     46346     46345     46347         0         1
     46349     46348     46350         0         1
     46352     46351     46353         0         1
     46355     46354     46356         0         1
     46358     46357     46359         0         1
     46361     46360     46362         0         1
     46364     46363     46365         0         1
     46367     46366     46368         0         1
     46370     46369     46371         0         1
     46373     46372     46374         0         1
     46376     46375     46377         0         1
     46379     46378     46380         0         1
     46382     46381     46383         0         1
     46385     46384     46386         0         1
     46388     46387     46389         0         1
     46391     46390     46392         0         1
     46394     46393     46395         0         1
     46397     46396     46398         0         1
     46400     46399     46401         0         1
     46403     46402     46404         0         1
     46406     46405     46407         0         1
     46409     46408     46410         0         1
     46412     46411     46413         0         1
     46415     46414     46416         0         1
     46418     46417     46419         0         1
     46421     46420     46422         0         1
     46424     46423     46425         0         1
     46427     46426     46428         0         1
     46430     46429     46431         0         1
     46433     46432     46434         0         1
     46436     46435     46437         0         1
     46439     46438     46440         0         1
     46442     46441     46443         0         1
     46445     46444     46446         0         1
     46448     46447     46449         0         1
     46451     46450     46452         0         1
     46454     46453     46455         0         1
     46457     46456     46458         0         1
     46460     46459     46461         0         1
     46463     46462     46464         0         1
     46466     46465     46467         0         1
     46469     46468     46470         0         1
     46472     46471     46473         0         1
     46475     46474     46476         0         1
     46478     46477     46479         0         1
     46481     46480     46482         0         1
     46484     46483     46485         0         1
     46487     46486     46488         0         1
     46490     46489     46491         0         1
     46493     46492     46494         0         1
     46496     46495     46497         0         1
     46499     46498     46500         0         1
     46502     46501     46503         0         1
     46505     46504     46506         0         1
     46508     46507     46509         0         1
     46511     46510     46512         0         1
     46514     46513     46515         0         1
     46517     46516     46518         0         1
     46520     46519     46521         0         1
     46523     46522     46524         0         1
     46526     46525     46527         0         1
     46529     46528     46530         0         1
     46532     46531     46533         0         1
     46535     46534     46536         0         1
     46538     46537     46539         0         1
     46541     46540     46542         0         1
     46544     46543     46545         0         1
     46547     46546     46548         0         1
     46550     46549     46551         0         1
     46553     46552     46554         0         1
     46556     46555     46557         0         1
     46559     46558     46560         0         1
     46562     46561     46563         0         1
     46565     46564     46566         0         1
     46568     46567     46569         0         1
     46571     46570     46572         0         1
     46574     46573     46575         0         1
     46577     46576     46578         0         1
     46580     46579     46581         0         1
     46583     46582     46584         0         1
     46586     46585     46587         0         1
     46589     46588     46590         0         1
     46592     46591     46593         0         1
     46595     46594     46596         0         1
     46598     46597     46599         0         1
     46601     46600     46602         0         1
     46604     46603     46605         0         1
     46607     46606     46608         0         1
     46610     46609     46611         0         1
     46613     46612     46614         0         1
     46616     46615     46617         0         1
     46619     46618     46620         0         1
     46622     46621     46623         0         1
     46625     46624     46626         0         1
     46628     46627     46629         0         1
     46631     46630     46632         0         1
     46634     46633     46635         0         1
     46637     46636     46638         0         1
     46640     46639     46641         0         1
     46643     46642     46644         0         1
     46646     46645     46647         0         1
     46649     46648     46650         0         1
     46652     46651     46653         0         1
     46655     46654     46656         0         1
     46658     46657     46659         0         1
     46661     46660     46662         0         1
     46664     46663     46665         0         1
     46667     46666     46668         0         1
     46670     46669     46671         0         1
     46673     46672     46674         0         1
     46676     46675     46677         0         1
     46679     46678     46680         0         1
     46682     46681     46683         0         1
     46685     46684     46686         0         1
     46688     46687     46689         0         1
     46691     46690     46692         0         1
     46694     46693     46695         0         1
     46697     46696     46698         0         1
     46700     46699     46701         0         1
     46703     46702     46704         0         1
     46706     46705     46707         0         1
     46709     46708     46710         0         1
     46712     46711     46713         0         1
     46715     46714     46716         0         1
     46718     46717     46719         0         1
     46721     46720     46722         0         1
     46724     46723     46725         0         1
     46727     46726     46728         0         1
     46730     46729     46731         0         1
     46733     46732     46734         0         1
     46736     46735     46737         0         1
     46739     46738     46740         0         1
     46742     46741     46743         0         1
     46745     46744     46746         0         1
     46748     46747     46749         0         1
     46751     46750     46752         0         1
     46754     46753     46755         0         1
     46757     46756     46758         0         1
     46760     46759     46761         0         1
     46763     46762     46764         0         1
     46766     46765     46767         0         1
     46769     46768     46770         0         1
     46772     46771     46773         0         1
     46775     46774     46776         0         1
     46778     46777     46779         0         1
     46781     46780     46782         0         1
     46784     46783     46785         0         1
     46787     46786     46788         0         1
     46790     46789     46791         0         1
     46793     46792     46794         0         1
     46796     46795     46797         0         1
     46799     46798     46800         0         1
     46802     46801     46803         0         1
     46805     46804     46806         0         1
     46808     46807     46809         0         1
     46811     46810     46812         0         1
     46814     46813     46815         0         1
     46817     46816     46818         0         1
     46820     46819     46821         0         1
     46823     46822     46824         0         1
     46826     46825     46827         0         1
     46829     46828     46830         0         1
     46832     46831     46833         0         1
     46835     46834     46836         0         1
     46838     46837     46839         0         1
     46841     46840     46842         0         1
     46844     46843     46845         0         1
     46847     46846     46848         0         1
     46850     46849     46851         0         1
     46853     46852     46854         0         1
     46856     46855     46857         0         1
     46859     46858     46860         0         1
     46862     46861     46863         0         1
     46865     46864     46866         0         1
     46868     46867     46869         0         1
     46871     46870     46872         0         1
     46874     46873     46875         0         1
     46877     46876     46878         0         1
     46880     46879     46881         0         1
     46883     46882     46884         0         1
     46886     46885     46887         0         1
     46889     46888     46890         0         1
     46892     46891     46893         0         1
     46895     46894     46896         0         1
     46898     46897     46899         0         1
     46901     46900     46902         0         1
     46904     46903     46905         0         1
     46907     46906     46908         0         1
     46910     46909     46911         0         1
     46913     46912     46914         0         1
     46916     46915     46917         0         1
     46919     46918     46920         0         1
     46922     46921     46923         0         1
     46925     46924     46926         0         1
     46928     46927     46929         0         1
     46931     46930     46932         0         1
     46934     46933     46935         0         1
     46937     46936     46938         0         1
     46940     46939     46941         0         1
     46943     46942     46944         0         1
     46946     46945     46947         0         1
     46949     46948     46950         0         1
     46952     46951     46953         0         1
     46955     46954     46956         0         1
     46958     46957     46959         0         1
     46961     46960     46962         0         1
     46964     46963     46965         0         1
     46967     46966     46968         0         1
     46970     46969     46971         0         1
     46973     46972     46974         0         1
     46976     46975     46977         0         1
     46979     46978     46980         0         1
     46982     46981     46983         0         1
     46985     46984     46986         0         1
     46988     46987     46989         0         1
     46991     46990     46992         0         1
     46994     46993     46995         0         1
     46997     46996     46998         0         1
     47000     46999     47001         0         1
     47003     47002     47004         0         1
     47006     47005     47007         0         1
     47009     47008     47010         0         1
     47012     47011     47013         0         1
     47015     47014     47016         0         1
     47018     47017     47019         0         1
     47021     47020     47022         0         1
     47024     47023     47025         0         1
     47027     47026     47028         0         1
     47030     47029     47031         0         1
     47033     47032     47034         0         1
     47036     47035     47037         0         1
     47039     47038     47040         0         1
     47042     47041     47043         0         1
     47045     47044     47046         0         1
     47048     47047     47049         0         1
     47051     47050     47052         0         1
     47054     47053     47055         0         1
     47057     47056     47058         0         1
     47060     47059     47061         0         1
     47063     47062     47064         0         1
     47066     47065     47067         0         1
     47069     47068     47070         0         1
     47072     47071     47073         0         1
     47075     47074     47076         0         1
     47078     47077     47079         0         1
     47081     47080     47082         0         1
     47084     47083     47085         0         1
     47087     47086     47088         0         1
     47090     47089     47091         0         1
     47093     47092     47094         0         1
     47096     47095     47097         0         1
     47099     47098     47100         0         1
     47102     47101     47103         0         1
     47105     47104     47106         0         1
     47108     47107     47109         0         1
     47111     47110     47112         0         1
     47114     47113     47115         0         1
     47117     47116     47118         0         1
     47120     47119     47121         0         1
     47123     47122     47124         0         1
     47126     47125     47127         0         1
     47129     47128     47130         0         1
     47132     47131     47133         0         1
     47135     47134     47136         0         1
     47138     47137     47139         0         1
     47141     47140     47142         0         1
     47144     47143     47145         0         1
     47147     47146     47148         0         1
     47150     47149     47151         0         1
     47153     47152     47154         0         1
     47156     47155     47157         0         1
     47159     47158     47160         0         1
     47162     47161     47163         0         1
     47165     47164     47166         0         1
     47168     47167     47169         0         1
     47171     47170     47172         0         1
     47174     47173     47175         0         1
     47177     47176     47178         0         1
     47180     47179     47181         0         1
     47183     47182     47184         0         1
     47186     47185     47187         0         1
     47189     47188     47190         0         1
     47192     47191     47193         0         1
     47195     47194     47196         0         1
     47198     47197     47199         0         1
     47201     47200     47202         0         1
     47204     47203     47205         0         1
     47207     47206     47208         0         1
     47210     47209     47211         0         1
     47213     47212     47214         0         1
     47216     47215     47217         0         1
     47219     47218     47220         0         1
     47222     47221     47223         0         1
     47225     47224     47226         0         1
     47228     47227     47229         0         1
     47231     47230     47232         0         1
     47234     47233     47235         0         1
     47237     47236     47238         0         1
     47240     47239     47241         0         1
     47243     47242     47244         0         1
     47246     47245     47247         0         1
     47249     47248     47250         0         1
     47252     47251     47253         0         1
     47255     47254     47256         0         1
     47258     47257     47259         0         1
     47261     47260     47262         0         1
     47264     47263     47265         0         1
     47267     47266     47268         0         1
     47270     47269     47271         0         1
     47273     47272     47274         0         1
     47276     47275     47277         0         1
     47279     47278     47280         0         1
     47282     47281     47283         0         1
     47285     47284     47286         0         1
     47288     47287     47289         0         1
     47291     47290     47292         0         1
     47294     47293     47295         0         1
     47297     47296     47298         0         1
     47300     47299     47301         0         1
     47303     47302     47304         0         1
     47306     47305     47307         0         1
     47309     47308     47310         0         1
     47312     47311     47313         0         1
     47315     47314     47316         0         1
     47318     47317     47319         0         1
     47321     47320     47322         0         1
     47324     47323     47325         0         1
     47327     47326     47328         0         1
     47330     47329     47331         0         1
     47333     47332     47334         0         1
     47336     47335     47337         0         1
     47339     47338     47340         0         1
     47342     47341     47343         0         1
     47345     47344     47346         0         1
     47348     47347     47349         0         1
     47351     47350     47352         0         1
     47354     47353     47355         0         1
     47357     47356     47358         0         1
     47360     47359     47361         0         1
     47363     47362     47364         0         1
     47366     47365     47367         0         1
     47369     47368     47370         0         1
     47372     47371     47373         0         1
     47375     47374     47376         0         1
     47378     47377     47379         0         1
     47381     47380     47382         0         1
     47384     47383     47385         0         1
     47387     47386     47388         0         1
     47390     47389     47391         0         1
     47393     47392     47394         0         1
     47396     47395     47397         0         1
     47399     47398     47400         0         1
     47402     47401     47403         0         1
     47405     47404     47406         0         1
     47408     47407     47409         0         1
     47411     47410     47412         0         1
     47414     47413     47415         0         1
     47417     47416     47418         0         1
     47420     47419     47421         0         1
     47423     47422     47424         0         1
     47426     47425     47427         0         1
     47429     47428     47430         0         1
     47432     47431     47433         0         1
     47435     47434     47436         0         1
     47438     47437     47439         0         1
     47441     47440     47442         0         1
     47444     47443     47445         0         1
     47447     47446     47448         0         1
     47450     47449     47451         0         1
     47453     47452     47454         0         1
     47456     47455     47457         0         1
     47459     47458     47460         0         1
     47462     47461     47463         0         1
     47465     47464     47466         0         1
     47468     47467     47469         0         1
     47471     47470     47472         0         1
     47474     47473     47475         0         1
     47477     47476     47478         0         1
     47480     47479     47481         0         1
     47483     47482     47484         0         1
     47486     47485     47487         0         1
     47489     47488     47490         0         1
     47492     47491     47493         0         1
     47495     47494     47496         0         1
     47498     47497     47499         0         1
     47501     47500     47502         0         1
     47504     47503     47505         0         1
     47507     47506     47508         0         1
     47510     47509     47511         0         1
     47513     47512     47514         0         1
     47516     47515     47517         0         1
     47519     47518     47520         0         1
     47522     47521     47523         0         1
     47525     47524     47526         0         1
     47528     47527     47529         0         1
     47531     47530     47532         0         1
     47534     47533     47535         0         1
     47537     47536     47538         0         1
     47540     47539     47541         0         1
     47543     47542     47544         0         1
     47546     47545     47547         0         1
     47549     47548     47550         0         1
     47552     47551     47553         0         1
     47555     47554     47556         0         1
     47558     47557     47559         0         1
     47561     47560     47562         0         1
     47564     47563     47565         0         1
     47567     47566     47568         0         1
     47570     47569     47571         0         1
     47573     47572     47574         0         1
     47576     47575     47577         0         1
     47579     47578     47580         0         1
     47582     47581     47583         0         1
     47585     47584     47586         0         1
     47588     47587     47589         0         1
     47591     47590     47592         0         1
     47594     47593     47595         0         1
     47597     47596     47598         0         1
     47600     47599     47601         0         1
     47603     47602     47604         0         1
     47606     47605     47607         0         1
     47609     47608     47610         0         1
     47612     47611     47613         0         1
     47615     47614     47616         0         1
     47618     47617     47619         0         1
     47621     47620     47622         0         1
     47624     47623     47625         0         1
     47627     47626     47628         0         1
     47630     47629     47631         0         1
     47633     47632     47634         0         1
     47636     47635     47637         0         1
     47639     47638     47640         0         1
     47642     47641     47643         0         1
     47645     47644     47646         0         1
     47648     47647     47649         0         1
     47651     47650     47652         0         1
     47654     47653     47655         0         1
     47657     47656     47658         0         1
     47660     47659     47661         0         1
     47663     47662     47664         0         1
     47666     47665     47667         0         1
     47669     47668     47670         0         1
     47672     47671     47673         0         1
     47675     47674     47676         0         1
     47678     47677     47679         0         1
     47681     47680     47682         0         1
     47684     47683     47685         0         1
     47687     47686     47688         0         1
     47690     47689     47691         0         1
     47693     47692     47694         0         1
     47696     47695     47697         0         1
     47699     47698     47700         0         1
     47702     47701     47703         0         1
     47705     47704     47706         0         1
     47708     47707     47709         0         1
     47711     47710     47712         0         1
     47714     47713     47715         0         1
     47717     47716     47718         0         1
     47720     47719     47721         0         1
     47723     47722     47724         0         1
     47726     47725     47727         0         1
     47729     47728     47730         0         1
     47732     47731     47733         0         1
     47735     47734     47736         0         1
     47738     47737     47739         0         1
     47741     47740     47742         0         1
     47744     47743     47745         0         1
     47747     47746     47748         0         1
     47750     47749     47751         0         1
     47753     47752     47754         0         1
     47756     47755     47757         0         1
     47759     47758     47760         0         1
     47762     47761     47763         0         1
     47765     47764     47766         0         1
     47768     47767     47769         0         1
     47771     47770     47772         0         1
     47774     47773     47775         0         1
     47777     47776     47778         0         1
     47780     47779     47781         0         1
     47783     47782     47784         0         1
     47786     47785     47787         0         1
     47789     47788     47790         0         1
     47792     47791     47793         0         1
     47795     47794     47796         0         1
     47798     47797     47799         0         1
     47801     47800     47802         0         1
     47804     47803     47805         0         1
     47807     47806     47808         0         1
     47810     47809     47811         0         1
     47813     47812     47814         0         1
     47816     47815     47817         0         1
     47819     47818     47820         0         1
     47822     47821     47823         0         1
     47825     47824     47826         0         1
     47828     47827     47829         0         1
     47831     47830     47832         0         1
     47834     47833     47835         0         1
     47837     47836     47838         0         1
     47840     47839     47841         0         1
     47843     47842     47844         0         1
     47846     47845     47847         0         1
     47849     47848     47850         0         1
     47852     47851     47853         0         1
     47855     47854     47856         0         1
     47858     47857     47859         0         1
     47861     47860     47862         0         1
     47864     47863     47865         0         1
     47867     47866     47868         0         1
     47870     47869     47871         0         1
     47873     47872     47874         0         1
     47876     47875     47877         0         1
     47879     47878     47880         0         1
     47882     47881     47883         0         1
     47885     47884     47886         0         1
     47888     47887     47889         0         1
     47891     47890     47892         0         1
     47894     47893     47895         0         1
     47897     47896     47898         0         1
     47900     47899     47901         0         1
     47903     47902     47904         0         1
     47906     47905     47907         0         1
     47909     47908     47910         0         1
     47912     47911     47913         0         1
     47915     47914     47916         0         1
     47918     47917     47919         0         1
     47921     47920     47922         0         1
     47924     47923     47925         0         1
     47927     47926     47928         0         1
     47930     47929     47931         0         1
     47933     47932     47934         0         1
     47936     47935     47937         0         1
     47939     47938     47940         0         1
     47942     47941     47943         0         1
     47945     47944     47946         0         1
     47948     47947     47949         0         1
     47951     47950     47952         0         1
     47954     47953     47955         0         1
     47957     47956     47958         0         1
     47960     47959     47961         0         1
     47963     47962     47964         0         1
     47966     47965     47967         0         1
     47969     47968     47970         0         1
     47972     47971     47973         0         1
     47975     47974     47976         0         1
     47978     47977     47979         0         1
     47981     47980     47982         0         1
     47984     47983     47985         0         1
     47987     47986     47988         0         1
     47990     47989     47991         0         1
     47993     47992     47994         0         1
     47996     47995     47997         0         1
     47999     47998     48000         0         1
     48002     48001     48003         0         1
     48005     48004     48006         0         1
     48008     48007     48009         0         1
     48011     48010     48012         0         1
     48014     48013     48015         0         1
     48017     48016     48018         0         1
     48020     48019     48021         0         1
     48023     48022     48024         0         1
     48026     48025     48027         0         1
     48029     48028     48030         0         1
     48032     48031     48033         0         1
     48035     48034     48036         0         1
     48038     48037     48039         0         1
     48041     48040     48042         0         1
     48044     48043     48045         0         1
     48047     48046     48048         0         1
     48050     48049     48051         0         1
     48053     48052     48054         0         1
     48056     48055     48057         0         1
     48059     48058     48060         0         1
     48062     48061     48063         0         1
     48065     48064     48066         0         1
     48068     48067     48069         0         1
     48071     48070     48072         0         1
     48074     48073     48075         0         1
     48077     48076     48078         0         1
     48080     48079     48081         0         1
     48083     48082     48084         0         1
     48086     48085     48087         0         1
     48089     48088     48090         0         1
     48092     48091     48093         0         1
     48095     48094     48096         0         1
     48098     48097     48099         0         1
     48101     48100     48102         0         1
     48104     48103     48105         0         1
     48107     48106     48108         0         1
     48110     48109     48111         0         1
     48113     48112     48114         0         1
     48116     48115     48117         0         1
     48119     48118     48120         0         1
     48122     48121     48123         0         1
     48125     48124     48126         0         1
     48128     48127     48129         0         1
     48131     48130     48132         0         1
     48134     48133     48135         0         1
     48137     48136     48138         0         1
     48140     48139     48141         0         1
     48143     48142     48144         0         1
     48146     48145     48147         0         1
     48149     48148     48150         0         1
     48152     48151     48153         0         1
     48155     48154     48156         0         1
     48158     48157     48159         0         1
     48161     48160     48162         0         1
     48164     48163     48165         0         1
     48167     48166     48168         0         1
     48170     48169     48171         0         1
     48173     48172     48174         0         1
     48176     48175     48177         0         1
     48179     48178     48180         0         1
     48182     48181     48183         0         1
     48185     48184     48186         0         1
     48188     48187     48189         0         1
     48191     48190     48192         0         1
     48194     48193     48195         0         1
     48197     48196     48198         0         1
     48200     48199     48201         0         1
     48203     48202     48204         0         1
     48206     48205     48207         0         1
     48209     48208     48210         0         1
     48212     48211     48213         0         1
     48215     48214     48216         0         1
     48218     48217     48219         0         1
     48221     48220     48222         0         1
     48224     48223     48225         0         1
     48227     48226     48228         0         1
     48230     48229     48231         0         1
     48233     48232     48234         0         1
     48236     48235     48237         0         1
     48239     48238     48240         0         1
     48242     48241     48243         0         1
     48245     48244     48246         0         1
     48248     48247     48249         0         1
     48251     48250     48252         0         1
     48254     48253     48255         0         1
     48257     48256     48258         0         1
     48260     48259     48261         0         1
     48263     48262     48264         0         1
     48266     48265     48267         0         1
     48269     48268     48270         0         1
     48272     48271     48273         0         1
     48275     48274     48276         0         1
     48278     48277     48279         0         1
     48281     48280     48282         0         1
     48284     48283     48285         0         1
     48287     48286     48288         0         1
     48290     48289     48291         0         1
     48293     48292     48294         0         1
     48296     48295     48297         0         1
     48299     48298     48300         0         1
     48302     48301     48303         0         1
     48305     48304     48306         0         1
     48308     48307     48309         0         1
     48311     48310     48312         0         1
     48314     48313     48315         0         1
     48317     48316     48318         0         1
     48320     48319     48321         0         1
     48323     48322     48324         0         1
     48326     48325     48327         0         1
     48329     48328     48330         0         1
     48332     48331     48333         0         1
     48335     48334     48336         0         1
     48338     48337     48339         0         1
     48341     48340     48342         0         1
     48344     48343     48345         0         1
     48347     48346     48348         0         1
     48350     48349     48351         0         1
     48353     48352     48354         0         1
     48356     48355     48357         0         1
     48359     48358     48360         0         1
     48362     48361     48363         0         1
     48365     48364     48366         0         1
     48368     48367     48369         0         1
     48371     48370     48372         0         1
     48374     48373     48375         0         1
     48377     48376     48378         0         1
     48380     48379     48381         0         1
     48383     48382     48384         0         1
     48386     48385     48387         0         1
     48389     48388     48390         0         1
     48392     48391     48393         0         1
     48395     48394     48396         0         1
     48398     48397     48399         0         1
     48401     48400     48402         0         1
     48404     48403     48405         0         1
     48407     48406     48408         0         1
     48410     48409     48411         0         1
     48413     48412     48414         0         1
     48416     48415     48417         0         1
     48419     48418     48420         0         1
     48422     48421     48423         0         1
     48425     48424     48426         0         1
     48428     48427     48429         0         1
     48431     48430     48432         0         1
     48434     48433     48435         0         1
     48437     48436     48438         0         1
     48440     48439     48441         0         1
     48443     48442     48444         0         1
     48446     48445     48447         0         1
     48449     48448     48450         0         1
     48452     48451     48453         0         1
     48455     48454     48456         0         1
     48458     48457     48459         0         1
     48461     48460     48462         0         1
     48464     48463     48465         0         1
     48467     48466     48468         0         1
     48470     48469     48471         0         1
     48473     48472     48474         0         1
     48476     48475     48477         0         1
     48479     48478     48480         0         1
     48482     48481     48483         0         1
     48485     48484     48486         0         1
     48488     48487     48489         0         1
     48491     48490     48492         0         1
     48494     48493     48495         0         1
     48497     48496     48498         0         1
     48500     48499     48501         0         1
     48503     48502     48504         0         1
     48506     48505     48507         0         1
     48509     48508     48510         0         1
     48512     48511     48513         0         1
     48515     48514     48516         0         1
     48518     48517     48519         0         1
     48521     48520     48522         0         1
     48524     48523     48525         0         1
     48527     48526     48528         0         1
     48530     48529     48531         0         1
     48533     48532     48534         0         1
     48536     48535     48537         0         1
     48539     48538     48540         0         1
     48542     48541     48543         0         1
     48545     48544     48546         0         1
     48548     48547     48549         0         1
     48551     48550     48552         0         1
     48554     48553     48555         0         1
     48557     48556     48558         0         1
     48560     48559     48561         0         1
     48563     48562     48564         0         1
     48566     48565     48567         0         1
     48569     48568     48570         0         1
     48572     48571     48573         0         1
     48575     48574     48576         0         1
     48578     48577     48579         0         1
     48581     48580     48582         0         1
     48584     48583     48585         0         1
     48587     48586     48588         0         1
     48590     48589     48591         0         1
     48593     48592     48594         0         1
     48596     48595     48597         0         1
     48599     48598     48600         0         1
     48602     48601     48603         0         1
     48605     48604     48606         0         1
     48608     48607     48609         0         1
     48611     48610     48612         0         1
     48614     48613     48615         0         1
     48617     48616     48618         0         1
     48620     48619     48621         0         1
     48623     48622     48624         0         1
     48626     48625     48627         0         1
     48629     48628     48630         0         1
     48632     48631     48633         0         1
     48635     48634     48636         0         1
     48638     48637     48639         0         1
     48641     48640     48642         0         1
     48644     48643     48645         0         1
     48647     48646     48648         0         1
     48650     48649     48651         0         1
     48653     48652     48654         0         1
     48656     48655     48657         0         1
     48659     48658     48660         0         1
     48662     48661     48663         0         1
     48665     48664     48666         0         1
     48668     48667     48669         0         1
     48671     48670     48672         0         1
     48674     48673     48675         0         1
     48677     48676     48678         0         1
     48680     48679     48681         0         1
     48683     48682     48684         0         1
     48686     48685     48687         0         1
     48689     48688     48690         0         1
     48692     48691     48693         0         1
     48695     48694     48696         0         1
     48698     48697     48699         0         1
     48701     48700     48702         0         1
     48704     48703     48705         0         1
     48707     48706     48708         0         1
     48710     48709     48711         0         1
     48713     48712     48714         0         1
     48716     48715     48717         0         1
     48719     48718     48720         0         1
     48722     48721     48723         0         1
     48725     48724     48726         0         1
     48728     48727     48729         0         1
     48731     48730     48732         0         1
     48734     48733     48735         0         1
     48737     48736     48738         0         1
     48740     48739     48741         0         1
     48743     48742     48744         0         1
     48746     48745     48747         0         1
     48749     48748     48750         0         1
     48752     48751     48753         0         1
     48755     48754     48756         0         1
     48758     48757     48759         0         1
     48761     48760     48762         0         1
     48764     48763     48765         0         1
     48767     48766     48768         0         1
     48770     48769     48771         0         1
     48773     48772     48774         0         1
     48776     48775     48777         0         1
     48779     48778     48780         0         1
     48782     48781     48783         0         1
     48785     48784     48786         0         1
     48788     48787     48789         0         1
     48791     48790     48792         0         1
     48794     48793     48795         0         1
     48797     48796     48798         0         1
     48800     48799     48801         0         1
     48803     48802     48804         0         1
     48806     48805     48807         0         1
     48809     48808     48810         0         1
     48812     48811     48813         0         1
     48815     48814     48816         0         1
     48818     48817     48819         0         1
     48821     48820     48822         0         1
     48824     48823     48825         0         1
     48827     48826     48828         0         1
     48830     48829     48831         0         1
     48833     48832     48834         0         1
     48836     48835     48837         0         1
     48839     48838     48840         0         1
     48842     48841     48843         0         1
     48845     48844     48846         0         1
     48848     48847     48849         0         1
     48851     48850     48852         0         1
     48854     48853     48855         0         1
     48857     48856     48858         0         1
     48860     48859     48861         0         1
     48863     48862     48864         0         1
     48866     48865     48867         0         1
     48869     48868     48870         0         1
     48872     48871     48873         0         1
     48875     48874     48876         0         1
     48878     48877     48879         0         1
     48881     48880     48882         0         1
     48884     48883     48885         0         1
     48887     48886     48888         0         1
     48890     48889     48891         0         1
     48893     48892     48894         0         1
     48896     48895     48897         0         1
     48899     48898     48900         0         1
     48902     48901     48903         0         1
     48905     48904     48906         0         1
     48908     48907     48909         0         1
     48911     48910     48912         0         1
     48914     48913     48915         0         1
     48917     48916     48918         0         1
     48920     48919     48921         0         1
     48923     48922     48924         0         1
     48926     48925     48927         0         1
     48929     48928     48930         0         1
     48932     48931     48933         0         1
     48935     48934     48936         0         1
     48938     48937     48939         0         1
     48941     48940     48942         0         1
     48944     48943     48945         0         1
     48947     48946     48948         0         1
     48950     48949     48951         0         1
     48953     48952     48954         0         1
     48956     48955     48957         0         1
     48959     48958     48960         0         1
     48962     48961     48963         0         1
     48965     48964     48966         0         1
     48968     48967     48969         0         1
     48971     48970     48972         0         1
     48974     48973     48975         0         1
     48977     48976     48978         0         1
     48980     48979     48981         0         1
     48983     48982     48984         0         1
     48986     48985     48987         0         1
     48989     48988     48990         0         1
     48992     48991     48993         0         1
     48995     48994     48996         0         1
     48998     48997     48999         0         1
     49001     49000     49002         0         1
     49004     49003     49005         0         1
     49007     49006     49008         0         1
     49010     49009     49011         0         1
     49013     49012     49014         0         1
     49016     49015     49017         0         1
     49019     49018     49020         0         1
     49022     49021     49023         0         1
     49025     49024     49026         0         1
     49028     49027     49029         0         1
     49031     49030     49032         0         1
     49034     49033     49035         0         1
     49037     49036     49038         0         1
     49040     49039     49041         0         1
     49043     49042     49044         0         1
     49046     49045     49047         0         1
     49049     49048     49050         0         1
     49052     49051     49053         0         1
     49055     49054     49056         0         1
     49058     49057     49059         0         1
     49061     49060     49062         0         1
     49064     49063     49065         0         1
     49067     49066     49068         0         1
     49070     49069     49071         0         1
     49073     49072     49074         0         1
     49076     49075     49077         0         1
     49079     49078     49080         0         1
     49082     49081     49083         0         1
     49085     49084     49086         0         1
     49088     49087     49089         0         1
     49091     49090     49092         0         1
     49094     49093     49095         0         1
     49097     49096     49098         0         1
     49100     49099     49101         0         1
     49103     49102     49104         0         1
     49106     49105     49107         0         1
     49109     49108     49110         0         1
     49112     49111     49113         0         1
     49115     49114     49116         0         1
     49118     49117     49119         0         1
     49121     49120     49122         0         1
     49124     49123     49125         0         1
     49127     49126     49128         0         1
     49130     49129     49131         0         1
     49133     49132     49134         0         1
     49136     49135     49137         0         1
     49139     49138     49140         0         1
     49142     49141     49143         0         1
     49145     49144     49146         0         1
     49148     49147     49149         0         1
     49151     49150     49152         0         1
     49154     49153     49155         0         1
     49157     49156     49158         0         1
     49160     49159     49161         0         1
     49163     49162     49164         0         1
     49166     49165     49167         0         1
     49169     49168     49170         0         1
     49172     49171     49173         0         1
     49175     49174     49176         0         1
     49178     49177     49179         0         1
     49181     49180     49182         0         1
     49184     49183     49185         0         1
     49187     49186     49188         0         1
     49190     49189     49191         0         1
     49193     49192     49194         0         1
     49196     49195     49197         0         1
     49199     49198     49200         0         1
     49202     49201     49203         0         1
     49205     49204     49206         0         1
     49208     49207     49209         0         1
     49211     49210     49212         0         1
     49214     49213     49215         0         1
     49217     49216     49218         0         1
     49220     49219     49221         0         1
     49223     49222     49224         0         1
     49226     49225     49227         0         1
     49229     49228     49230         0         1
     49232     49231     49233         0         1
     49235     49234     49236         0         1
     49238     49237     49239         0         1
     49241     49240     49242         0         1
     49244     49243     49245         0         1
     49247     49246     49248         0         1
     49250     49249     49251         0         1
     49253     49252     49254         0         1
     49256     49255     49257         0         1
     49259     49258     49260         0         1
     49262     49261     49263         0         1
     49265     49264     49266         0         1
     49268     49267     49269         0         1
     49271     49270     49272         0         1
     49274     49273     49275         0         1
     49277     49276     49278         0         1
     49280     49279     49281         0         1
     49283     49282     49284         0         1
     49286     49285     49287         0         1
     49289     49288     49290         0         1
     49292     49291     49293         0         1
     49295     49294     49296         0         1
     49298     49297     49299         0         1
     49301     49300     49302         0         1
     49304     49303     49305         0         1
     49307     49306     49308         0         1
     49310     49309     49311         0         1
     49313     49312     49314         0         1
     49316     49315     49317         0         1
     49319     49318     49320         0         1
     49322     49321     49323         0         1
     49325     49324     49326         0         1
     49328     49327     49329         0         1
     49331     49330     49332         0         1
     49334     49333     49335         0         1
     49337     49336     49338         0         1
     49340     49339     49341         0         1
     49343     49342     49344         0         1
     49346     49345     49347         0         1
     49349     49348     49350         0         1
     49352     49351     49353         0         1
     49355     49354     49356         0         1
     49358     49357     49359         0         1
     49361     49360     49362         0         1
     49364     49363     49365         0         1
     49367     49366     49368         0         1
     49370     49369     49371         0         1
     49373     49372     49374         0         1
     49376     49375     49377         0         1
     49379     49378     49380         0         1
     49382     49381     49383         0         1
     49385     49384     49386         0         1
     49388     49387     49389         0         1
     49391     49390     49392         0         1
     49394     49393     49395         0         1
     49397     49396     49398         0         1
     49400     49399     49401         0         1
     49403     49402     49404         0         1
     49406     49405     49407         0         1
     49409     49408     49410         0         1
     49412     49411     49413         0         1
     49415     49414     49416         0         1
     49418     49417     49419         0         1
     49421     49420     49422         0         1
     49424     49423     49425         0         1
     49427     49426     49428         0         1
     49430     49429     49431         0         1
     49433     49432     49434         0         1
     49436     49435     49437         0         1
     49439     49438     49440         0         1
     49442     49441     49443         0         1
     49445     49444     49446         0         1
     49448     49447     49449         0         1
     49451     49450     49452         0         1
     49454     49453     49455         0         1
     49457     49456     49458         0         1
     49460     49459     49461         0         1
     49463     49462     49464         0         1
     49466     49465     49467         0         1
     49469     49468     49470         0         1
     49472     49471     49473         0         1
     49475     49474     49476         0         1
     49478     49477     49479         0         1
     49481     49480     49482         0         1
     49484     49483     49485         0         1
     49487     49486     49488         0         1
     49490     49489     49491         0         1
     49493     49492     49494         0         1
     49496     49495     49497         0         1
     49499     49498     49500         0         1
     49502     49501     49503         0         1
     49505     49504     49506         0         1
     49508     49507     49509         0         1
     49511     49510     49512         0         1
     49514     49513     49515         0         1
     49517     49516     49518         0         1
     49520     49519     49521         0         1
     49523     49522     49524         0         1
     49526     49525     49527         0         1
     49529     49528     49530         0         1
     49532     49531     49533         0         1
     49535     49534     49536         0         1
     49538     49537     49539         0         1
     49541     49540     49542         0         1
     49544     49543     49545         0         1
     49547     49546     49548         0         1
     49550     49549     49551         0         1
     49553     49552     49554         0         1
     49556     49555     49557         0         1
     49559     49558     49560         0         1
     49562     49561     49563         0         1
     49565     49564     49566         0         1
     49568     49567     49569         0         1
     49571     49570     49572         0         1
     49574     49573     49575         0         1
     49577     49576     49578         0         1
     49580     49579     49581         0         1
     49583     49582     49584         0         1
     49586     49585     49587         0         1
     49589     49588     49590         0         1
     49592     49591     49593         0         1
     49595     49594     49596         0         1
     49598     49597     49599         0         1
     49601     49600     49602         0         1
     49604     49603     49605         0         1
     49607     49606     49608         0         1
     49610     49609     49611         0         1
     49613     49612     49614         0         1
     49616     49615     49617         0         1
     49619     49618     49620         0         1
     49622     49621     49623         0         1
     49625     49624     49626         0         1
     49628     49627     49629         0         1
     49631     49630     49632         0         1
     49634     49633     49635         0         1
     49637     49636     49638         0         1
     49640     49639     49641         0         1
     49643     49642     49644         0         1
     49646     49645     49647         0         1
     49649     49648     49650         0         1
     49652     49651     49653         0         1
     49655     49654     49656         0         1
     49658     49657     49659         0         1
     49661     49660     49662         0         1
     49664     49663     49665         0         1
     49667     49666     49668         0         1
     49670     49669     49671         0         1
     49673     49672     49674         0         1
     49676     49675     49677         0         1
     49679     49678     49680         0         1
     49682     49681     49683         0         1
     49685     49684     49686         0         1
     49688     49687     49689         0         1
     49691     49690     49692         0         1
     49694     49693     49695         0         1
     49697     49696     49698         0         1
     49700     49699     49701         0         1
     49703     49702     49704         0         1
     49706     49705     49707         0         1
     49709     49708     49710         0         1
     49712     49711     49713         0         1
     49715     49714     49716         0         1
     49718     49717     49719         0         1
     49721     49720     49722         0         1
     49724     49723     49725         0         1
     49727     49726     49728         0         1
     49730     49729     49731         0         1
     49733     49732     49734         0         1
     49736     49735     49737         0         1
     49739     49738     49740         0         1
     49742     49741     49743         0         1
     49745     49744     49746         0         1
     49748     49747     49749         0         1
     49751     49750     49752         0         1
     49754     49753     49755         0         1
     49757     49756     49758         0         1
     49760     49759     49761         0         1
     49763     49762     49764         0         1
     49766     49765     49767         0         1
     49769     49768     49770         0         1
     49772     49771     49773         0         1
     49775     49774     49776         0         1
     49778     49777     49779         0         1
     49781     49780     49782         0         1
     49784     49783     49785         0         1
     49787     49786     49788         0         1
     49790     49789     49791         0         1
     49793     49792     49794         0         1
     49796     49795     49797         0         1
     49799     49798     49800         0         1
     49802     49801     49803         0         1
     49805     49804     49806         0         1
     49808     49807     49809         0         1
     49811     49810     49812         0         1
     49814     49813     49815         0         1
     49817     49816     49818         0         1
     49820     49819     49821         0         1
     49823     49822     49824         0         1
     49826     49825     49827         0         1
     49829     49828     49830         0         1
     49832     49831     49833         0         1
     49835     49834     49836         0         1
     49838     49837     49839         0         1
     49841     49840     49842         0         1
     49844     49843     49845         0         1
     49847     49846     49848         0         1
     49850     49849     49851         0         1
     49853     49852     49854         0         1
     49856     49855     49857         0         1
     49859     49858     49860         0         1
     49862     49861     49863         0         1
     49865     49864     49866         0         1
     49868     49867     49869         0         1
     49871     49870     49872         0         1
     49874     49873     49875         0         1
     49877     49876     49878         0         1
     49880     49879     49881         0         1
     49883     49882     49884         0         1
     49886     49885     49887         0         1
     49889     49888     49890         0         1
     49892     49891     49893         0         1
     49895     49894     49896         0         1
     49898     49897     49899         0         1
     49901     49900     49902         0         1
     49904     49903     49905         0         1
     49907     49906     49908         0         1
     49910     49909     49911         0         1
     49913     49912     49914         0         1
     49916     49915     49917         0         1
     49919     49918     49920         0         1
     49922     49921     49923         0         1
     49925     49924     49926         0         1
     49928     49927     49929         0         1
     49931     49930     49932         0         1
     49934     49933     49935         0         1
     49937     49936     49938         0         1
     49940     49939     49941         0         1
     49943     49942     49944         0         1
     49946     49945     49947         0         1
     49949     49948     49950         0         1
     49952     49951     49953         0         1
     49955     49954     49956         0         1
     49958     49957     49959         0         1
     49961     49960     49962         0         1
     49964     49963     49965         0         1
     49967     49966     49968         0         1
     49970     49969     49971         0         1
     49973     49972     49974         0         1
     49976     49975     49977         0         1
     49979     49978     49980         0         1
     49982     49981     49983         0         1
     49985     49984     49986         0         1
     49988     49987     49989         0         1
     49991     49990     49992         0         1
     49994     49993     49995         0         1
     49997     49996     49998         0         1
     50000     49999     50001         0         1
     50003     50002     50004         0         1
     50006     50005     50007         0         1
     50009     50008     50010         0         1
     50012     50011     50013         0         1
     50015     50014     50016         0         1
     50018     50017     50019         0         1
     50021     50020     50022         0         1
     50024     50023     50025         0         1
     50027     50026     50028         0         1
     50030     50029     50031         0         1
     50033     50032     50034         0         1
     50036     50035     50037         0         1
     50039     50038     50040         0         1
     50042     50041     50043         0         1
     50045     50044     50046         0         1
     50048     50047     50049         0         1
     50051     50050     50052         0         1
     50054     50053     50055         0         1
     50057     50056     50058         0         1
     50060     50059     50061         0         1
     50063     50062     50064         0         1
     50066     50065     50067         0         1
     50069     50068     50070         0         1
     50072     50071     50073         0         1
     50075     50074     50076         0         1
     50078     50077     50079         0         1
     50081     50080     50082         0         1
     50084     50083     50085         0         1
     50087     50086     50088         0         1
     50090     50089     50091         0         1
     50093     50092     50094         0         1
     50096     50095     50097         0         1
     50099     50098     50100         0         1
     50102     50101     50103         0         1
     50105     50104     50106         0         1
     50108     50107     50109         0         1
     50111     50110     50112         0         1
     50114     50113     50115         0         1
     50117     50116     50118         0         1
     50120     50119     50121         0         1
     50123     50122     50124         0         1
     50126     50125     50127         0         1
     50129     50128     50130         0         1
     50132     50131     50133         0         1
     50135     50134     50136         0         1
     50138     50137     50139         0         1
     50141     50140     50142         0         1
     50144     50143     50145         0         1
     50147     50146     50148         0         1
     50150     50149     50151         0         1
     50153     50152     50154         0         1
     50156     50155     50157         0         1
     50159     50158     50160         0         1
     50162     50161     50163         0         1
     50165     50164     50166         0         1
     50168     50167     50169         0         1
     50171     50170     50172         0         1
     50174     50173     50175         0         1
     50177     50176     50178         0         1
     50180     50179     50181         0         1
     50183     50182     50184         0         1
     50186     50185     50187         0         1
     50189     50188     50190         0         1
     50192     50191     50193         0         1
     50195     50194     50196         0         1
     50198     50197     50199         0         1
     50201     50200     50202         0         1
     50204     50203     50205         0         1
     50207     50206     50208         0         1
     50210     50209     50211         0         1
     50213     50212     50214         0         1
     50216     50215     50217         0         1
     50219     50218     50220         0         1
     50222     50221     50223         0         1
     50225     50224     50226         0         1
     50228     50227     50229         0         1
     50231     50230     50232         0         1
     50234     50233     50235         0         1
     50237     50236     50238         0         1
     50240     50239     50241         0         1
     50243     50242     50244         0         1
     50246     50245     50247         0         1
     50249     50248     50250         0         1
     50252     50251     50253         0         1
     50255     50254     50256         0         1
     50258     50257     50259         0         1
     50261     50260     50262         0         1
     50264     50263     50265         0         1
     50267     50266     50268         0         1
     50270     50269     50271         0         1
     50273     50272     50274         0         1
     50276     50275     50277         0         1
     50279     50278     50280         0         1
     50282     50281     50283         0         1
     50285     50284     50286         0         1
     50288     50287     50289         0         1
     50291     50290     50292         0         1
     50294     50293     50295         0         1
     50297     50296     50298         0         1
     50300     50299     50301         0         1
     50303     50302     50304         0         1
     50306     50305     50307         0         1
     50309     50308     50310         0         1
     50312     50311     50313         0         1
     50315     50314     50316         0         1
     50318     50317     50319         0         1
     50321     50320     50322         0         1
     50324     50323     50325         0         1
     50327     50326     50328         0         1
     50330     50329     50331         0         1
     50333     50332     50334         0         1
     50336     50335     50337         0         1
     50339     50338     50340         0         1
     50342     50341     50343         0         1
     50345     50344     50346         0         1
     50348     50347     50349         0         1
     50351     50350     50352         0         1
     50354     50353     50355         0         1
     50357     50356     50358         0         1
     50360     50359     50361         0         1
     50363     50362     50364         0         1
     50366     50365     50367         0         1
     50369     50368     50370         0         1
     50372     50371     50373         0         1
     50375     50374     50376         0         1
     50378     50377     50379         0         1
     50381     50380     50382         0         1
     50384     50383     50385         0         1
     50387     50386     50388         0         1
     50390     50389     50391         0         1
     50393     50392     50394         0         1
     50396     50395     50397         0         1
     50399     50398     50400         0         1
     50402     50401     50403         0         1
     50405     50404     50406         0         1
     50408     50407     50409         0         1
     50411     50410     50412         0         1
     50414     50413     50415         0         1
     50417     50416     50418         0         1
     50420     50419     50421         0         1
     50423     50422     50424         0         1
     50426     50425     50427         0         1
     50429     50428     50430         0         1
     50432     50431     50433         0         1
     50435     50434     50436         0         1
     50438     50437     50439         0         1
     50441     50440     50442         0         1
     50444     50443     50445         0         1
     50447     50446     50448         0         1
     50450     50449     50451         0         1
     50453     50452     50454         0         1
     50456     50455     50457         0         1
     50459     50458     50460         0         1
     50462     50461     50463         0         1
     50465     50464     50466         0         1
     50468     50467     50469         0         1
     50471     50470     50472         0         1
     50474     50473     50475         0         1
     50477     50476     50478         0         1
     50480     50479     50481         0         1
     50483     50482     50484         0         1
     50486     50485     50487         0         1
     50489     50488     50490         0         1
     50492     50491     50493         0         1
     50495     50494     50496         0         1
     50498     50497     50499         0         1
     50501     50500     50502         0         1
     50504     50503     50505         0         1
     50507     50506     50508         0         1
     50510     50509     50511         0         1
     50513     50512     50514         0         1
     50516     50515     50517         0         1
     50519     50518     50520         0         1
     50522     50521     50523         0         1
     50525     50524     50526         0         1
     50528     50527     50529         0         1
     50531     50530     50532         0         1
     50534     50533     50535         0         1
     50537     50536     50538         0         1
     50540     50539     50541         0         1
     50543     50542     50544         0         1
     50546     50545     50547         0         1
     50549     50548     50550         0         1
     50552     50551     50553         0         1
     50555     50554     50556         0         1
     50558     50557     50559         0         1
     50561     50560     50562         0         1
     50564     50563     50565         0         1
     50567     50566     50568         0         1
     50570     50569     50571         0         1
     50573     50572     50574         0         1
     50576     50575     50577         0         1
     50579     50578     50580         0         1
     50582     50581     50583         0         1
     50585     50584     50586         0         1
     50588     50587     50589         0         1
     50591     50590     50592         0         1
     50594     50593     50595         0         1
     50597     50596     50598         0         1
     50600     50599     50601         0         1
     50603     50602     50604         0         1
     50606     50605     50607         0         1
     50609     50608     50610         0         1
     50612     50611     50613         0         1
     50615     50614     50616         0         1
     50618     50617     50619         0         1
     50621     50620     50622         0         1
     50624     50623     50625         0         1
     50627     50626     50628         0         1
     50630     50629     50631         0         1
     50633     50632     50634         0         1
     50636     50635     50637         0         1
     50639     50638     50640         0         1
     50642     50641     50643         0         1
     50645     50644     50646         0         1
     50648     50647     50649         0         1
     50651     50650     50652         0         1
     50654     50653     50655         0         1
     50657     50656     50658         0         1
     50660     50659     50661         0         1
     50663     50662     50664         0         1
     50666     50665     50667         0         1
     50669     50668     50670         0         1
     50672     50671     50673         0         1
     50675     50674     50676         0         1
     50678     50677     50679         0         1
     50681     50680     50682         0         1
     50684     50683     50685         0         1
     50687     50686     50688         0         1
     50690     50689     50691         0         1
     50693     50692     50694         0         1
     50696     50695     50697         0         1
     50699     50698     50700         0         1
     50702     50701     50703         0         1
     50705     50704     50706         0         1
     50708     50707     50709         0         1
     50711     50710     50712         0         1
     50714     50713     50715         0         1
     50717     50716     50718         0         1
     50720     50719     50721         0         1
     50723     50722     50724         0         1
     50726     50725     50727         0         1
     50729     50728     50730         0         1
     50732     50731     50733         0         1
     50735     50734     50736         0         1
     50738     50737     50739         0         1
     50741     50740     50742         0         1
     50744     50743     50745         0         1
     50747     50746     50748         0         1
     50750     50749     50751         0         1
     50753     50752     50754         0         1
     50756     50755     50757         0         1
     50759     50758     50760         0         1
     50762     50761     50763         0         1
     50765     50764     50766         0         1
     50768     50767     50769         0         1
     50771     50770     50772         0         1
     50774     50773     50775         0         1
     50777     50776     50778         0         1
     50780     50779     50781         0         1
     50783     50782     50784         0         1
     50786     50785     50787         0         1
     50789     50788     50790         0         1
     50792     50791     50793         0         1
     50795     50794     50796         0         1
     50798     50797     50799         0         1
     50801     50800     50802         0         1
     50804     50803     50805         0         1
     50807     50806     50808         0         1
     50810     50809     50811         0         1
     50813     50812     50814         0         1
     50816     50815     50817         0         1
     50819     50818     50820         0         1
     50822     50821     50823         0         1
     50825     50824     50826         0         1
     50828     50827     50829         0         1
     50831     50830     50832         0         1
     50834     50833     50835         0         1
     50837     50836     50838         0         1
     50840     50839     50841         0         1
     50843     50842     50844         0         1
     50846     50845     50847         0         1
     50849     50848     50850         0         1
     50852     50851     50853         0         1
     50855     50854     50856         0         1
     50858     50857     50859         0         1
     50861     50860     50862         0         1
     50864     50863     50865         0         1
     50867     50866     50868         0         1
     50870     50869     50871         0         1
     50873     50872     50874         0         1
     50876     50875     50877         0         1
     50879     50878     50880         0         1
     50882     50881     50883         0         1
     50885     50884     50886         0         1
     50888     50887     50889         0         1
     50891     50890     50892         0         1
     50894     50893     50895         0         1
     50897     50896     50898         0         1
     50900     50899     50901         0         1
     50903     50902     50904         0         1
     50906     50905     50907         0         1
     50909     50908     50910         0         1
     50912     50911     50913         0         1
     50915     50914     50916         0         1
     50918     50917     50919         0         1
     50921     50920     50922         0         1
     50924     50923     50925         0         1
     50927     50926     50928         0         1
     50930     50929     50931         0         1
     50933     50932     50934         0         1
     50936     50935     50937         0         1
     50939     50938     50940         0         1
     50942     50941     50943         0         1
     50945     50944     50946         0         1
     50948     50947     50949         0         1
     50951     50950     50952         0         1
     50954     50953     50955         0         1
     50957     50956     50958         0         1
     50960     50959     50961         0         1
     50963     50962     50964         0         1
     50966     50965     50967         0         1
     50969     50968     50970         0         1
     50972     50971     50973         0         1
     50975     50974     50976         0         1
     50978     50977     50979         0         1
     50981     50980     50982         0         1
     50984     50983     50985         0         1
     50987     50986     50988         0         1
     50990     50989     50991         0         1
     50993     50992     50994         0         1
     50996     50995     50997         0         1
     50999     50998     51000         0         1
     51002     51001     51003         0         1
     51005     51004     51006         0         1
     51008     51007     51009         0         1
     51011     51010     51012         0         1
     51014     51013     51015         0         1
     51017     51016     51018         0         1
     51020     51019     51021         0         1
     51023     51022     51024         0         1
     51026     51025     51027         0         1
     51029     51028     51030         0         1
     51032     51031     51033         0         1
     51035     51034     51036         0         1
     51038     51037     51039         0         1
     51041     51040     51042         0         1
     51044     51043     51045         0         1
     51047     51046     51048         0         1
     51050     51049     51051         0         1
     51053     51052     51054         0         1
     51056     51055     51057         0         1
     51059     51058     51060         0         1
     51062     51061     51063         0         1
     51065     51064     51066         0         1
     51068     51067     51069         0         1
     51071     51070     51072         0         1
     51074     51073     51075         0         1
     51077     51076     51078         0         1
     51080     51079     51081         0         1
     51083     51082     51084         0         1
     51086     51085     51087         0         1
     51089     51088     51090         0         1
     51092     51091     51093         0         1
     51095     51094     51096         0         1
     51098     51097     51099         0         1
     51101     51100     51102         0         1
     51104     51103     51105         0         1
     51107     51106     51108         0         1
     51110     51109     51111         0         1
     51113     51112     51114         0         1
     51116     51115     51117         0         1
     51119     51118     51120         0         1
     51122     51121     51123         0         1
     51125     51124     51126         0         1
     51128     51127     51129         0         1
     51131     51130     51132         0         1
     51134     51133     51135         0         1
     51137     51136     51138         0         1
     51140     51139     51141         0         1
     51143     51142     51144         0         1
     51146     51145     51147         0         1
     51149     51148     51150         0         1
     51152     51151     51153         0         1
     51155     51154     51156         0         1
     51158     51157     51159         0         1
     51161     51160     51162         0         1
     51164     51163     51165         0         1
     51167     51166     51168         0         1
     51170     51169     51171         0         1
     51173     51172     51174         0         1
     51176     51175     51177         0         1
     51179     51178     51180         0         1
     51182     51181     51183         0         1
     51185     51184     51186         0         1
     51188     51187     51189         0         1
     51191     51190     51192         0         1
     51194     51193     51195         0         1
     51197     51196     51198         0         1
     51200     51199     51201         0         1
     51203     51202     51204         0         1
     51206     51205     51207         0         1
     51209     51208     51210         0         1
     51212     51211     51213         0         1
     51215     51214     51216         0         1
     51218     51217     51219         0         1
     51221     51220     51222         0         1
     51224     51223     51225         0         1
     51227     51226     51228         0         1
     51230     51229     51231         0         1
     51233     51232     51234         0         1
     51236     51235     51237         0         1
     51239     51238     51240         0         1
     51242     51241     51243         0         1
     51245     51244     51246         0         1
     51248     51247     51249         0         1
     51251     51250     51252         0         1
     51254     51253     51255         0         1
     51257     51256     51258         0         1
     51260     51259     51261         0         1
     51263     51262     51264         0         1
     51266     51265     51267         0         1
     51269     51268     51270         0         1
     51272     51271     51273         0         1
     51275     51274     51276         0         1
     51278     51277     51279         0         1
     51281     51280     51282         0         1
     51284     51283     51285         0         1
     51287     51286     51288         0         1
     51290     51289     51291         0         1
     51293     51292     51294         0         1
     51296     51295     51297         0         1
     51299     51298     51300         0         1
     51302     51301     51303         0         1
     51305     51304     51306         0         1
     51308     51307     51309         0         1
     51311     51310     51312         0         1
     51314     51313     51315         0         1
     51317     51316     51318         0         1
     51320     51319     51321         0         1
     51323     51322     51324         0         1
     51326     51325     51327         0         1
     51329     51328     51330         0         1
     51332     51331     51333         0         1
     51335     51334     51336         0         1
     51338     51337     51339         0         1
     51341     51340     51342         0         1
     51344     51343     51345         0         1
     51347     51346     51348         0         1
     51350     51349     51351         0         1
     51353     51352     51354         0         1
     51356     51355     51357         0         1
     51359     51358     51360         0         1
     51362     51361     51363         0         1
     51365     51364     51366         0         1
     51368     51367     51369         0         1
     51371     51370     51372         0         1
     51374     51373     51375         0         1
     51377     51376     51378         0         1
     51380     51379     51381         0         1
     51383     51382     51384         0         1
     51386     51385     51387         0         1
     51389     51388     51390         0         1
     51392     51391     51393         0         1
     51395     51394     51396         0         1
     51398     51397     51399         0         1
     51401     51400     51402         0         1
     51404     51403     51405         0         1
     51407     51406     51408         0         1
     51410     51409     51411         0         1
     51413     51412     51414         0         1
     51416     51415     51417         0         1
     51419     51418     51420         0         1
     51422     51421     51423         0         1
     51425     51424     51426         0         1
     51428     51427     51429         0         1
     51431     51430     51432         0         1
     51434     51433     51435         0         1
     51437     51436     51438         0         1
     51440     51439     51441         0         1
     51443     51442     51444         0         1
     51446     51445     51447         0         1
     51449     51448     51450         0         1
     51452     51451     51453         0         1
     51455     51454     51456         0         1
     51458     51457     51459         0         1
     51461     51460     51462         0         1
     51464     51463     51465         0         1
     51467     51466     51468         0         1
     51470     51469     51471         0         1
     51473     51472     51474         0         1
     51476     51475     51477         0         1
     51479     51478     51480         0         1
     51482     51481     51483         0         1
     51485     51484     51486         0         1
     51488     51487     51489         0         1
     51491     51490     51492         0         1
     51494     51493     51495         0         1
     51497     51496     51498         0         1
     51500     51499     51501         0         1
     51503     51502     51504         0         1
     51506     51505     51507         0         1
     51509     51508     51510         0         1
     51512     51511     51513         0         1
     51515     51514     51516         0         1
     51518     51517     51519         0         1
     51521     51520     51522         0         1
     51524     51523     51525         0         1
     51527     51526     51528         0         1
     51530     51529     51531         0         1
     51533     51532     51534         0         1
     51536     51535     51537         0         1
     51539     51538     51540         0         1
     51542     51541     51543         0         1
     51545     51544     51546         0         1
     51548     51547     51549         0         1
     51551     51550     51552         0         1
     51554     51553     51555         0         1
     51557     51556     51558         0         1
     51560     51559     51561         0         1
     51563     51562     51564         0         1
     51566     51565     51567         0         1
     51569     51568     51570         0         1
     51572     51571     51573         0         1
     51575     51574     51576         0         1
     51578     51577     51579         0         1
     51581     51580     51582         0         1
     51584     51583     51585         0         1
     51587     51586     51588         0         1
     51590     51589     51591         0         1
     51593     51592     51594         0         1
     51596     51595     51597         0         1
     51599     51598     51600         0         1
     51602     51601     51603         0         1
     51605     51604     51606         0         1
     51608     51607     51609         0         1
     51611     51610     51612         0         1
     51614     51613     51615         0         1
     51617     51616     51618         0         1
     51620     51619     51621         0         1
     51623     51622     51624         0         1
     51626     51625     51627         0         1
     51629     51628     51630         0         1
     51632     51631     51633         0         1
     51635     51634     51636         0         1
     51638     51637     51639         0         1
     51641     51640     51642         0         1
     51644     51643     51645         0         1
     51647     51646     51648         0         1
     51650     51649     51651         0         1
     51653     51652     51654         0         1
     51656     51655     51657         0         1
     51659     51658     51660         0         1
     51662     51661     51663         0         1
     51665     51664     51666         0         1
     51668     51667     51669         0         1
     51671     51670     51672         0         1
     51674     51673     51675         0         1
     51677     51676     51678         0         1
     51680     51679     51681         0         1
     51683     51682     51684         0         1
     51686     51685     51687         0         1
     51689     51688     51690         0         1
     51692     51691     51693         0         1
     51695     51694     51696         0         1
     51698     51697     51699         0         1
     51701     51700     51702         0         1
     51704     51703     51705         0         1
     51707     51706     51708         0         1
     51710     51709     51711         0         1
     51713     51712     51714         0         1
     51716     51715     51717         0         1
     51719     51718     51720         0         1
     51722     51721     51723         0         1
     51725     51724     51726         0         1
     51728     51727     51729         0         1
     51731     51730     51732         0         1
     51734     51733     51735         0         1
     51737     51736     51738         0         1
     51740     51739     51741         0         1
     51743     51742     51744         0         1
     51746     51745     51747         0         1
     51749     51748     51750         0         1
     51752     51751     51753         0         1
     51755     51754     51756         0         1
     51758     51757     51759         0         1
     51761     51760     51762         0         1
     51764     51763     51765         0         1
     51767     51766     51768         0         1
     51770     51769     51771         0         1
     51773     51772     51774         0         1
     51776     51775     51777         0         1
     51779     51778     51780         0         1
     51782     51781     51783         0         1
     51785     51784     51786         0         1
     51788     51787     51789         0         1
     51791     51790     51792         0         1
     51794     51793     51795         0         1
     51797     51796     51798         0         1
     51800     51799     51801         0         1
     51803     51802     51804         0         1
     51806     51805     51807         0         1
     51809     51808     51810         0         1
     51812     51811     51813         0         1
     51815     51814     51816         0         1
     51818     51817     51819         0         1
     51821     51820     51822         0         1
     51824     51823     51825         0         1
     51827     51826     51828         0         1
     51830     51829     51831         0         1
     51833     51832     51834         0         1
     51836     51835     51837         0         1
     51839     51838     51840         0         1
     51842     51841     51843         0         1
     51845     51844     51846         0         1
     51848     51847     51849         0         1
     51851     51850     51852         0         1
     51854     51853     51855         0         1
     51857     51856     51858         0         1
     51860     51859     51861         0         1
     51863     51862     51864         0         1
     51866     51865     51867         0         1
     51869     51868     51870         0         1
     51872     51871     51873         0         1
     51875     51874     51876         0         1
     51878     51877     51879         0         1
     51881     51880     51882         0         1
     51884     51883     51885         0         1
     51887     51886     51888         0         1
     51890     51889     51891         0         1
     51893     51892     51894         0         1
     51896     51895     51897         0         1
     51899     51898     51900         0         1
     51902     51901     51903         0         1
     51905     51904     51906         0         1
     51908     51907     51909         0         1
     51911     51910     51912         0         1
     51914     51913     51915         0         1
     51917     51916     51918         0         1
     51920     51919     51921         0         1
     51923     51922     51924         0         1
     51926     51925     51927         0         1
     51929     51928     51930         0         1
     51932     51931     51933         0         1
     51935     51934     51936         0         1
     51938     51937     51939         0         1
     51941     51940     51942         0         1
     51944     51943     51945         0         1
     51947     51946     51948         0         1
     51950     51949     51951         0         1
     51953     51952     51954         0         1
     51956     51955     51957         0         1
     51959     51958     51960         0         1
     51962     51961     51963         0         1
     51965     51964     51966         0         1
     51968     51967     51969         0         1
     51971     51970     51972         0         1
     51974     51973     51975         0         1
     51977     51976     51978         0         1
     51980     51979     51981         0         1
     51983     51982     51984         0         1
     51986     51985     51987         0         1
     51989     51988     51990         0         1
     51992     51991     51993         0         1
     51995     51994     51996         0         1
     51998     51997     51999         0         1
     52001     52000     52002         0         1
     52004     52003     52005         0         1
     52007     52006     52008         0         1
     52010     52009     52011         0         1
     52013     52012     52014         0         1
     52016     52015     52017         0         1
     52019     52018     52020         0         1
     52022     52021     52023         0         1
     52025     52024     52026         0         1
     52028     52027     52029         0         1
     52031     52030     52032         0         1
     52034     52033     52035         0         1
     52037     52036     52038         0         1
     52040     52039     52041         0         1
     52043     52042     52044         0         1
     52046     52045     52047         0         1
     52049     52048     52050         0         1
     52052     52051     52053         0         1
     52055     52054     52056         0         1
     52058     52057     52059         0         1
     52061     52060     52062         0         1
     52064     52063     52065         0         1
     52067     52066     52068         0         1
     52070     52069     52071         0         1
     52073     52072     52074         0         1
     52076     52075     52077         0         1
     52079     52078     52080         0         1
     52082     52081     52083         0         1
     52085     52084     52086         0         1
     52088     52087     52089         0         1
     52091     52090     52092         0         1
     52094     52093     52095         0         1
     52097     52096     52098         0         1
     52100     52099     52101         0         1
     52103     52102     52104         0         1
     52106     52105     52107         0         1
     52109     52108     52110         0         1
     52112     52111     52113         0         1
     52115     52114     52116         0         1
     52118     52117     52119         0         1
     52121     52120     52122         0         1
     52124     52123     52125         0         1
     52127     52126     52128         0         1
     52130     52129     52131         0         1
     52133     52132     52134         0         1
     52136     52135     52137         0         1
     52139     52138     52140         0         1
     52142     52141     52143         0         1
     52145     52144     52146         0         1
     52148     52147     52149         0         1
     52151     52150     52152         0         1
     52154     52153     52155         0         1
     52157     52156     52158         0         1
     52160     52159     52161         0         1
     52163     52162     52164         0         1
     52166     52165     52167         0         1
     52169     52168     52170         0         1
     52172     52171     52173         0         1
     52175     52174     52176         0         1
     52178     52177     52179         0         1
     52181     52180     52182         0         1
     52184     52183     52185         0         1
     52187     52186     52188         0         1
     52190     52189     52191         0         1
     52193     52192     52194         0         1
     52196     52195     52197         0         1
     52199     52198     52200         0         1
     52202     52201     52203         0         1
     52205     52204     52206         0         1
     52208     52207     52209         0         1
     52211     52210     52212         0         1
     52214     52213     52215         0         1
     52217     52216     52218         0         1
     52220     52219     52221         0         1
     52223     52222     52224         0         1
     52226     52225     52227         0         1
     52229     52228     52230         0         1
     52232     52231     52233         0         1
     52235     52234     52236         0         1
     52238     52237     52239         0         1
     52241     52240     52242         0         1
     52244     52243     52245         0         1
     52247     52246     52248         0         1
     52250     52249     52251         0         1
     52253     52252     52254         0         1
     52256     52255     52257         0         1
     52259     52258     52260         0         1
     52262     52261     52263         0         1
     52265     52264     52266         0         1
     52268     52267     52269         0         1
     52271     52270     52272         0         1
     52274     52273     52275         0         1
     52277     52276     52278         0         1
     52280     52279     52281         0         1
     52283     52282     52284         0         1
     52286     52285     52287         0         1
     52289     52288     52290         0         1
     52292     52291     52293         0         1
     52295     52294     52296         0         1
     52298     52297     52299         0         1
     52301     52300     52302         0         1
     52304     52303     52305         0         1
     52307     52306     52308         0         1
     52310     52309     52311         0         1
     52313     52312     52314         0         1
     52316     52315     52317         0         1
     52319     52318     52320         0         1
     52322     52321     52323         0         1
     52325     52324     52326         0         1
     52328     52327     52329         0         1
     52331     52330     52332         0         1
     52334     52333     52335         0         1
     52337     52336     52338         0         1
     52340     52339     52341         0         1
     52343     52342     52344         0         1
     52346     52345     52347         0         1
     52349     52348     52350         0         1
     52352     52351     52353         0         1
     52355     52354     52356         0         1
     52358     52357     52359         0         1
     52361     52360     52362         0         1
     52364     52363     52365         0         1
     52367     52366     52368         0         1
     52370     52369     52371         0         1
     52373     52372     52374         0         1
     52376     52375     52377         0         1
     52379     52378     52380         0         1
     52382     52381     52383         0         1
     52385     52384     52386         0         1
     52388     52387     52389         0         1
     52391     52390     52392         0         1
     52394     52393     52395         0         1
     52397     52396     52398         0         1
     52400     52399     52401         0         1
     52403     52402     52404         0         1
     52406     52405     52407         0         1
     52409     52408     52410         0         1
     52412     52411     52413         0         1
     52415     52414     52416         0         1
     52418     52417     52419         0         1
     52421     52420     52422         0         1
     52424     52423     52425         0         1
     52427     52426     52428         0         1
     52430     52429     52431         0         1
     52433     52432     52434         0         1
     52436     52435     52437         0         1
     52439     52438     52440         0         1
     52442     52441     52443         0         1
     52445     52444     52446         0         1
     52448     52447     52449         0         1
     52451     52450     52452         0         1
     52454     52453     52455         0         1
     52457     52456     52458         0         1
     52460     52459     52461         0         1
     52463     52462     52464         0         1
     52466     52465     52467         0         1
     52469     52468     52470         0         1
     52472     52471     52473         0         1
     52475     52474     52476         0         1
     52478     52477     52479         0         1
     52481     52480     52482         0         1
     52484     52483     52485         0         1
     52487     52486     52488         0         1
     52490     52489     52491         0         1
     52493     52492     52494         0         1
     52496     52495     52497         0         1
     52499     52498     52500         0         1
     52502     52501     52503         0         1
     52505     52504     52506         0         1
     52508     52507     52509         0         1
     52511     52510     52512         0         1
     52514     52513     52515         0         1
     52517     52516     52518         0         1
     52520     52519     52521         0         1
     52523     52522     52524         0         1
     52526     52525     52527         0         1
     52529     52528     52530         0         1
     52532     52531     52533         0         1
     52535     52534     52536         0         1
     52538     52537     52539         0         1
     52541     52540     52542         0         1
     52544     52543     52545         0         1
     52547     52546     52548         0         1
     52550     52549     52551         0         1
     52553     52552     52554         0         1
     52556     52555     52557         0         1
     52559     52558     52560         0         1
     52562     52561     52563         0         1
     52565     52564     52566         0         1
     52568     52567     52569         0         1
     52571     52570     52572         0         1
     52574     52573     52575         0         1
     52577     52576     52578         0         1
     52580     52579     52581         0         1
     52583     52582     52584         0         1
     52586     52585     52587         0         1
     52589     52588     52590         0         1
     52592     52591     52593         0         1
     52595     52594     52596         0         1
     52598     52597     52599         0         1
     52601     52600     52602         0         1
     52604     52603     52605         0         1
     52607     52606     52608         0         1
     52610     52609     52611         0         1
     52613     52612     52614         0         1
     52616     52615     52617         0         1
     52619     52618     52620         0         1
     52622     52621     52623         0         1
     52625     52624     52626         0         1
     52628     52627     52629         0         1
     52631     52630     52632         0         1
     52634     52633     52635         0         1
     52637     52636     52638         0         1
     52640     52639     52641         0         1
     52643     52642     52644         0         1
     52646     52645     52647         0         1
     52649     52648     52650         0         1
     52652     52651     52653         0         1
     52655     52654     52656         0         1
     52658     52657     52659         0         1
     52661     52660     52662         0         1
     52664     52663     52665         0         1
     52667     52666     52668         0         1
     52670     52669     52671         0         1
     52673     52672     52674         0         1
     52676     52675     52677         0         1
     52679     52678     52680         0         1
     52682     52681     52683         0         1
     52685     52684     52686         0         1
     52688     52687     52689         0         1
     52691     52690     52692         0         1
     52694     52693     52695         0         1
     52697     52696     52698         0         1
     52700     52699     52701         0         1
     52703     52702     52704         0         1
     52706     52705     52707         0         1
     52709     52708     52710         0         1
     52712     52711     52713         0         1
     52715     52714     52716         0         1
     52718     52717     52719         0         1
     52721     52720     52722         0         1
     52724     52723     52725         0         1
     52727     52726     52728         0         1
     52730     52729     52731         0         1
     52733     52732     52734         0         1
     52736     52735     52737         0         1
     52739     52738     52740         0         1
     52742     52741     52743         0         1
     52745     52744     52746         0         1
     52748     52747     52749         0         1
     52751     52750     52752         0         1
     52754     52753     52755         0         1
     52757     52756     52758         0         1
     52760     52759     52761         0         1
     52763     52762     52764         0         1
     52766     52765     52767         0         1
     52769     52768     52770         0         1
     52772     52771     52773         0         1
     52775     52774     52776         0         1
     52778     52777     52779         0         1
     52781     52780     52782         0         1
     52784     52783     52785         0         1
     52787     52786     52788         0         1
     52790     52789     52791         0         1
     52793     52792     52794         0         1
     52796     52795     52797         0         1
     52799     52798     52800         0         1
     52802     52801     52803         0         1
     52805     52804     52806         0         1
     52808     52807     52809         0         1
     52811     52810     52812         0         1
     52814     52813     52815         0         1
     52817     52816     52818         0         1
     52820     52819     52821         0         1
     52823     52822     52824         0         1
     52826     52825     52827         0         1
     52829     52828     52830         0         1
     52832     52831     52833         0         1
     52835     52834     52836         0         1
     52838     52837     52839         0         1
     52841     52840     52842         0         1
     52844     52843     52845         0         1
     52847     52846     52848         0         1
     52850     52849     52851         0         1
     52853     52852     52854         0         1
     52856     52855     52857         0         1
     52859     52858     52860         0         1
     52862     52861     52863         0         1
     52865     52864     52866         0         1
     52868     52867     52869         0         1
     52871     52870     52872         0         1
     52874     52873     52875         0         1
     52877     52876     52878         0         1
     52880     52879     52881         0         1
     52883     52882     52884         0         1
     52886     52885     52887         0         1
     52889     52888     52890         0         1
     52892     52891     52893         0         1
     52895     52894     52896         0         1
     52898     52897     52899         0         1
     52901     52900     52902         0         1
     52904     52903     52905         0         1
     52907     52906     52908         0         1
     52910     52909     52911         0         1
     52913     52912     52914         0         1
     52916     52915     52917         0         1
     52919     52918     52920         0         1
     52922     52921     52923         0         1
     52925     52924     52926         0         1
     52928     52927     52929         0         1
     52931     52930     52932         0         1
     52934     52933     52935         0         1
     52937     52936     52938         0         1
     52940     52939     52941         0         1
     52943     52942     52944         0         1
     52946     52945     52947         0         1
     52949     52948     52950         0         1
     52952     52951     52953         0         1
     52955     52954     52956         0         1
     52958     52957     52959         0         1
     52961     52960     52962         0         1
     52964     52963     52965         0         1
     52967     52966     52968         0         1
     52970     52969     52971         0         1
     52973     52972     52974         0         1
     52976     52975     52977         0         1
     52979     52978     52980         0         1
     52982     52981     52983         0         1
     52985     52984     52986         0         1
     52988     52987     52989         0         1
     52991     52990     52992         0         1
     52994     52993     52995         0         1
     52997     52996     52998         0         1
     53000     52999     53001         0         1
     53003     53002     53004         0         1
     53006     53005     53007         0         1
     53009     53008     53010         0         1
     53012     53011     53013         0         1
     53015     53014     53016         0         1
     53018     53017     53019         0         1
     53021     53020     53022         0         1
     53024     53023     53025         0         1
     53027     53026     53028         0         1
     53030     53029     53031         0         1
     53033     53032     53034         0         1
     53036     53035     53037         0         1
     53039     53038     53040         0         1
     53042     53041     53043         0         1
     53045     53044     53046         0         1
     53048     53047     53049         0         1
     53051     53050     53052         0         1
     53054     53053     53055         0         1
     53057     53056     53058         0         1
     53060     53059     53061         0         1
     53063     53062     53064         0         1
     53066     53065     53067         0         1
     53069     53068     53070         0         1
     53072     53071     53073         0         1
     53075     53074     53076         0         1
     53078     53077     53079         0         1
     53081     53080     53082         0         1
     53084     53083     53085         0         1
     53087     53086     53088         0         1
     53090     53089     53091         0         1
     53093     53092     53094         0         1
     53096     53095     53097         0         1
     53099     53098     53100         0         1
     53102     53101     53103         0         1
     53105     53104     53106         0         1
     53108     53107     53109         0         1
     53111     53110     53112         0         1
     53114     53113     53115         0         1
     53117     53116     53118         0         1
     53120     53119     53121         0         1
     53123     53122     53124         0         1
     53126     53125     53127         0         1
     53129     53128     53130         0         1
     53132     53131     53133         0         1
     53135     53134     53136         0         1
     53138     53137     53139         0         1
     53141     53140     53142         0         1
     53144     53143     53145         0         1
     53147     53146     53148         0         1
     53150     53149     53151         0         1
     53153     53152     53154         0         1
     53156     53155     53157         0         1
     53159     53158     53160         0         1
     53162     53161     53163         0         1
     53165     53164     53166         0         1
     53168     53167     53169         0         1
     53171     53170     53172         0         1
     53174     53173     53175         0         1
     53177     53176     53178         0         1
     53180     53179     53181         0         1
     53183     53182     53184         0         1
     53186     53185     53187         0         1
     53189     53188     53190         0         1
     53192     53191     53193         0         1
     53195     53194     53196         0         1
     53198     53197     53199         0         1
     53201     53200     53202         0         1
     53204     53203     53205         0         1
     53207     53206     53208         0         1
     53210     53209     53211         0         1
     53213     53212     53214         0         1
     53216     53215     53217         0         1
     53219     53218     53220         0         1
     53222     53221     53223         0         1
     53225     53224     53226         0         1
     53228     53227     53229         0         1
     53231     53230     53232         0         1
     53234     53233     53235         0         1
     53237     53236     53238         0         1
     53240     53239     53241         0         1
     53243     53242     53244         0         1
     53246     53245     53247         0         1
     53249     53248     53250         0         1
     53252     53251     53253         0         1
     53255     53254     53256         0         1
     53258     53257     53259         0         1
     53261     53260     53262         0         1
     53264     53263     53265         0         1
     53267     53266     53268         0         1
     53270     53269     53271         0         1
     53273     53272     53274         0         1
     53276     53275     53277         0         1
     53279     53278     53280         0         1
     53282     53281     53283         0         1
     53285     53284     53286         0         1
     53288     53287     53289         0         1
     53291     53290     53292         0         1
     53294     53293     53295         0         1
     53297     53296     53298         0         1
     53300     53299     53301         0         1
     53303     53302     53304         0         1
     53306     53305     53307         0         1
     53309     53308     53310         0         1
     53312     53311     53313         0         1
     53315     53314     53316         0         1
     53318     53317     53319         0         1
     53321     53320     53322         0         1
     53324     53323     53325         0         1
     53327     53326     53328         0         1
     53330     53329     53331         0         1
     53333     53332     53334         0         1
     53336     53335     53337         0         1
     53339     53338     53340         0         1
     53342     53341     53343         0         1
     53345     53344     53346         0         1
     53348     53347     53349         0         1
     53351     53350     53352         0         1
     53354     53353     53355         0         1
     53357     53356     53358         0         1
     53360     53359     53361         0         1
     53363     53362     53364         0         1
     53366     53365     53367         0         1
     53369     53368     53370         0         1
     53372     53371     53373         0         1
     53375     53374     53376         0         1
     53378     53377     53379         0         1
     53381     53380     53382         0         1
     53384     53383     53385         0         1
     53387     53386     53388         0         1
     53390     53389     53391         0         1
     53393     53392     53394         0         1
     53396     53395     53397         0         1
     53399     53398     53400         0         1
     53402     53401     53403         0         1
     53405     53404     53406         0         1
     53408     53407     53409         0         1
     53411     53410     53412         0         1
     53414     53413     53415         0         1
     53417     53416     53418         0         1
     53420     53419     53421         0         1
     53423     53422     53424         0         1
     53426     53425     53427         0         1
     53429     53428     53430         0         1
     53432     53431     53433         0         1
     53435     53434     53436         0         1
     53438     53437     53439         0         1
     53441     53440     53442         0         1
     53444     53443     53445         0         1
     53447     53446     53448         0         1
     53450     53449     53451         0         1
     53453     53452     53454         0         1
     53456     53455     53457         0         1
     53459     53458     53460         0         1
     53462     53461     53463         0         1
     53465     53464     53466         0         1
     53468     53467     53469         0         1
     53471     53470     53472         0         1
     53474     53473     53475         0         1
     53477     53476     53478         0         1
     53480     53479     53481         0         1
     53483     53482     53484         0         1
     53486     53485     53487         0         1
     53489     53488     53490         0         1
     53492     53491     53493         0         1
     53495     53494     53496         0         1
     53498     53497     53499         0         1
     53501     53500     53502         0         1
     53504     53503     53505         0         1
     53507     53506     53508         0         1
     53510     53509     53511         0         1
     53513     53512     53514         0         1
     53516     53515     53517         0         1
     53519     53518     53520         0         1
     53522     53521     53523         0         1
     53525     53524     53526         0         1
     53528     53527     53529         0         1
     53531     53530     53532         0         1
     53534     53533     53535         0         1
     53537     53536     53538         0         1
     53540     53539     53541         0         1
     53543     53542     53544         0         1
     53546     53545     53547         0         1
     53549     53548     53550         0         1
     53552     53551     53553         0         1
     53555     53554     53556         0         1
     53558     53557     53559         0         1
     53561     53560     53562         0         1
     53564     53563     53565         0         1
     53567     53566     53568         0         1
     53570     53569     53571         0         1
     53573     53572     53574         0         1
     53576     53575     53577         0         1
     53579     53578     53580         0         1
     53582     53581     53583         0         1
     53585     53584     53586         0         1
     53588     53587     53589         0         1
     53591     53590     53592         0         1
     53594     53593     53595         0         1
     53597     53596     53598         0         1
     53600     53599     53601         0         1
     53603     53602     53604         0         1
     53606     53605     53607         0         1
     53609     53608     53610         0         1
     53612     53611     53613         0         1
     53615     53614     53616         0         1
     53618     53617     53619         0         1
     53621     53620     53622         0         1
     53624     53623     53625         0         1
     53627     53626     53628         0         1
     53630     53629     53631         0         1
     53633     53632     53634         0         1
     53636     53635     53637         0         1
     53639     53638     53640         0         1
     53642     53641     53643         0         1
     53645     53644     53646         0         1
     53648     53647     53649         0         1
     53651     53650     53652         0         1
     53654     53653     53655         0         1
     53657     53656     53658         0         1
     53660     53659     53661         0         1
     53663     53662     53664         0         1
     53666     53665     53667         0         1
     53669     53668     53670         0         1
     53672     53671     53673         0         1
     53675     53674     53676         0         1
     53678     53677     53679         0         1
     53681     53680     53682         0         1
     53684     53683     53685         0         1
     53687     53686     53688         0         1
     53690     53689     53691         0         1
     53693     53692     53694         0         1
     53696     53695     53697         0         1
     53699     53698     53700         0         1
     53702     53701     53703         0         1
     53705     53704     53706         0         1
     53708     53707     53709         0         1
     53711     53710     53712         0         1
     53714     53713     53715         0         1
     53717     53716     53718         0         1
     53720     53719     53721         0         1
     53723     53722     53724         0         1
     53726     53725     53727         0         1
     53729     53728     53730         0         1
     53732     53731     53733         0         1
     53735     53734     53736         0         1
     53738     53737     53739         0         1
     53741     53740     53742         0         1
     53744     53743     53745         0         1
     53747     53746     53748         0         1
     53750     53749     53751         0         1
     53753     53752     53754         0         1
     53756     53755     53757         0         1
     53759     53758     53760         0         1
     53762     53761     53763         0         1
     53765     53764     53766         0         1
     53768     53767     53769         0         1
     53771     53770     53772         0         1
     53774     53773     53775         0         1
     53777     53776     53778         0         1
     53780     53779     53781         0         1
     53783     53782     53784         0         1
     53786     53785     53787         0         1
     53789     53788     53790         0         1
     53792     53791     53793         0         1
     53795     53794     53796         0         1
     53798     53797     53799         0         1
     53801     53800     53802         0         1
     53804     53803     53805         0         1
     53807     53806     53808         0         1
     53810     53809     53811         0         1
     53813     53812     53814         0         1
     53816     53815     53817         0         1
     53819     53818     53820         0         1
     53822     53821     53823         0         1
     53825     53824     53826         0         1
     53828     53827     53829         0         1
     53831     53830     53832         0         1
     53834     53833     53835         0         1
     53837     53836     53838         0         1
     53840     53839     53841         0         1
     53843     53842     53844         0         1
     53846     53845     53847         0         1
     53849     53848     53850         0         1
     53852     53851     53853         0         1
     53855     53854     53856         0         1
     53858     53857     53859         0         1
     53861     53860     53862         0         1
     53864     53863     53865         0         1
     53867     53866     53868         0         1
     53870     53869     53871         0         1
     53873     53872     53874         0         1
     53876     53875     53877         0         1
     53879     53878     53880         0         1
     53882     53881     53883         0         1
     53885     53884     53886         0         1
     53888     53887     53889         0         1
     53891     53890     53892         0         1
     53894     53893     53895         0         1
     53897     53896     53898         0         1
     53900     53899     53901         0         1
     53903     53902     53904         0         1
     53906     53905     53907         0         1
     53909     53908     53910         0         1
     53912     53911     53913         0         1
     53915     53914     53916         0         1
     53918     53917     53919         0         1
     53921     53920     53922         0         1
     53924     53923     53925         0         1
     53927     53926     53928         0         1
     53930     53929     53931         0         1
     53933     53932     53934         0         1
     53936     53935     53937         0         1
     53939     53938     53940         0         1
     53942     53941     53943         0         1
     53945     53944     53946         0         1
     53948     53947     53949         0         1
     53951     53950     53952         0         1
     53954     53953     53955         0         1
     53957     53956     53958         0         1
     53960     53959     53961         0         1
     53963     53962     53964         0         1
     53966     53965     53967         0         1
     53969     53968     53970         0         1
     53972     53971     53973         0         1
     53975     53974     53976         0         1
     53978     53977     53979         0         1
     53981     53980     53982         0         1
     53984     53983     53985         0         1
     53987     53986     53988         0         1
     53990     53989     53991         0         1
     53993     53992     53994         0         1
     53996     53995     53997         0         1
     53999     53998     54000         0         1
     54002     54001     54003         0         1
     54005     54004     54006         0         1
     54008     54007     54009         0         1
     54011     54010     54012         0         1
     54014     54013     54015         0         1
     54017     54016     54018         0         1
     54020     54019     54021         0         1
     54023     54022     54024         0         1
     54026     54025     54027         0         1
     54029     54028     54030         0         1
     54032     54031     54033         0         1
     54035     54034     54036         0         1
     54038     54037     54039         0         1
     54041     54040     54042         0         1
     54044     54043     54045         0         1
     54047     54046     54048         0         1
     54050     54049     54051         0         1
     54053     54052     54054         0         1
     54056     54055     54057         0         1
     54059     54058     54060         0         1
     54062     54061     54063         0         1
     54065     54064     54066         0         1
     54068     54067     54069         0         1
     54071     54070     54072         0         1
     54074     54073     54075         0         1
     54077     54076     54078         0         1
     54080     54079     54081         0         1
     54083     54082     54084         0         1
     54086     54085     54087         0         1
     54089     54088     54090         0         1
     54092     54091     54093         0         1
     54095     54094     54096         0         1
     54098     54097     54099         0         1
     54101     54100     54102         0         1
     54104     54103     54105         0         1
     54107     54106     54108         0         1
     54110     54109     54111         0         1
     54113     54112     54114         0         1
     54116     54115     54117         0         1
     54119     54118     54120         0         1
     54122     54121     54123         0         1
     54125     54124     54126         0         1
     54128     54127     54129         0         1
     54131     54130     54132         0         1
     54134     54133     54135         0         1
     54137     54136     54138         0         1
     54140     54139     54141         0         1
     54143     54142     54144         0         1
     54146     54145     54147         0         1
     54149     54148     54150         0         1
     54152     54151     54153         0         1
     54155     54154     54156         0         1
     54158     54157     54159         0         1
     54161     54160     54162         0         1
     54164     54163     54165         0         1
     54167     54166     54168         0         1
     54170     54169     54171         0         1
     54173     54172     54174         0         1
     54176     54175     54177         0         1
     54179     54178     54180         0         1
     54182     54181     54183         0         1
     54185     54184     54186         0         1
     54188     54187     54189         0         1
     54191     54190     54192         0         1
     54194     54193     54195         0         1
     54197     54196     54198         0         1
     54200     54199     54201         0         1
     54203     54202     54204         0         1
     54206     54205     54207         0         1
     54209     54208     54210         0         1
     54212     54211     54213         0         1
     54215     54214     54216         0         1
     54218     54217     54219         0         1
     54221     54220     54222         0         1
     54224     54223     54225         0         1
     54227     54226     54228         0         1
     54230     54229     54231         0         1
     54233     54232     54234         0         1
     54236     54235     54237         0         1
     54239     54238     54240         0         1
     54242     54241     54243         0         1
     54245     54244     54246         0         1
     54248     54247     54249         0         1
     54251     54250     54252         0         1
     54254     54253     54255         0         1
     54257     54256     54258         0         1
     54260     54259     54261         0         1
     54263     54262     54264         0         1
     54266     54265     54267         0         1
     54269     54268     54270         0         1
     54272     54271     54273         0         1
     54275     54274     54276         0         1
     54278     54277     54279         0         1
     54281     54280     54282         0         1
     54284     54283     54285         0         1
     54287     54286     54288         0         1
     54290     54289     54291         0         1
     54293     54292     54294         0         1
     54296     54295     54297         0         1
     54299     54298     54300         0         1
     54302     54301     54303         0         1
     54305     54304     54306         0         1
     54308     54307     54309         0         1
     54311     54310     54312         0         1
     54314     54313     54315         0         1
     54317     54316     54318         0         1
     54320     54319     54321         0         1
     54323     54322     54324         0         1
     54326     54325     54327         0         1
     54329     54328     54330         0         1
     54332     54331     54333         0         1
     54335     54334     54336         0         1
     54338     54337     54339         0         1
     54341     54340     54342         0         1
     54344     54343     54345         0         1
     54347     54346     54348         0         1
     54350     54349     54351         0         1
     54353     54352     54354         0         1
     54356     54355     54357         0         1
     54359     54358     54360         0         1
     54362     54361     54363         0         1
     54365     54364     54366         0         1
     54368     54367     54369         0         1
     54371     54370     54372         0         1
     54374     54373     54375         0         1
     54377     54376     54378         0         1
     54380     54379     54381         0         1
     54383     54382     54384         0         1
     54386     54385     54387         0         1
     54389     54388     54390         0         1
     54392     54391     54393         0         1
     54395     54394     54396         0         1
     54398     54397     54399         0         1
     54401     54400     54402         0         1
     54404     54403     54405         0         1
     54407     54406     54408         0         1
     54410     54409     54411         0         1
     54413     54412     54414         0         1
     54416     54415     54417         0         1
     54419     54418     54420         0         1
     54422     54421     54423         0         1
     54425     54424     54426         0         1
     54428     54427     54429         0         1
     54431     54430     54432         0         1
     54434     54433     54435         0         1
     54437     54436     54438         0         1
     54440     54439     54441         0         1
     54443     54442     54444         0         1
     54446     54445     54447         0         1
     54449     54448     54450         0         1
     54452     54451     54453         0         1
     54455     54454     54456         0         1
     54458     54457     54459         0         1
     54461     54460     54462         0         1
     54464     54463     54465         0         1
     54467     54466     54468         0         1
     54470     54469     54471         0         1
     54473     54472     54474         0         1
     54476     54475     54477         0         1
     54479     54478     54480         0         1
     54482     54481     54483         0         1
     54485     54484     54486         0         1
     54488     54487     54489         0         1
     54491     54490     54492         0         1
     54494     54493     54495         0         1
     54497     54496     54498         0         1
     54500     54499     54501         0         1
     54503     54502     54504         0         1
     54506     54505     54507         0         1
     54509     54508     54510         0         1
     54512     54511     54513         0         1
     54515     54514     54516         0         1
     54518     54517     54519         0         1
     54521     54520     54522         0         1
     54524     54523     54525         0         1
     54527     54526     54528         0         1
     54530     54529     54531         0         1
     54533     54532     54534         0         1
     54536     54535     54537         0         1
     54539     54538     54540         0         1
     54542     54541     54543         0         1
     54545     54544     54546         0         1
     54548     54547     54549         0         1
     54551     54550     54552         0         1
     54554     54553     54555         0         1
     54557     54556     54558         0         1
     54560     54559     54561         0         1
     54563     54562     54564         0         1
     54566     54565     54567         0         1
     54569     54568     54570         0         1
     54572     54571     54573         0         1
     54575     54574     54576         0         1
     54578     54577     54579         0         1
     54581     54580     54582         0         1
     54584     54583     54585         0         1
     54587     54586     54588         0         1
     54590     54589     54591         0         1
     54593     54592     54594         0         1
     54596     54595     54597         0         1
     54599     54598     54600         0         1
     54602     54601     54603         0         1
     54605     54604     54606         0         1
     54608     54607     54609         0         1
     54611     54610     54612         0         1
     54614     54613     54615         0         1
     54617     54616     54618         0         1
     54620     54619     54621         0         1
     54623     54622     54624         0         1
     54626     54625     54627         0         1
     54629     54628     54630         0         1
     54632     54631     54633         0         1
     54635     54634     54636         0         1
     54638     54637     54639         0         1
     54641     54640     54642         0         1
     54644     54643     54645         0         1
     54647     54646     54648         0         1
     54650     54649     54651         0         1
     54653     54652     54654         0         1
     54656     54655     54657         0         1
     54659     54658     54660         0         1
     54662     54661     54663         0         1
     54665     54664     54666         0         1
     54668     54667     54669         0         1
     54671     54670     54672         0         1
     54674     54673     54675         0         1
     54677     54676     54678         0         1
     54680     54679     54681         0         1
     54683     54682     54684         0         1
     54686     54685     54687         0         1
     54689     54688     54690         0         1
     54692     54691     54693         0         1
     54695     54694     54696         0         1
     54698     54697     54699         0         1
     54701     54700     54702         0         1
     54704     54703     54705         0         1
     54707     54706     54708         0         1
     54710     54709     54711         0         1
     54713     54712     54714         0         1
     54716     54715     54717         0         1
     54719     54718     54720         0         1
     54722     54721     54723         0         1
     54725     54724     54726         0         1
     54728     54727     54729         0         1
     54731     54730     54732         0         1
     54734     54733     54735         0         1
     54737     54736     54738         0         1
     54740     54739     54741         0         1
     54743     54742     54744         0         1
     54746     54745     54747         0         1
     54749     54748     54750         0         1
     54752     54751     54753         0         1
     54755     54754     54756         0         1
     54758     54757     54759         0         1
     54761     54760     54762         0         1
     54764     54763     54765         0         1
     54767     54766     54768         0         1
     54770     54769     54771         0         1
     54773     54772     54774         0         1
     54776     54775     54777         0         1
     54779     54778     54780         0         1
     54782     54781     54783         0         1
     54785     54784     54786         0         1
     54788     54787     54789         0         1
     54791     54790     54792         0         1
     54794     54793     54795         0         1
     54797     54796     54798         0         1
     54800     54799     54801         0         1
     54803     54802     54804         0         1
     54806     54805     54807         0         1
     54809     54808     54810         0         1
     54812     54811     54813         0         1
     54815     54814     54816         0         1
     54818     54817     54819         0         1
     54821     54820     54822         0         1
     54824     54823     54825         0         1
     54827     54826     54828         0         1
     54830     54829     54831         0         1
     54833     54832     54834         0         1
     54836     54835     54837         0         1
     54839     54838     54840         0         1
     54842     54841     54843         0         1
     54845     54844     54846         0         1
     54848     54847     54849         0         1
     54851     54850     54852         0         1
     54854     54853     54855         0         1
     54857     54856     54858         0         1
     54860     54859     54861         0         1
     54863     54862     54864         0         1
     54866     54865     54867         0         1
     54869     54868     54870         0         1
     54872     54871     54873         0         1
     54875     54874     54876         0         1
     54878     54877     54879         0         1
     54881     54880     54882         0         1
     54884     54883     54885         0         1
     54887     54886     54888         0         1
     54890     54889     54891         0         1
     54893     54892     54894         0         1
     54896     54895     54897         0         1
     54899     54898     54900         0         1
     54902     54901     54903         0         1
     54905     54904     54906         0         1
     54908     54907     54909         0         1
     54911     54910     54912         0         1
     54914     54913     54915         0         1
     54917     54916     54918         0         1
     54920     54919     54921         0         1
     54923     54922     54924         0         1
     54926     54925     54927         0         1
     54929     54928     54930         0         1
     54932     54931     54933         0         1
     54935     54934     54936         0         1
     54938     54937     54939         0         1
     54941     54940     54942         0         1
     54944     54943     54945         0         1
     54947     54946     54948         0         1
     54950     54949     54951         0         1
     54953     54952     54954         0         1
     54956     54955     54957         0         1
     54959     54958     54960         0         1
     54962     54961     54963         0         1
     54965     54964     54966         0         1
     54968     54967     54969         0         1
     54971     54970     54972         0         1
     54974     54973     54975         0         1
     54977     54976     54978         0         1
     54980     54979     54981         0         1
     54983     54982     54984         0         1
     54986     54985     54987         0         1
     54989     54988     54990         0         1
     54992     54991     54993         0         1
     54995     54994     54996         0         1
     54998     54997     54999         0         1
     55001     55000     55002         0         1
     55004     55003     55005         0         1
     55007     55006     55008         0         1
     55010     55009     55011         0         1
     55013     55012     55014         0         1
     55016     55015     55017         0         1
     55019     55018     55020         0         1
     55022     55021     55023         0         1
     55025     55024     55026         0         1
     55028     55027     55029         0         1
     55031     55030     55032         0         1
     55034     55033     55035         0         1
     55037     55036     55038         0         1
     55040     55039     55041         0         1
     55043     55042     55044         0         1
     55046     55045     55047         0         1
     55049     55048     55050         0         1
     55052     55051     55053         0         1
     55055     55054     55056         0         1
     55058     55057     55059         0         1
     55061     55060     55062         0         1
     55064     55063     55065         0         1
     55067     55066     55068         0         1
     55070     55069     55071         0         1
     55073     55072     55074         0         1
     55076     55075     55077         0         1
     55079     55078     55080         0         1
     55082     55081     55083         0         1
     55085     55084     55086         0         1
     55088     55087     55089         0         1
     55091     55090     55092         0         1
     55094     55093     55095         0         1
     55097     55096     55098         0         1
     55100     55099     55101         0         1
     55103     55102     55104         0         1
     55106     55105     55107         0         1
     55109     55108     55110         0         1
     55112     55111     55113         0         1
     55115     55114     55116         0         1
     55118     55117     55119         0         1
     55121     55120     55122         0         1
     55124     55123     55125         0         1
     55127     55126     55128         0         1
     55130     55129     55131         0         1
     55133     55132     55134         0         1
     55136     55135     55137         0         1
     55139     55138     55140         0         1
     55142     55141     55143         0         1
     55145     55144     55146         0         1
     55148     55147     55149         0         1
     55151     55150     55152         0         1
     55154     55153     55155         0         1
     55157     55156     55158         0         1
     55160     55159     55161         0         1
     55163     55162     55164         0         1
     55166     55165     55167         0         1
     55169     55168     55170         0         1
     55172     55171     55173         0         1
     55175     55174     55176         0         1
     55178     55177     55179         0         1
     55181     55180     55182         0         1
     55184     55183     55185         0         1
     55187     55186     55188         0         1
     55190     55189     55191         0         1
     55193     55192     55194         0         1
     55196     55195     55197         0         1
     55199     55198     55200         0         1
     55202     55201     55203         0         1
     55205     55204     55206         0         1
     55208     55207     55209         0         1
     55211     55210     55212         0         1
     55214     55213     55215         0         1
     55217     55216     55218         0         1
     55220     55219     55221         0         1
     55223     55222     55224         0         1
     55226     55225     55227         0         1
     55229     55228     55230         0         1
     55232     55231     55233         0         1
     55235     55234     55236         0         1
     55238     55237     55239         0         1
     55241     55240     55242         0         1
     55244     55243     55245         0         1
     55247     55246     55248         0         1
     55250     55249     55251         0         1
     55253     55252     55254         0         1
     55256     55255     55257         0         1
     55259     55258     55260         0         1
     55262     55261     55263         0         1
     55265     55264     55266         0         1
     55268     55267     55269         0         1
     55271     55270     55272         0         1
     55274     55273     55275         0         1
     55277     55276     55278         0         1
     55280     55279     55281         0         1
     55283     55282     55284         0         1
     55286     55285     55287         0         1
     55289     55288     55290         0         1
     55292     55291     55293         0         1
     55295     55294     55296         0         1
     55298     55297     55299         0         1
     55301     55300     55302         0         1
     55304     55303     55305         0         1
     55307     55306     55308         0         1
     55310     55309     55311         0         1
     55313     55312     55314         0         1
     55316     55315     55317         0         1
     55319     55318     55320         0         1
     55322     55321     55323         0         1
     55325     55324     55326         0         1
     55328     55327     55329         0         1
     55331     55330     55332         0         1
     55334     55333     55335         0         1
     55337     55336     55338         0         1
     55340     55339     55341         0         1
     55343     55342     55344         0         1
     55346     55345     55347         0         1
     55349     55348     55350         0         1
     55352     55351     55353         0         1
     55355     55354     55356         0         1
     55358     55357     55359         0         1
     55361     55360     55362         0         1
     55364     55363     55365         0         1
     55367     55366     55368         0         1
     55370     55369     55371         0         1
     55373     55372     55374         0         1
     55376     55375     55377         0         1
     55379     55378     55380         0         1
     55382     55381     55383         0         1
     55385     55384     55386         0         1
     55388     55387     55389         0         1
     55391     55390     55392         0         1
     55394     55393     55395         0         1
     55397     55396     55398         0         1
     55400     55399     55401         0         1
     55403     55402     55404         0         1
     55406     55405     55407         0         1
     55409     55408     55410         0         1
     55412     55411     55413         0         1
     55415     55414     55416         0         1
     55418     55417     55419         0         1
     55421     55420     55422         0         1
     55424     55423     55425         0         1
     55427     55426     55428         0         1
     55430     55429     55431         0         1
     55433     55432     55434         0         1
     55436     55435     55437         0         1
     55439     55438     55440         0         1
     55442     55441     55443         0         1
     55445     55444     55446         0         1
     55448     55447     55449         0         1
     55451     55450     55452         0         1
     55454     55453     55455         0         1
     55457     55456     55458         0         1
     55460     55459     55461         0         1
     55463     55462     55464         0         1
     55466     55465     55467         0         1
     55469     55468     55470         0         1
     55472     55471     55473         0         1
     55475     55474     55476         0         1
     55478     55477     55479         0         1
     55481     55480     55482         0         1
     55484     55483     55485         0         1
     55487     55486     55488         0         1
     55490     55489     55491         0         1
     55493     55492     55494         0         1
     55496     55495     55497         0         1
     55499     55498     55500         0         1
     55502     55501     55503         0         1
     55505     55504     55506         0         1
     55508     55507     55509         0         1
     55511     55510     55512         0         1
     55514     55513     55515         0         1
     55517     55516     55518         0         1
     55520     55519     55521         0         1
     55523     55522     55524         0         1
     55526     55525     55527         0         1
     55529     55528     55530         0         1
     55532     55531     55533         0         1
     55535     55534     55536         0         1
     55538     55537     55539         0         1
     55541     55540     55542         0         1
     55544     55543     55545         0         1
     55547     55546     55548         0         1
     55550     55549     55551         0         1
     55553     55552     55554         0         1
     55556     55555     55557         0         1
     55559     55558     55560         0         1
     55562     55561     55563         0         1
     55565     55564     55566         0         1
     55568     55567     55569         0         1
     55571     55570     55572         0         1
     55574     55573     55575         0         1
     55577     55576     55578         0         1
     55580     55579     55581         0         1
     55583     55582     55584         0         1
     55586     55585     55587         0         1
     55589     55588     55590         0         1
     55592     55591     55593         0         1
     55595     55594     55596         0         1
     55598     55597     55599         0         1
     55601     55600     55602         0         1
     55604     55603     55605         0         1
     55607     55606     55608         0         1
     55610     55609     55611         0         1
     55613     55612     55614         0         1
     55616     55615     55617         0         1
     55619     55618     55620         0         1
     55622     55621     55623         0         1
     55625     55624     55626         0         1
     55628     55627     55629         0         1
     55631     55630     55632         0         1
     55634     55633     55635         0         1
     55637     55636     55638         0         1
     55640     55639     55641         0         1
     55643     55642     55644         0         1
     55646     55645     55647         0         1
     55649     55648     55650         0         1
     55652     55651     55653         0         1
     55655     55654     55656         0         1
     55658     55657     55659         0         1
     55661     55660     55662         0         1
     55664     55663     55665         0         1
     55667     55666     55668         0         1
     55670     55669     55671         0         1
     55673     55672     55674         0         1
     55676     55675     55677         0         1
     55679     55678     55680         0         1
     55682     55681     55683         0         1
     55685     55684     55686         0         1
     55688     55687     55689         0         1
     55691     55690     55692         0         1
     55694     55693     55695         0         1
     55697     55696     55698         0         1
     55700     55699     55701         0         1
     55703     55702     55704         0         1
     55706     55705     55707         0         1
     55709     55708     55710         0         1
     55712     55711     55713         0         1
     55715     55714     55716         0         1
     55718     55717     55719         0         1
     55721     55720     55722         0         1
     55724     55723     55725         0         1
     55727     55726     55728         0         1
     55730     55729     55731         0         1
     55733     55732     55734         0         1
     55736     55735     55737         0         1
     55739     55738     55740         0         1
     55742     55741     55743         0         1
     55745     55744     55746         0         1
     55748     55747     55749         0         1
     55751     55750     55752         0         1
     55754     55753     55755         0         1
     55757     55756     55758         0         1
     55760     55759     55761         0         1
     55763     55762     55764         0         1
     55766     55765     55767         0         1
     55769     55768     55770         0         1
     55772     55771     55773         0         1
     55775     55774     55776         0         1
     55778     55777     55779         0         1
     55781     55780     55782         0         1
     55784     55783     55785         0         1
     55787     55786     55788         0         1
     55790     55789     55791         0         1
     55793     55792     55794         0         1
     55796     55795     55797         0         1
     55799     55798     55800         0         1
     55802     55801     55803         0         1
     55805     55804     55806         0         1
     55808     55807     55809         0         1
     55811     55810     55812         0         1
     55814     55813     55815         0         1
     55817     55816     55818         0         1
     55820     55819     55821         0         1
     55823     55822     55824         0         1
     55826     55825     55827         0         1
     55829     55828     55830         0         1
     55832     55831     55833         0         1
     55835     55834     55836         0         1
     55838     55837     55839         0         1
     55841     55840     55842         0         1
     55844     55843     55845         0         1
     55847     55846     55848         0         1
     55850     55849     55851         0         1
     55853     55852     55854         0         1
     55856     55855     55857         0         1
     55859     55858     55860         0         1
     55862     55861     55863         0         1
     55865     55864     55866         0         1
     55868     55867     55869         0         1
     55871     55870     55872         0         1
     55874     55873     55875         0         1
     55877     55876     55878         0         1
     55880     55879     55881         0         1
     55883     55882     55884         0         1
     55886     55885     55887         0         1
     55889     55888     55890         0         1
     55892     55891     55893         0         1
     55895     55894     55896         0         1
     55898     55897     55899         0         1
     55901     55900     55902         0         1
     55904     55903     55905         0         1
     55907     55906     55908         0         1
     55910     55909     55911         0         1
     55913     55912     55914         0         1
     55916     55915     55917         0         1
     55919     55918     55920         0         1
     55922     55921     55923         0         1
     55925     55924     55926         0         1
     55928     55927     55929         0         1
     55931     55930     55932         0         1
     55934     55933     55935         0         1
     55937     55936     55938         0         1
     55940     55939     55941         0         1
     55943     55942     55944         0         1
     55946     55945     55947         0         1
     55949     55948     55950         0         1
     55952     55951     55953         0         1
     55955     55954     55956         0         1
     55958     55957     55959         0         1
     55961     55960     55962         0         1
     55964     55963     55965         0         1
     55967     55966     55968         0         1
     55970     55969     55971         0         1
     55973     55972     55974         0         1
     55976     55975     55977         0         1
     55979     55978     55980         0         1
     55982     55981     55983         0         1
     55985     55984     55986         0         1
     55988     55987     55989         0         1
     55991     55990     55992         0         1
     55994     55993     55995         0         1
     55997     55996     55998         0         1
     56000     55999     56001         0         1
     56003     56002     56004         0         1
     56006     56005     56007         0         1
     56009     56008     56010         0         1
     56012     56011     56013         0         1
     56015     56014     56016         0         1
     56018     56017     56019         0         1
     56021     56020     56022         0         1
     56024     56023     56025         0         1
     56027     56026     56028         0         1
     56030     56029     56031         0         1
     56033     56032     56034         0         1
     56036     56035     56037         0         1
     56039     56038     56040         0         1
     56042     56041     56043         0         1
     56045     56044     56046         0         1
     56048     56047     56049         0         1
     56051     56050     56052         0         1
     56054     56053     56055         0         1
     56057     56056     56058         0         1
     56060     56059     56061         0         1
     56063     56062     56064         0         1
     56066     56065     56067         0         1
     56069     56068     56070         0         1
     56072     56071     56073         0         1
     56075     56074     56076         0         1
     56078     56077     56079         0         1
     56081     56080     56082         0         1
     56084     56083     56085         0         1
     56087     56086     56088         0         1
     56090     56089     56091         0         1
     56093     56092     56094         0         1
     56096     56095     56097         0         1
     56099     56098     56100         0         1
     56102     56101     56103         0         1
     56105     56104     56106         0         1
     56108     56107     56109         0         1
     56111     56110     56112         0         1
     56114     56113     56115         0         1
     56117     56116     56118         0         1
     56120     56119     56121         0         1
     56123     56122     56124         0         1
     56126     56125     56127         0         1
     56129     56128     56130         0         1
     56132     56131     56133         0         1
     56135     56134     56136         0         1
     56138     56137     56139         0         1
     56141     56140     56142         0         1
     56144     56143     56145         0         1
     56147     56146     56148         0         1
     56150     56149     56151         0         1
     56153     56152     56154         0         1
     56156     56155     56157         0         1
     56159     56158     56160         0         1
     56162     56161     56163         0         1
     56165     56164     56166         0         1
     56168     56167     56169         0         1
     56171     56170     56172         0         1
     56174     56173     56175         0         1
     56177     56176     56178         0         1
     56180     56179     56181         0         1
     56183     56182     56184         0         1
     56186     56185     56187         0         1
     56189     56188     56190         0         1
     56192     56191     56193         0         1
     56195     56194     56196         0         1
     56198     56197     56199         0         1
     56201     56200     56202         0         1
     56204     56203     56205         0         1
     56207     56206     56208         0         1
     56210     56209     56211         0         1
     56213     56212     56214         0         1
     56216     56215     56217         0         1
     56219     56218     56220         0         1
     56222     56221     56223         0         1
     56225     56224     56226         0         1
     56228     56227     56229         0         1
     56231     56230     56232         0         1
     56234     56233     56235         0         1
     56237     56236     56238         0         1
     56240     56239     56241         0         1
     56243     56242     56244         0         1
     56246     56245     56247         0         1
     56249     56248     56250         0         1
     56252     56251     56253         0         1
     56255     56254     56256         0         1
     56258     56257     56259         0         1
     56261     56260     56262         0         1
     56264     56263     56265         0         1
     56267     56266     56268         0         1
     56270     56269     56271         0         1
     56273     56272     56274         0         1
     56276     56275     56277         0         1
     56279     56278     56280         0         1
     56282     56281     56283         0         1
     56285     56284     56286         0         1
     56288     56287     56289         0         1
     56291     56290     56292         0         1
     56294     56293     56295         0         1
     56297     56296     56298         0         1
     56300     56299     56301         0         1
     56303     56302     56304         0         1
     56306     56305     56307         0         1
     56309     56308     56310         0         1
     56312     56311     56313         0         1
     56315     56314     56316         0         1
     56318     56317     56319         0         1
     56321     56320     56322         0         1
     56324     56323     56325         0         1
     56327     56326     56328         0         1
     56330     56329     56331         0         1
     56333     56332     56334         0         1
     56336     56335     56337         0         1
     56339     56338     56340         0         1
     56342     56341     56343         0         1
     56345     56344     56346         0         1
     56348     56347     56349         0         1
     56351     56350     56352         0         1
     56354     56353     56355         0         1
     56357     56356     56358         0         1
     56360     56359     56361         0         1
     56363     56362     56364         0         1
     56366     56365     56367         0         1
     56369     56368     56370         0         1
     56372     56371     56373         0         1
     56375     56374     56376         0         1
     56378     56377     56379         0         1
     56381     56380     56382         0         1
     56384     56383     56385         0         1
     56387     56386     56388         0         1
     56390     56389     56391         0         1
     56393     56392     56394         0         1
     56396     56395     56397         0         1
     56399     56398     56400         0         1
     56402     56401     56403         0         1
     56405     56404     56406         0         1
     56408     56407     56409         0         1
     56411     56410     56412         0         1
     56414     56413     56415         0         1
     56417     56416     56418         0         1
     56420     56419     56421         0         1
     56423     56422     56424         0         1
     56426     56425     56427         0         1
     56429     56428     56430         0         1
     56432     56431     56433         0         1
     56435     56434     56436         0         1
     56438     56437     56439         0         1
     56441     56440     56442         0         1
     56444     56443     56445         0         1
     56447     56446     56448         0         1
     56450     56449     56451         0         1
     56453     56452     56454         0         1
     56456     56455     56457         0         1
     56459     56458     56460         0         1
     56462     56461     56463         0         1
     56465     56464     56466         0         1
     56468     56467     56469         0         1
     56471     56470     56472         0         1
     56474     56473     56475         0         1
     56477     56476     56478         0         1
     56480     56479     56481         0         1
     56483     56482     56484         0         1
     56486     56485     56487         0         1
     56489     56488     56490         0         1
     56492     56491     56493         0         1
     56495     56494     56496         0         1
     56498     56497     56499         0         1
     56501     56500     56502         0         1
     56504     56503     56505         0         1
     56507     56506     56508         0         1
     56510     56509     56511         0         1
     56513     56512     56514         0         1
     56516     56515     56517         0         1
     56519     56518     56520         0         1
     56522     56521     56523         0         1
     56525     56524     56526         0         1
     56528     56527     56529         0         1
     56531     56530     56532         0         1
     56534     56533     56535         0         1
     56537     56536     56538         0         1
     56540     56539     56541         0         1
     56543     56542     56544         0         1
     56546     56545     56547         0         1
     56549     56548     56550         0         1
     56552     56551     56553         0         1
     56555     56554     56556         0         1
     56558     56557     56559         0         1
     56561     56560     56562         0         1
     56564     56563     56565         0         1
     56567     56566     56568         0         1
     56570     56569     56571         0         1
     56573     56572     56574         0         1
     56576     56575     56577         0         1
     56579     56578     56580         0         1
     56582     56581     56583         0         1
     56585     56584     56586         0         1
     56588     56587     56589         0         1
     56591     56590     56592         0         1
     56594     56593     56595         0         1
     56597     56596     56598         0         1
     56600     56599     56601         0         1
     56603     56602     56604         0         1
     56606     56605     56607         0         1
     56609     56608     56610         0         1
     56612     56611     56613         0         1
     56615     56614     56616         0         1
     56618     56617     56619         0         1
     56621     56620     56622         0         1
     56624     56623     56625         0         1
     56627     56626     56628         0         1
     56630     56629     56631         0         1
     56633     56632     56634         0         1
     56636     56635     56637         0         1
     56639     56638     56640         0         1
     56642     56641     56643         0         1
     56645     56644     56646         0         1
     56648     56647     56649         0         1
     56651     56650     56652         0         1
     56654     56653     56655         0         1
     56657     56656     56658         0         1
     56660     56659     56661         0         1
     56663     56662     56664         0         1
     56666     56665     56667         0         1
     56669     56668     56670         0         1
     56672     56671     56673         0         1
     56675     56674     56676         0         1
     56678     56677     56679         0         1
     56681     56680     56682         0         1
     56684     56683     56685         0         1
     56687     56686     56688         0         1
     56690     56689     56691         0         1
     56693     56692     56694         0         1
     56696     56695     56697         0         1
     56699     56698     56700         0         1
     56702     56701     56703         0         1
     56705     56704     56706         0         1
     56708     56707     56709         0         1
     56711     56710     56712         0         1
     56714     56713     56715         0         1
     56717     56716     56718         0         1
     56720     56719     56721         0         1
     56723     56722     56724         0         1
     56726     56725     56727         0         1
     56729     56728     56730         0         1
     56732     56731     56733         0         1
     56735     56734     56736         0         1
     56738     56737     56739         0         1
     56741     56740     56742         0         1
     56744     56743     56745         0         1
     56747     56746     56748         0         1
     56750     56749     56751         0         1
     56753     56752     56754         0         1
     56756     56755     56757         0         1
     56759     56758     56760         0         1
     56762     56761     56763         0         1
     56765     56764     56766         0         1
     56768     56767     56769         0         1
     56771     56770     56772         0         1
     56774     56773     56775         0         1
     56777     56776     56778         0         1
     56780     56779     56781         0         1
     56783     56782     56784         0         1
     56786     56785     56787         0         1
     56789     56788     56790         0         1
     56792     56791     56793         0         1
     56795     56794     56796         0         1
     56798     56797     56799         0         1
     56801     56800     56802         0         1
     56804     56803     56805         0         1
     56807     56806     56808         0         1
     56810     56809     56811         0         1
     56813     56812     56814         0         1
     56816     56815     56817         0         1
     56819     56818     56820         0         1
     56822     56821     56823         0         1
     56825     56824     56826         0         1
     56828     56827     56829         0         1
     56831     56830     56832         0         1
     56834     56833     56835         0         1
     56837     56836     56838         0         1
     56840     56839     56841         0         1
     56843     56842     56844         0         1
     56846     56845     56847         0         1
     56849     56848     56850         0         1
     56852     56851     56853         0         1
     56855     56854     56856         0         1
     56858     56857     56859         0         1
     56861     56860     56862         0         1
     56864     56863     56865         0         1
     56867     56866     56868         0         1
     56870     56869     56871         0         1
     56873     56872     56874         0         1
     56876     56875     56877         0         1
     56879     56878     56880         0         1
     56882     56881     56883         0         1
     56885     56884     56886         0         1
     56888     56887     56889         0         1
     56891     56890     56892         0         1
     56894     56893     56895         0         1
     56897     56896     56898         0         1
     56900     56899     56901         0         1
     56903     56902     56904         0         1
     56906     56905     56907         0         1
     56909     56908     56910         0         1
     56912     56911     56913         0         1
     56915     56914     56916         0         1
     56918     56917     56919         0         1
     56921     56920     56922         0         1
     56924     56923     56925         0         1
     56927     56926     56928         0         1
     56930     56929     56931         0         1
     56933     56932     56934         0         1
     56936     56935     56937         0         1
     56939     56938     56940         0         1
     56942     56941     56943         0         1
     56945     56944     56946         0         1
     56948     56947     56949         0         1
     56951     56950     56952         0         1
     56954     56953     56955         0         1
     56957     56956     56958         0         1
     56960     56959     56961         0         1
     56963     56962     56964         0         1
     56966     56965     56967         0         1
     56969     56968     56970         0         1
     56972     56971     56973         0         1
     56975     56974     56976         0         1
     56978     56977     56979         0         1
     56981     56980     56982         0         1
     56984     56983     56985         0         1
     56987     56986     56988         0         1
     56990     56989     56991         0         1
     56993     56992     56994         0         1
     56996     56995     56997         0         1
     56999     56998     57000         0         1
     57002     57001     57003         0         1
     57005     57004     57006         0         1
     57008     57007     57009         0         1
     57011     57010     57012         0         1
     57014     57013     57015         0         1
     57017     57016     57018         0         1
     57020     57019     57021         0         1
     57023     57022     57024         0         1
     57026     57025     57027         0         1
     57029     57028     57030         0         1
     57032     57031     57033         0         1
     57035     57034     57036         0         1
     57038     57037     57039         0         1
     57041     57040     57042         0         1
     57044     57043     57045         0         1
     57047     57046     57048         0         1
     57050     57049     57051         0         1
     57053     57052     57054         0         1
     57056     57055     57057         0         1
     57059     57058     57060         0         1
     57062     57061     57063         0         1
     57065     57064     57066         0         1
     57068     57067     57069         0         1
     57071     57070     57072         0         1
     57074     57073     57075         0         1
     57077     57076     57078         0         1
     57080     57079     57081         0         1
     57083     57082     57084         0         1
     57086     57085     57087         0         1
     57089     57088     57090         0         1
     57092     57091     57093         0         1
     57095     57094     57096         0         1
     57098     57097     57099         0         1
     57101     57100     57102         0         1
     57104     57103     57105         0         1
     57107     57106     57108         0         1
     57110     57109     57111         0         1
     57113     57112     57114         0         1
     57116     57115     57117         0         1
     57119     57118     57120         0         1
     57122     57121     57123         0         1
     57125     57124     57126         0         1
     57128     57127     57129         0         1
     57131     57130     57132         0         1
     57134     57133     57135         0         1
     57137     57136     57138         0         1
     57140     57139     57141         0         1
     57143     57142     57144         0         1
     57146     57145     57147         0         1
     57149     57148     57150         0         1
     57152     57151     57153         0         1
     57155     57154     57156         0         1
     57158     57157     57159         0         1
     57161     57160     57162         0         1
     57164     57163     57165         0         1
     57167     57166     57168         0         1
     57170     57169     57171         0         1
     57173     57172     57174         0         1
     57176     57175     57177         0         1
     57179     57178     57180         0         1
     57182     57181     57183         0         1
     57185     57184     57186         0         1
     57188     57187     57189         0         1
     57191     57190     57192         0         1
     57194     57193     57195         0         1
     57197     57196     57198         0         1
     57200     57199     57201         0         1
     57203     57202     57204         0         1
     57206     57205     57207         0         1
     57209     57208     57210         0         1
     57212     57211     57213         0         1
     57215     57214     57216         0         1
     57218     57217     57219         0         1
     57221     57220     57222         0         1
     57224     57223     57225         0         1
     57227     57226     57228         0         1
     57230     57229     57231         0         1
     57233     57232     57234         0         1
     57236     57235     57237         0         1
     57239     57238     57240         0         1
     57242     57241     57243         0         1
     57245     57244     57246         0         1
     57248     57247     57249         0         1
     57251     57250     57252         0         1
     57254     57253     57255         0         1
     57257     57256     57258         0         1
     57260     57259     57261         0         1
     57263     57262     57264         0         1
     57266     57265     57267         0         1
     57269     57268     57270         0         1
     57272     57271     57273         0         1
     57275     57274     57276         0         1
     57278     57277     57279         0         1
     57281     57280     57282         0         1
     57284     57283     57285         0         1
     57287     57286     57288         0         1
     57290     57289     57291         0         1
     57293     57292     57294         0         1
     57296     57295     57297         0         1
     57299     57298     57300         0         1
     57302     57301     57303         0         1
     57305     57304     57306         0         1
     57308     57307     57309         0         1
     57311     57310     57312         0         1
     57314     57313     57315         0         1
     57317     57316     57318         0         1
     57320     57319     57321         0         1
     57323     57322     57324         0         1
     57326     57325     57327         0         1
     57329     57328     57330         0         1
     57332     57331     57333         0         1
     57335     57334     57336         0         1
     57338     57337     57339         0         1
     57341     57340     57342         0         1
     57344     57343     57345         0         1
     57347     57346     57348         0         1
     57350     57349     57351         0         1
     57353     57352     57354         0         1
     57356     57355     57357         0         1
     57359     57358     57360         0         1
     57362     57361     57363         0         1
     57365     57364     57366         0         1
     57368     57367     57369         0         1
     57371     57370     57372         0         1
     57374     57373     57375         0         1
     57377     57376     57378         0         1
     57380     57379     57381         0         1
     57383     57382     57384         0         1
     57386     57385     57387         0         1
     57389     57388     57390         0         1
     57392     57391     57393         0         1
     57395     57394     57396         0         1
     57398     57397     57399         0         1
     57401     57400     57402         0         1
     57404     57403     57405         0         1
     57407     57406     57408         0         1
     57410     57409     57411         0         1
     57413     57412     57414         0         1
     57416     57415     57417         0         1
     57419     57418     57420         0         1
     57422     57421     57423         0         1
     57425     57424     57426         0         1
     57428     57427     57429         0         1
     57431     57430     57432         0         1
     57434     57433     57435         0         1
     57437     57436     57438         0         1
     57440     57439     57441         0         1
     57443     57442     57444         0         1
     57446     57445     57447         0         1
     57449     57448     57450         0         1
     57452     57451     57453         0         1
     57455     57454     57456         0         1
     57458     57457     57459         0         1
     57461     57460     57462         0         1
     57464     57463     57465         0         1
     57467     57466     57468         0         1
     57470     57469     57471         0         1
     57473     57472     57474         0         1
     57476     57475     57477         0         1
     57479     57478     57480         0         1
     57482     57481     57483         0         1
     57485     57484     57486         0         1
     57488     57487     57489         0         1
     57491     57490     57492         0         1
     57494     57493     57495         0         1
     57497     57496     57498         0         1
     57500     57499     57501         0         1
     57503     57502     57504         0         1
     57506     57505     57507         0         1
     57509     57508     57510         0         1
     57512     57511     57513         0         1
     57515     57514     57516         0         1
     57518     57517     57519         0         1
     57521     57520     57522         0         1
     57524     57523     57525         0         1
     57527     57526     57528         0         1
     57530     57529     57531         0         1
     57533     57532     57534         0         1
     57536     57535     57537         0         1
     57539     57538     57540         0         1
     57542     57541     57543         0         1
     57545     57544     57546         0         1
     57548     57547     57549         0         1
     57551     57550     57552         0         1
     57554     57553     57555         0         1
     57557     57556     57558         0         1
     57560     57559     57561         0         1
     57563     57562     57564         0         1
     57566     57565     57567         0         1
     57569     57568     57570         0         1
     57572     57571     57573         0         1
     57575     57574     57576         0         1
     57578     57577     57579         0         1
     57581     57580     57582         0         1
     57584     57583     57585         0         1
     57587     57586     57588         0         1
     57590     57589     57591         0         1
     57593     57592     57594         0         1
     57596     57595     57597         0         1
     57599     57598     57600         0         1
     57602     57601     57603         0         1
     57605     57604     57606         0         1
     57608     57607     57609         0         1
     57611     57610     57612         0         1
     57614     57613     57615         0         1
     57617     57616     57618         0         1
     57620     57619     57621         0         1
     57623     57622     57624         0         1
     57626     57625     57627         0         1
     57629     57628     57630         0         1
     57632     57631     57633         0         1
     57635     57634     57636         0         1
     57638     57637     57639         0         1
     57641     57640     57642         0         1
     57644     57643     57645         0         1
     57647     57646     57648         0         1
     57650     57649     57651         0         1
     57653     57652     57654         0         1
     57656     57655     57657         0         1
     57659     57658     57660         0         1
     57662     57661     57663         0         1
     57665     57664     57666         0         1
     57668     57667     57669         0         1
     57671     57670     57672         0         1
     57674     57673     57675         0         1
     57677     57676     57678         0         1
     57680     57679     57681         0         1
     57683     57682     57684         0         1
     57686     57685     57687         0         1
     57689     57688     57690         0         1
     57692     57691     57693         0         1
     57695     57694     57696         0         1
     57698     57697     57699         0         1
     57701     57700     57702         0         1
     57704     57703     57705         0         1
     57707     57706     57708         0         1
     57710     57709     57711         0         1
     57713     57712     57714         0         1
     57716     57715     57717         0         1
     57719     57718     57720         0         1
     57722     57721     57723         0         1
     57725     57724     57726         0         1
     57728     57727     57729         0         1
     57731     57730     57732         0         1
     57734     57733     57735         0         1
     57737     57736     57738         0         1
     57740     57739     57741         0         1
     57743     57742     57744         0         1
     57746     57745     57747         0         1
     57749     57748     57750         0         1
     57752     57751     57753         0         1
     57755     57754     57756         0         1
     57758     57757     57759         0         1
     57761     57760     57762         0         1
     57764     57763     57765         0         1
     57767     57766     57768         0         1
     57770     57769     57771         0         1
     57773     57772     57774         0         1
     57776     57775     57777         0         1
     57779     57778     57780         0         1
     57782     57781     57783         0         1
     57785     57784     57786         0         1
     57788     57787     57789         0         1
     57791     57790     57792         0         1
     57794     57793     57795         0         1
     57797     57796     57798         0         1
     57800     57799     57801         0         1
     57803     57802     57804         0         1
     57806     57805     57807         0         1
     57809     57808     57810         0         1
     57812     57811     57813         0         1
     57815     57814     57816         0         1
     57818     57817     57819         0         1
     57821     57820     57822         0         1
     57824     57823     57825         0         1
     57827     57826     57828         0         1
     57830     57829     57831         0         1
     57833     57832     57834         0         1
     57836     57835     57837         0         1
     57839     57838     57840         0         1
     57842     57841     57843         0         1
     57845     57844     57846         0         1
     57848     57847     57849         0         1
     57851     57850     57852         0         1
     57854     57853     57855         0         1
     57857     57856     57858         0         1
     57860     57859     57861         0         1
     57863     57862     57864         0         1
     57866     57865     57867         0         1
     57869     57868     57870         0         1
     57872     57871     57873         0         1
     57875     57874     57876         0         1
     57878     57877     57879         0         1
     57881     57880     57882         0         1
     57884     57883     57885         0         1
     57887     57886     57888         0         1
     57890     57889     57891         0         1
     57893     57892     57894         0         1
     57896     57895     57897         0         1
     57899     57898     57900         0         1
     57902     57901     57903         0         1
     57905     57904     57906         0         1
     57908     57907     57909         0         1
     57911     57910     57912         0         1
     57914     57913     57915         0         1
     57917     57916     57918         0         1
     57920     57919     57921         0         1
     57923     57922     57924         0         1
     57926     57925     57927         0         1
     57929     57928     57930         0         1
     57932     57931     57933         0         1
     57935     57934     57936         0         1
     57938     57937     57939         0         1
     57941     57940     57942         0         1
     57944     57943     57945         0         1
     57947     57946     57948         0         1
     57950     57949     57951         0         1
     57953     57952     57954         0         1
     57956     57955     57957         0         1
     57959     57958     57960         0         1
     57962     57961     57963         0         1
     57965     57964     57966         0         1
     57968     57967     57969         0         1
     57971     57970     57972         0         1
     57974     57973     57975         0         1
     57977     57976     57978         0         1
     57980     57979     57981         0         1
     57983     57982     57984         0         1
     57986     57985     57987         0         1
     57989     57988     57990         0         1
     57992     57991     57993         0         1
     57995     57994     57996         0         1
     57998     57997     57999         0         1
     58001     58000     58002         0         1
     58004     58003     58005         0         1
     58007     58006     58008         0         1
     58010     58009     58011         0         1
     58013     58012     58014         0         1
     58016     58015     58017         0         1
     58019     58018     58020         0         1
     58022     58021     58023         0         1
     58025     58024     58026         0         1
     58028     58027     58029         0         1
     58031     58030     58032         0         1
     58034     58033     58035         0         1
     58037     58036     58038         0         1
     58040     58039     58041         0         1
     58043     58042     58044         0         1
     58046     58045     58047         0         1
     58049     58048     58050         0         1
     58052     58051     58053         0         1
     58055     58054     58056         0         1
     58058     58057     58059         0         1
     58061     58060     58062         0         1
     58064     58063     58065         0         1
     58067     58066     58068         0         1
     58070     58069     58071         0         1
     58073     58072     58074         0         1
     58076     58075     58077         0         1
     58079     58078     58080         0         1
     58082     58081     58083         0         1
     58085     58084     58086         0         1
     58088     58087     58089         0         1
     58091     58090     58092         0         1
     58094     58093     58095         0         1
     58097     58096     58098         0         1
     58100     58099     58101         0         1
     58103     58102     58104         0         1
     58106     58105     58107         0         1
     58109     58108     58110         0         1
     58112     58111     58113         0         1
     58115     58114     58116         0         1
     58118     58117     58119         0         1
     58121     58120     58122         0         1
     58124     58123     58125         0         1
     58127     58126     58128         0         1
     58130     58129     58131         0         1
     58133     58132     58134         0         1
     58136     58135     58137         0         1
     58139     58138     58140         0         1
     58142     58141     58143         0         1
     58145     58144     58146         0         1
     58148     58147     58149         0         1
     58151     58150     58152         0         1
     58154     58153     58155         0         1
     58157     58156     58158         0         1
     58160     58159     58161         0         1
     58163     58162     58164         0         1
     58166     58165     58167         0         1
     58169     58168     58170         0         1
     58172     58171     58173         0         1
     58175     58174     58176         0         1
     58178     58177     58179         0         1
     58181     58180     58182         0         1
     58184     58183     58185         0         1
     58187     58186     58188         0         1
     58190     58189     58191         0         1
     58193     58192     58194         0         1
     58196     58195     58197         0         1
     58199     58198     58200         0         1
     58202     58201     58203         0         1
     58205     58204     58206         0         1
     58208     58207     58209         0         1
     58211     58210     58212         0         1
     58214     58213     58215         0         1
     58217     58216     58218         0         1
     58220     58219     58221         0         1
     58223     58222     58224         0         1
     58226     58225     58227         0         1
     58229     58228     58230         0         1
     58232     58231     58233         0         1
     58235     58234     58236         0         1
     58238     58237     58239         0         1
     58241     58240     58242         0         1
     58244     58243     58245         0         1
     58247     58246     58248         0         1
     58250     58249     58251         0         1
     58253     58252     58254         0         1
     58256     58255     58257         0         1
     58259     58258     58260         0         1
     58262     58261     58263         0         1
     58265     58264     58266         0         1
     58268     58267     58269         0         1
     58271     58270     58272         0         1
     58274     58273     58275         0         1
     58277     58276     58278         0         1
     58280     58279     58281         0         1
     58283     58282     58284         0         1
     58286     58285     58287         0         1
     58289     58288     58290         0         1
     58292     58291     58293         0         1
     58295     58294     58296         0         1
     58298     58297     58299         0         1
     58301     58300     58302         0         1
     58304     58303     58305         0         1
     58307     58306     58308         0         1
     58310     58309     58311         0         1
     58313     58312     58314         0         1
     58316     58315     58317         0         1
     58319     58318     58320         0         1
     58322     58321     58323         0         1
     58325     58324     58326         0         1
     58328     58327     58329         0         1
     58331     58330     58332         0         1
     58334     58333     58335         0         1
     58337     58336     58338         0         1
     58340     58339     58341         0         1
     58343     58342     58344         0         1
     58346     58345     58347         0         1
     58349     58348     58350         0         1
     58352     58351     58353         0         1
     58355     58354     58356         0         1
     58358     58357     58359         0         1
     58361     58360     58362         0         1
     58364     58363     58365         0         1
     58367     58366     58368         0         1
     58370     58369     58371         0         1
     58373     58372     58374         0         1
     58376     58375     58377         0         1
     58379     58378     58380         0         1
     58382     58381     58383         0         1
     58385     58384     58386         0         1
     58388     58387     58389         0         1
     58391     58390     58392         0         1
     58394     58393     58395         0         1
     58397     58396     58398         0         1
     58400     58399     58401         0         1
     58403     58402     58404         0         1
     58406     58405     58407         0         1
     58409     58408     58410         0         1
     58412     58411     58413         0         1
     58415     58414     58416         0         1
     58418     58417     58419         0         1
     58421     58420     58422         0         1
     58424     58423     58425         0         1
     58427     58426     58428         0         1
     58430     58429     58431         0         1
     58433     58432     58434         0         1
     58436     58435     58437         0         1
     58439     58438     58440         0         1
     58442     58441     58443         0         1
     58445     58444     58446         0         1
     58448     58447     58449         0         1
     58451     58450     58452         0         1
     58454     58453     58455         0         1
     58457     58456     58458         0         1
     58460     58459     58461         0         1
     58463     58462     58464         0         1
     58466     58465     58467         0         1
     58469     58468     58470         0         1
     58472     58471     58473         0         1
     58475     58474     58476         0         1
     58478     58477     58479         0         1
     58481     58480     58482         0         1
     58484     58483     58485         0         1
     58487     58486     58488         0         1
     58490     58489     58491         0         1
     58493     58492     58494         0         1
     58496     58495     58497         0         1
     58499     58498     58500         0         1
     58502     58501     58503         0         1
     58505     58504     58506         0         1
     58508     58507     58509         0         1
     58511     58510     58512         0         1
     58514     58513     58515         0         1
     58517     58516     58518         0         1
     58520     58519     58521         0         1
     58523     58522     58524         0         1
     58526     58525     58527         0         1
     58529     58528     58530         0         1
     58532     58531     58533         0         1
     58535     58534     58536         0         1
     58538     58537     58539         0         1
     58541     58540     58542         0         1
     58544     58543     58545         0         1
     58547     58546     58548         0         1
     58550     58549     58551         0         1
     58553     58552     58554         0         1
     58556     58555     58557         0         1
     58559     58558     58560         0         1
     58562     58561     58563         0         1
     58565     58564     58566         0         1
     58568     58567     58569         0         1
     58571     58570     58572         0         1
     58574     58573     58575         0         1
     58577     58576     58578         0         1
     58580     58579     58581         0         1
     58583     58582     58584         0         1
     58586     58585     58587         0         1
     58589     58588     58590         0         1
     58592     58591     58593         0         1
     58595     58594     58596         0         1
     58598     58597     58599         0         1
     58601     58600     58602         0         1
     58604     58603     58605         0         1
     58607     58606     58608         0         1
     58610     58609     58611         0         1
     58613     58612     58614         0         1
     58616     58615     58617         0         1
     58619     58618     58620         0         1
     58622     58621     58623         0         1
     58625     58624     58626         0         1
     58628     58627     58629         0         1
     58631     58630     58632         0         1
     58634     58633     58635         0         1
     58637     58636     58638         0         1
     58640     58639     58641         0         1
     58643     58642     58644         0         1
     58646     58645     58647         0         1
     58649     58648     58650         0         1
     58652     58651     58653         0         1
     58655     58654     58656         0         1
     58658     58657     58659         0         1
     58661     58660     58662         0         1
     58664     58663     58665         0         1
     58667     58666     58668         0         1
     58670     58669     58671         0         1
     58673     58672     58674         0         1
     58676     58675     58677         0         1
     58679     58678     58680         0         1
     58682     58681     58683         0         1
     58685     58684     58686         0         1
     58688     58687     58689         0         1
     58691     58690     58692         0         1
     58694     58693     58695         0         1
     58697     58696     58698         0         1
     58700     58699     58701         0         1
     58703     58702     58704         0         1
     58706     58705     58707         0         1
     58709     58708     58710         0         1
     58712     58711     58713         0         1
     58715     58714     58716         0         1
     58718     58717     58719         0         1
     58721     58720     58722         0         1
     58724     58723     58725         0         1
     58727     58726     58728         0         1
     58730     58729     58731         0         1
     58733     58732     58734         0         1
     58736     58735     58737         0         1
     58739     58738     58740         0         1
     58742     58741     58743         0         1
     58745     58744     58746         0         1
     58748     58747     58749         0         1
     58751     58750     58752         0         1
     58754     58753     58755         0         1
     58757     58756     58758         0         1
     58760     58759     58761         0         1
     58763     58762     58764         0         1
     58766     58765     58767         0         1
     58769     58768     58770         0         1
     58772     58771     58773         0         1
     58775     58774     58776         0         1
     58778     58777     58779         0         1
     58781     58780     58782         0         1
     58784     58783     58785         0         1
     58787     58786     58788         0         1
     58790     58789     58791         0         1
     58793     58792     58794         0         1
     58796     58795     58797         0         1
     58799     58798     58800         0         1
     58802     58801     58803         0         1
     58805     58804     58806         0         1
     58808     58807     58809         0         1
     58811     58810     58812         0         1
     58814     58813     58815         0         1
     58817     58816     58818         0         1
     58820     58819     58821         0         1
     58823     58822     58824         0         1
     58826     58825     58827         0         1
     58829     58828     58830         0         1
     58832     58831     58833         0         1
     58835     58834     58836         0         1
     58838     58837     58839         0         1
     58841     58840     58842         0         1
     58844     58843     58845         0         1
     58847     58846     58848         0         1
     58850     58849     58851         0         1
     58853     58852     58854         0         1
     58856     58855     58857         0         1
     58859     58858     58860         0         1
     58862     58861     58863         0         1
     58865     58864     58866         0         1
     58868     58867     58869         0         1
     58871     58870     58872         0         1
     58874     58873     58875         0         1
     58877     58876     58878         0         1
     58880     58879     58881         0         1
     58883     58882     58884         0         1
     58886     58885     58887         0         1
     58889     58888     58890         0         1
     58892     58891     58893         0         1
     58895     58894     58896         0         1
     58898     58897     58899         0         1
     58901     58900     58902         0         1
     58904     58903     58905         0         1
     58907     58906     58908         0         1
     58910     58909     58911         0         1
     58913     58912     58914         0         1
     58916     58915     58917         0         1
     58919     58918     58920         0         1
     58922     58921     58923         0         1
     58925     58924     58926         0         1
     58928     58927     58929         0         1
     58931     58930     58932         0         1
     58934     58933     58935         0         1
     58937     58936     58938         0         1
     58940     58939     58941         0         1
     58943     58942     58944         0         1
     58946     58945     58947         0         1
     58949     58948     58950         0         1
     58952     58951     58953         0         1
     58955     58954     58956         0         1
     58958     58957     58959         0         1
     58961     58960     58962         0         1
     58964     58963     58965         0         1
     58967     58966     58968         0         1
     58970     58969     58971         0         1
     58973     58972     58974         0         1
     58976     58975     58977         0         1
     58979     58978     58980         0         1
     58982     58981     58983         0         1
     58985     58984     58986         0         1
     58988     58987     58989         0         1
     58991     58990     58992         0         1
     58994     58993     58995         0         1
     58997     58996     58998         0         1
     59000     58999     59001         0         1
     59003     59002     59004         0         1
     59006     59005     59007         0         1
     59009     59008     59010         0         1
     59012     59011     59013         0         1
     59015     59014     59016         0         1
     59018     59017     59019         0         1
     59021     59020     59022         0         1
     59024     59023     59025         0         1
     59027     59026     59028         0         1
     59030     59029     59031         0         1
     59033     59032     59034         0         1
     59036     59035     59037         0         1
     59039     59038     59040         0         1
     59042     59041     59043         0         1
     59045     59044     59046         0         1
     59048     59047     59049         0         1
     59051     59050     59052         0         1
     59054     59053     59055         0         1
     59057     59056     59058         0         1
     59060     59059     59061         0         1
     59063     59062     59064         0         1
     59066     59065     59067         0         1
     59069     59068     59070         0         1
     59072     59071     59073         0         1
     59075     59074     59076         0         1
     59078     59077     59079         0         1
     59081     59080     59082         0         1
     59084     59083     59085         0         1
     59087     59086     59088         0         1
     59090     59089     59091         0         1
     59093     59092     59094         0         1
     59096     59095     59097         0         1
     59099     59098     59100         0         1
     59102     59101     59103         0         1
     59105     59104     59106         0         1
     59108     59107     59109         0         1
     59111     59110     59112         0         1
     59114     59113     59115         0         1
     59117     59116     59118         0         1
     59120     59119     59121         0         1
     59123     59122     59124         0         1
     59126     59125     59127         0         1
     59129     59128     59130         0         1
     59132     59131     59133         0         1
     59135     59134     59136         0         1
     59138     59137     59139         0         1
     59141     59140     59142         0         1
     59144     59143     59145         0         1
     59147     59146     59148         0         1
     59150     59149     59151         0         1
     59153     59152     59154         0         1
     59156     59155     59157         0         1
     59159     59158     59160         0         1
     59162     59161     59163         0         1
     59165     59164     59166         0         1
     59168     59167     59169         0         1
     59171     59170     59172         0         1
     59174     59173     59175         0         1
     59177     59176     59178         0         1
     59180     59179     59181         0         1
     59183     59182     59184         0         1
     59186     59185     59187         0         1
     59189     59188     59190         0         1
     59192     59191     59193         0         1
     59195     59194     59196         0         1
     59198     59197     59199         0         1
     59201     59200     59202         0         1
     59204     59203     59205         0         1
     59207     59206     59208         0         1
     59210     59209     59211         0         1
     59213     59212     59214         0         1
     59216     59215     59217         0         1
     59219     59218     59220         0         1
     59222     59221     59223         0         1
     59225     59224     59226         0         1
     59228     59227     59229         0         1
     59231     59230     59232         0         1
     59234     59233     59235         0         1
     59237     59236     59238         0         1
     59240     59239     59241         0         1
     59243     59242     59244         0         1
     59246     59245     59247         0         1
     59249     59248     59250         0         1
     59252     59251     59253         0         1
     59255     59254     59256         0         1
     59258     59257     59259         0         1
     59261     59260     59262         0         1
     59264     59263     59265         0         1
     59267     59266     59268         0         1
     59270     59269     59271         0         1
     59273     59272     59274         0         1
     59276     59275     59277         0         1
     59279     59278     59280         0         1
     59282     59281     59283         0         1
     59285     59284     59286         0         1
     59288     59287     59289         0         1
     59291     59290     59292         0         1
     59294     59293     59295         0         1
     59297     59296     59298         0         1
     59300     59299     59301         0         1
     59303     59302     59304         0         1
     59306     59305     59307         0         1
     59309     59308     59310         0         1
     59312     59311     59313         0         1
     59315     59314     59316         0         1
     59318     59317     59319         0         1
     59321     59320     59322         0         1
     59324     59323     59325         0         1
     59327     59326     59328         0         1
     59330     59329     59331         0         1
     59333     59332     59334         0         1
     59336     59335     59337         0         1
     59339     59338     59340         0         1
     59342     59341     59343         0         1
     59345     59344     59346         0         1
     59348     59347     59349         0         1
     59351     59350     59352         0         1
     59354     59353     59355         0         1
     59357     59356     59358         0         1
     59360     59359     59361         0         1
     59363     59362     59364         0         1
     59366     59365     59367         0         1
     59369     59368     59370         0         1
     59372     59371     59373         0         1
     59375     59374     59376         0         1
     59378     59377     59379         0         1
     59381     59380     59382         0         1
     59384     59383     59385         0         1
     59387     59386     59388         0         1
     59390     59389     59391         0         1
     59393     59392     59394         0         1
     59396     59395     59397         0         1
     59399     59398     59400         0         1
     59402     59401     59403         0         1
     59405     59404     59406         0         1
     59408     59407     59409         0         1
     59411     59410     59412         0         1
     59414     59413     59415         0         1
     59417     59416     59418         0         1
     59420     59419     59421         0         1
     59423     59422     59424         0         1
     59426     59425     59427         0         1
     59429     59428     59430         0         1
     59432     59431     59433         0         1
     59435     59434     59436         0         1
     59438     59437     59439         0         1
     59441     59440     59442         0         1
     59444     59443     59445         0         1
     59447     59446     59448         0         1
     59450     59449     59451         0         1
     59453     59452     59454         0         1
     59456     59455     59457         0         1
     59459     59458     59460         0         1
     59462     59461     59463         0         1
     59465     59464     59466         0         1
     59468     59467     59469         0         1
     59471     59470     59472         0         1
     59474     59473     59475         0         1
     59477     59476     59478         0         1
     59480     59479     59481         0         1
     59483     59482     59484         0         1
     59486     59485     59487         0         1
     59489     59488     59490         0         1
     59492     59491     59493         0         1
     59495     59494     59496         0         1
     59498     59497     59499         0         1
     59501     59500     59502         0         1
     59504     59503     59505         0         1
     59507     59506     59508         0         1
     59510     59509     59511         0         1
     59513     59512     59514         0         1
     59516     59515     59517         0         1
     59519     59518     59520         0         1
     59522     59521     59523         0         1
     59525     59524     59526         0         1
     59528     59527     59529         0         1
     59531     59530     59532         0         1
     59534     59533     59535         0         1
     59537     59536     59538         0         1
     59540     59539     59541         0         1
     59543     59542     59544         0         1
     59546     59545     59547         0         1
     59549     59548     59550         0         1
     59552     59551     59553         0         1
     59555     59554     59556         0         1
     59558     59557     59559         0         1
     59561     59560     59562         0         1
     59564     59563     59565         0         1
     59567     59566     59568         0         1
     59570     59569     59571         0         1
     59573     59572     59574         0         1
     59576     59575     59577         0         1
     59579     59578     59580         0         1
     59582     59581     59583         0         1
     59585     59584     59586         0         1
     59588     59587     59589         0         1
     59591     59590     59592         0         1
     59594     59593     59595         0         1
     59597     59596     59598         0         1
     59600     59599     59601         0         1
     59603     59602     59604         0         1
     59606     59605     59607         0         1
     59609     59608     59610         0         1
     59612     59611     59613         0         1
     59615     59614     59616         0         1
     59618     59617     59619         0         1
     59621     59620     59622         0         1
     59624     59623     59625         0         1
     59627     59626     59628         0         1
     59630     59629     59631         0         1
     59633     59632     59634         0         1
     59636     59635     59637         0         1
     59639     59638     59640         0         1
     59642     59641     59643         0         1
     59645     59644     59646         0         1
     59648     59647     59649         0         1
     59651     59650     59652         0         1
     59654     59653     59655         0         1
     59657     59656     59658         0         1
     59660     59659     59661         0         1
     59663     59662     59664         0         1
     59666     59665     59667         0         1
     59669     59668     59670         0         1
     59672     59671     59673         0         1
     59675     59674     59676         0         1
     59678     59677     59679         0         1
     59681     59680     59682         0         1
     59684     59683     59685         0         1
     59687     59686     59688         0         1
     59690     59689     59691         0         1
     59693     59692     59694         0         1
     59696     59695     59697         0         1
     59699     59698     59700         0         1
     59702     59701     59703         0         1
     59705     59704     59706         0         1
     59708     59707     59709         0         1
     59711     59710     59712         0         1
     59714     59713     59715         0         1
     59717     59716     59718         0         1
     59720     59719     59721         0         1
     59723     59722     59724         0         1
     59726     59725     59727         0         1
     59729     59728     59730         0         1
     59732     59731     59733         0         1
     59735     59734     59736         0         1
     59738     59737     59739         0         1
     59741     59740     59742         0         1
     59744     59743     59745         0         1
     59747     59746     59748         0         1
     59750     59749     59751         0         1
     59753     59752     59754         0         1
     59756     59755     59757         0         1
     59759     59758     59760         0         1
     59762     59761     59763         0         1
     59765     59764     59766         0         1
     59768     59767     59769         0         1
     59771     59770     59772         0         1
     59774     59773     59775         0         1
     59777     59776     59778         0         1
     59780     59779     59781         0         1
     59783     59782     59784         0         1
     59786     59785     59787         0         1
     59789     59788     59790         0         1
     59792     59791     59793         0         1
     59795     59794     59796         0         1
     59798     59797     59799         0         1
     59801     59800     59802         0         1
     59804     59803     59805         0         1
     59807     59806     59808         0         1
     59810     59809     59811         0         1
     59813     59812     59814         0         1
     59816     59815     59817         0         1
     59819     59818     59820         0         1
     59822     59821     59823         0         1
     59825     59824     59826         0         1
     59828     59827     59829         0         1
     59831     59830     59832         0         1
     59834     59833     59835         0         1
     59837     59836     59838         0         1
     59840     59839     59841         0         1
     59843     59842     59844         0         1
     59846     59845     59847         0         1
     59849     59848     59850         0         1
     59852     59851     59853         0         1
     59855     59854     59856         0         1
     59858     59857     59859         0         1
     59861     59860     59862         0         1
     59864     59863     59865         0         1
     59867     59866     59868         0         1
     59870     59869     59871         0         1
     59873     59872     59874         0         1
     59876     59875     59877         0         1
     59879     59878     59880         0         1
     59882     59881     59883         0         1
     59885     59884     59886         0         1
     59888     59887     59889         0         1
     59891     59890     59892         0         1
     59894     59893     59895         0         1
     59897     59896     59898         0         1
     59900     59899     59901         0         1
     59903     59902     59904         0         1
     59906     59905     59907         0         1
     59909     59908     59910         0         1
     59912     59911     59913         0         1
     59915     59914     59916         0         1
     59918     59917     59919         0         1
     59921     59920     59922         0         1
     59924     59923     59925         0         1
     59927     59926     59928         0         1
     59930     59929     59931         0         1
     59933     59932     59934         0         1
     59936     59935     59937         0         1
     59939     59938     59940         0         1
     59942     59941     59943         0         1
     59945     59944     59946         0         1
     59948     59947     59949         0         1
     59951     59950     59952         0         1
     59954     59953     59955         0         1
     59957     59956     59958         0         1
     59960     59959     59961         0         1
     59963     59962     59964         0         1
     59966     59965     59967         0         1
     59969     59968     59970         0         1
     59972     59971     59973         0         1
     59975     59974     59976         0         1
     59978     59977     59979         0         1
     59981     59980     59982         0         1
     59984     59983     59985         0         1
     59987     59986     59988         0         1
     59990     59989     59991         0         1
     59993     59992     59994         0         1
     59996     59995     59997         0         1
     59999     59998     60000         0         1
     60002     60001     60003         0         1
     60005     60004     60006         0         1
     60008     60007     60009         0         1
     60011     60010     60012         0         1
     60014     60013     60015         0         1
     60017     60016     60018         0         1
     60020     60019     60021         0         1
     60023     60022     60024         0         1
     60026     60025     60027         0         1
     60029     60028     60030         0         1
     60032     60031     60033         0         1
     60035     60034     60036         0         1
     60038     60037     60039         0         1
     60041     60040     60042         0         1
     60044     60043     60045         0         1
     60047     60046     60048         0         1
     60050     60049     60051         0         1
     60053     60052     60054         0         1
     60056     60055     60057         0         1
     60059     60058     60060         0         1
     60062     60061     60063         0         1
     60065     60064     60066         0         1
     60068     60067     60069         0         1
     60071     60070     60072         0         1
     60074     60073     60075         0         1
     60077     60076     60078         0         1
     60080     60079     60081         0         1
     60083     60082     60084         0         1
     60086     60085     60087         0         1
     60089     60088     60090         0         1
     60092     60091     60093         0         1
     60095     60094     60096         0         1
     60098     60097     60099         0         1
     60101     60100     60102         0         1
     60104     60103     60105         0         1
     60107     60106     60108         0         1
     60110     60109     60111         0         1
     60113     60112     60114         0         1
     60116     60115     60117         0         1
     60119     60118     60120         0         1
     60122     60121     60123         0         1
     60125     60124     60126         0         1
     60128     60127     60129         0         1
     60131     60130     60132         0         1
     60134     60133     60135         0         1
     60137     60136     60138         0         1
     60140     60139     60141         0         1
     60143     60142     60144         0         1
     60146     60145     60147         0         1
     60149     60148     60150         0         1
     60152     60151     60153         0         1
     60155     60154     60156         0         1
     60158     60157     60159         0         1
     60161     60160     60162         0         1
     60164     60163     60165         0         1
     60167     60166     60168         0         1
     60170     60169     60171         0         1
     60173     60172     60174         0         1
     60176     60175     60177         0         1
     60179     60178     60180         0         1
     60182     60181     60183         0         1
     60185     60184     60186         0         1
     60188     60187     60189         0         1
     60191     60190     60192         0         1
     60194     60193     60195         0         1
     60197     60196     60198         0         1
     60200     60199     60201         0         1
     60203     60202     60204         0         1
     60206     60205     60207         0         1
     60209     60208     60210         0         1
     60212     60211     60213         0         1
     60215     60214     60216         0         1
     60218     60217     60219         0         1
     60221     60220     60222         0         1
     60224     60223     60225         0         1
     60227     60226     60228         0         1
     60230     60229     60231         0         1
     60233     60232     60234         0         1
     60236     60235     60237         0         1
     60239     60238     60240         0         1
     60242     60241     60243         0         1
     60245     60244     60246         0         1
     60248     60247     60249         0         1
     60251     60250     60252         0         1
     60254     60253     60255         0         1
     60257     60256     60258         0         1
     60260     60259     60261         0         1
     60263     60262     60264         0         1
     60266     60265     60267         0         1
     60269     60268     60270         0         1
     60272     60271     60273         0         1
     60275     60274     60276         0         1
     60278     60277     60279         0         1
     60281     60280     60282         0         1
     60284     60283     60285         0         1
     60287     60286     60288         0         1
     60290     60289     60291         0         1
     60293     60292     60294         0         1
     60296     60295     60297         0         1
     60299     60298     60300         0         1
     60302     60301     60303         0         1
     60305     60304     60306         0         1
     60308     60307     60309         0         1
     60311     60310     60312         0         1
     60314     60313     60315         0         1
     60317     60316     60318         0         1
     60320     60319     60321         0         1
     60323     60322     60324         0         1
     60326     60325     60327         0         1
     60329     60328     60330         0         1
     60332     60331     60333         0         1
     60335     60334     60336         0         1
     60338     60337     60339         0         1
     60341     60340     60342         0         1
     60344     60343     60345         0         1
     60347     60346     60348         0         1
     60350     60349     60351         0         1
     60353     60352     60354         0         1
     60356     60355     60357         0         1
     60359     60358     60360         0         1
     60362     60361     60363         0         1
     60365     60364     60366         0         1
     60368     60367     60369         0         1
     60371     60370     60372         0         1
     60374     60373     60375         0         1
     60377     60376     60378         0         1
     60380     60379     60381         0         1
     60383     60382     60384         0         1
     60386     60385     60387         0         1
     60389     60388     60390         0         1
     60392     60391     60393         0         1
     60395     60394     60396         0         1
     60398     60397     60399         0         1
     60401     60400     60402         0         1
     60404     60403     60405         0         1
     60407     60406     60408         0         1
     60410     60409     60411         0         1
     60413     60412     60414         0         1
     60416     60415     60417         0         1
     60419     60418     60420         0         1
     60422     60421     60423         0         1
     60425     60424     60426         0         1
     60428     60427     60429         0         1
     60431     60430     60432         0         1
     60434     60433     60435         0         1
     60437     60436     60438         0         1
     60440     60439     60441         0         1
     60443     60442     60444         0         1
     60446     60445     60447         0         1
     60449     60448     60450         0         1
     60452     60451     60453         0         1
     60455     60454     60456         0         1
     60458     60457     60459         0         1
     60461     60460     60462         0         1
     60464     60463     60465         0         1
     60467     60466     60468         0         1
     60470     60469     60471         0         1
     60473     60472     60474         0         1
     60476     60475     60477         0         1
     60479     60478     60480         0         1
     60482     60481     60483         0         1
     60485     60484     60486         0         1
     60488     60487     60489         0         1
     60491     60490     60492         0         1
     60494     60493     60495         0         1
     60497     60496     60498         0         1
     60500     60499     60501         0         1
     60503     60502     60504         0         1
     60506     60505     60507         0         1
     60509     60508     60510         0         1
     60512     60511     60513         0         1
     60515     60514     60516         0         1
     60518     60517     60519         0         1
     60521     60520     60522         0         1
     60524     60523     60525         0         1
     60527     60526     60528         0         1
     60530     60529     60531         0         1
     60533     60532     60534         0         1
     60536     60535     60537         0         1
     60539     60538     60540         0         1
     60542     60541     60543         0         1
     60545     60544     60546         0         1
     60548     60547     60549         0         1
     60551     60550     60552         0         1
     60554     60553     60555         0         1
     60557     60556     60558         0         1
     60560     60559     60561         0         1
     60563     60562     60564         0         1
     60566     60565     60567         0         1
     60569     60568     60570         0         1
     60572     60571     60573         0         1
     60575     60574     60576         0         1
     60578     60577     60579         0         1
     60581     60580     60582         0         1
     60584     60583     60585         0         1
     60587     60586     60588         0         1
     60590     60589     60591         0         1
     60593     60592     60594         0         1
     60596     60595     60597         0         1
     60599     60598     60600         0         1
     60602     60601     60603         0         1
     60605     60604     60606         0         1
     60608     60607     60609         0         1
     60611     60610     60612         0         1
     60614     60613     60615         0         1
     60617     60616     60618         0         1
     60620     60619     60621         0         1
     60623     60622     60624         0         1
     60626     60625     60627         0         1
     60629     60628     60630         0         1
     60632     60631     60633         0         1
     60635     60634     60636         0         1
     60638     60637     60639         0         1
     60641     60640     60642         0         1
     60644     60643     60645         0         1
     60647     60646     60648         0         1
     60650     60649     60651         0         1
     60653     60652     60654         0         1
     60656     60655     60657         0         1
     60659     60658     60660         0         1
     60662     60661     60663         0         1
     60665     60664     60666         0         1
     60668     60667     60669         0         1
     60671     60670     60672         0         1
     60674     60673     60675         0         1
     60677     60676     60678         0         1
     60680     60679     60681         0         1
     60683     60682     60684         0         1
     60686     60685     60687         0         1
     60689     60688     60690         0         1
     60692     60691     60693         0         1
     60695     60694     60696         0         1
     60698     60697     60699         0         1
     60701     60700     60702         0         1
     60704     60703     60705         0         1
     60707     60706     60708         0         1
     60710     60709     60711         0         1
     60713     60712     60714         0         1
     60716     60715     60717         0         1
     60719     60718     60720         0         1
     60722     60721     60723         0         1
     60725     60724     60726         0         1
     60728     60727     60729         0         1
     60731     60730     60732         0         1
     60734     60733     60735         0         1
     60737     60736     60738         0         1
     60740     60739     60741         0         1
     60743     60742     60744         0         1
     60746     60745     60747         0         1
     60749     60748     60750         0         1
     60752     60751     60753         0         1
     60755     60754     60756         0         1
     60758     60757     60759         0         1
     60761     60760     60762         0         1
     60764     60763     60765         0         1
     60767     60766     60768         0         1
     60770     60769     60771         0         1
     60773     60772     60774         0         1
     60776     60775     60777         0         1
     60779     60778     60780         0         1
     60782     60781     60783         0         1
     60785     60784     60786         0         1
     60788     60787     60789         0         1
     60791     60790     60792         0         1
     60794     60793     60795         0         1
     60797     60796     60798         0         1
     60800     60799     60801         0         1
     60803     60802     60804         0         1
     60806     60805     60807         0         1
     60809     60808     60810         0         1
     60812     60811     60813         0         1
     60815     60814     60816         0         1
     60818     60817     60819         0         1
     60821     60820     60822         0         1
     60824     60823     60825         0         1
     60827     60826     60828         0         1
     60830     60829     60831         0         1
     60833     60832     60834         0         1
     60836     60835     60837         0         1
     60839     60838     60840         0         1
     60842     60841     60843         0         1
     60845     60844     60846         0         1
     60848     60847     60849         0         1
     60851     60850     60852         0         1
     60854     60853     60855         0         1
     60857     60856     60858         0         1
     60860     60859     60861         0         1
     60863     60862     60864         0         1
     60866     60865     60867         0         1
     60869     60868     60870         0         1
     60872     60871     60873         0         1
     60875     60874     60876         0         1
     60878     60877     60879         0         1
     60881     60880     60882         0         1
     60884     60883     60885         0         1
     60887     60886     60888         0         1
     60890     60889     60891         0         1
     60893     60892     60894         0         1
     60896     60895     60897         0         1
     60899     60898     60900         0         1
     60902     60901     60903         0         1
     60905     60904     60906         0         1
     60908     60907     60909         0         1
     60911     60910     60912         0         1
     60914     60913     60915         0         1
     60917     60916     60918         0         1
     60920     60919     60921         0         1
     60923     60922     60924         0         1
     60926     60925     60927         0         1
     60929     60928     60930         0         1
     60932     60931     60933         0         1
     60935     60934     60936         0         1
     60938     60937     60939         0         1
     60941     60940     60942         0         1
     60944     60943     60945         0         1
     60947     60946     60948         0         1
     60950     60949     60951         0         1
     60953     60952     60954         0         1
     60956     60955     60957         0         1
     60959     60958     60960         0         1
     60962     60961     60963         0         1
     60965     60964     60966         0         1
     60968     60967     60969         0         1
     60971     60970     60972         0         1
     60974     60973     60975         0         1
     60977     60976     60978         0         1
     60980     60979     60981         0         1
     60983     60982     60984         0         1
     60986     60985     60987         0         1
     60989     60988     60990         0         1
     60992     60991     60993         0         1
     60995     60994     60996         0         1
     60998     60997     60999         0         1
     61001     61000     61002         0         1
     61004     61003     61005         0         1
     61007     61006     61008         0         1
     61010     61009     61011         0         1
     61013     61012     61014         0         1
     61016     61015     61017         0         1
     61019     61018     61020         0         1
     61022     61021     61023         0         1
     61025     61024     61026         0         1
     61028     61027     61029         0         1
     61031     61030     61032         0         1
     61034     61033     61035         0         1
     61037     61036     61038         0         1
     61040     61039     61041         0         1
     61043     61042     61044         0         1
     61046     61045     61047         0         1
     61049     61048     61050         0         1
     61052     61051     61053         0         1
     61055     61054     61056         0         1
     61058     61057     61059         0         1
     61061     61060     61062         0         1
     61064     61063     61065         0         1
     61067     61066     61068         0         1
     61070     61069     61071         0         1
     61073     61072     61074         0         1
     61076     61075     61077         0         1
     61079     61078     61080         0         1
     61082     61081     61083         0         1
     61085     61084     61086         0         1
     61088     61087     61089         0         1
     61091     61090     61092         0         1
     61094     61093     61095         0         1
     61097     61096     61098         0         1
     61100     61099     61101         0         1
     61103     61102     61104         0         1
     61106     61105     61107         0         1
     61109     61108     61110         0         1
     61112     61111     61113         0         1
     61115     61114     61116         0         1
     61118     61117     61119         0         1
     61121     61120     61122         0         1
     61124     61123     61125         0         1
     61127     61126     61128         0         1
     61130     61129     61131         0         1
     61133     61132     61134         0         1
     61136     61135     61137         0         1
     61139     61138     61140         0         1
     61142     61141     61143         0         1
     61145     61144     61146         0         1
     61148     61147     61149         0         1
     61151     61150     61152         0         1
     61154     61153     61155         0         1
     61157     61156     61158         0         1
     61160     61159     61161         0         1
     61163     61162     61164         0         1
     61166     61165     61167         0         1
     61169     61168     61170         0         1
     61172     61171     61173         0         1
     61175     61174     61176         0         1
     61178     61177     61179         0         1
     61181     61180     61182         0         1
     61184     61183     61185         0         1
     61187     61186     61188         0         1
     61190     61189     61191         0         1
     61193     61192     61194         0         1
     61196     61195     61197         0         1
     61199     61198     61200         0         1
     61202     61201     61203         0         1
     61205     61204     61206         0         1
     61208     61207     61209         0         1
     61211     61210     61212         0         1
     61214     61213     61215         0         1
     61217     61216     61218         0         1
     61220     61219     61221         0         1
     61223     61222     61224         0         1
     61226     61225     61227         0         1
     61229     61228     61230         0         1
     61232     61231     61233         0         1
     61235     61234     61236         0         1
     61238     61237     61239         0         1
     61241     61240     61242         0         1
     61244     61243     61245         0         1
     61247     61246     61248         0         1
     61250     61249     61251         0         1
     61253     61252     61254         0         1
     61256     61255     61257         0         1
     61259     61258     61260         0         1
     61262     61261     61263         0         1
     61265     61264     61266         0         1
     61268     61267     61269         0         1
     61271     61270     61272         0         1
     61274     61273     61275         0         1
     61277     61276     61278         0         1
     61280     61279     61281         0         1
     61283     61282     61284         0         1
     61286     61285     61287         0         1
     61289     61288     61290         0         1
     61292     61291     61293         0         1
     61295     61294     61296         0         1
     61298     61297     61299         0         1
     61301     61300     61302         0         1
     61304     61303     61305         0         1
     61307     61306     61308         0         1
     61310     61309     61311         0         1
     61313     61312     61314         0         1
     61316     61315     61317         0         1
     61319     61318     61320         0         1
     61322     61321     61323         0         1
     61325     61324     61326         0         1
     61328     61327     61329         0         1
     61331     61330     61332         0         1
     61334     61333     61335         0         1
     61337     61336     61338         0         1
     61340     61339     61341         0         1
     61343     61342     61344         0         1
     61346     61345     61347         0         1
     61349     61348     61350         0         1
     61352     61351     61353         0         1
     61355     61354     61356         0         1
     61358     61357     61359         0         1
     61361     61360     61362         0         1
     61364     61363     61365         0         1
     61367     61366     61368         0         1
     61370     61369     61371         0         1
     61373     61372     61374         0         1
     61376     61375     61377         0         1
     61379     61378     61380         0         1
     61382     61381     61383         0         1
     61385     61384     61386         0         1
     61388     61387     61389         0         1
     61391     61390     61392         0         1
     61394     61393     61395         0         1
     61397     61396     61398         0         1
     61400     61399     61401         0         1
     61403     61402     61404         0         1
     61406     61405     61407         0         1
     61409     61408     61410         0         1
     61412     61411     61413         0         1
     61415     61414     61416         0         1
     61418     61417     61419         0         1
     61421     61420     61422         0         1
     61424     61423     61425         0         1
     61427     61426     61428         0         1
     61430     61429     61431         0         1
     61433     61432     61434         0         1
     61436     61435     61437         0         1
     61439     61438     61440         0         1
     61442     61441     61443         0         1
     61445     61444     61446         0         1
     61448     61447     61449         0         1
     61451     61450     61452         0         1
     61454     61453     61455         0         1
     61457     61456     61458         0         1
     61460     61459     61461         0         1
     61463     61462     61464         0         1
     61466     61465     61467         0         1
     61469     61468     61470         0         1
     61472     61471     61473         0         1
     61475     61474     61476         0         1
     61478     61477     61479         0         1
     61481     61480     61482         0         1
     61484     61483     61485         0         1
     61487     61486     61488         0         1
     61490     61489     61491         0         1
     61493     61492     61494         0         1
     61496     61495     61497         0         1
     61499     61498     61500         0         1
     61502     61501     61503         0         1
     61505     61504     61506         0         1
     61508     61507     61509         0         1
     61511     61510     61512         0         1
     61514     61513     61515         0         1
     61517     61516     61518         0         1
     61520     61519     61521         0         1
     61523     61522     61524         0         1
     61526     61525     61527         0         1
     61529     61528     61530         0         1
     61532     61531     61533         0         1
     61535     61534     61536         0         1
     61538     61537     61539         0         1
     61541     61540     61542         0         1
     61544     61543     61545         0         1
     61547     61546     61548         0         1
     61550     61549     61551         0         1
     61553     61552     61554         0         1
     61556     61555     61557         0         1
     61559     61558     61560         0         1
     61562     61561     61563         0         1
     61565     61564     61566         0         1
     61568     61567     61569         0         1
     61571     61570     61572         0         1
     61574     61573     61575         0         1
     61577     61576     61578         0         1
     61580     61579     61581         0         1
     61583     61582     61584         0         1
     61586     61585     61587         0         1
     61589     61588     61590         0         1
     61592     61591     61593         0         1
     61595     61594     61596         0         1
     61598     61597     61599         0         1
     61601     61600     61602         0         1
     61604     61603     61605         0         1
     61607     61606     61608         0         1
     61610     61609     61611         0         1
     61613     61612     61614         0         1
     61616     61615     61617         0         1
     61619     61618     61620         0         1
     61622     61621     61623         0         1
     61625     61624     61626         0         1
     61628     61627     61629         0         1
     61631     61630     61632         0         1
     61634     61633     61635         0         1
     61637     61636     61638         0         1
     61640     61639     61641         0         1
     61643     61642     61644         0         1
     61646     61645     61647         0         1
     61649     61648     61650         0         1
     61652     61651     61653         0         1
     61655     61654     61656         0         1
     61658     61657     61659         0         1
     61661     61660     61662         0         1
     61664     61663     61665         0         1
     61667     61666     61668         0         1
     61670     61669     61671         0         1
     61673     61672     61674         0         1
     61676     61675     61677         0         1
     61679     61678     61680         0         1
     61682     61681     61683         0         1
     61685     61684     61686         0         1
     61688     61687     61689         0         1
     61691     61690     61692         0         1
     61694     61693     61695         0         1
     61697     61696     61698         0         1
     61700     61699     61701         0         1
     61703     61702     61704         0         1
     61706     61705     61707         0         1
     61709     61708     61710         0         1
     61712     61711     61713         0         1
     61715     61714     61716         0         1
     61718     61717     61719         0         1
     61721     61720     61722         0         1
     61724     61723     61725         0         1
     61727     61726     61728         0         1
     61730     61729     61731         0         1
     61733     61732     61734         0         1
     61736     61735     61737         0         1
     61739     61738     61740         0         1
     61742     61741     61743         0         1
     61745     61744     61746         0         1
     61748     61747     61749         0         1
     61751     61750     61752         0         1
     61754     61753     61755         0         1
     61757     61756     61758         0         1
     61760     61759     61761         0         1
     61763     61762     61764         0         1
     61766     61765     61767         0         1
     61769     61768     61770         0         1
     61772     61771     61773         0         1
     61775     61774     61776         0         1
     61778     61777     61779         0         1
     61781     61780     61782         0         1
     61784     61783     61785         0         1
     61787     61786     61788         0         1
     61790     61789     61791         0         1
     61793     61792     61794         0         1
     61796     61795     61797         0         1
     61799     61798     61800         0         1
     61802     61801     61803         0         1
     61805     61804     61806         0         1
     61808     61807     61809         0         1
     61811     61810     61812         0         1
     61814     61813     61815         0         1
     61817     61816     61818         0         1
     61820     61819     61821         0         1
     61823     61822     61824         0         1
     61826     61825     61827         0         1
     61829     61828     61830         0         1
     61832     61831     61833         0         1
     61835     61834     61836         0         1
     61838     61837     61839         0         1
     61841     61840     61842         0         1
     61844     61843     61845         0         1
     61847     61846     61848         0         1
     61850     61849     61851         0         1
     61853     61852     61854         0         1
     61856     61855     61857         0         1
     61859     61858     61860         0         1
     61862     61861     61863         0         1
     61865     61864     61866         0         1
     61868     61867     61869         0         1
     61871     61870     61872         0         1
     61874     61873     61875         0         1
     61877     61876     61878         0         1
     61880     61879     61881         0         1
     61883     61882     61884         0         1
     61886     61885     61887         0         1
     61889     61888     61890         0         1
     61892     61891     61893         0         1
     61895     61894     61896         0         1
     61898     61897     61899         0         1
     61901     61900     61902         0         1
     61904     61903     61905         0         1
     61907     61906     61908         0         1
     61910     61909     61911         0         1
     61913     61912     61914         0         1
     61916     61915     61917         0         1
     61919     61918     61920         0         1
     61922     61921     61923         0         1
     61925     61924     61926         0         1
     61928     61927     61929         0         1
     61931     61930     61932         0         1
     61934     61933     61935         0         1
     61937     61936     61938         0         1
     61940     61939     61941         0         1
     61943     61942     61944         0         1
     61946     61945     61947         0         1
     61949     61948     61950         0         1
     61952     61951     61953         0         1
     61955     61954     61956         0         1
     61958     61957     61959         0         1
     61961     61960     61962         0         1
     61964     61963     61965         0         1
     61967     61966     61968         0         1
     61970     61969     61971         0         1
     61973     61972     61974         0         1
     61976     61975     61977         0         1
     61979     61978     61980         0         1
     61982     61981     61983         0         1
     61985     61984     61986         0         1
     61988     61987     61989         0         1
     61991     61990     61992         0         1
     61994     61993     61995         0         1
     61997     61996     61998         0         1
     62000     61999     62001         0         1
     62003     62002     62004         0         1
     62006     62005     62007         0         1
     62009     62008     62010         0         1
     62012     62011     62013         0         1
     62015     62014     62016         0         1
     62018     62017     62019         0         1
     62021     62020     62022         0         1
     62024     62023     62025         0         1
     62027     62026     62028         0         1
     62030     62029     62031         0         1
     62033     62032     62034         0         1
     62036     62035     62037         0         1
     62039     62038     62040         0         1
     62042     62041     62043         0         1
     62045     62044     62046         0         1
     62048     62047     62049         0         1
     62051     62050     62052         0         1
     62054     62053     62055         0         1
     62057     62056     62058         0         1
     62060     62059     62061         0         1
     62063     62062     62064         0         1
     62066     62065     62067         0         1
     62069     62068     62070         0         1
     62072     62071     62073         0         1
     62075     62074     62076         0         1
     62078     62077     62079         0         1
     62081     62080     62082         0         1
     62084     62083     62085         0         1
     62087     62086     62088         0         1
     62090     62089     62091         0         1
     62093     62092     62094         0         1
     62096     62095     62097         0         1
     62099     62098     62100         0         1
     62102     62101     62103         0         1
     62105     62104     62106         0         1
     62108     62107     62109         0         1
     62111     62110     62112         0         1
     62114     62113     62115         0         1
     62117     62116     62118         0         1
     62120     62119     62121         0         1
     62123     62122     62124         0         1
     62126     62125     62127         0         1
     62129     62128     62130         0         1
     62132     62131     62133         0         1
     62135     62134     62136         0         1
     62138     62137     62139         0         1
     62141     62140     62142         0         1
     62144     62143     62145         0         1
     62147     62146     62148         0         1
     62150     62149     62151         0         1
     62153     62152     62154         0         1
     62156     62155     62157         0         1
     62159     62158     62160         0         1
     62162     62161     62163         0         1
     62165     62164     62166         0         1
     62168     62167     62169         0         1
     62171     62170     62172         0         1
     62174     62173     62175         0         1
     62177     62176     62178         0         1
     62180     62179     62181         0         1
     62183     62182     62184         0         1
     62186     62185     62187         0         1
     62189     62188     62190         0         1
     62192     62191     62193         0         1
     62195     62194     62196         0         1
     62198     62197     62199         0         1
     62201     62200     62202         0         1
     62204     62203     62205         0         1
     62207     62206     62208         0         1
     62210     62209     62211         0         1
     62213     62212     62214         0         1
     62216     62215     62217         0         1
     62219     62218     62220         0         1
     62222     62221     62223         0         1
     62225     62224     62226         0         1
     62228     62227     62229         0         1
     62231     62230     62232         0         1
     62234     62233     62235         0         1
     62237     62236     62238         0         1
     62240     62239     62241         0         1
     62243     62242     62244         0         1
     62246     62245     62247         0         1
     62249     62248     62250         0         1
     62252     62251     62253         0         1
     62255     62254     62256         0         1
     62258     62257     62259         0         1
     62261     62260     62262         0         1
     62264     62263     62265         0         1
     62267     62266     62268         0         1
     62270     62269     62271         0         1
     62273     62272     62274         0         1
     62276     62275     62277         0         1
     62279     62278     62280         0         1
     62282     62281     62283         0         1
     62285     62284     62286         0         1
     62288     62287     62289         0         1
     62291     62290     62292         0         1
     62294     62293     62295         0         1
     62297     62296     62298         0         1
     62300     62299     62301         0         1
     62303     62302     62304         0         1
     62306     62305     62307         0         1
     62309     62308     62310         0         1
     62312     62311     62313         0         1
     62315     62314     62316         0         1
     62318     62317     62319         0         1
     62321     62320     62322         0         1
     62324     62323     62325         0         1
     62327     62326     62328         0         1
     62330     62329     62331         0         1
     62333     62332     62334         0         1
     62336     62335     62337         0         1
     62339     62338     62340         0         1
     62342     62341     62343         0         1
     62345     62344     62346         0         1
     62348     62347     62349         0         1
     62351     62350     62352         0         1
     62354     62353     62355         0         1
     62357     62356     62358         0         1
     62360     62359     62361         0         1
     62363     62362     62364         0         1
     62366     62365     62367         0         1
     62369     62368     62370         0         1
     62372     62371     62373         0         1
     62375     62374     62376         0         1
     62378     62377     62379         0         1
     62381     62380     62382         0         1
     62384     62383     62385         0         1
     62387     62386     62388         0         1
     62390     62389     62391         0         1
     62393     62392     62394         0         1
     62396     62395     62397         0         1
     62399     62398     62400         0         1
     62402     62401     62403         0         1
     62405     62404     62406         0         1
     62408     62407     62409         0         1
     62411     62410     62412         0         1
     62414     62413     62415         0         1
     62417     62416     62418         0         1
     62420     62419     62421         0         1
     62423     62422     62424         0         1
     62426     62425     62427         0         1
     62429     62428     62430         0         1
     62432     62431     62433         0         1
     62435     62434     62436         0         1
     62438     62437     62439         0         1
     62441     62440     62442         0         1
     62444     62443     62445         0         1
     62447     62446     62448         0         1
     62450     62449     62451         0         1
     62453     62452     62454         0         1
     62456     62455     62457         0         1
     62459     62458     62460         0         1
     62462     62461     62463         0         1
     62465     62464     62466         0         1
     62468     62467     62469         0         1
     62471     62470     62472         0         1
     62474     62473     62475         0         1
     62477     62476     62478         0         1
     62480     62479     62481         0         1
     62483     62482     62484         0         1
     62486     62485     62487         0         1
     62489     62488     62490         0         1
     62492     62491     62493         0         1
     62495     62494     62496         0         1
     62498     62497     62499         0         1
     62501     62500     62502         0         1
     62504     62503     62505         0         1
     62507     62506     62508         0         1
     62510     62509     62511         0         1
     62513     62512     62514         0         1
     62516     62515     62517         0         1
     62519     62518     62520         0         1
     62522     62521     62523         0         1
     62525     62524     62526         0         1
     62528     62527     62529         0         1
     62531     62530     62532         0         1
     62534     62533     62535         0         1
     62537     62536     62538         0         1
     62540     62539     62541         0         1
     62543     62542     62544         0         1
     62546     62545     62547         0         1
     62549     62548     62550         0         1
     62552     62551     62553         0         1
     62555     62554     62556         0         1
     62558     62557     62559         0         1
     62561     62560     62562         0         1
     62564     62563     62565         0         1
     62567     62566     62568         0         1
     62570     62569     62571         0         1
     62573     62572     62574         0         1
     62576     62575     62577         0         1
     62579     62578     62580         0         1
     62582     62581     62583         0         1
     62585     62584     62586         0         1
     62588     62587     62589         0         1
     62591     62590     62592         0         1
     62594     62593     62595         0         1
     62597     62596     62598         0         1
     62600     62599     62601         0         1
     62603     62602     62604         0         1
     62606     62605     62607         0         1
     62609     62608     62610         0         1
     62612     62611     62613         0         1
     62615     62614     62616         0         1
     62618     62617     62619         0         1
     62621     62620     62622         0         1
     62624     62623     62625         0         1
     62627     62626     62628         0         1
     62630     62629     62631         0         1
     62633     62632     62634         0         1
     62636     62635     62637         0         1
     62639     62638     62640         0         1
     62642     62641     62643         0         1
     62645     62644     62646         0         1
     62648     62647     62649         0         1
     62651     62650     62652         0         1
     62654     62653     62655         0         1
     62657     62656     62658         0         1
     62660     62659     62661         0         1
     62663     62662     62664         0         1
     62666     62665     62667         0         1
     62669     62668     62670         0         1
     62672     62671     62673         0         1
     62675     62674     62676         0         1
     62678     62677     62679         0         1
     62681     62680     62682         0         1
     62684     62683     62685         0         1
     62687     62686     62688         0         1
     62690     62689     62691         0         1
     62693     62692     62694         0         1
     62696     62695     62697         0         1
     62699     62698     62700         0         1
     62702     62701     62703         0         1
     62705     62704     62706         0         1
     62708     62707     62709         0         1
     62711     62710     62712         0         1
     62714     62713     62715         0         1
     62717     62716     62718         0         1
     62720     62719     62721         0         1
     62723     62722     62724         0         1
     62726     62725     62727         0         1
     62729     62728     62730         0         1
     62732     62731     62733         0         1
     62735     62734     62736         0         1
     62738     62737     62739         0         1
     62741     62740     62742         0         1
     62744     62743     62745         0         1
     62747     62746     62748         0         1
     62750     62749     62751         0         1
     62753     62752     62754         0         1
     62756     62755     62757         0         1
     62759     62758     62760         0         1
     62762     62761     62763         0         1
     62765     62764     62766         0         1
     62768     62767     62769         0         1
     62771     62770     62772         0         1
     62774     62773     62775         0         1
     62777     62776     62778         0         1
     62780     62779     62781         0         1
     62783     62782     62784         0         1
     62786     62785     62787         0         1
     62789     62788     62790         0         1
     62792     62791     62793         0         1
     62795     62794     62796         0         1
     62798     62797     62799         0         1
     62801     62800     62802         0         1
     62804     62803     62805         0         1
     62807     62806     62808         0         1
     62810     62809     62811         0         1
     62813     62812     62814         0         1
     62816     62815     62817         0         1
     62819     62818     62820         0         1
     62822     62821     62823         0         1
     62825     62824     62826         0         1
     62828     62827     62829         0         1
     62831     62830     62832         0         1
     62834     62833     62835         0         1
     62837     62836     62838         0         1
     62840     62839     62841         0         1
     62843     62842     62844         0         1
     62846     62845     62847         0         1
     62849     62848     62850         0         1
     62852     62851     62853         0         1
     62855     62854     62856         0         1
     62858     62857     62859         0         1
     62861     62860     62862         0         1
     62864     62863     62865         0         1
     62867     62866     62868         0         1
     62870     62869     62871         0         1
     62873     62872     62874         0         1
     62876     62875     62877         0         1
     62879     62878     62880         0         1
     62882     62881     62883         0         1
     62885     62884     62886         0         1
     62888     62887     62889         0         1
     62891     62890     62892         0         1
     62894     62893     62895         0         1
     62897     62896     62898         0         1
     62900     62899     62901         0         1
     62903     62902     62904         0         1
     62906     62905     62907         0         1
     62909     62908     62910         0         1
     62912     62911     62913         0         1
     62915     62914     62916         0         1
     62918     62917     62919         0         1
     62921     62920     62922         0         1
     62924     62923     62925         0         1
     62927     62926     62928         0         1
     62930     62929     62931         0         1
     62933     62932     62934         0         1
     62936     62935     62937         0         1
     62939     62938     62940         0         1
     62942     62941     62943         0         1
     62945     62944     62946         0         1
     62948     62947     62949         0         1
     62951     62950     62952         0         1
     62954     62953     62955         0         1
     62957     62956     62958         0         1
     62960     62959     62961         0         1
     62963     62962     62964         0         1
     62966     62965     62967         0         1
     62969     62968     62970         0         1
     62972     62971     62973         0         1
     62975     62974     62976         0         1
     62978     62977     62979         0         1
     62981     62980     62982         0         1
     62984     62983     62985         0         1
     62987     62986     62988         0         1
     62990     62989     62991         0         1
     62993     62992     62994         0         1
     62996     62995     62997         0         1
     62999     62998     63000         0         1
     63002     63001     63003         0         1
     63005     63004     63006         0         1
     63008     63007     63009         0         1
     63011     63010     63012         0         1
     63014     63013     63015         0         1
     63017     63016     63018         0         1
     63020     63019     63021         0         1
     63023     63022     63024         0         1
     63026     63025     63027         0         1
     63029     63028     63030         0         1
     63032     63031     63033         0         1
     63035     63034     63036         0         1
     63038     63037     63039         0         1
     63041     63040     63042         0         1
     63044     63043     63045         0         1
     63047     63046     63048         0         1
     63050     63049     63051         0         1
     63053     63052     63054         0         1
     63056     63055     63057         0         1
     63059     63058     63060         0         1
     63062     63061     63063         0         1
     63065     63064     63066         0         1
     63068     63067     63069         0         1
     63071     63070     63072         0         1
     63074     63073     63075         0         1
     63077     63076     63078         0         1
     63080     63079     63081         0         1
     63083     63082     63084         0         1
     63086     63085     63087         0         1
     63089     63088     63090         0         1
     63092     63091     63093         0         1
     63095     63094     63096         0         1
     63098     63097     63099         0         1
     63101     63100     63102         0         1
     63104     63103     63105         0         1
     63107     63106     63108         0         1
     63110     63109     63111         0         1
     63113     63112     63114         0         1
     63116     63115     63117         0         1
     63119     63118     63120         0         1
     63122     63121     63123         0         1
     63125     63124     63126         0         1
     63128     63127     63129         0         1
     63131     63130     63132         0         1
     63134     63133     63135         0         1
     63137     63136     63138         0         1
     63140     63139     63141         0         1
     63143     63142     63144         0         1
     63146     63145     63147         0         1
     63149     63148     63150         0         1
     63152     63151     63153         0         1
     63155     63154     63156         0         1
     63158     63157     63159         0         1
     63161     63160     63162         0         1
     63164     63163     63165         0         1
     63167     63166     63168         0         1
     63170     63169     63171         0         1
     63173     63172     63174         0         1
     63176     63175     63177         0         1
     63179     63178     63180         0         1
     63182     63181     63183         0         1
     63185     63184     63186         0         1
     63188     63187     63189         0         1
     63191     63190     63192         0         1
     63194     63193     63195         0         1
     63197     63196     63198         0         1
     63200     63199     63201         0         1
     63203     63202     63204         0         1
     63206     63205     63207         0         1
     63209     63208     63210         0         1
     63212     63211     63213         0         1
     63215     63214     63216         0         1
     63218     63217     63219         0         1
     63221     63220     63222         0         1
     63224     63223     63225         0         1
     63227     63226     63228         0         1
     63230     63229     63231         0         1
     63233     63232     63234         0         1
     63236     63235     63237         0         1
     63239     63238     63240         0         1
     63242     63241     63243         0         1
     63245     63244     63246         0         1
     63248     63247     63249         0         1
     63251     63250     63252         0         1
     63254     63253     63255         0         1
     63257     63256     63258         0         1
     63260     63259     63261         0         1
     63263     63262     63264         0         1
     63266     63265     63267         0         1
     63269     63268     63270         0         1
     63272     63271     63273         0         1
     63275     63274     63276         0         1
     63278     63277     63279         0         1
     63281     63280     63282         0         1
     63284     63283     63285         0         1
     63287     63286     63288         0         1
     63290     63289     63291         0         1
     63293     63292     63294         0         1
     63296     63295     63297         0         1
     63299     63298     63300         0         1
     63302     63301     63303         0         1
     63305     63304     63306         0         1
     63308     63307     63309         0         1
     63311     63310     63312         0         1
     63314     63313     63315         0         1
     63317     63316     63318         0         1
     63320     63319     63321         0         1
     63323     63322     63324         0         1
     63326     63325     63327         0         1
     63329     63328     63330         0         1
     63332     63331     63333         0         1
     63335     63334     63336         0         1
     63338     63337     63339         0         1
     63341     63340     63342         0         1
     63344     63343     63345         0         1
     63347     63346     63348         0         1
     63350     63349     63351         0         1
     63353     63352     63354         0         1
     63356     63355     63357         0         1
     63359     63358     63360         0         1
     63362     63361     63363         0         1
     63365     63364     63366         0         1
     63368     63367     63369         0         1
     63371     63370     63372         0         1
     63374     63373     63375         0         1
     63377     63376     63378         0         1
     63380     63379     63381         0         1
     63383     63382     63384         0         1
     63386     63385     63387         0         1
     63389     63388     63390         0         1
     63392     63391     63393         0         1
     63395     63394     63396         0         1
     63398     63397     63399         0         1
     63401     63400     63402         0         1
     63404     63403     63405         0         1
     63407     63406     63408         0         1
     63410     63409     63411         0         1
     63413     63412     63414         0         1
     63416     63415     63417         0         1
     63419     63418     63420         0         1
     63422     63421     63423         0         1
     63425     63424     63426         0         1
     63428     63427     63429         0         1
     63431     63430     63432         0         1
     63434     63433     63435         0         1
     63437     63436     63438         0         1
     63440     63439     63441         0         1
     63443     63442     63444         0         1
     63446     63445     63447         0         1
     63449     63448     63450         0         1
     63452     63451     63453         0         1
     63455     63454     63456         0         1
     63458     63457     63459         0         1
     63461     63460     63462         0         1
     63464     63463     63465         0         1
     63467     63466     63468         0         1
     63470     63469     63471         0         1
     63473     63472     63474         0         1
     63476     63475     63477         0         1
     63479     63478     63480         0         1
     63482     63481     63483         0         1
     63485     63484     63486         0         1
     63488     63487     63489         0         1
     63491     63490     63492         0         1
     63494     63493     63495         0         1
     63497     63496     63498         0         1
     63500     63499     63501         0         1
     63503     63502     63504         0         1
     63506     63505     63507         0         1
     63509     63508     63510         0         1
     63512     63511     63513         0         1
     63515     63514     63516         0         1
     63518     63517     63519         0         1
     63521     63520     63522         0         1
     63524     63523     63525         0         1
     63527     63526     63528         0         1
     63530     63529     63531         0         1
     63533     63532     63534         0         1
     63536     63535     63537         0         1
     63539     63538     63540         0         1
     63542     63541     63543         0         1
     63545     63544     63546         0         1
     63548     63547     63549         0         1
     63551     63550     63552         0         1
     63554     63553     63555         0         1
     63557     63556     63558         0         1
     63560     63559     63561         0         1
     63563     63562     63564         0         1
     63566     63565     63567         0         1
     63569     63568     63570         0         1
     63572     63571     63573         0         1
     63575     63574     63576         0         1
     63578     63577     63579         0         1
     63581     63580     63582         0         1
     63584     63583     63585         0         1
     63587     63586     63588         0         1
     63590     63589     63591         0         1
     63593     63592     63594         0         1
     63596     63595     63597         0         1
     63599     63598     63600         0         1
     63602     63601     63603         0         1
     63605     63604     63606         0         1
     63608     63607     63609         0         1
     63611     63610     63612         0         1
     63614     63613     63615         0         1
     63617     63616     63618         0         1
     63620     63619     63621         0         1
     63623     63622     63624         0         1
     63626     63625     63627         0         1
     63629     63628     63630         0         1
     63632     63631     63633         0         1
     63635     63634     63636         0         1
     63638     63637     63639         0         1
     63641     63640     63642         0         1
     63644     63643     63645         0         1
     63647     63646     63648         0         1
     63650     63649     63651         0         1
     63653     63652     63654         0         1
     63656     63655     63657         0         1
     63659     63658     63660         0         1
     63662     63661     63663         0         1
     63665     63664     63666         0         1
     63668     63667     63669         0         1
     63671     63670     63672         0         1
     63674     63673     63675         0         1
     63677     63676     63678         0         1
     63680     63679     63681         0         1
     63683     63682     63684         0         1
     63686     63685     63687         0         1
     63689     63688     63690         0         1
     63692     63691     63693         0         1
     63695     63694     63696         0         1
     63698     63697     63699         0         1
     63701     63700     63702         0         1
     63704     63703     63705         0         1
     63707     63706     63708         0         1
     63710     63709     63711         0         1
     63713     63712     63714         0         1
     63716     63715     63717         0         1
     63719     63718     63720         0         1
     63722     63721     63723         0         1
     63725     63724     63726         0         1
     63728     63727     63729         0         1
     63731     63730     63732         0         1
     63734     63733     63735         0         1
     63737     63736     63738         0         1
     63740     63739     63741         0         1
     63743     63742     63744         0         1
     63746     63745     63747         0         1
     63749     63748     63750         0         1
     63752     63751     63753         0         1
     63755     63754     63756         0         1
     63758     63757     63759         0         1
     63761     63760     63762         0         1
     63764     63763     63765         0         1
     63767     63766     63768         0         1
     63770     63769     63771         0         1
     63773     63772     63774         0         1
     63776     63775     63777         0         1
     63779     63778     63780         0         1
     63782     63781     63783         0         1
     63785     63784     63786         0         1
     63788     63787     63789         0         1
     63791     63790     63792         0         1
     63794     63793     63795         0         1
     63797     63796     63798         0         1
     63800     63799     63801         0         1
     63803     63802     63804         0         1
     63806     63805     63807         0         1
     63809     63808     63810         0         1
     63812     63811     63813         0         1
     63815     63814     63816         0         1
     63818     63817     63819         0         1
     63821     63820     63822         0         1
     63824     63823     63825         0         1
     63827     63826     63828         0         1
     63830     63829     63831         0         1
     63833     63832     63834         0         1
     63836     63835     63837         0         1
     63839     63838     63840         0         1
     63842     63841     63843         0         1
     63845     63844     63846         0         1
     63848     63847     63849         0         1
     63851     63850     63852         0         1
     63854     63853     63855         0         1
     63857     63856     63858         0         1
     63860     63859     63861         0         1
     63863     63862     63864         0         1
     63866     63865     63867         0         1
     63869     63868     63870         0         1
     63872     63871     63873         0         1
     63875     63874     63876         0         1
     63878     63877     63879         0         1
     63881     63880     63882         0         1
     63884     63883     63885         0         1
     63887     63886     63888         0         1
     63890     63889     63891         0         1
     63893     63892     63894         0         1
     63896     63895     63897         0         1
     63899     63898     63900         0         1
     63902     63901     63903         0         1
     63905     63904     63906         0         1
     63908     63907     63909         0         1
     63911     63910     63912         0         1
     63914     63913     63915         0         1
     63917     63916     63918         0         1
     63920     63919     63921         0         1
     63923     63922     63924         0         1
     63926     63925     63927         0         1
     63929     63928     63930         0         1
     63932     63931     63933         0         1
     63935     63934     63936         0         1
     63938     63937     63939         0         1
     63941     63940     63942         0         1
     63944     63943     63945         0         1
     63947     63946     63948         0         1
     63950     63949     63951         0         1
     63953     63952     63954         0         1
     63956     63955     63957         0         1
     63959     63958     63960         0         1
     63962     63961     63963         0         1
     63965     63964     63966         0         1
     63968     63967     63969         0         1
     63971     63970     63972         0         1
     63974     63973     63975         0         1
     63977     63976     63978         0         1
     63980     63979     63981         0         1
     63983     63982     63984         0         1
     63986     63985     63987         0         1
     63989     63988     63990         0         1
     63992     63991     63993         0         1
     63995     63994     63996         0         1
     63998     63997     63999         0         1
     64001     64000     64002         0         1
     64004     64003     64005         0         1
     64007     64006     64008         0         1
     64010     64009     64011         0         1
     64013     64012     64014         0         1
     64016     64015     64017         0         1
     64019     64018     64020         0         1
     64022     64021     64023         0         1
     64025     64024     64026         0         1
     64028     64027     64029         0         1
     64031     64030     64032         0         1
     64034     64033     64035         0         1
     64037     64036     64038         0         1
     64040     64039     64041         0         1
     64043     64042     64044         0         1
     64046     64045     64047         0         1
     64049     64048     64050         0         1
     64052     64051     64053         0         1
     64055     64054     64056         0         1
     64058     64057     64059         0         1
     64061     64060     64062         0         1
     64064     64063     64065         0         1
     64067     64066     64068         0         1
     64070     64069     64071         0         1
     64073     64072     64074         0         1
     64076     64075     64077         0         1
     64079     64078     64080         0         1
     64082     64081     64083         0         1
     64085     64084     64086         0         1
     64088     64087     64089         0         1
     64091     64090     64092         0         1
     64094     64093     64095         0         1
     64097     64096     64098         0         1
     64100     64099     64101         0         1
     64103     64102     64104         0         1
     64106     64105     64107         0         1
     64109     64108     64110         0         1
     64112     64111     64113         0         1
     64115     64114     64116         0         1
     64118     64117     64119         0         1
     64121     64120     64122         0         1
     64124     64123     64125         0         1
     64127     64126     64128         0         1
     64130     64129     64131         0         1
     64133     64132     64134         0         1
     64136     64135     64137         0         1
     64139     64138     64140         0         1
     64142     64141     64143         0         1
     64145     64144     64146         0         1
     64148     64147     64149         0         1
     64151     64150     64152         0         1
     64154     64153     64155         0         1
     64157     64156     64158         0         1
     64160     64159     64161         0         1
     64163     64162     64164         0         1
     64166     64165     64167         0         1
     64169     64168     64170         0         1
     64172     64171     64173         0         1
     64175     64174     64176         0         1
     64178     64177     64179         0         1
     64181     64180     64182         0         1
     64184     64183     64185         0         1
     64187     64186     64188         0         1
     64190     64189     64191         0         1
     64193     64192     64194         0         1
     64196     64195     64197         0         1
     64199     64198     64200         0         1
     64202     64201     64203         0         1
     64205     64204     64206         0         1
     64208     64207     64209         0         1
     64211     64210     64212         0         1
     64214     64213     64215         0         1
     64217     64216     64218         0         1
     64220     64219     64221         0         1
     64223     64222     64224         0         1
     64226     64225     64227         0         1
     64229     64228     64230         0         1
     64232     64231     64233         0         1
     64235     64234     64236         0         1
     64238     64237     64239         0         1
     64241     64240     64242         0         1
     64244     64243     64245         0         1
     64247     64246     64248         0         1
     64250     64249     64251         0         1
     64253     64252     64254         0         1
     64256     64255     64257         0         1
     64259     64258     64260         0         1
     64262     64261     64263         0         1
     64265     64264     64266         0         1
     64268     64267     64269         0         1
     64271     64270     64272         0         1
     64274     64273     64275         0         1
     64277     64276     64278         0         1
     64280     64279     64281         0         1
     64283     64282     64284         0         1
     64286     64285     64287         0         1
     64289     64288     64290         0         1
     64292     64291     64293         0         1
     64295     64294     64296         0         1
     64298     64297     64299         0         1
     64301     64300     64302         0         1
     64304     64303     64305         0         1
     64307     64306     64308         0         1
     64310     64309     64311         0         1
     64313     64312     64314         0         1
     64316     64315     64317         0         1
     64319     64318     64320         0         1
     64322     64321     64323         0         1
     64325     64324     64326         0         1
     64328     64327     64329         0         1
     64331     64330     64332         0         1
     64334     64333     64335         0         1
     64337     64336     64338         0         1
     64340     64339     64341         0         1
     64343     64342     64344         0         1
     64346     64345     64347         0         1
     64349     64348     64350         0         1
     64352     64351     64353         0         1
     64355     64354     64356         0         1
     64358     64357     64359         0         1
     64361     64360     64362         0         1
     64364     64363     64365         0         1
     64367     64366     64368         0         1
     64370     64369     64371         0         1
     64373     64372     64374         0         1
     64376     64375     64377         0         1
     64379     64378     64380         0         1
     64382     64381     64383         0         1
     64385     64384     64386         0         1
     64388     64387     64389         0         1
     64391     64390     64392         0         1
     64394     64393     64395         0         1
     64397     64396     64398         0         1
     64400     64399     64401         0         1
     64403     64402     64404         0         1
     64406     64405     64407         0         1
     64409     64408     64410         0         1
     64412     64411     64413         0         1
     64415     64414     64416         0         1
     64418     64417     64419         0         1
     64421     64420     64422         0         1
     64424     64423     64425         0         1
     64427     64426     64428         0         1
     64430     64429     64431         0         1
     64433     64432     64434         0         1
     64436     64435     64437         0         1
     64439     64438     64440         0         1
     64442     64441     64443         0         1
     64445     64444     64446         0         1
     64448     64447     64449         0         1
     64451     64450     64452         0         1
     64454     64453     64455         0         1
     64457     64456     64458         0         1
     64460     64459     64461         0         1
     64463     64462     64464         0         1
     64466     64465     64467         0         1
     64469     64468     64470         0         1
     64472     64471     64473         0         1
     64475     64474     64476         0         1
     64478     64477     64479         0         1
     64481     64480     64482         0         1
     64484     64483     64485         0         1
     64487     64486     64488         0         1
     64490     64489     64491         0         1
     64493     64492     64494         0         1
     64496     64495     64497         0         1
     64499     64498     64500         0         1
     64502     64501     64503         0         1
     64505     64504     64506         0         1
     64508     64507     64509         0         1
     64511     64510     64512         0         1
     64514     64513     64515         0         1
     64517     64516     64518         0         1
     64520     64519     64521         0         1
     64523     64522     64524         0         1
     64526     64525     64527         0         1
     64529     64528     64530         0         1
     64532     64531     64533         0         1
     64535     64534     64536         0         1
     64538     64537     64539         0         1
     64541     64540     64542         0         1
     64544     64543     64545         0         1
     64547     64546     64548         0         1
     64550     64549     64551         0         1
     64553     64552     64554         0         1
     64556     64555     64557         0         1
     64559     64558     64560         0         1
     64562     64561     64563         0         1
     64565     64564     64566         0         1
     64568     64567     64569         0         1
     64571     64570     64572         0         1
     64574     64573     64575         0         1
     64577     64576     64578         0         1
     64580     64579     64581         0         1
     64583     64582     64584         0         1
     64586     64585     64587         0         1
     64589     64588     64590         0         1
     64592     64591     64593         0         1
     64595     64594     64596         0         1
     64598     64597     64599         0         1
     64601     64600     64602         0         1
     64604     64603     64605         0         1
     64607     64606     64608         0         1
     64610     64609     64611         0         1
     64613     64612     64614         0         1
     64616     64615     64617         0         1
     64619     64618     64620         0         1
     64622     64621     64623         0         1
     64625     64624     64626         0         1
     64628     64627     64629         0         1
     64631     64630     64632         0         1
     64634     64633     64635         0         1
     64637     64636     64638         0         1
     64640     64639     64641         0         1
     64643     64642     64644         0         1
     64646     64645     64647         0         1
     64649     64648     64650         0         1
     64652     64651     64653         0         1
     64655     64654     64656         0         1
     64658     64657     64659         0         1
     64661     64660     64662         0         1
     64664     64663     64665         0         1
     64667     64666     64668         0         1
     64670     64669     64671         0         1
     64673     64672     64674         0         1
     64676     64675     64677         0         1
     64679     64678     64680         0         1
     64682     64681     64683         0         1
     64685     64684     64686         0         1
     64688     64687     64689         0         1
     64691     64690     64692         0         1
     64694     64693     64695         0         1
     64697     64696     64698         0         1
     64700     64699     64701         0         1
     64703     64702     64704         0         1
     64706     64705     64707         0         1
     64709     64708     64710         0         1
     64712     64711     64713         0         1
     64715     64714     64716         0         1
     64718     64717     64719         0         1
     64721     64720     64722         0         1
     64724     64723     64725         0         1
     64727     64726     64728         0         1
     64730     64729     64731         0         1
     64733     64732     64734         0         1
     64736     64735     64737         0         1
     64739     64738     64740         0         1
     64742     64741     64743         0         1
     64745     64744     64746         0         1
     64748     64747     64749         0         1
     64751     64750     64752         0         1
     64754     64753     64755         0         1
     64757     64756     64758         0         1
     64760     64759     64761         0         1
     64763     64762     64764         0         1
     64766     64765     64767         0         1
     64769     64768     64770         0         1
     64772     64771     64773         0         1
     64775     64774     64776         0         1
     64778     64777     64779         0         1
     64781     64780     64782         0         1
     64784     64783     64785         0         1
     64787     64786     64788         0         1
     64790     64789     64791         0         1
     64793     64792     64794         0         1
     64796     64795     64797         0         1
     64799     64798     64800         0         1
     64802     64801     64803         0         1
     64805     64804     64806         0         1
     64808     64807     64809         0         1
     64811     64810     64812         0         1
     64814     64813     64815         0         1
     64817     64816     64818         0         1
     64820     64819     64821         0         1
     64823     64822     64824         0         1
     64826     64825     64827         0         1
     64829     64828     64830         0         1
     64832     64831     64833         0         1
     64835     64834     64836         0         1
     64838     64837     64839         0         1
     64841     64840     64842         0         1
     64844     64843     64845         0         1
     64847     64846     64848         0         1
     64850     64849     64851         0         1
     64853     64852     64854         0         1
     64856     64855     64857         0         1
     64859     64858     64860         0         1
     64862     64861     64863         0         1
     64865     64864     64866         0         1
     64868     64867     64869         0         1
     64871     64870     64872         0         1
     64874     64873     64875         0         1
     64877     64876     64878         0         1
     64880     64879     64881         0         1
     64883     64882     64884         0         1
     64886     64885     64887         0         1
     64889     64888     64890         0         1
     64892     64891     64893         0         1
     64895     64894     64896         0         1
     64898     64897     64899         0         1
     64901     64900     64902         0         1
     64904     64903     64905         0         1
     64907     64906     64908         0         1
     64910     64909     64911         0         1
     64913     64912     64914         0         1
     64916     64915     64917         0         1
     64919     64918     64920         0         1
     64922     64921     64923         0         1
     64925     64924     64926         0         1
     64928     64927     64929         0         1
     64931     64930     64932         0         1
     64934     64933     64935         0         1
     64937     64936     64938         0         1
     64940     64939     64941         0         1
     64943     64942     64944         0         1
     64946     64945     64947         0         1
     64949     64948     64950         0         1
     64952     64951     64953         0         1
     64955     64954     64956         0         1
     64958     64957     64959         0         1
     64961     64960     64962         0         1
     64964     64963     64965         0         1
     64967     64966     64968         0         1
     64970     64969     64971         0         1
     64973     64972     64974         0         1
     64976     64975     64977         0         1
     64979     64978     64980         0         1
     64982     64981     64983         0         1
     64985     64984     64986         0         1
     64988     64987     64989         0         1
     64991     64990     64992         0         1
     64994     64993     64995         0         1
     64997     64996     64998         0         1
     65000     64999     65001         0         1
     65003     65002     65004         0         1
     65006     65005     65007         0         1
     65009     65008     65010         0         1
     65012     65011     65013         0         1
     65015     65014     65016         0         1
     65018     65017     65019         0         1
     65021     65020     65022         0         1
     65024     65023     65025         0         1
     65027     65026     65028         0         1
     65030     65029     65031         0         1
     65033     65032     65034         0         1
     65036     65035     65037         0         1
     65039     65038     65040         0         1
     65042     65041     65043         0         1
     65045     65044     65046         0         1
     65048     65047     65049         0         1
     65051     65050     65052         0         1
     65054     65053     65055         0         1
     65057     65056     65058         0         1
     65060     65059     65061         0         1
     65063     65062     65064         0         1
     65066     65065     65067         0         1
     65069     65068     65070         0         1
     65072     65071     65073         0         1
     65075     65074     65076         0         1
     65078     65077     65079         0         1
     65081     65080     65082         0         1
     65084     65083     65085         0         1
     65087     65086     65088         0         1
     65090     65089     65091         0         1
     65093     65092     65094         0         1
     65096     65095     65097         0         1
     65099     65098     65100         0         1
     65102     65101     65103         0         1
     65105     65104     65106         0         1
     65108     65107     65109         0         1
     65111     65110     65112         0         1
     65114     65113     65115         0         1
     65117     65116     65118         0         1
     65120     65119     65121         0         1
     65123     65122     65124         0         1
     65126     65125     65127         0         1
     65129     65128     65130         0         1
     65132     65131     65133         0         1
     65135     65134     65136         0         1
     65138     65137     65139         0         1
     65141     65140     65142         0         1
     65144     65143     65145         0         1
     65147     65146     65148         0         1
     65150     65149     65151         0         1
     65153     65152     65154         0         1
     65156     65155     65157         0         1
     65159     65158     65160         0         1
     65162     65161     65163         0         1
     65165     65164     65166         0         1
     65168     65167     65169         0         1
     65171     65170     65172         0         1
     65174     65173     65175         0         1
     65177     65176     65178         0         1
     65180     65179     65181         0         1
     65183     65182     65184         0         1
     65186     65185     65187         0         1
     65189     65188     65190         0         1
     65192     65191     65193         0         1
     65195     65194     65196         0         1
     65198     65197     65199         0         1
     65201     65200     65202         0         1
     65204     65203     65205         0         1
     65207     65206     65208         0         1
     65210     65209     65211         0         1
     65213     65212     65214         0         1
     65216     65215     65217         0         1
     65219     65218     65220         0         1
     65222     65221     65223         0         1
     65225     65224     65226         0         1
     65228     65227     65229         0         1
     65231     65230     65232         0         1
     65234     65233     65235         0         1
     65237     65236     65238         0         1
     65240     65239     65241         0         1
     65243     65242     65244         0         1
     65246     65245     65247         0         1
     65249     65248     65250         0         1
     65252     65251     65253         0         1
     65255     65254     65256         0         1
     65258     65257     65259         0         1
     65261     65260     65262         0         1
     65264     65263     65265         0         1
     65267     65266     65268         0         1
     65270     65269     65271         0         1
     65273     65272     65274         0         1
     65276     65275     65277         0         1
     65279     65278     65280         0         1
     65282     65281     65283         0         1
     65285     65284     65286         0         1
     65288     65287     65289         0         1
     65291     65290     65292         0         1
     65294     65293     65295         0         1
     65297     65296     65298         0         1
     65300     65299     65301         0         1
     65303     65302     65304         0         1
     65306     65305     65307         0         1
     65309     65308     65310         0         1
     65312     65311     65313         0         1
     65315     65314     65316         0         1
     65318     65317     65319         0         1
     65321     65320     65322         0         1
     65324     65323     65325         0         1
     65327     65326     65328         0         1
     65330     65329     65331         0         1
     65333     65332     65334         0         1
     65336     65335     65337         0         1
     65339     65338     65340         0         1
     65342     65341     65343         0         1
     65345     65344     65346         0         1
     65348     65347     65349         0         1
     65351     65350     65352         0         1
     65354     65353     65355         0         1
     65357     65356     65358         0         1
     65360     65359     65361         0         1
     65363     65362     65364         0         1
     65366     65365     65367         0         1
     65369     65368     65370         0         1
     65372     65371     65373         0         1
     65375     65374     65376         0         1
     65378     65377     65379         0         1
     65381     65380     65382         0         1
     65384     65383     65385         0         1
     65387     65386     65388         0         1
     65390     65389     65391         0         1
     65393     65392     65394         0         1
     65396     65395     65397         0         1
     65399     65398     65400         0         1
     65402     65401     65403         0         1
     65405     65404     65406         0         1
     65408     65407     65409         0         1
     65411     65410     65412         0         1
     65414     65413     65415         0         1
     65417     65416     65418         0         1
     65420     65419     65421         0         1
     65423     65422     65424         0         1
     65426     65425     65427         0         1
     65429     65428     65430         0         1
     65432     65431     65433         0         1
     65435     65434     65436         0         1
     65438     65437     65439         0         1
     65441     65440     65442         0         1
     65444     65443     65445         0         1
     65447     65446     65448         0         1
     65450     65449     65451         0         1
     65453     65452     65454         0         1
     65456     65455     65457         0         1
     65459     65458     65460         0         1
     65462     65461     65463         0         1
     65465     65464     65466         0         1
     65468     65467     65469         0         1
     65471     65470     65472         0         1
     65474     65473     65475         0         1
     65477     65476     65478         0         1
     65480     65479     65481         0         1
     65483     65482     65484         0         1
     65486     65485     65487         0         1
     65489     65488     65490         0         1
     65492     65491     65493         0         1
     65495     65494     65496         0         1
     65498     65497     65499         0         1
     65501     65500     65502         0         1
     65504     65503     65505         0         1
     65507     65506     65508         0         1
     65510     65509     65511         0         1
     65513     65512     65514         0         1
     65516     65515     65517         0         1
     65519     65518     65520         0         1
     65522     65521     65523         0         1
     65525     65524     65526         0         1
     65528     65527     65529         0         1
     65531     65530     65532         0         1
     65534     65533     65535         0         1
     65537     65536     65538         0         1
     65540     65539     65541         0         1
     65543     65542     65544         0         1
     65546     65545     65547         0         1
     65549     65548     65550         0         1
     65552     65551     65553         0         1
     65555     65554     65556         0         1
     65558     65557     65559         0         1
     65561     65560     65562         0         1
     65564     65563     65565         0         1
     65567     65566     65568         0         1
     65570     65569     65571         0         1
     65573     65572     65574         0         1
     65576     65575     65577         0         1
     65579     65578     65580         0         1
     65582     65581     65583         0         1
     65585     65584     65586         0         1
     65588     65587     65589         0         1
     65591     65590     65592         0         1
     65594     65593     65595         0         1
     65597     65596     65598         0         1
     65600     65599     65601         0         1
     65603     65602     65604         0         1
     65606     65605     65607         0         1
     65609     65608     65610         0         1
     65612     65611     65613         0         1
     65615     65614     65616         0         1
     65618     65617     65619         0         1
     65621     65620     65622         0         1
     65624     65623     65625         0         1
     65627     65626     65628         0         1
     65630     65629     65631         0         1
     65633     65632     65634         0         1
     65636     65635     65637         0         1
     65639     65638     65640         0         1
     65642     65641     65643         0         1
     65645     65644     65646         0         1
     65648     65647     65649         0         1
     65651     65650     65652         0         1
     65654     65653     65655         0         1
     65657     65656     65658         0         1
     65660     65659     65661         0         1
     65663     65662     65664         0         1
     65666     65665     65667         0         1
     65669     65668     65670         0         1
     65672     65671     65673         0         1
     65675     65674     65676         0         1
     65678     65677     65679         0         1
     65681     65680     65682         0         1
     65684     65683     65685         0         1
     65687     65686     65688         0         1
     65690     65689     65691         0         1
     65693     65692     65694         0         1
     65696     65695     65697         0         1
     65699     65698     65700         0         1
     65702     65701     65703         0         1
     65705     65704     65706         0         1
     65708     65707     65709         0         1
     65711     65710     65712         0         1
     65714     65713     65715         0         1
     65717     65716     65718         0         1
     65720     65719     65721         0         1
     65723     65722     65724         0         1
     65726     65725     65727         0         1
     65729     65728     65730         0         1
     65732     65731     65733         0         1
     65735     65734     65736         0         1
     65738     65737     65739         0         1
     65741     65740     65742         0         1
     65744     65743     65745         0         1
     65747     65746     65748         0         1
     65750     65749     65751         0         1
     65753     65752     65754         0         1
     65756     65755     65757         0         1
     65759     65758     65760         0         1
     65762     65761     65763         0         1
     65765     65764     65766         0         1
     65768     65767     65769         0         1
     65771     65770     65772         0         1
     65774     65773     65775         0         1
     65777     65776     65778         0         1
     65780     65779     65781         0         1
     65783     65782     65784         0         1
     65786     65785     65787         0         1
     65789     65788     65790         0         1
     65792     65791     65793         0         1
     65795     65794     65796         0         1
     65798     65797     65799         0         1
     65801     65800     65802         0         1
     65804     65803     65805         0         1
     65807     65806     65808         0         1
     65810     65809     65811         0         1
     65813     65812     65814         0         1
     65816     65815     65817         0         1
     65819     65818     65820         0         1
     65822     65821     65823         0         1
     65825     65824     65826         0         1
     65828     65827     65829         0         1
     65831     65830     65832         0         1
     65834     65833     65835         0         1
     65837     65836     65838         0         1
     65840     65839     65841         0         1
     65843     65842     65844         0         1
     65846     65845     65847         0         1
     65849     65848     65850         0         1
     65852     65851     65853         0         1
     65855     65854     65856         0         1
     65858     65857     65859         0         1
     65861     65860     65862         0         1
     65864     65863     65865         0         1
     65867     65866     65868         0         1
     65870     65869     65871         0         1
     65873     65872     65874         0         1
     65876     65875     65877         0         1
     65879     65878     65880         0         1
     65882     65881     65883         0         1
     65885     65884     65886         0         1
     65888     65887     65889         0         1
     65891     65890     65892         0         1
     65894     65893     65895         0         1
     65897     65896     65898         0         1
     65900     65899     65901         0         1
     65903     65902     65904         0         1
     65906     65905     65907         0         1
     65909     65908     65910         0         1
     65912     65911     65913         0         1
     65915     65914     65916         0         1
     65918     65917     65919         0         1
     65921     65920     65922         0         1
     65924     65923     65925         0         1
     65927     65926     65928         0         1
     65930     65929     65931         0         1
     65933     65932     65934         0         1
     65936     65935     65937         0         1
     65939     65938     65940         0         1
     65942     65941     65943         0         1
     65945     65944     65946         0         1
     65948     65947     65949         0         1
     65951     65950     65952         0         1
     65954     65953     65955         0         1
     65957     65956     65958         0         1
     65960     65959     65961         0         1
     65963     65962     65964         0         1
     65966     65965     65967         0         1
     65969     65968     65970         0         1
     65972     65971     65973         0         1
     65975     65974     65976         0         1
     65978     65977     65979         0         1
     65981     65980     65982         0         1
     65984     65983     65985         0         1
     65987     65986     65988         0         1
     65990     65989     65991         0         1
     65993     65992     65994         0         1
     65996     65995     65997         0         1
     65999     65998     66000         0         1
     66002     66001     66003         0         1
     66005     66004     66006         0         1
     66008     66007     66009         0         1
     66011     66010     66012         0         1
     66014     66013     66015         0         1
     66017     66016     66018         0         1
     66020     66019     66021         0         1
     66023     66022     66024         0         1
     66026     66025     66027         0         1
     66029     66028     66030         0         1
     66032     66031     66033         0         1
     66035     66034     66036         0         1
     66038     66037     66039         0         1
     66041     66040     66042         0         1
     66044     66043     66045         0         1
     66047     66046     66048         0         1
     66050     66049     66051         0         1
     66053     66052     66054         0         1
     66056     66055     66057         0         1
     66059     66058     66060         0         1
     66062     66061     66063         0         1
     66065     66064     66066         0         1
     66068     66067     66069         0         1
     66071     66070     66072         0         1
     66074     66073     66075         0         1
     66077     66076     66078         0         1
     66080     66079     66081         0         1
     66083     66082     66084         0         1
     66086     66085     66087         0         1
     66089     66088     66090         0         1
     66092     66091     66093         0         1
     66095     66094     66096         0         1
     66098     66097     66099         0         1
     66101     66100     66102         0         1
     66104     66103     66105         0         1
     66107     66106     66108         0         1
     66110     66109     66111         0         1
     66113     66112     66114         0         1
     66116     66115     66117         0         1
     66119     66118     66120         0         1
     66122     66121     66123         0         1
     66125     66124     66126         0         1
     66128     66127     66129         0         1
     66131     66130     66132         0         1
     66134     66133     66135         0         1
     66137     66136     66138         0         1
     66140     66139     66141         0         1
     66143     66142     66144         0         1
     66146     66145     66147         0         1
     66149     66148     66150         0         1
     66152     66151     66153         0         1
     66155     66154     66156         0         1
     66158     66157     66159         0         1
     66161     66160     66162         0         1
     66164     66163     66165         0         1
     66167     66166     66168         0         1
     66170     66169     66171         0         1
     66173     66172     66174         0         1
     66176     66175     66177         0         1
     66179     66178     66180         0         1
     66182     66181     66183         0         1
     66185     66184     66186         0         1
     66188     66187     66189         0         1
     66191     66190     66192         0         1
     66194     66193     66195         0         1
     66197     66196     66198         0         1
     66200     66199     66201         0         1
     66203     66202     66204         0         1
     66206     66205     66207         0         1
     66209     66208     66210         0         1
     66212     66211     66213         0         1
     66215     66214     66216         0         1
     66218     66217     66219         0         1
     66221     66220     66222         0         1
     66224     66223     66225         0         1
     66227     66226     66228         0         1
     66230     66229     66231         0         1
     66233     66232     66234         0         1
     66236     66235     66237         0         1
     66239     66238     66240         0         1
     66242     66241     66243         0         1
     66245     66244     66246         0         1
     66248     66247     66249         0         1
     66251     66250     66252         0         1
     66254     66253     66255         0         1
     66257     66256     66258         0         1
     66260     66259     66261         0         1
     66263     66262     66264         0         1
     66266     66265     66267         0         1
     66269     66268     66270         0         1
     66272     66271     66273         0         1
     66275     66274     66276         0         1
     66278     66277     66279         0         1
     66281     66280     66282         0         1
     66284     66283     66285         0         1
     66287     66286     66288         0         1
     66290     66289     66291         0         1
     66293     66292     66294         0         1
     66296     66295     66297         0         1
     66299     66298     66300         0         1
     66302     66301     66303         0         1
     66305     66304     66306         0         1
     66308     66307     66309         0         1
     66311     66310     66312         0         1
     66314     66313     66315         0         1
     66317     66316     66318         0         1
     66320     66319     66321         0         1
     66323     66322     66324         0         1
     66326     66325     66327         0         1
     66329     66328     66330         0         1
     66332     66331     66333         0         1
     66335     66334     66336         0         1
     66338     66337     66339         0         1
     66341     66340     66342         0         1
     66344     66343     66345         0         1
     66347     66346     66348         0         1
     66350     66349     66351         0         1
     66353     66352     66354         0         1
     66356     66355     66357         0         1
     66359     66358     66360         0         1
     66362     66361     66363         0         1
     66365     66364     66366         0         1
     66368     66367     66369         0         1
     66371     66370     66372         0         1
     66374     66373     66375         0         1
     66377     66376     66378         0         1
     66380     66379     66381         0         1
     66383     66382     66384         0         1
     66386     66385     66387         0         1
     66389     66388     66390         0         1
     66392     66391     66393         0         1
     66395     66394     66396         0         1
     66398     66397     66399         0         1
     66401     66400     66402         0         1
     66404     66403     66405         0         1
     66407     66406     66408         0         1
     66410     66409     66411         0         1
     66413     66412     66414         0         1
     66416     66415     66417         0         1
     66419     66418     66420         0         1
     66422     66421     66423         0         1
     66425     66424     66426         0         1
     66428     66427     66429         0         1
     66431     66430     66432         0         1
     66434     66433     66435         0         1
     66437     66436     66438         0         1
     66440     66439     66441         0         1
     66443     66442     66444         0         1
     66446     66445     66447         0         1
     66449     66448     66450         0         1
     66452     66451     66453         0         1
     66455     66454     66456         0         1
     66458     66457     66459         0         1
     66461     66460     66462         0         1
     66464     66463     66465         0         1
     66467     66466     66468         0         1
     66470     66469     66471         0         1
     66473     66472     66474         0         1
     66476     66475     66477         0         1
     66479     66478     66480         0         1
     66482     66481     66483         0         1
     66485     66484     66486         0         1
     66488     66487     66489         0         1
     66491     66490     66492         0         1
     66494     66493     66495         0         1
     66497     66496     66498         0         1
     66500     66499     66501         0         1
     66503     66502     66504         0         1
     66506     66505     66507         0         1
     66509     66508     66510         0         1
     66512     66511     66513         0         1
     66515     66514     66516         0         1
     66518     66517     66519         0         1
     66521     66520     66522         0         1
     66524     66523     66525         0         1
     66527     66526     66528         0         1
     66530     66529     66531         0         1
     66533     66532     66534         0         1
     66536     66535     66537         0         1
     66539     66538     66540         0         1
     66542     66541     66543         0         1
     66545     66544     66546         0         1
     66548     66547     66549         0         1
     66551     66550     66552         0         1
     66554     66553     66555         0         1
     66557     66556     66558         0         1
     66560     66559     66561         0         1
     66563     66562     66564         0         1
     66566     66565     66567         0         1
     66569     66568     66570         0         1
     66572     66571     66573         0         1
     66575     66574     66576         0         1
     66578     66577     66579         0         1
     66581     66580     66582         0         1
     66584     66583     66585         0         1
     66587     66586     66588         0         1
     66590     66589     66591         0         1
     66593     66592     66594         0         1
     66596     66595     66597         0         1
     66599     66598     66600         0         1
     66602     66601     66603         0         1
     66605     66604     66606         0         1
     66608     66607     66609         0         1
     66611     66610     66612         0         1
     66614     66613     66615         0         1
     66617     66616     66618         0         1
     66620     66619     66621         0         1
     66623     66622     66624         0         1
     66626     66625     66627         0         1
     66629     66628     66630         0         1
     66632     66631     66633         0         1
     66635     66634     66636         0         1
     66638     66637     66639         0         1
     66641     66640     66642         0         1
     66644     66643     66645         0         1
     66647     66646     66648         0         1
     66650     66649     66651         0         1
     66653     66652     66654         0         1
     66656     66655     66657         0         1
     66659     66658     66660         0         1
     66662     66661     66663         0         1
     66665     66664     66666         0         1
     66668     66667     66669         0         1
     66671     66670     66672         0         1
     66674     66673     66675         0         1
     66677     66676     66678         0         1
     66680     66679     66681         0         1
     66683     66682     66684         0         1
     66686     66685     66687         0         1
     66689     66688     66690         0         1
     66692     66691     66693         0         1
     66695     66694     66696         0         1
     66698     66697     66699         0         1
     66701     66700     66702         0         1
     66704     66703     66705         0         1
     66707     66706     66708         0         1
     66710     66709     66711         0         1
     66713     66712     66714         0         1
     66716     66715     66717         0         1
     66719     66718     66720         0         1
     66722     66721     66723         0         1
     66725     66724     66726         0         1
     66728     66727     66729         0         1
     66731     66730     66732         0         1
     66734     66733     66735         0         1
     66737     66736     66738         0         1
     66740     66739     66741         0         1
     66743     66742     66744         0         1
     66746     66745     66747         0         1
     66749     66748     66750         0         1
     66752     66751     66753         0         1
     66755     66754     66756         0         1
     66758     66757     66759         0         1
     66761     66760     66762         0         1
     66764     66763     66765         0         1
     66767     66766     66768         0         1
     66770     66769     66771         0         1
     66773     66772     66774         0         1
     66776     66775     66777         0         1
     66779     66778     66780         0         1
     66782     66781     66783         0         1
     66785     66784     66786         0         1
     66788     66787     66789         0         1
     66791     66790     66792         0         1
     66794     66793     66795         0         1
     66797     66796     66798         0         1
     66800     66799     66801         0         1
     66803     66802     66804         0         1
     66806     66805     66807         0         1
     66809     66808     66810         0         1
     66812     66811     66813         0         1
     66815     66814     66816         0         1
     66818     66817     66819         0         1
     66821     66820     66822         0         1
     66824     66823     66825         0         1
     66827     66826     66828         0         1
     66830     66829     66831         0         1
     66833     66832     66834         0         1
     66836     66835     66837         0         1
     66839     66838     66840         0         1
     66842     66841     66843         0         1
     66845     66844     66846         0         1
     66848     66847     66849         0         1
     66851     66850     66852         0         1
     66854     66853     66855         0         1
     66857     66856     66858         0         1
     66860     66859     66861         0         1
     66863     66862     66864         0         1
     66866     66865     66867         0         1
     66869     66868     66870         0         1
     66872     66871     66873         0         1
     66875     66874     66876         0         1
     66878     66877     66879         0         1
     66881     66880     66882         0         1
     66884     66883     66885         0         1
     66887     66886     66888         0         1
     66890     66889     66891         0         1
     66893     66892     66894         0         1
     66896     66895     66897         0         1
     66899     66898     66900         0         1
     66902     66901     66903         0         1
     66905     66904     66906         0         1
     66908     66907     66909         0         1
     66911     66910     66912         0         1
     66914     66913     66915         0         1
     66917     66916     66918         0         1
     66920     66919     66921         0         1
     66923     66922     66924         0         1
     66926     66925     66927         0         1
     66929     66928     66930         0         1
     66932     66931     66933         0         1
     66935     66934     66936         0         1
     66938     66937     66939         0         1
     66941     66940     66942         0         1
     66944     66943     66945         0         1
     66947     66946     66948         0         1
     66950     66949     66951         0         1
     66953     66952     66954         0         1
     66956     66955     66957         0         1
     66959     66958     66960         0         1
     66962     66961     66963         0         1
     66965     66964     66966         0         1
     66968     66967     66969         0         1
     66971     66970     66972         0         1
     66974     66973     66975         0         1
     66977     66976     66978         0         1
     66980     66979     66981         0         1
     66983     66982     66984         0         1
     66986     66985     66987         0         1
     66989     66988     66990         0         1
     66992     66991     66993         0         1
     66995     66994     66996         0         1
     66998     66997     66999         0         1
     67001     67000     67002         0         1
     67004     67003     67005         0         1
     67007     67006     67008         0         1
     67010     67009     67011         0         1
     67013     67012     67014         0         1
     67016     67015     67017         0         1
     67019     67018     67020         0         1
     67022     67021     67023         0         1
     67025     67024     67026         0         1
     67028     67027     67029         0         1
     67031     67030     67032         0         1
     67034     67033     67035         0         1
     67037     67036     67038         0         1
     67040     67039     67041         0         1
     67043     67042     67044         0         1
     67046     67045     67047         0         1
     67049     67048     67050         0         1
     67052     67051     67053         0         1
     67055     67054     67056         0         1
     67058     67057     67059         0         1
     67061     67060     67062         0         1
     67064     67063     67065         0         1
     67067     67066     67068         0         1
     67070     67069     67071         0         1
     67073     67072     67074         0         1
     67076     67075     67077         0         1
     67079     67078     67080         0         1
     67082     67081     67083         0         1
     67085     67084     67086         0         1
     67088     67087     67089         0         1
     67091     67090     67092         0         1
     67094     67093     67095         0         1
     67097     67096     67098         0         1
     67100     67099     67101         0         1
     67103     67102     67104         0         1
     67106     67105     67107         0         1
     67109     67108     67110         0         1
     67112     67111     67113         0         1
     67115     67114     67116         0         1
     67118     67117     67119         0         1
     67121     67120     67122         0         1
     67124     67123     67125         0         1
     67127     67126     67128         0         1
     67130     67129     67131         0         1
     67133     67132     67134         0         1
     67136     67135     67137         0         1
     67139     67138     67140         0         1
     67142     67141     67143         0         1
     67145     67144     67146         0         1
     67148     67147     67149         0         1
     67151     67150     67152         0         1
     67154     67153     67155         0         1
     67157     67156     67158         0         1
     67160     67159     67161         0         1
     67163     67162     67164         0         1
     67166     67165     67167         0         1
     67169     67168     67170         0         1
     67172     67171     67173         0         1
     67175     67174     67176         0         1
     67178     67177     67179         0         1
     67181     67180     67182         0         1
     67184     67183     67185         0         1
     67187     67186     67188         0         1
     67190     67189     67191         0         1
     67193     67192     67194         0         1
     67196     67195     67197         0         1
     67199     67198     67200         0         1
     67202     67201     67203         0         1
     67205     67204     67206         0         1
     67208     67207     67209         0         1
     67211     67210     67212         0         1
     67214     67213     67215         0         1
     67217     67216     67218         0         1
     67220     67219     67221         0         1
     67223     67222     67224         0         1
     67226     67225     67227         0         1
     67229     67228     67230         0         1
     67232     67231     67233         0         1
     67235     67234     67236         0         1
     67238     67237     67239         0         1
     67241     67240     67242         0         1
     67244     67243     67245         0         1
     67247     67246     67248         0         1
     67250     67249     67251         0         1
     67253     67252     67254         0         1
     67256     67255     67257         0         1
     67259     67258     67260         0         1
     67262     67261     67263         0         1
     67265     67264     67266         0         1
     67268     67267     67269         0         1
     67271     67270     67272         0         1
     67274     67273     67275         0         1
     67277     67276     67278         0         1
     67280     67279     67281         0         1
     67283     67282     67284         0         1
     67286     67285     67287         0         1
     67289     67288     67290         0         1
     67292     67291     67293         0         1
     67295     67294     67296         0         1
     67298     67297     67299         0         1
     67301     67300     67302         0         1
     67304     67303     67305         0         1
     67307     67306     67308         0         1
     67310     67309     67311         0         1
     67313     67312     67314         0         1
     67316     67315     67317         0         1
     67319     67318     67320         0         1
     67322     67321     67323         0         1
     67325     67324     67326         0         1
     67328     67327     67329         0         1
     67331     67330     67332         0         1
     67334     67333     67335         0         1
     67337     67336     67338         0         1
     67340     67339     67341         0         1
     67343     67342     67344         0         1
     67346     67345     67347         0         1
     67349     67348     67350         0         1
     67352     67351     67353         0         1
     67355     67354     67356         0         1
     67358     67357     67359         0         1
     67361     67360     67362         0         1
     67364     67363     67365         0         1
     67367     67366     67368         0         1
     67370     67369     67371         0         1
     67373     67372     67374         0         1
     67376     67375     67377         0         1
     67379     67378     67380         0         1
     67382     67381     67383         0         1
     67385     67384     67386         0         1
     67388     67387     67389         0         1
     67391     67390     67392         0         1
     67394     67393     67395         0         1
     67397     67396     67398         0         1
     67400     67399     67401         0         1
     67403     67402     67404         0         1
     67406     67405     67407         0         1
     67409     67408     67410         0         1
     67412     67411     67413         0         1
     67415     67414     67416         0         1
     67418     67417     67419         0         1
     67421     67420     67422         0         1
     67424     67423     67425         0         1
     67427     67426     67428         0         1
     67430     67429     67431         0         1
     67433     67432     67434         0         1
     67436     67435     67437         0         1
     67439     67438     67440         0         1
     67442     67441     67443         0         1
     67445     67444     67446         0         1
     67448     67447     67449         0         1
     67451     67450     67452         0         1
     67454     67453     67455         0         1
     67457     67456     67458         0         1
     67460     67459     67461         0         1
     67463     67462     67464         0         1
     67466     67465     67467         0         1
     67469     67468     67470         0         1
     67472     67471     67473         0         1
     67475     67474     67476         0         1
     67478     67477     67479         0         1
     67481     67480     67482         0         1
     67484     67483     67485         0         1
     67487     67486     67488         0         1
     67490     67489     67491         0         1
     67493     67492     67494         0         1
     67496     67495     67497         0         1
     67499     67498     67500         0         1
     67502     67501     67503         0         1
     67505     67504     67506         0         1
     67508     67507     67509         0         1
     67511     67510     67512         0         1
     67514     67513     67515         0         1
     67517     67516     67518         0         1
     67520     67519     67521         0         1
     67523     67522     67524         0         1
     67526     67525     67527         0         1
     67529     67528     67530         0         1
     67532     67531     67533         0         1
     67535     67534     67536         0         1
     67538     67537     67539         0         1
     67541     67540     67542         0         1
     67544     67543     67545         0         1
     67547     67546     67548         0         1
     67550     67549     67551         0         1
     67553     67552     67554         0         1
     67556     67555     67557         0         1
     67559     67558     67560         0         1
     67562     67561     67563         0         1
     67565     67564     67566         0         1
     67568     67567     67569         0         1
     67571     67570     67572         0         1
     67574     67573     67575         0         1
     67577     67576     67578         0         1
     67580     67579     67581         0         1
     67583     67582     67584         0         1
     67586     67585     67587         0         1
     67589     67588     67590         0         1
     67592     67591     67593         0         1
     67595     67594     67596         0         1
     67598     67597     67599         0         1
     67601     67600     67602         0         1
     67604     67603     67605         0         1
     67607     67606     67608         0         1
     67610     67609     67611         0         1
     67613     67612     67614         0         1
     67616     67615     67617         0         1
     67619     67618     67620         0         1
     67622     67621     67623         0         1
     67625     67624     67626         0         1
     67628     67627     67629         0         1
     67631     67630     67632         0         1
     67634     67633     67635         0         1
     67637     67636     67638         0         1
     67640     67639     67641         0         1
     67643     67642     67644         0         1
     67646     67645     67647         0         1
     67649     67648     67650         0         1
     67652     67651     67653         0         1
     67655     67654     67656         0         1
     67658     67657     67659         0         1
     67661     67660     67662         0         1
     67664     67663     67665         0         1
     67667     67666     67668         0         1
     67670     67669     67671         0         1
     67673     67672     67674         0         1
     67676     67675     67677         0         1
     67679     67678     67680         0         1
     67682     67681     67683         0         1
     67685     67684     67686         0         1
     67688     67687     67689         0         1
     67691     67690     67692         0         1
     67694     67693     67695         0         1
     67697     67696     67698         0         1
     67700     67699     67701         0         1
     67703     67702     67704         0         1
     67706     67705     67707         0         1
     67709     67708     67710         0         1
     67712     67711     67713         0         1
     67715     67714     67716         0         1
     67718     67717     67719         0         1
     67721     67720     67722         0         1
     67724     67723     67725         0         1
     67727     67726     67728         0         1
     67730     67729     67731         0         1
     67733     67732     67734         0         1
     67736     67735     67737         0         1
     67739     67738     67740         0         1
     67742     67741     67743         0         1
     67745     67744     67746         0         1
     67748     67747     67749         0         1
     67751     67750     67752         0         1
     67754     67753     67755         0         1
     67757     67756     67758         0         1
     67760     67759     67761         0         1
     67763     67762     67764         0         1
     67766     67765     67767         0         1
     67769     67768     67770         0         1
     67772     67771     67773         0         1
     67775     67774     67776         0         1
     67778     67777     67779         0         1
     67781     67780     67782         0         1
     67784     67783     67785         0         1
     67787     67786     67788         0         1
     67790     67789     67791         0         1
     67793     67792     67794         0         1
     67796     67795     67797         0         1
     67799     67798     67800         0         1
     67802     67801     67803         0         1
     67805     67804     67806         0         1
     67808     67807     67809         0         1
     67811     67810     67812         0         1
     67814     67813     67815         0         1
     67817     67816     67818         0         1
     67820     67819     67821         0         1
     67823     67822     67824         0         1
     67826     67825     67827         0         1
     67829     67828     67830         0         1
     67832     67831     67833         0         1
     67835     67834     67836         0         1
     67838     67837     67839         0         1
     67841     67840     67842         0         1
     67844     67843     67845         0         1
     67847     67846     67848         0         1
     67850     67849     67851         0         1
     67853     67852     67854         0         1
     67856     67855     67857         0         1
     67859     67858     67860         0         1
     67862     67861     67863         0         1
     67865     67864     67866         0         1
     67868     67867     67869         0         1
     67871     67870     67872         0         1
     67874     67873     67875         0         1
     67877     67876     67878         0         1
     67880     67879     67881         0         1
     67883     67882     67884         0         1
     67886     67885     67887         0         1
     67889     67888     67890         0         1
     67892     67891     67893         0         1
     67895     67894     67896         0         1
     67898     67897     67899         0         1
     67901     67900     67902         0         1
     67904     67903     67905         0         1
     67907     67906     67908         0         1
     67910     67909     67911         0         1
     67913     67912     67914         0         1
     67916     67915     67917         0         1
     67919     67918     67920         0         1
     67922     67921     67923         0         1
     67925     67924     67926         0         1
     67928     67927     67929         0         1
     67931     67930     67932         0         1
     67934     67933     67935         0         1
     67937     67936     67938         0         1
     67940     67939     67941         0         1
     67943     67942     67944         0         1
     67946     67945     67947         0         1
     67949     67948     67950         0         1
     67952     67951     67953         0         1
     67955     67954     67956         0         1
     67958     67957     67959         0         1
     67961     67960     67962         0         1
     67964     67963     67965         0         1
     67967     67966     67968         0         1
     67970     67969     67971         0         1
     67973     67972     67974         0         1
     67976     67975     67977         0         1
     67979     67978     67980         0         1
     67982     67981     67983         0         1
     67985     67984     67986         0         1
     67988     67987     67989         0         1
     67991     67990     67992         0         1
     67994     67993     67995         0         1
     67997     67996     67998         0         1
     68000     67999     68001         0         1
     68003     68002     68004         0         1
     68006     68005     68007         0         1
     68009     68008     68010         0         1
     68012     68011     68013         0         1
     68015     68014     68016         0         1
     68018     68017     68019         0         1
     68021     68020     68022         0         1
     68024     68023     68025         0         1
     68027     68026     68028         0         1
     68030     68029     68031         0         1
     68033     68032     68034         0         1
     68036     68035     68037         0         1
     68039     68038     68040         0         1
     68042     68041     68043         0         1
     68045     68044     68046         0         1
     68048     68047     68049         0         1
     68051     68050     68052         0         1
     68054     68053     68055         0         1
     68057     68056     68058         0         1
     68060     68059     68061         0         1
     68063     68062     68064         0         1
     68066     68065     68067         0         1
     68069     68068     68070         0         1
     68072     68071     68073         0         1
     68075     68074     68076         0         1
     68078     68077     68079         0         1
     68081     68080     68082         0         1
     68084     68083     68085         0         1
     68087     68086     68088         0         1
     68090     68089     68091         0         1
     68093     68092     68094         0         1
     68096     68095     68097         0         1
     68099     68098     68100         0         1
     68102     68101     68103         0         1
     68105     68104     68106         0         1
     68108     68107     68109         0         1
     68111     68110     68112         0         1
     68114     68113     68115         0         1
     68117     68116     68118         0         1
     68120     68119     68121         0         1
     68123     68122     68124         0         1
     68126     68125     68127         0         1
     68129     68128     68130         0         1
     68132     68131     68133         0         1
     68135     68134     68136         0         1
     68138     68137     68139         0         1
     68141     68140     68142         0         1
     68144     68143     68145         0         1
     68147     68146     68148         0         1
     68150     68149     68151         0         1
     68153     68152     68154         0         1
     68156     68155     68157         0         1
     68159     68158     68160         0         1
     68162     68161     68163         0         1
     68165     68164     68166         0         1
     68168     68167     68169         0         1
     68171     68170     68172         0         1
     68174     68173     68175         0         1
     68177     68176     68178         0         1
     68180     68179     68181         0         1
     68183     68182     68184         0         1
     68186     68185     68187         0         1
     68189     68188     68190         0         1
     68192     68191     68193         0         1
     68195     68194     68196         0         1
     68198     68197     68199         0         1
     68201     68200     68202         0         1
     68204     68203     68205         0         1
     68207     68206     68208         0         1
     68210     68209     68211         0         1
     68213     68212     68214         0         1
     68216     68215     68217         0         1
     68219     68218     68220         0         1
     68222     68221     68223         0         1
     68225     68224     68226         0         1
     68228     68227     68229         0         1
     68231     68230     68232         0         1
     68234     68233     68235         0         1
     68237     68236     68238         0         1
     68240     68239     68241         0         1
     68243     68242     68244         0         1
     68246     68245     68247         0         1
     68249     68248     68250         0         1
     68252     68251     68253         0         1
     68255     68254     68256         0         1
     68258     68257     68259         0         1
     68261     68260     68262         0         1
     68264     68263     68265         0         1
     68267     68266     68268         0         1
     68270     68269     68271         0         1
     68273     68272     68274         0         1
     68276     68275     68277         0         1
     68279     68278     68280         0         1
     68282     68281     68283         0         1
     68285     68284     68286         0         1
     68288     68287     68289         0         1
     68291     68290     68292         0         1
     68294     68293     68295         0         1
     68297     68296     68298         0         1
     68300     68299     68301         0         1
     68303     68302     68304         0         1
     68306     68305     68307         0         1
     68309     68308     68310         0         1
     68312     68311     68313         0         1
     68315     68314     68316         0         1
     68318     68317     68319         0         1
     68321     68320     68322         0         1
     68324     68323     68325         0         1
     68327     68326     68328         0         1
     68330     68329     68331         0         1
     68333     68332     68334         0         1
     68336     68335     68337         0         1
     68339     68338     68340         0         1
     68342     68341     68343         0         1
     68345     68344     68346         0         1
     68348     68347     68349         0         1
     68351     68350     68352         0         1
     68354     68353     68355         0         1
     68357     68356     68358         0         1
     68360     68359     68361         0         1
     68363     68362     68364         0         1
     68366     68365     68367         0         1
     68369     68368     68370         0         1
     68372     68371     68373         0         1
     68375     68374     68376         0         1
     68378     68377     68379         0         1
     68381     68380     68382         0         1
     68384     68383     68385         0         1
     68387     68386     68388         0         1
     68390     68389     68391         0         1
     68393     68392     68394         0         1
     68396     68395     68397         0         1
     68399     68398     68400         0         1
     68402     68401     68403         0         1
     68405     68404     68406         0         1
     68408     68407     68409         0         1
     68411     68410     68412         0         1
     68414     68413     68415         0         1
     68417     68416     68418         0         1
     68420     68419     68421         0         1
     68423     68422     68424         0         1
     68426     68425     68427         0         1
     68429     68428     68430         0         1
     68432     68431     68433         0         1
     68435     68434     68436         0         1
     68438     68437     68439         0         1
     68441     68440     68442         0         1
     68444     68443     68445         0         1
     68447     68446     68448         0         1
     68450     68449     68451         0         1
     68453     68452     68454         0         1
     68456     68455     68457         0         1
     68459     68458     68460         0         1
     68462     68461     68463         0         1
     68465     68464     68466         0         1
     68468     68467     68469         0         1
     68471     68470     68472         0         1
     68474     68473     68475         0         1
     68477     68476     68478         0         1
     68480     68479     68481         0         1
     68483     68482     68484         0         1
     68486     68485     68487         0         1
     68489     68488     68490         0         1
     68492     68491     68493         0         1
     68495     68494     68496         0         1
     68498     68497     68499         0         1
     68501     68500     68502         0         1
     68504     68503     68505         0         1
     68507     68506     68508         0         1
     68510     68509     68511         0         1
     68513     68512     68514         0         1
     68516     68515     68517         0         1
     68519     68518     68520         0         1
     68522     68521     68523         0         1
     68525     68524     68526         0         1
     68528     68527     68529         0         1
     68531     68530     68532         0         1
     68534     68533     68535         0         1
     68537     68536     68538         0         1
     68540     68539     68541         0         1
     68543     68542     68544         0         1
     68546     68545     68547         0         1
     68549     68548     68550         0         1
     68552     68551     68553         0         1
     68555     68554     68556         0         1
     68558     68557     68559         0         1
     68561     68560     68562         0         1
     68564     68563     68565         0         1
     68567     68566     68568         0         1
     68570     68569     68571         0         1
     68573     68572     68574         0         1
     68576     68575     68577         0         1
     68579     68578     68580         0         1
     68582     68581     68583         0         1
     68585     68584     68586         0         1
     68588     68587     68589         0         1
     68591     68590     68592         0         1
     68594     68593     68595         0         1
     68597     68596     68598         0         1
     68600     68599     68601         0         1
     68603     68602     68604         0         1
     68606     68605     68607         0         1
     68609     68608     68610         0         1
     68612     68611     68613         0         1
     68615     68614     68616         0         1
     68618     68617     68619         0         1
     68621     68620     68622         0         1
     68624     68623     68625         0         1
     68627     68626     68628         0         1
     68630     68629     68631         0         1
     68633     68632     68634         0         1
     68636     68635     68637         0         1
     68639     68638     68640         0         1
     68642     68641     68643         0         1
     68645     68644     68646         0         1
     68648     68647     68649         0         1
     68651     68650     68652         0         1
     68654     68653     68655         0         1
     68657     68656     68658         0         1
     68660     68659     68661         0         1
     68663     68662     68664         0         1
     68666     68665     68667         0         1
     68669     68668     68670         0         1
     68672     68671     68673         0         1
     68675     68674     68676         0         1
     68678     68677     68679         0         1
     68681     68680     68682         0         1
     68684     68683     68685         0         1
     68687     68686     68688         0         1
     68690     68689     68691         0         1
     68693     68692     68694         0         1
     68696     68695     68697         0         1
     68699     68698     68700         0         1
     68702     68701     68703         0         1
     68705     68704     68706         0         1
     68708     68707     68709         0         1
     68711     68710     68712         0         1
     68714     68713     68715         0         1
     68717     68716     68718         0         1
     68720     68719     68721         0         1
     68723     68722     68724         0         1
     68726     68725     68727         0         1
     68729     68728     68730         0         1
     68732     68731     68733         0         1
     68735     68734     68736         0         1
     68738     68737     68739         0         1
     68741     68740     68742         0         1
     68744     68743     68745         0         1
     68747     68746     68748         0         1
     68750     68749     68751         0         1
     68753     68752     68754         0         1
     68756     68755     68757         0         1
     68759     68758     68760         0         1
     68762     68761     68763         0         1
     68765     68764     68766         0         1
     68768     68767     68769         0         1
     68771     68770     68772         0         1
     68774     68773     68775         0         1
     68777     68776     68778         0         1
     68780     68779     68781         0         1
     68783     68782     68784         0         1
     68786     68785     68787         0         1
     68789     68788     68790         0         1
     68792     68791     68793         0         1
     68795     68794     68796         0         1
     68798     68797     68799         0         1
     68801     68800     68802         0         1
     68804     68803     68805         0         1
     68807     68806     68808         0         1
     68810     68809     68811         0         1
     68813     68812     68814         0         1
     68816     68815     68817         0         1
     68819     68818     68820         0         1
     68822     68821     68823         0         1
     68825     68824     68826         0         1
     68828     68827     68829         0         1
     68831     68830     68832         0         1
     68834     68833     68835         0         1
     68837     68836     68838         0         1
     68840     68839     68841         0         1
     68843     68842     68844         0         1
     68846     68845     68847         0         1
     68849     68848     68850         0         1
     68852     68851     68853         0         1
     68855     68854     68856         0         1
     68858     68857     68859         0         1
     68861     68860     68862         0         1
     68864     68863     68865         0         1
     68867     68866     68868         0         1
     68870     68869     68871         0         1
     68873     68872     68874         0         1
     68876     68875     68877         0         1
     68879     68878     68880         0         1
     68882     68881     68883         0         1
     68885     68884     68886         0         1
     68888     68887     68889         0         1
     68891     68890     68892         0         1
     68894     68893     68895         0         1
     68897     68896     68898         0         1
     68900     68899     68901         0         1
     68903     68902     68904         0         1
     68906     68905     68907         0         1
     68909     68908     68910         0         1
     68912     68911     68913         0         1
     68915     68914     68916         0         1
     68918     68917     68919         0         1
     68921     68920     68922         0         1
     68924     68923     68925         0         1
     68927     68926     68928         0         1
     68930     68929     68931         0         1
     68933     68932     68934         0         1
     68936     68935     68937         0         1
     68939     68938     68940         0         1
     68942     68941     68943         0         1
     68945     68944     68946         0         1
     68948     68947     68949         0         1
     68951     68950     68952         0         1
     68954     68953     68955         0         1
     68957     68956     68958         0         1
     68960     68959     68961         0         1
     68963     68962     68964         0         1
     68966     68965     68967         0         1
     68969     68968     68970         0         1
     68972     68971     68973         0         1
     68975     68974     68976         0         1
     68978     68977     68979         0         1
     68981     68980     68982         0         1
     68984     68983     68985         0         1
     68987     68986     68988         0         1
     68990     68989     68991         0         1
     68993     68992     68994         0         1
     68996     68995     68997         0         1
     68999     68998     69000         0         1
     69002     69001     69003         0         1
     69005     69004     69006         0         1
     69008     69007     69009         0         1
     69011     69010     69012         0         1
     69014     69013     69015         0         1
     69017     69016     69018         0         1
     69020     69019     69021         0         1
     69023     69022     69024         0         1
     69026     69025     69027         0         1
     69029     69028     69030         0         1
     69032     69031     69033         0         1
     69035     69034     69036         0         1
     69038     69037     69039         0         1
     69041     69040     69042         0         1
     69044     69043     69045         0         1
     69047     69046     69048         0         1
     69050     69049     69051         0         1
     69053     69052     69054         0         1
     69056     69055     69057         0         1
     69059     69058     69060         0         1
     69062     69061     69063         0         1
     69065     69064     69066         0         1
     69068     69067     69069         0         1
     69071     69070     69072         0         1
     69074     69073     69075         0         1
     69077     69076     69078         0         1
     69080     69079     69081         0         1
     69083     69082     69084         0         1
     69086     69085     69087         0         1
     69089     69088     69090         0         1
     69092     69091     69093         0         1
     69095     69094     69096         0         1
     69098     69097     69099         0         1
     69101     69100     69102         0         1
     69104     69103     69105         0         1
     69107     69106     69108         0         1
     69110     69109     69111         0         1
     69113     69112     69114         0         1
     69116     69115     69117         0         1
     69119     69118     69120         0         1
     69122     69121     69123         0         1
     69125     69124     69126         0         1
     69128     69127     69129         0         1
     69131     69130     69132         0         1
     69134     69133     69135         0         1
     69137     69136     69138         0         1
     69140     69139     69141         0         1
     69143     69142     69144         0         1
     69146     69145     69147         0         1
     69149     69148     69150         0         1
     69152     69151     69153         0         1
     69155     69154     69156         0         1
     69158     69157     69159         0         1
     69161     69160     69162         0         1
     69164     69163     69165         0         1
     69167     69166     69168         0         1
     69170     69169     69171         0         1
     69173     69172     69174         0         1
     69176     69175     69177         0         1
     69179     69178     69180         0         1
     69182     69181     69183         0         1
     69185     69184     69186         0         1
     69188     69187     69189         0         1
     69191     69190     69192         0         1
     69194     69193     69195         0         1
     69197     69196     69198         0         1
     69200     69199     69201         0         1
     69203     69202     69204         0         1
     69206     69205     69207         0         1
     69209     69208     69210         0         1
     69212     69211     69213         0         1
     69215     69214     69216         0         1
     69218     69217     69219         0         1
     69221     69220     69222         0         1
     69224     69223     69225         0         1
     69227     69226     69228         0         1
     69230     69229     69231         0         1
     69233     69232     69234         0         1
     69236     69235     69237         0         1
     69239     69238     69240         0         1
     69242     69241     69243         0         1
     69245     69244     69246         0         1
     69248     69247     69249         0         1
     69251     69250     69252         0         1
     69254     69253     69255         0         1
     69257     69256     69258         0         1
     69260     69259     69261         0         1
     69263     69262     69264         0         1
     69266     69265     69267         0         1
     69269     69268     69270         0         1
     69272     69271     69273         0         1
     69275     69274     69276         0         1
     69278     69277     69279         0         1
     69281     69280     69282         0         1
     69284     69283     69285         0         1
     69287     69286     69288         0         1
     69290     69289     69291         0         1
     69293     69292     69294         0         1
     69296     69295     69297         0         1
     69299     69298     69300         0         1
     69302     69301     69303         0         1
     69305     69304     69306         0         1
     69308     69307     69309         0         1
     69311     69310     69312         0         1
     69314     69313     69315         0         1
     69317     69316     69318         0         1
     69320     69319     69321         0         1
     69323     69322     69324         0         1
     69326     69325     69327         0         1
     69329     69328     69330         0         1
     69332     69331     69333         0         1
     69335     69334     69336         0         1
     69338     69337     69339         0         1
     69341     69340     69342         0         1
     69344     69343     69345         0         1
     69347     69346     69348         0         1
     69350     69349     69351         0         1
     69353     69352     69354         0         1
     69356     69355     69357         0         1
     69359     69358     69360         0         1
     69362     69361     69363         0         1
     69365     69364     69366         0         1
     69368     69367     69369         0         1
     69371     69370     69372         0         1
     69374     69373     69375         0         1
     69377     69376     69378         0         1
     69380     69379     69381         0         1
     69383     69382     69384         0         1
     69386     69385     69387         0         1
     69389     69388     69390         0         1
     69392     69391     69393         0         1
     69395     69394     69396         0         1
     69398     69397     69399         0         1
     69401     69400     69402         0         1
     69404     69403     69405         0         1
     69407     69406     69408         0         1
     69410     69409     69411         0         1
     69413     69412     69414         0         1
     69416     69415     69417         0         1
     69419     69418     69420         0         1
     69422     69421     69423         0         1
     69425     69424     69426         0         1
     69428     69427     69429         0         1
     69431     69430     69432         0         1
     69434     69433     69435         0         1
     69437     69436     69438         0         1
     69440     69439     69441         0         1
     69443     69442     69444         0         1
     69446     69445     69447         0         1
     69449     69448     69450         0         1
     69452     69451     69453         0         1
     69455     69454     69456         0         1
     69458     69457     69459         0         1
     69461     69460     69462         0         1
     69464     69463     69465         0         1
     69467     69466     69468         0         1
     69470     69469     69471         0         1
     69473     69472     69474         0         1
     69476     69475     69477         0         1
     69479     69478     69480         0         1
     69482     69481     69483         0         1
     69485     69484     69486         0         1
     69488     69487     69489         0         1
     69491     69490     69492         0         1
     69494     69493     69495         0         1
     69497     69496     69498         0         1
     69500     69499     69501         0         1
     69503     69502     69504         0         1
     69506     69505     69507         0         1
     69509     69508     69510         0         1
     69512     69511     69513         0         1
     69515     69514     69516         0         1
     69518     69517     69519         0         1
     69521     69520     69522         0         1
     69524     69523     69525         0         1
     69527     69526     69528         0         1
     69530     69529     69531         0         1
     69533     69532     69534         0         1
     69536     69535     69537         0         1
     69539     69538     69540         0         1
     69542     69541     69543         0         1
     69545     69544     69546         0         1
     69548     69547     69549         0         1
     69551     69550     69552         0         1
     69554     69553     69555         0         1
     69557     69556     69558         0         1
     69560     69559     69561         0         1
     69563     69562     69564         0         1
     69566     69565     69567         0         1
     69569     69568     69570         0         1
     69572     69571     69573         0         1
     69575     69574     69576         0         1
     69578     69577     69579         0         1
     69581     69580     69582         0         1
     69584     69583     69585         0         1
     69587     69586     69588         0         1
     69590     69589     69591         0         1
     69593     69592     69594         0         1
     69596     69595     69597         0         1
     69599     69598     69600         0         1
     69602     69601     69603         0         1
     69605     69604     69606         0         1
     69608     69607     69609         0         1
     69611     69610     69612         0         1
     69614     69613     69615         0         1
     69617     69616     69618         0         1
     69620     69619     69621         0         1
     69623     69622     69624         0         1
     69626     69625     69627         0         1
     69629     69628     69630         0         1
     69632     69631     69633         0         1
     69635     69634     69636         0         1
     69638     69637     69639         0         1
     69641     69640     69642         0         1
     69644     69643     69645         0         1
     69647     69646     69648         0         1
     69650     69649     69651         0         1
     69653     69652     69654         0         1
     69656     69655     69657         0         1
     69659     69658     69660         0         1
     69662     69661     69663         0         1
     69665     69664     69666         0         1
     69668     69667     69669         0         1
     69671     69670     69672         0         1
     69674     69673     69675         0         1
     69677     69676     69678         0         1
     69680     69679     69681         0         1
     69683     69682     69684         0         1
     69686     69685     69687         0         1
     69689     69688     69690         0         1
     69692     69691     69693         0         1
     69695     69694     69696         0         1
     69698     69697     69699         0         1
     69701     69700     69702         0         1
     69704     69703     69705         0         1
     69707     69706     69708         0         1
     69710     69709     69711         0         1
     69713     69712     69714         0         1
     69716     69715     69717         0         1
     69719     69718     69720         0         1
     69722     69721     69723         0         1
     69725     69724     69726         0         1
     69728     69727     69729         0         1
     69731     69730     69732         0         1
     69734     69733     69735         0         1
     69737     69736     69738         0         1
     69740     69739     69741         0         1
     69743     69742     69744         0         1
     69746     69745     69747         0         1
     69749     69748     69750         0         1
     69752     69751     69753         0         1
     69755     69754     69756         0         1
     69758     69757     69759         0         1
     69761     69760     69762         0         1
     69764     69763     69765         0         1
     69767     69766     69768         0         1
     69770     69769     69771         0         1
     69773     69772     69774         0         1
     69776     69775     69777         0         1
     69779     69778     69780         0         1
     69782     69781     69783         0         1
     69785     69784     69786         0         1
     69788     69787     69789         0         1
     69791     69790     69792         0         1
     69794     69793     69795         0         1
     69797     69796     69798         0         1
     69800     69799     69801         0         1
     69803     69802     69804         0         1
     69806     69805     69807         0         1
     69809     69808     69810         0         1
     69812     69811     69813         0         1
     69815     69814     69816         0         1
     69818     69817     69819         0         1
     69821     69820     69822         0         1
     69824     69823     69825         0         1
     69827     69826     69828         0         1
     69830     69829     69831         0         1
     69833     69832     69834         0         1
     69836     69835     69837         0         1
     69839     69838     69840         0         1
     69842     69841     69843         0         1
     69845     69844     69846         0         1
     69848     69847     69849         0         1
     69851     69850     69852         0         1
     69854     69853     69855         0         1
     69857     69856     69858         0         1
     69860     69859     69861         0         1
     69863     69862     69864         0         1
     69866     69865     69867         0         1
     69869     69868     69870         0         1
     69872     69871     69873         0         1
     69875     69874     69876         0         1
     69878     69877     69879         0         1
     69881     69880     69882         0         1
     69884     69883     69885         0         1
     69887     69886     69888         0         1
     69890     69889     69891         0         1
     69893     69892     69894         0         1
     69896     69895     69897         0         1
     69899     69898     69900         0         1
     69902     69901     69903         0         1
     69905     69904     69906         0         1
     69908     69907     69909         0         1
     69911     69910     69912         0         1
     69914     69913     69915         0         1
     69917     69916     69918         0         1
     69920     69919     69921         0         1
     69923     69922     69924         0         1
     69926     69925     69927         0         1
     69929     69928     69930         0         1
     69932     69931     69933         0         1
     69935     69934     69936         0         1
     69938     69937     69939         0         1
     69941     69940     69942         0         1
     69944     69943     69945         0         1
     69947     69946     69948         0         1
     69950     69949     69951         0         1
     69953     69952     69954         0         1
     69956     69955     69957         0         1
     69959     69958     69960         0         1
     69962     69961     69963         0         1
     69965     69964     69966         0         1
     69968     69967     69969         0         1
     69971     69970     69972         0         1
     69974     69973     69975         0         1
     69977     69976     69978         0         1
     69980     69979     69981         0         1
     69983     69982     69984         0         1
     69986     69985     69987         0         1
     69989     69988     69990         0         1
     69992     69991     69993         0         1
     69995     69994     69996         0         1
     69998     69997     69999         0         1
     70001     70000     70002         0         1
     70004     70003     70005         0         1
     70007     70006     70008         0         1
     70010     70009     70011         0         1
     70013     70012     70014         0         1
     70016     70015     70017         0         1
     70019     70018     70020         0         1
     70022     70021     70023         0         1
     70025     70024     70026         0         1
     70028     70027     70029         0         1
     70031     70030     70032         0         1
     70034     70033     70035         0         1
     70037     70036     70038         0         1
     70040     70039     70041         0         1
     70043     70042     70044         0         1
     70046     70045     70047         0         1
     70049     70048     70050         0         1
     70052     70051     70053         0         1
     70055     70054     70056         0         1
     70058     70057     70059         0         1
     70061     70060     70062         0         1
     70064     70063     70065         0         1
     70067     70066     70068         0         1
     70070     70069     70071         0         1
     70073     70072     70074         0         1
     70076     70075     70077         0         1
     70079     70078     70080         0         1
     70082     70081     70083         0         1
     70085     70084     70086         0         1
     70088     70087     70089         0         1
     70091     70090     70092         0         1
     70094     70093     70095         0         1
     70097     70096     70098         0         1
     70100     70099     70101         0         1
     70103     70102     70104         0         1
     70106     70105     70107         0         1
     70109     70108     70110         0         1
     70112     70111     70113         0         1
     70115     70114     70116         0         1
     70118     70117     70119         0         1
     70121     70120     70122         0         1
     70124     70123     70125         0         1
     70127     70126     70128         0         1
     70130     70129     70131         0         1
     70133     70132     70134         0         1
     70136     70135     70137         0         1
     70139     70138     70140         0         1
     70142     70141     70143         0         1
     70145     70144     70146         0         1
     70148     70147     70149         0         1
     70151     70150     70152         0         1
     70154     70153     70155         0         1
     70157     70156     70158         0         1
     70160     70159     70161         0         1
     70163     70162     70164         0         1
     70166     70165     70167         0         1
     70169     70168     70170         0         1
     70172     70171     70173         0         1
     70175     70174     70176         0         1
     70178     70177     70179         0         1
     70181     70180     70182         0         1
     70184     70183     70185         0         1
     70187     70186     70188         0         1
     70190     70189     70191         0         1
     70193     70192     70194         0         1
     70196     70195     70197         0         1
     70199     70198     70200         0         1
     70202     70201     70203         0         1
     70205     70204     70206         0         1
     70208     70207     70209         0         1
     70211     70210     70212         0         1
     70214     70213     70215         0         1
     70217     70216     70218         0         1
     70220     70219     70221         0         1
     70223     70222     70224         0         1
     70226     70225     70227         0         1
     70229     70228     70230         0         1
     70232     70231     70233         0         1
     70235     70234     70236         0         1
     70238     70237     70239         0         1
     70241     70240     70242         0         1
     70244     70243     70245         0         1
     70247     70246     70248         0         1
     70250     70249     70251         0         1
     70253     70252     70254         0         1
     70256     70255     70257         0         1
     70259     70258     70260         0         1
     70262     70261     70263         0         1
     70265     70264     70266         0         1
     70268     70267     70269         0         1
     70271     70270     70272         0         1
     70274     70273     70275         0         1
     70277     70276     70278         0         1
     70280     70279     70281         0         1
     70283     70282     70284         0         1
     70286     70285     70287         0         1
     70289     70288     70290         0         1
     70292     70291     70293         0         1
     70295     70294     70296         0         1
     70298     70297     70299         0         1
     70301     70300     70302         0         1
     70304     70303     70305         0         1
     70307     70306     70308         0         1
     70310     70309     70311         0         1
     70313     70312     70314         0         1
     70316     70315     70317         0         1
     70319     70318     70320         0         1
     70322     70321     70323         0         1
     70325     70324     70326         0         1
     70328     70327     70329         0         1
     70331     70330     70332         0         1
     70334     70333     70335         0         1
     70337     70336     70338         0         1
     70340     70339     70341         0         1
     70343     70342     70344         0         1
     70346     70345     70347         0         1
     70349     70348     70350         0         1
     70352     70351     70353         0         1
     70355     70354     70356         0         1
     70358     70357     70359         0         1
     70361     70360     70362         0         1
     70364     70363     70365         0         1
     70367     70366     70368         0         1
     70370     70369     70371         0         1
     70373     70372     70374         0         1
     70376     70375     70377         0         1
     70379     70378     70380         0         1
     70382     70381     70383         0         1
     70385     70384     70386         0         1
     70388     70387     70389         0         1
     70391     70390     70392         0         1
     70394     70393     70395         0         1
     70397     70396     70398         0         1
     70400     70399     70401         0         1
     70403     70402     70404         0         1
     70406     70405     70407         0         1
     70409     70408     70410         0         1
     70412     70411     70413         0         1
     70415     70414     70416         0         1
     70418     70417     70419         0         1
     70421     70420     70422         0         1
     70424     70423     70425         0         1
     70427     70426     70428         0         1
     70430     70429     70431         0         1
     70433     70432     70434         0         1
     70436     70435     70437         0         1
     70439     70438     70440         0         1
     70442     70441     70443         0         1
     70445     70444     70446         0         1
     70448     70447     70449         0         1
     70451     70450     70452         0         1
     70454     70453     70455         0         1
     70457     70456     70458         0         1
     70460     70459     70461         0         1
     70463     70462     70464         0         1
     70466     70465     70467         0         1
     70469     70468     70470         0         1
     70472     70471     70473         0         1
     70475     70474     70476         0         1
     70478     70477     70479         0         1
     70481     70480     70482         0         1
     70484     70483     70485         0         1
     70487     70486     70488         0         1
     70490     70489     70491         0         1
     70493     70492     70494         0         1
     70496     70495     70497         0         1
     70499     70498     70500         0         1
     70502     70501     70503         0         1
     70505     70504     70506         0         1
     70508     70507     70509         0         1
     70511     70510     70512         0         1
     70514     70513     70515         0         1
     70517     70516     70518         0         1
     70520     70519     70521         0         1
     70523     70522     70524         0         1
     70526     70525     70527         0         1
     70529     70528     70530         0         1
     70532     70531     70533         0         1
     70535     70534     70536         0         1
     70538     70537     70539         0         1
     70541     70540     70542         0         1
     70544     70543     70545         0         1
     70547     70546     70548         0         1
     70550     70549     70551         0         1
     70553     70552     70554         0         1
     70556     70555     70557         0         1
     70559     70558     70560         0         1
     70562     70561     70563         0         1
     70565     70564     70566         0         1
     70568     70567     70569         0         1
     70571     70570     70572         0         1
     70574     70573     70575         0         1
     70577     70576     70578         0         1
     70580     70579     70581         0         1
     70583     70582     70584         0         1
     70586     70585     70587         0         1
     70589     70588     70590         0         1
     70592     70591     70593         0         1
     70595     70594     70596         0         1
     70598     70597     70599         0         1
     70601     70600     70602         0         1
     70604     70603     70605         0         1
     70607     70606     70608         0         1
     70610     70609     70611         0         1
     70613     70612     70614         0         1
     70616     70615     70617         0         1
     70619     70618     70620         0         1
     70622     70621     70623         0         1
     70625     70624     70626         0         1
     70628     70627     70629         0         1
     70631     70630     70632         0         1
     70634     70633     70635         0         1
     70637     70636     70638         0         1
     70640     70639     70641         0         1
     70643     70642     70644         0         1
     70646     70645     70647         0         1
     70649     70648     70650         0         1
     70652     70651     70653         0         1
     70655     70654     70656         0         1
     70658     70657     70659         0         1
     70661     70660     70662         0         1
     70664     70663     70665         0         1
     70667     70666     70668         0         1
     70670     70669     70671         0         1
     70673     70672     70674         0         1
     70676     70675     70677         0         1
     70679     70678     70680         0         1
     70682     70681     70683         0         1
     70685     70684     70686         0         1
     70688     70687     70689         0         1
     70691     70690     70692         0         1
     70694     70693     70695         0         1
     70697     70696     70698         0         1
     70700     70699     70701         0         1
     70703     70702     70704         0         1
     70706     70705     70707         0         1
     70709     70708     70710         0         1
     70712     70711     70713         0         1
     70715     70714     70716         0         1
     70718     70717     70719         0         1
     70721     70720     70722         0         1
     70724     70723     70725         0         1
     70727     70726     70728         0         1
     70730     70729     70731         0         1
     70733     70732     70734         0         1
     70736     70735     70737         0         1
     70739     70738     70740         0         1
     70742     70741     70743         0         1
     70745     70744     70746         0         1
     70748     70747     70749         0         1
     70751     70750     70752         0         1
     70754     70753     70755         0         1
     70757     70756     70758         0         1
     70760     70759     70761         0         1
     70763     70762     70764         0         1
     70766     70765     70767         0         1
     70769     70768     70770         0         1
     70772     70771     70773         0         1
     70775     70774     70776         0         1
     70778     70777     70779         0         1
     70781     70780     70782         0         1
     70784     70783     70785         0         1
     70787     70786     70788         0         1
     70790     70789     70791         0         1
     70793     70792     70794         0         1
     70796     70795     70797         0         1
     70799     70798     70800         0         1
     70802     70801     70803         0         1
     70805     70804     70806         0         1
     70808     70807     70809         0         1
     70811     70810     70812         0         1
     70814     70813     70815         0         1
     70817     70816     70818         0         1
     70820     70819     70821         0         1
     70823     70822     70824         0         1
     70826     70825     70827         0         1
     70829     70828     70830         0         1
     70832     70831     70833         0         1
     70835     70834     70836         0         1
     70838     70837     70839         0         1
     70841     70840     70842         0         1
     70844     70843     70845         0         1
     70847     70846     70848         0         1
     70850     70849     70851         0         1
     70853     70852     70854         0         1
     70856     70855     70857         0         1
     70859     70858     70860         0         1
     70862     70861     70863         0         1
     70865     70864     70866         0         1
     70868     70867     70869         0         1
     70871     70870     70872         0         1
     70874     70873     70875         0         1
     70877     70876     70878         0         1
     70880     70879     70881         0         1
     70883     70882     70884         0         1
     70886     70885     70887         0         1
     70889     70888     70890         0         1
     70892     70891     70893         0         1
     70895     70894     70896         0         1
     70898     70897     70899         0         1
     70901     70900     70902         0         1
     70904     70903     70905         0         1
     70907     70906     70908         0         1
     70910     70909     70911         0         1
     70913     70912     70914         0         1
     70916     70915     70917         0         1
     70919     70918     70920         0         1
     70922     70921     70923         0         1
     70925     70924     70926         0         1
     70928     70927     70929         0         1
     70931     70930     70932         0         1
     70934     70933     70935         0         1
     70937     70936     70938         0         1
     70940     70939     70941         0         1
     70943     70942     70944         0         1
     70946     70945     70947         0         1
     70949     70948     70950         0         1
     70952     70951     70953         0         1
     70955     70954     70956         0         1
     70958     70957     70959         0         1
     70961     70960     70962         0         1
     70964     70963     70965         0         1
     70967     70966     70968         0         1
     70970     70969     70971         0         1
     70973     70972     70974         0         1
     70976     70975     70977         0         1
     70979     70978     70980         0         1
     70982     70981     70983         0         1
     70985     70984     70986         0         1
     70988     70987     70989         0         1
     70991     70990     70992         0         1
     70994     70993     70995         0         1
     70997     70996     70998         0         1
     71000     70999     71001         0         1
     71003     71002     71004         0         1
     71006     71005     71007         0         1
     71009     71008     71010         0         1
     71012     71011     71013         0         1
     71015     71014     71016         0         1
     71018     71017     71019         0         1
     71021     71020     71022         0         1
     71024     71023     71025         0         1
     71027     71026     71028         0         1
     71030     71029     71031         0         1
     71033     71032     71034         0         1
     71036     71035     71037         0         1
     71039     71038     71040         0         1
     71042     71041     71043         0         1
     71045     71044     71046         0         1
     71048     71047     71049         0         1
     71051     71050     71052         0         1
     71054     71053     71055         0         1
     71057     71056     71058         0         1
     71060     71059     71061         0         1
     71063     71062     71064         0         1
     71066     71065     71067         0         1
     71069     71068     71070         0         1
     71072     71071     71073         0         1
     71075     71074     71076         0         1
     71078     71077     71079         0         1
     71081     71080     71082         0         1
     71084     71083     71085         0         1
     71087     71086     71088         0         1
     71090     71089     71091         0         1
     71093     71092     71094         0         1
     71096     71095     71097         0         1
     71099     71098     71100         0         1
     71102     71101     71103         0         1
     71105     71104     71106         0         1
     71108     71107     71109         0         1
     71111     71110     71112         0         1
     71114     71113     71115         0         1
     71117     71116     71118         0         1
     71120     71119     71121         0         1
     71123     71122     71124         0         1
     71126     71125     71127         0         1
     71129     71128     71130         0         1
     71132     71131     71133         0         1
     71135     71134     71136         0         1
     71138     71137     71139         0         1
     71141     71140     71142         0         1
     71144     71143     71145         0         1
     71147     71146     71148         0         1
     71150     71149     71151         0         1
     71153     71152     71154         0         1
     71156     71155     71157         0         1
     71159     71158     71160         0         1
     71162     71161     71163         0         1
     71165     71164     71166         0         1
     71168     71167     71169         0         1
     71171     71170     71172         0         1
     71174     71173     71175         0         1
     71177     71176     71178         0         1
     71180     71179     71181         0         1
     71183     71182     71184         0         1
     71186     71185     71187         0         1
     71189     71188     71190         0         1
     71192     71191     71193         0         1
     71195     71194     71196         0         1
     71198     71197     71199         0         1
     71201     71200     71202         0         1
     71204     71203     71205         0         1
     71207     71206     71208         0         1
     71210     71209     71211         0         1
     71213     71212     71214         0         1
     71216     71215     71217         0         1
     71219     71218     71220         0         1
     71222     71221     71223         0         1
     71225     71224     71226         0         1
     71228     71227     71229         0         1
     71231     71230     71232         0         1
     71234     71233     71235         0         1
     71237     71236     71238         0         1
     71240     71239     71241         0         1
     71243     71242     71244         0         1
     71246     71245     71247         0         1
     71249     71248     71250         0         1
     71252     71251     71253         0         1
     71255     71254     71256         0         1
     71258     71257     71259         0         1
     71261     71260     71262         0         1
     71264     71263     71265         0         1
     71267     71266     71268         0         1
     71270     71269     71271         0         1
     71273     71272     71274         0         1
     71276     71275     71277         0         1
     71279     71278     71280         0         1
     71282     71281     71283         0         1
     71285     71284     71286         0         1
     71288     71287     71289         0         1
     71291     71290     71292         0         1
     71294     71293     71295         0         1
     71297     71296     71298         0         1
     71300     71299     71301         0         1
     71303     71302     71304         0         1
     71306     71305     71307         0         1
     71309     71308     71310         0         1
     71312     71311     71313         0         1
     71315     71314     71316         0         1
     71318     71317     71319         0         1
     71321     71320     71322         0         1
     71324     71323     71325         0         1
     71327     71326     71328         0         1
     71330     71329     71331         0         1
     71333     71332     71334         0         1
     71336     71335     71337         0         1
     71339     71338     71340         0         1
     71342     71341     71343         0         1
     71345     71344     71346         0         1
     71348     71347     71349         0         1
     71351     71350     71352         0         1
     71354     71353     71355         0         1
     71357     71356     71358         0         1
     71360     71359     71361         0         1
     71363     71362     71364         0         1
     71366     71365     71367         0         1
     71369     71368     71370         0         1
     71372     71371     71373         0         1
     71375     71374     71376         0         1
     71378     71377     71379         0         1
     71381     71380     71382         0         1
     71384     71383     71385         0         1
     71387     71386     71388         0         1
     71390     71389     71391         0         1
     71393     71392     71394         0         1
     71396     71395     71397         0         1
     71399     71398     71400         0         1
     71402     71401     71403         0         1
     71405     71404     71406         0         1
     71408     71407     71409         0         1
     71411     71410     71412         0         1
     71414     71413     71415         0         1
     71417     71416     71418         0         1
     71420     71419     71421         0         1
     71423     71422     71424         0         1
     71426     71425     71427         0         1
     71429     71428     71430         0         1
     71432     71431     71433         0         1
     71435     71434     71436         0         1
     71438     71437     71439         0         1
     71441     71440     71442         0         1
     71444     71443     71445         0         1
     71447     71446     71448         0         1
     71450     71449     71451         0         1
     71453     71452     71454         0         1
     71456     71455     71457         0         1
     71459     71458     71460         0         1
     71462     71461     71463         0         1
     71465     71464     71466         0         1
     71468     71467     71469         0         1
     71471     71470     71472         0         1
     71474     71473     71475         0         1
     71477     71476     71478         0         1
     71480     71479     71481         0         1
     71483     71482     71484         0         1
     71486     71485     71487         0         1
     71489     71488     71490         0         1
     71492     71491     71493         0         1
     71495     71494     71496         0         1
     71498     71497     71499         0         1
     71501     71500     71502         0         1
     71504     71503     71505         0         1
     71507     71506     71508         0         1
     71510     71509     71511         0         1
     71513     71512     71514         0         1
     71516     71515     71517         0         1
     71519     71518     71520         0         1
     71522     71521     71523         0         1
     71525     71524     71526         0         1
     71528     71527     71529         0         1
     71531     71530     71532         0         1
     71534     71533     71535         0         1
     71537     71536     71538         0         1
     71540     71539     71541         0         1
     71543     71542     71544         0         1
     71546     71545     71547         0         1
     71549     71548     71550         0         1
     71552     71551     71553         0         1
     71555     71554     71556         0         1
     71558     71557     71559         0         1
     71561     71560     71562         0         1
     71564     71563     71565         0         1
     71567     71566     71568         0         1
     71570     71569     71571         0         1
     71573     71572     71574         0         1
     71576     71575     71577         0         1
     71579     71578     71580         0         1
     71582     71581     71583         0         1
     71585     71584     71586         0         1
     71588     71587     71589         0         1
     71591     71590     71592         0         1
     71594     71593     71595         0         1
     71597     71596     71598         0         1
     71600     71599     71601         0         1
     71603     71602     71604         0         1
     71606     71605     71607         0         1
     71609     71608     71610         0         1
     71612     71611     71613         0         1
     71615     71614     71616         0         1
     71618     71617     71619         0         1
     71621     71620     71622         0         1
     71624     71623     71625         0         1
     71627     71626     71628         0         1
     71630     71629     71631         0         1
     71633     71632     71634         0         1
     71636     71635     71637         0         1
     71639     71638     71640         0         1
     71642     71641     71643         0         1
     71645     71644     71646         0         1
     71648     71647     71649         0         1
     71651     71650     71652         0         1
     71654     71653     71655         0         1
     71657     71656     71658         0         1
     71660     71659     71661         0         1
     71663     71662     71664         0         1
     71666     71665     71667         0         1
     71669     71668     71670         0         1
     71672     71671     71673         0         1
     71675     71674     71676         0         1
     71678     71677     71679         0         1
     71681     71680     71682         0         1
     71684     71683     71685         0         1
     71687     71686     71688         0         1
     71690     71689     71691         0         1
     71693     71692     71694         0         1
     71696     71695     71697         0         1
     71699     71698     71700         0         1
     71702     71701     71703         0         1
     71705     71704     71706         0         1
     71708     71707     71709         0         1
     71711     71710     71712         0         1
     71714     71713     71715         0         1
     71717     71716     71718         0         1
     71720     71719     71721         0         1
     71723     71722     71724         0         1
     71726     71725     71727         0         1
     71729     71728     71730         0         1
     71732     71731     71733         0         1
     71735     71734     71736         0         1
     71738     71737     71739         0         1
     71741     71740     71742         0         1
     71744     71743     71745         0         1
     71747     71746     71748         0         1
     71750     71749     71751         0         1
     71753     71752     71754         0         1
     71756     71755     71757         0         1
     71759     71758     71760         0         1
     71762     71761     71763         0         1
     71765     71764     71766         0         1
     71768     71767     71769         0         1
     71771     71770     71772         0         1
     71774     71773     71775         0         1
     71777     71776     71778         0         1
     71780     71779     71781         0         1
     71783     71782     71784         0         1
     71786     71785     71787         0         1
     71789     71788     71790         0         1
     71792     71791     71793         0         1
     71795     71794     71796         0         1
     71798     71797     71799         0         1
     71801     71800     71802         0         1
     71804     71803     71805         0         1
     71807     71806     71808         0         1
     71810     71809     71811         0         1
     71813     71812     71814         0         1
     71816     71815     71817         0         1
     71819     71818     71820         0         1
     71822     71821     71823         0         1
     71825     71824     71826         0         1
     71828     71827     71829         0         1
     71831     71830     71832         0         1
     71834     71833     71835         0         1
     71837     71836     71838         0         1
     71840     71839     71841         0         1
     71843     71842     71844         0         1
     71846     71845     71847         0         1
     71849     71848     71850         0         1
     71852     71851     71853         0         1
     71855     71854     71856         0         1
     71858     71857     71859         0         1
     71861     71860     71862         0         1
     71864     71863     71865         0         1
     71867     71866     71868         0         1
     71870     71869     71871         0         1
     71873     71872     71874         0         1
     71876     71875     71877         0         1
     71879     71878     71880         0         1
     71882     71881     71883         0         1
     71885     71884     71886         0         1
     71888     71887     71889         0         1
     71891     71890     71892         0         1
     71894     71893     71895         0         1
     71897     71896     71898         0         1
     71900     71899     71901         0         1
     71903     71902     71904         0         1
     71906     71905     71907         0         1
     71909     71908     71910         0         1
     71912     71911     71913         0         1
     71915     71914     71916         0         1
     71918     71917     71919         0         1
     71921     71920     71922         0         1
     71924     71923     71925         0         1
     71927     71926     71928         0         1
     71930     71929     71931         0         1
     71933     71932     71934         0         1
     71936     71935     71937         0         1
     71939     71938     71940         0         1
     71942     71941     71943         0         1
     71945     71944     71946         0         1
     71948     71947     71949         0         1
     71951     71950     71952         0         1
     71954     71953     71955         0         1
     71957     71956     71958         0         1
     71960     71959     71961         0         1
     71963     71962     71964         0         1
     71966     71965     71967         0         1
     71969     71968     71970         0         1
     71972     71971     71973         0         1
     71975     71974     71976         0         1
     71978     71977     71979         0         1
     71981     71980     71982         0         1
     71984     71983     71985         0         1
     71987     71986     71988         0         1
     71990     71989     71991         0         1
     71993     71992     71994         0         1
     71996     71995     71997         0         1
     71999     71998     72000         0         1
     72002     72001     72003         0         1
     72005     72004     72006         0         1
     72008     72007     72009         0         1
     72011     72010     72012         0         1
     72014     72013     72015         0         1
     72017     72016     72018         0         1
     72020     72019     72021         0         1
     72023     72022     72024         0         1
     72026     72025     72027         0         1
     72029     72028     72030         0         1
     72032     72031     72033         0         1
     72035     72034     72036         0         1
     72038     72037     72039         0         1
     72041     72040     72042         0         1
     72044     72043     72045         0         1
     72047     72046     72048         0         1
     72050     72049     72051         0         1
     72053     72052     72054         0         1
     72056     72055     72057         0         1
     72059     72058     72060         0         1
     72062     72061     72063         0         1
     72065     72064     72066         0         1
     72068     72067     72069         0         1
     72071     72070     72072         0         1
     72074     72073     72075         0         1
     72077     72076     72078         0         1
     72080     72079     72081         0         1
     72083     72082     72084         0         1
     72086     72085     72087         0         1
     72089     72088     72090         0         1
     72092     72091     72093         0         1
     72095     72094     72096         0         1
     72098     72097     72099         0         1
     72101     72100     72102         0         1
     72104     72103     72105         0         1
     72107     72106     72108         0         1
     72110     72109     72111         0         1
     72113     72112     72114         0         1
     72116     72115     72117         0         1
     72119     72118     72120         0         1
     72122     72121     72123         0         1
     72125     72124     72126         0         1
     72128     72127     72129         0         1
     72131     72130     72132         0         1
     72134     72133     72135         0         1
     72137     72136     72138         0         1
     72140     72139     72141         0         1
     72143     72142     72144         0         1
     72146     72145     72147         0         1
     72149     72148     72150         0         1
     72152     72151     72153         0         1
     72155     72154     72156         0         1
     72158     72157     72159         0         1
     72161     72160     72162         0         1
     72164     72163     72165         0         1
     72167     72166     72168         0         1
     72170     72169     72171         0         1
     72173     72172     72174         0         1
     72176     72175     72177         0         1
     72179     72178     72180         0         1
     72182     72181     72183         0         1
     72185     72184     72186         0         1
     72188     72187     72189         0         1
     72191     72190     72192         0         1
     72194     72193     72195         0         1
     72197     72196     72198         0         1
     72200     72199     72201         0         1
     72203     72202     72204         0         1
     72206     72205     72207         0         1
     72209     72208     72210         0         1
     72212     72211     72213         0         1
     72215     72214     72216         0         1
     72218     72217     72219         0         1
     72221     72220     72222         0         1
     72224     72223     72225         0         1
     72227     72226     72228         0         1
     72230     72229     72231         0         1
     72233     72232     72234         0         1
     72236     72235     72237         0         1
     72239     72238     72240         0         1
     72242     72241     72243         0         1
     72245     72244     72246         0         1
     72248     72247     72249         0         1
     72251     72250     72252         0         1
     72254     72253     72255         0         1
     72257     72256     72258         0         1
     72260     72259     72261         0         1
     72263     72262     72264         0         1
     72266     72265     72267         0         1
     72269     72268     72270         0         1
     72272     72271     72273         0         1
     72275     72274     72276         0         1
     72278     72277     72279         0         1
     72281     72280     72282         0         1
     72284     72283     72285         0         1
     72287     72286     72288         0         1
     72290     72289     72291         0         1
     72293     72292     72294         0         1
     72296     72295     72297         0         1
     72299     72298     72300         0         1
     72302     72301     72303         0         1
     72305     72304     72306         0         1
     72308     72307     72309         0         1
     72311     72310     72312         0         1
     72314     72313     72315         0         1
     72317     72316     72318         0         1
     72320     72319     72321         0         1
     72323     72322     72324         0         1
     72326     72325     72327         0         1
     72329     72328     72330         0         1
     72332     72331     72333         0         1
     72335     72334     72336         0         1
     72338     72337     72339         0         1
     72341     72340     72342         0         1
     72344     72343     72345         0         1
     72347     72346     72348         0         1
     72350     72349     72351         0         1
     72353     72352     72354         0         1
     72356     72355     72357         0         1
     72359     72358     72360         0         1
     72362     72361     72363         0         1
     72365     72364     72366         0         1
     72368     72367     72369         0         1
     72371     72370     72372         0         1
     72374     72373     72375         0         1
     72377     72376     72378         0         1
     72380     72379     72381         0         1
     72383     72382     72384         0         1
     72386     72385     72387         0         1
     72389     72388     72390         0         1
     72392     72391     72393         0         1
     72395     72394     72396         0         1
     72398     72397     72399         0         1
     72401     72400     72402         0         1
     72404     72403     72405         0         1
     72407     72406     72408         0         1
     72410     72409     72411         0         1
     72413     72412     72414         0         1
     72416     72415     72417         0         1
     72419     72418     72420         0         1
     72422     72421     72423         0         1
     72425     72424     72426         0         1
     72428     72427     72429         0         1
     72431     72430     72432         0         1
     72434     72433     72435         0         1
     72437     72436     72438         0         1
     72440     72439     72441         0         1
     72443     72442     72444         0         1
     72446     72445     72447         0         1
     72449     72448     72450         0         1
     72452     72451     72453         0         1
     72455     72454     72456         0         1
     72458     72457     72459         0         1
     72461     72460     72462         0         1
     72464     72463     72465         0         1
     72467     72466     72468         0         1
     72470     72469     72471         0         1
     72473     72472     72474         0         1
     72476     72475     72477         0         1
     72479     72478     72480         0         1
     72482     72481     72483         0         1
     72485     72484     72486         0         1
     72488     72487     72489         0         1
     72491     72490     72492         0         1
     72494     72493     72495         0         1
     72497     72496     72498         0         1
     72500     72499     72501         0         1
     72503     72502     72504         0         1
     72506     72505     72507         0         1
     72509     72508     72510         0         1
     72512     72511     72513         0         1
     72515     72514     72516         0         1
     72518     72517     72519         0         1
     72521     72520     72522         0         1
     72524     72523     72525         0         1
     72527     72526     72528         0         1
     72530     72529     72531         0         1
     72533     72532     72534         0         1
     72536     72535     72537         0         1
     72539     72538     72540         0         1
     72542     72541     72543         0         1
     72545     72544     72546         0         1
     72548     72547     72549         0         1
     72551     72550     72552         0         1
     72554     72553     72555         0         1
     72557     72556     72558         0         1
     72560     72559     72561         0         1
     72563     72562     72564         0         1
     72566     72565     72567         0         1
     72569     72568     72570         0         1
     72572     72571     72573         0         1
     72575     72574     72576         0         1
     72578     72577     72579         0         1
     72581     72580     72582         0         1
     72584     72583     72585         0         1
     72587     72586     72588         0         1
     72590     72589     72591         0         1
     72593     72592     72594         0         1
     72596     72595     72597         0         1
     72599     72598     72600         0         1
     72602     72601     72603         0         1
     72605     72604     72606         0         1
     72608     72607     72609         0         1
     72611     72610     72612         0         1
     72614     72613     72615         0         1
     72617     72616     72618         0         1
     72620     72619     72621         0         1
     72623     72622     72624         0         1
     72626     72625     72627         0         1
     72629     72628     72630         0         1
     72632     72631     72633         0         1
     72635     72634     72636         0         1
     72638     72637     72639         0         1
     72641     72640     72642         0         1
     72644     72643     72645         0         1
     72647     72646     72648         0         1
     72650     72649     72651         0         1
     72653     72652     72654         0         1
     72656     72655     72657         0         1
     72659     72658     72660         0         1
     72662     72661     72663         0         1
     72665     72664     72666         0         1
     72668     72667     72669         0         1
     72671     72670     72672         0         1
     72674     72673     72675         0         1
     72677     72676     72678         0         1
     72680     72679     72681         0         1
     72683     72682     72684         0         1
     72686     72685     72687         0         1
     72689     72688     72690         0         1
     72692     72691     72693         0         1
     72695     72694     72696         0         1
     72698     72697     72699         0         1
     72701     72700     72702         0         1
     72704     72703     72705         0         1
     72707     72706     72708         0         1
     72710     72709     72711         0         1
     72713     72712     72714         0         1
     72716     72715     72717         0         1
     72719     72718     72720         0         1
     72722     72721     72723         0         1
     72725     72724     72726         0         1
     72728     72727     72729         0         1
     72731     72730     72732         0         1
     72734     72733     72735         0         1
     72737     72736     72738         0         1
     72740     72739     72741         0         1
     72743     72742     72744         0         1
     72746     72745     72747         0         1
     72749     72748     72750         0         1
     72752     72751     72753         0         1
     72755     72754     72756         0         1
     72758     72757     72759         0         1
     72761     72760     72762         0         1
     72764     72763     72765         0         1
     72767     72766     72768         0         1
     72770     72769     72771         0         1
     72773     72772     72774         0         1
     72776     72775     72777         0         1
     72779     72778     72780         0         1
     72782     72781     72783         0         1
     72785     72784     72786         0         1
     72788     72787     72789         0         1
     72791     72790     72792         0         1
     72794     72793     72795         0         1
     72797     72796     72798         0         1
     72800     72799     72801         0         1
     72803     72802     72804         0         1
     72806     72805     72807         0         1
     72809     72808     72810         0         1
     72812     72811     72813         0         1
     72815     72814     72816         0         1
     72818     72817     72819         0         1
     72821     72820     72822         0         1
     72824     72823     72825         0         1
     72827     72826     72828         0         1
     72830     72829     72831         0         1
     72833     72832     72834         0         1
     72836     72835     72837         0         1
     72839     72838     72840         0         1
     72842     72841     72843         0         1
     72845     72844     72846         0         1
     72848     72847     72849         0         1
     72851     72850     72852         0         1
     72854     72853     72855         0         1
     72857     72856     72858         0         1
     72860     72859     72861         0         1
     72863     72862     72864         0         1
     72866     72865     72867         0         1
     72869     72868     72870         0         1
     72872     72871     72873         0         1
     72875     72874     72876         0         1
     72878     72877     72879         0         1
     72881     72880     72882         0         1
     72884     72883     72885         0         1
     72887     72886     72888         0         1
     72890     72889     72891         0         1
     72893     72892     72894         0         1
     72896     72895     72897         0         1
     72899     72898     72900         0         1
     72902     72901     72903         0         1
     72905     72904     72906         0         1
     72908     72907     72909         0         1
     72911     72910     72912         0         1
     72914     72913     72915         0         1
     72917     72916     72918         0         1
     72920     72919     72921         0         1
     72923     72922     72924         0         1
     72926     72925     72927         0         1
     72929     72928     72930         0         1
     72932     72931     72933         0         1
     72935     72934     72936         0         1
     72938     72937     72939         0         1
     72941     72940     72942         0         1
     72944     72943     72945         0         1
     72947     72946     72948         0         1
     72950     72949     72951         0         1
     72953     72952     72954         0         1
     72956     72955     72957         0         1
     72959     72958     72960         0         1
     72962     72961     72963         0         1
     72965     72964     72966         0         1
     72968     72967     72969         0         1
     72971     72970     72972         0         1
     72974     72973     72975         0         1
     72977     72976     72978         0         1
     72980     72979     72981         0         1
     72983     72982     72984         0         1
     72986     72985     72987         0         1
     72989     72988     72990         0         1
     72992     72991     72993         0         1
     72995     72994     72996         0         1
     72998     72997     72999         0         1
     73001     73000     73002         0         1
     73004     73003     73005         0         1
     73007     73006     73008         0         1
     73010     73009     73011         0         1
     73013     73012     73014         0         1
     73016     73015     73017         0         1
     73019     73018     73020         0         1
     73022     73021     73023         0         1
     73025     73024     73026         0         1
     73028     73027     73029         0         1
     73031     73030     73032         0         1
     73034     73033     73035         0         1
     73037     73036     73038         0         1
     73040     73039     73041         0         1
     73043     73042     73044         0         1
     73046     73045     73047         0         1
     73049     73048     73050         0         1
     73052     73051     73053         0         1
     73055     73054     73056         0         1
     73058     73057     73059         0         1
     73061     73060     73062         0         1
     73064     73063     73065         0         1
     73067     73066     73068         0         1
     73070     73069     73071         0         1
     73073     73072     73074         0         1
     73076     73075     73077         0         1
     73079     73078     73080         0         1
     73082     73081     73083         0         1
     73085     73084     73086         0         1
     73088     73087     73089         0         1
     73091     73090     73092         0         1
     73094     73093     73095         0         1
     73097     73096     73098         0         1
     73100     73099     73101         0         1
     73103     73102     73104         0         1
     73106     73105     73107         0         1
     73109     73108     73110         0         1
     73112     73111     73113         0         1
     73115     73114     73116         0         1
     73118     73117     73119         0         1
     73121     73120     73122         0         1
     73124     73123     73125         0         1
     73127     73126     73128         0         1
     73130     73129     73131         0         1
     73133     73132     73134         0         1
     73136     73135     73137         0         1
     73139     73138     73140         0         1
     73142     73141     73143         0         1
     73145     73144     73146         0         1
     73148     73147     73149         0         1
     73151     73150     73152         0         1
     73154     73153     73155         0         1
     73157     73156     73158         0         1
     73160     73159     73161         0         1
     73163     73162     73164         0         1
     73166     73165     73167         0         1
     73169     73168     73170         0         1
     73172     73171     73173         0         1
     73175     73174     73176         0         1
     73178     73177     73179         0         1
     73181     73180     73182         0         1
     73184     73183     73185         0         1
     73187     73186     73188         0         1
     73190     73189     73191         0         1
     73193     73192     73194         0         1
     73196     73195     73197         0         1
     73199     73198     73200         0         1
     73202     73201     73203         0         1
     73205     73204     73206         0         1
     73208     73207     73209         0         1
     73211     73210     73212         0         1
     73214     73213     73215         0         1
     73217     73216     73218         0         1
     73220     73219     73221         0         1
     73223     73222     73224         0         1
     73226     73225     73227         0         1
     73229     73228     73230         0         1
     73232     73231     73233         0         1
     73235     73234     73236         0         1
     73238     73237     73239         0         1
     73241     73240     73242         0         1
     73244     73243     73245         0         1
     73247     73246     73248         0         1
     73250     73249     73251         0         1
     73253     73252     73254         0         1
     73256     73255     73257         0         1
     73259     73258     73260         0         1
     73262     73261     73263         0         1
     73265     73264     73266         0         1
     73268     73267     73269         0         1
     73271     73270     73272         0         1
     73274     73273     73275         0         1
     73277     73276     73278         0         1
     73280     73279     73281         0         1
     73283     73282     73284         0         1
     73286     73285     73287         0         1
     73289     73288     73290         0         1
     73292     73291     73293         0         1
     73295     73294     73296         0         1
     73298     73297     73299         0         1
     73301     73300     73302         0         1
     73304     73303     73305         0         1
     73307     73306     73308         0         1
     73310     73309     73311         0         1
     73313     73312     73314         0         1
     73316     73315     73317         0         1
     73319     73318     73320         0         1
     73322     73321     73323         0         1
     73325     73324     73326         0         1
     73328     73327     73329         0         1
     73331     73330     73332         0         1
     73334     73333     73335         0         1
     73337     73336     73338         0         1
     73340     73339     73341         0         1
     73343     73342     73344         0         1
     73346     73345     73347         0         1
     73349     73348     73350         0         1
     73352     73351     73353         0         1
     73355     73354     73356         0         1
     73358     73357     73359         0         1
     73361     73360     73362         0         1
     73364     73363     73365         0         1
     73367     73366     73368         0         1
     73370     73369     73371         0         1
     73373     73372     73374         0         1
     73376     73375     73377         0         1
     73379     73378     73380         0         1
     73382     73381     73383         0         1
     73385     73384     73386         0         1
     73388     73387     73389         0         1
     73391     73390     73392         0         1
     73394     73393     73395         0         1
     73397     73396     73398         0         1
     73400     73399     73401         0         1
     73403     73402     73404         0         1
     73406     73405     73407         0         1
     73409     73408     73410         0         1
     73412     73411     73413         0         1
     73415     73414     73416         0         1
     73418     73417     73419         0         1
     73421     73420     73422         0         1
     73424     73423     73425         0         1
     73427     73426     73428         0         1
     73430     73429     73431         0         1
     73433     73432     73434         0         1
     73436     73435     73437         0         1
     73439     73438     73440         0         1
     73442     73441     73443         0         1
     73445     73444     73446         0         1
     73448     73447     73449         0         1
     73451     73450     73452         0         1
     73454     73453     73455         0         1
     73457     73456     73458         0         1
     73460     73459     73461         0         1
     73463     73462     73464         0         1
     73466     73465     73467         0         1
     73469     73468     73470         0         1
     73472     73471     73473         0         1
     73475     73474     73476         0         1
     73478     73477     73479         0         1
     73481     73480     73482         0         1
     73484     73483     73485         0         1
     73487     73486     73488         0         1
     73490     73489     73491         0         1
     73493     73492     73494         0         1
     73496     73495     73497         0         1
     73499     73498     73500         0         1
     73502     73501     73503         0         1
     73505     73504     73506         0         1
     73508     73507     73509         0         1
     73511     73510     73512         0         1
     73514     73513     73515         0         1
     73517     73516     73518         0         1
     73520     73519     73521         0         1
     73523     73522     73524         0         1
     73526     73525     73527         0         1
     73529     73528     73530         0         1
     73532     73531     73533         0         1
     73535     73534     73536         0         1
     73538     73537     73539         0         1
     73541     73540     73542         0         1
     73544     73543     73545         0         1
     73547     73546     73548         0         1
     73550     73549     73551         0         1
     73553     73552     73554         0         1
     73556     73555     73557         0         1
     73559     73558     73560         0         1
     73562     73561     73563         0         1
     73565     73564     73566         0         1
     73568     73567     73569         0         1
     73571     73570     73572         0         1
     73574     73573     73575         0         1
     73577     73576     73578         0         1
     73580     73579     73581         0         1
     73583     73582     73584         0         1
     73586     73585     73587         0         1
     73589     73588     73590         0         1
     73592     73591     73593         0         1
     73595     73594     73596         0         1
     73598     73597     73599         0         1
     73601     73600     73602         0         1
     73604     73603     73605         0         1
     73607     73606     73608         0         1
     73610     73609     73611         0         1
     73613     73612     73614         0         1
     73616     73615     73617         0         1
     73619     73618     73620         0         1
     73622     73621     73623         0         1
     73625     73624     73626         0         1
     73628     73627     73629         0         1
     73631     73630     73632         0         1
     73634     73633     73635         0         1
     73637     73636     73638         0         1
     73640     73639     73641         0         1
     73643     73642     73644         0         1
     73646     73645     73647         0         1
     73649     73648     73650         0         1
     73652     73651     73653         0         1
     73655     73654     73656         0         1
     73658     73657     73659         0         1
     73661     73660     73662         0         1
     73664     73663     73665         0         1
     73667     73666     73668         0         1
     73670     73669     73671         0         1
     73673     73672     73674         0         1
     73676     73675     73677         0         1
     73679     73678     73680         0         1
     73682     73681     73683         0         1
     73685     73684     73686         0         1
     73688     73687     73689         0         1
     73691     73690     73692         0         1
     73694     73693     73695         0         1
     73697     73696     73698         0         1
     73700     73699     73701         0         1
     73703     73702     73704         0         1
     73706     73705     73707         0         1
     73709     73708     73710         0         1
     73712     73711     73713         0         1
     73715     73714     73716         0         1
     73718     73717     73719         0         1
     73721     73720     73722         0         1
     73724     73723     73725         0         1
     73727     73726     73728         0         1
     73730     73729     73731         0         1
     73733     73732     73734         0         1
     73736     73735     73737         0         1
     73739     73738     73740         0         1
     73742     73741     73743         0         1
     73745     73744     73746         0         1
     73748     73747     73749         0         1
     73751     73750     73752         0         1
     73754     73753     73755         0         1
     73757     73756     73758         0         1
     73760     73759     73761         0         1
     73763     73762     73764         0         1
     73766     73765     73767         0         1
     73769     73768     73770         0         1
     73772     73771     73773         0         1
     73775     73774     73776         0         1
     73778     73777     73779         0         1
     73781     73780     73782         0         1
     73784     73783     73785         0         1
     73787     73786     73788         0         1
     73790     73789     73791         0         1
     73793     73792     73794         0         1
     73796     73795     73797         0         1
     73799     73798     73800         0         1
     73802     73801     73803         0         1
     73805     73804     73806         0         1
     73808     73807     73809         0         1
     73811     73810     73812         0         1
     73814     73813     73815         0         1
     73817     73816     73818         0         1
     73820     73819     73821         0         1
     73823     73822     73824         0         1
     73826     73825     73827         0         1
     73829     73828     73830         0         1
     73832     73831     73833         0         1
     73835     73834     73836         0         1
     73838     73837     73839         0         1
     73841     73840     73842         0         1
     73844     73843     73845         0         1
     73847     73846     73848         0         1
     73850     73849     73851         0         1
     73853     73852     73854         0         1
     73856     73855     73857         0         1
     73859     73858     73860         0         1
     73862     73861     73863         0         1
     73865     73864     73866         0         1
     73868     73867     73869         0         1
     73871     73870     73872         0         1
     73874     73873     73875         0         1
     73877     73876     73878         0         1
     73880     73879     73881         0         1
     73883     73882     73884         0         1
     73886     73885     73887         0         1
     73889     73888     73890         0         1
     73892     73891     73893         0         1
     73895     73894     73896         0         1
     73898     73897     73899         0         1
     73901     73900     73902         0         1
     73904     73903     73905         0         1
     73907     73906     73908         0         1
     73910     73909     73911         0         1
     73913     73912     73914         0         1
     73916     73915     73917         0         1
     73919     73918     73920         0         1
     73922     73921     73923         0         1
     73925     73924     73926         0         1
     73928     73927     73929         0         1
     73931     73930     73932         0         1
     73934     73933     73935         0         1
     73937     73936     73938         0         1
     73940     73939     73941         0         1
     73943     73942     73944         0         1
     73946     73945     73947         0         1
     73949     73948     73950         0         1
     73952     73951     73953         0         1
     73955     73954     73956         0         1
     73958     73957     73959         0         1
     73961     73960     73962         0         1
     73964     73963     73965         0         1
     73967     73966     73968         0         1
     73970     73969     73971         0         1
     73973     73972     73974         0         1
     73976     73975     73977         0         1
     73979     73978     73980         0         1
     73982     73981     73983         0         1
     73985     73984     73986         0         1
     73988     73987     73989         0         1
     73991     73990     73992         0         1
     73994     73993     73995         0         1
     73997     73996     73998         0         1
     74000     73999     74001         0         1
     74003     74002     74004         0         1
     74006     74005     74007         0         1
     74009     74008     74010         0         1
     74012     74011     74013         0         1
     74015     74014     74016         0         1
     74018     74017     74019         0         1
     74021     74020     74022         0         1
     74024     74023     74025         0         1
     74027     74026     74028         0         1
     74030     74029     74031         0         1
     74033     74032     74034         0         1
     74036     74035     74037         0         1
     74039     74038     74040         0         1
     74042     74041     74043         0         1
     74045     74044     74046         0         1
     74048     74047     74049         0         1
     74051     74050     74052         0         1
     74054     74053     74055         0         1
     74057     74056     74058         0         1
     74060     74059     74061         0         1
     74063     74062     74064         0         1
     74066     74065     74067         0         1
     74069     74068     74070         0         1
     74072     74071     74073         0         1
     74075     74074     74076         0         1
     74078     74077     74079         0         1
     74081     74080     74082         0         1
     74084     74083     74085         0         1
     74087     74086     74088         0         1
     74090     74089     74091         0         1
     74093     74092     74094         0         1
     74096     74095     74097         0         1
     74099     74098     74100         0         1
     74102     74101     74103         0         1
     74105     74104     74106         0         1
     74108     74107     74109         0         1
     74111     74110     74112         0         1
     74114     74113     74115         0         1
     74117     74116     74118         0         1
     74120     74119     74121         0         1
     74123     74122     74124         0         1
     74126     74125     74127         0         1
     74129     74128     74130         0         1
     74132     74131     74133         0         1
     74135     74134     74136         0         1
     74138     74137     74139         0         1
     74141     74140     74142         0         1
     74144     74143     74145         0         1
     74147     74146     74148         0         1
     74150     74149     74151         0         1
     74153     74152     74154         0         1
     74156     74155     74157         0         1
     74159     74158     74160         0         1
     74162     74161     74163         0         1
     74165     74164     74166         0         1
     74168     74167     74169         0         1
     74171     74170     74172         0         1
     74174     74173     74175         0         1
     74177     74176     74178         0         1
     74180     74179     74181         0         1
     74183     74182     74184         0         1
     74186     74185     74187         0         1
     74189     74188     74190         0         1
     74192     74191     74193         0         1
     74195     74194     74196         0         1
     74198     74197     74199         0         1
     74201     74200     74202         0         1
     74204     74203     74205         0         1
     74207     74206     74208         0         1
     74210     74209     74211         0         1
     74213     74212     74214         0         1
     74216     74215     74217         0         1
     74219     74218     74220         0         1
     74222     74221     74223         0         1
     74225     74224     74226         0         1
     74228     74227     74229         0         1
     74231     74230     74232         0         1
     74234     74233     74235         0         1
     74237     74236     74238         0         1
     74240     74239     74241         0         1
     74243     74242     74244         0         1
     74246     74245     74247         0         1
     74249     74248     74250         0         1
     74252     74251     74253         0         1
     74255     74254     74256         0         1
     74258     74257     74259         0         1
     74261     74260     74262         0         1
     74264     74263     74265         0         1
     74267     74266     74268         0         1
     74270     74269     74271         0         1
     74273     74272     74274         0         1
     74276     74275     74277         0         1
     74279     74278     74280         0         1
     74282     74281     74283         0         1
     74285     74284     74286         0         1
     74288     74287     74289         0         1
     74291     74290     74292         0         1
     74294     74293     74295         0         1
     74297     74296     74298         0         1
     74300     74299     74301         0         1
     74303     74302     74304         0         1
     74306     74305     74307         0         1
     74309     74308     74310         0         1
     74312     74311     74313         0         1
     74315     74314     74316         0         1
     74318     74317     74319         0         1
     74321     74320     74322         0         1
     74324     74323     74325         0         1
     74327     74326     74328         0         1
     74330     74329     74331         0         1
     74333     74332     74334         0         1
     74336     74335     74337         0         1
     74339     74338     74340         0         1
     74342     74341     74343         0         1
     74345     74344     74346         0         1
     74348     74347     74349         0         1
     74351     74350     74352         0         1
     74354     74353     74355         0         1
     74357     74356     74358         0         1
     74360     74359     74361         0         1
     74363     74362     74364         0         1
     74366     74365     74367         0         1
     74369     74368     74370         0         1
     74372     74371     74373         0         1
     74375     74374     74376         0         1
     74378     74377     74379         0         1
     74381     74380     74382         0         1
     74384     74383     74385         0         1
     74387     74386     74388         0         1
     74390     74389     74391         0         1
     74393     74392     74394         0         1
     74396     74395     74397         0         1
     74399     74398     74400         0         1
     74402     74401     74403         0         1
     74405     74404     74406         0         1
     74408     74407     74409         0         1
     74411     74410     74412         0         1
     74414     74413     74415         0         1
     74417     74416     74418         0         1
     74420     74419     74421         0         1
     74423     74422     74424         0         1
     74426     74425     74427         0         1
     74429     74428     74430         0         1
     74432     74431     74433         0         1
     74435     74434     74436         0         1
     74438     74437     74439         0         1
     74441     74440     74442         0         1
     74444     74443     74445         0         1
     74447     74446     74448         0         1
     74450     74449     74451         0         1
     74453     74452     74454         0         1
     74456     74455     74457         0         1
     74459     74458     74460         0         1
     74462     74461     74463         0         1
     74465     74464     74466         0         1
     74468     74467     74469         0         1
     74471     74470     74472         0         1
     74474     74473     74475         0         1
     74477     74476     74478         0         1
     74480     74479     74481         0         1
     74483     74482     74484         0         1
     74486     74485     74487         0         1
     74489     74488     74490         0         1
     74492     74491     74493         0         1
     74495     74494     74496         0         1
     74498     74497     74499         0         1
     74501     74500     74502         0         1
     74504     74503     74505         0         1
     74507     74506     74508         0         1
     74510     74509     74511         0         1
     74513     74512     74514         0         1
     74516     74515     74517         0         1
     74519     74518     74520         0         1
     74522     74521     74523         0         1
     74525     74524     74526         0         1
     74528     74527     74529         0         1
     74531     74530     74532         0         1
     74534     74533     74535         0         1
     74537     74536     74538         0         1
     74540     74539     74541         0         1
     74543     74542     74544         0         1
     74546     74545     74547         0         1
     74549     74548     74550         0         1
     74552     74551     74553         0         1
     74555     74554     74556         0         1
     74558     74557     74559         0         1
     74561     74560     74562         0         1
     74564     74563     74565         0         1
     74567     74566     74568         0         1
     74570     74569     74571         0         1
     74573     74572     74574         0         1
     74576     74575     74577         0         1
     74579     74578     74580         0         1
     74582     74581     74583         0         1
     74585     74584     74586         0         1
     74588     74587     74589         0         1
     74591     74590     74592         0         1
     74594     74593     74595         0         1
     74597     74596     74598         0         1
     74600     74599     74601         0         1
     74603     74602     74604         0         1
     74606     74605     74607         0         1
     74609     74608     74610         0         1
     74612     74611     74613         0         1
     74615     74614     74616         0         1
     74618     74617     74619         0         1
     74621     74620     74622         0         1
     74624     74623     74625         0         1
     74627     74626     74628         0         1
     74630     74629     74631         0         1
     74633     74632     74634         0         1
     74636     74635     74637         0         1
     74639     74638     74640         0         1
     74642     74641     74643         0         1
     74645     74644     74646         0         1
     74648     74647     74649         0         1
     74651     74650     74652         0         1
     74654     74653     74655         0         1
     74657     74656     74658         0         1
     74660     74659     74661         0         1
     74663     74662     74664         0         1
     74666     74665     74667         0         1
     74669     74668     74670         0         1
     74672     74671     74673         0         1
     74675     74674     74676         0         1
     74678     74677     74679         0         1
     74681     74680     74682         0         1
     74684     74683     74685         0         1
     74687     74686     74688         0         1
     74690     74689     74691         0         1
     74693     74692     74694         0         1
     74696     74695     74697         0         1
     74699     74698     74700         0         1
     74702     74701     74703         0         1
     74705     74704     74706         0         1
     74708     74707     74709         0         1
     74711     74710     74712         0         1
     74714     74713     74715         0         1
     74717     74716     74718         0         1
     74720     74719     74721         0         1
     74723     74722     74724         0         1
     74726     74725     74727         0         1
     74729     74728     74730         0         1
     74732     74731     74733         0         1
     74735     74734     74736         0         1
     74738     74737     74739         0         1
     74741     74740     74742         0         1
     74744     74743     74745         0         1
     74747     74746     74748         0         1
     74750     74749     74751         0         1
     74753     74752     74754         0         1
     74756     74755     74757         0         1
     74759     74758     74760         0         1
     74762     74761     74763         0         1
     74765     74764     74766         0         1
     74768     74767     74769         0         1
     74771     74770     74772         0         1
     74774     74773     74775         0         1
     74777     74776     74778         0         1
     74780     74779     74781         0         1
     74783     74782     74784         0         1
     74786     74785     74787         0         1
     74789     74788     74790         0         1
     74792     74791     74793         0         1
     74795     74794     74796         0         1
     74798     74797     74799         0         1
     74801     74800     74802         0         1
     74804     74803     74805         0         1
     74807     74806     74808         0         1
     74810     74809     74811         0         1
     74813     74812     74814         0         1
     74816     74815     74817         0         1
     74819     74818     74820         0         1
     74822     74821     74823         0         1
     74825     74824     74826         0         1
     74828     74827     74829         0         1
     74831     74830     74832         0         1
     74834     74833     74835         0         1
     74837     74836     74838         0         1
     74840     74839     74841         0         1
     74843     74842     74844         0         1
     74846     74845     74847         0         1
     74849     74848     74850         0         1
     74852     74851     74853         0         1
     74855     74854     74856         0         1
     74858     74857     74859         0         1
     74861     74860     74862         0         1
     74864     74863     74865         0         1
     74867     74866     74868         0         1
     74870     74869     74871         0         1
     74873     74872     74874         0         1
     74876     74875     74877         0         1
     74879     74878     74880         0         1
     74882     74881     74883         0         1
     74885     74884     74886         0         1
     74888     74887     74889         0         1
     74891     74890     74892         0         1
     74894     74893     74895         0         1
     74897     74896     74898         0         1
     74900     74899     74901         0         1
     74903     74902     74904         0         1
     74906     74905     74907         0         1
     74909     74908     74910         0         1
     74912     74911     74913         0         1
     74915     74914     74916         0         1
     74918     74917     74919         0         1
     74921     74920     74922         0         1
     74924     74923     74925         0         1
     74927     74926     74928         0         1
     74930     74929     74931         0         1
     74933     74932     74934         0         1
     74936     74935     74937         0         1
     74939     74938     74940         0         1
     74942     74941     74943         0         1
     74945     74944     74946         0         1
     74948     74947     74949         0         1
     74951     74950     74952         0         1
     74954     74953     74955         0         1
     74957     74956     74958         0         1
     74960     74959     74961         0         1
     74963     74962     74964         0         1
     74966     74965     74967         0         1
     74969     74968     74970         0         1
     74972     74971     74973         0         1
     74975     74974     74976         0         1
     74978     74977     74979         0         1
     74981     74980     74982         0         1
     74984     74983     74985         0         1
     74987     74986     74988         0         1
     74990     74989     74991         0         1
     74993     74992     74994         0         1
     74996     74995     74997         0         1
     74999     74998     75000         0         1
     75002     75001     75003         0         1
     75005     75004     75006         0         1
     75008     75007     75009         0         1
     75011     75010     75012         0         1
     75014     75013     75015         0         1
     75017     75016     75018         0         1
     75020     75019     75021         0         1
     75023     75022     75024         0         1
     75026     75025     75027         0         1
     75029     75028     75030         0         1
     75032     75031     75033         0         1
     75035     75034     75036         0         1
     75038     75037     75039         0         1
     75041     75040     75042         0         1
     75044     75043     75045         0         1
     75047     75046     75048         0         1
     75050     75049     75051         0         1
     75053     75052     75054         0         1
     75056     75055     75057         0         1
     75059     75058     75060         0         1
     75062     75061     75063         0         1
     75065     75064     75066         0         1
     75068     75067     75069         0         1
     75071     75070     75072         0         1
     75074     75073     75075         0         1
     75077     75076     75078         0         1
     75080     75079     75081         0         1
     75083     75082     75084         0         1
     75086     75085     75087         0         1
     75089     75088     75090         0         1
     75092     75091     75093         0         1
     75095     75094     75096         0         1
     75098     75097     75099         0         1
     75101     75100     75102         0         1
     75104     75103     75105         0         1
     75107     75106     75108         0         1
     75110     75109     75111         0         1
     75113     75112     75114         0         1
     75116     75115     75117         0         1
     75119     75118     75120         0         1
     75122     75121     75123         0         1
     75125     75124     75126         0         1
     75128     75127     75129         0         1
     75131     75130     75132         0         1
     75134     75133     75135         0         1
     75137     75136     75138         0         1
     75140     75139     75141         0         1
     75143     75142     75144         0         1
     75146     75145     75147         0         1
     75149     75148     75150         0         1
     75152     75151     75153         0         1
     75155     75154     75156         0         1
     75158     75157     75159         0         1
     75161     75160     75162         0         1
     75164     75163     75165         0         1
     75167     75166     75168         0         1
     75170     75169     75171         0         1
     75173     75172     75174         0         1
     75176     75175     75177         0         1
     75179     75178     75180         0         1
     75182     75181     75183         0         1
     75185     75184     75186         0         1
     75188     75187     75189         0         1
     75191     75190     75192         0         1
     75194     75193     75195         0         1
     75197     75196     75198         0         1
     75200     75199     75201         0         1
     75203     75202     75204         0         1
     75206     75205     75207         0         1
     75209     75208     75210         0         1
     75212     75211     75213         0         1
     75215     75214     75216         0         1
     75218     75217     75219         0         1
     75221     75220     75222         0         1
     75224     75223     75225         0         1
     75227     75226     75228         0         1
     75230     75229     75231         0         1
     75233     75232     75234         0         1
     75236     75235     75237         0         1
     75239     75238     75240         0         1
     75242     75241     75243         0         1
     75245     75244     75246         0         1
     75248     75247     75249         0         1
     75251     75250     75252         0         1
     75254     75253     75255         0         1
     75257     75256     75258         0         1
     75260     75259     75261         0         1
     75263     75262     75264         0         1
     75266     75265     75267         0         1
     75269     75268     75270         0         1
     75272     75271     75273         0         1
     75275     75274     75276         0         1
     75278     75277     75279         0         1
     75281     75280     75282         0         1
     75284     75283     75285         0         1
     75287     75286     75288         0         1
     75290     75289     75291         0         1
     75293     75292     75294         0         1
     75296     75295     75297         0         1
     75299     75298     75300         0         1
     75302     75301     75303         0         1
     75305     75304     75306         0         1
     75308     75307     75309         0         1
     75311     75310     75312         0         1
     75314     75313     75315         0         1
     75317     75316     75318         0         1
     75320     75319     75321         0         1
     75323     75322     75324         0         1
     75326     75325     75327         0         1
     75329     75328     75330         0         1
     75332     75331     75333         0         1
     75335     75334     75336         0         1
     75338     75337     75339         0         1
     75341     75340     75342         0         1
     75344     75343     75345         0         1
     75347     75346     75348         0         1
     75350     75349     75351         0         1
     75353     75352     75354         0         1
     75356     75355     75357         0         1
     75359     75358     75360         0         1
     75362     75361     75363         0         1
     75365     75364     75366         0         1
     75368     75367     75369         0         1
     75371     75370     75372         0         1
     75374     75373     75375         0         1
     75377     75376     75378         0         1
     75380     75379     75381         0         1
     75383     75382     75384         0         1
     75386     75385     75387         0         1
     75389     75388     75390         0         1
     75392     75391     75393         0         1
     75395     75394     75396         0         1
     75398     75397     75399         0         1
     75401     75400     75402         0         1
     75404     75403     75405         0         1
     75407     75406     75408         0         1
     75410     75409     75411         0         1
     75413     75412     75414         0         1
     75416     75415     75417         0         1
     75419     75418     75420         0         1
     75422     75421     75423         0         1
     75425     75424     75426         0         1
     75428     75427     75429         0         1
     75431     75430     75432         0         1
     75434     75433     75435         0         1
     75437     75436     75438         0         1
     75440     75439     75441         0         1
     75443     75442     75444         0         1
     75446     75445     75447         0         1
     75449     75448     75450         0         1
     75452     75451     75453         0         1
     75455     75454     75456         0         1
     75458     75457     75459         0         1
     75461     75460     75462         0         1
     75464     75463     75465         0         1
     75467     75466     75468         0         1
     75470     75469     75471         0         1
     75473     75472     75474         0         1
     75476     75475     75477         0         1
     75479     75478     75480         0         1
     75482     75481     75483         0         1
     75485     75484     75486         0         1
     75488     75487     75489         0         1
     75491     75490     75492         0         1
     75494     75493     75495         0         1
     75497     75496     75498         0         1
     75500     75499     75501         0         1
     75503     75502     75504         0         1
     75506     75505     75507         0         1
     75509     75508     75510         0         1
     75512     75511     75513         0         1
     75515     75514     75516         0         1
     75518     75517     75519         0         1
     75521     75520     75522         0         1
     75524     75523     75525         0         1
     75527     75526     75528         0         1
     75530     75529     75531         0         1
     75533     75532     75534         0         1
     75536     75535     75537         0         1
     75539     75538     75540         0         1
     75542     75541     75543         0         1
     75545     75544     75546         0         1
     75548     75547     75549         0         1
     75551     75550     75552         0         1
     75554     75553     75555         0         1
     75557     75556     75558         0         1
     75560     75559     75561         0         1
     75563     75562     75564         0         1
     75566     75565     75567         0         1
     75569     75568     75570         0         1
     75572     75571     75573         0         1
     75575     75574     75576         0         1
     75578     75577     75579         0         1
     75581     75580     75582         0         1
     75584     75583     75585         0         1
     75587     75586     75588         0         1
     75590     75589     75591         0         1
     75593     75592     75594         0         1
     75596     75595     75597         0         1
     75599     75598     75600         0         1
     75602     75601     75603         0         1
     75605     75604     75606         0         1
     75608     75607     75609         0         1
     75611     75610     75612         0         1
     75614     75613     75615         0         1
     75617     75616     75618         0         1
     75620     75619     75621         0         1
     75623     75622     75624         0         1
     75626     75625     75627         0         1
     75629     75628     75630         0         1
     75632     75631     75633         0         1
     75635     75634     75636         0         1
     75638     75637     75639         0         1
     75641     75640     75642         0         1
     75644     75643     75645         0         1
     75647     75646     75648         0         1
     75650     75649     75651         0         1
     75653     75652     75654         0         1
     75656     75655     75657         0         1
     75659     75658     75660         0         1
     75662     75661     75663         0         1
     75665     75664     75666         0         1
     75668     75667     75669         0         1
     75671     75670     75672         0         1
     75674     75673     75675         0         1
     75677     75676     75678         0         1
     75680     75679     75681         0         1
     75683     75682     75684         0         1
     75686     75685     75687         0         1
     75689     75688     75690         0         1
     75692     75691     75693         0         1
     75695     75694     75696         0         1
     75698     75697     75699         0         1
     75701     75700     75702         0         1
     75704     75703     75705         0         1
     75707     75706     75708         0         1
     75710     75709     75711         0         1
     75713     75712     75714         0         1
     75716     75715     75717         0         1
     75719     75718     75720         0         1
     75722     75721     75723         0         1
     75725     75724     75726         0         1
     75728     75727     75729         0         1
     75731     75730     75732         0         1
     75734     75733     75735         0         1
     75737     75736     75738         0         1
     75740     75739     75741         0         1
     75743     75742     75744         0         1
     75746     75745     75747         0         1
     75749     75748     75750         0         1
     75752     75751     75753         0         1
     75755     75754     75756         0         1
     75758     75757     75759         0         1
     75761     75760     75762         0         1
     75764     75763     75765         0         1
     75767     75766     75768         0         1
     75770     75769     75771         0         1
     75773     75772     75774         0         1
     75776     75775     75777         0         1
     75779     75778     75780         0         1
     75782     75781     75783         0         1
     75785     75784     75786         0         1
     75788     75787     75789         0         1
     75791     75790     75792         0         1
     75794     75793     75795         0         1
     75797     75796     75798         0         1
     75800     75799     75801         0         1
     75803     75802     75804         0         1
     75806     75805     75807         0         1
     75809     75808     75810         0         1
     75812     75811     75813         0         1
     75815     75814     75816         0         1
     75818     75817     75819         0         1
     75821     75820     75822         0         1
     75824     75823     75825         0         1
     75827     75826     75828         0         1
     75830     75829     75831         0         1
     75833     75832     75834         0         1
     75836     75835     75837         0         1
     75839     75838     75840         0         1
     75842     75841     75843         0         1
     75845     75844     75846         0         1
     75848     75847     75849         0         1
     75851     75850     75852         0         1
     75854     75853     75855         0         1
     75857     75856     75858         0         1
     75860     75859     75861         0         1
     75863     75862     75864         0         1
     75866     75865     75867         0         1
     75869     75868     75870         0         1
     75872     75871     75873         0         1
     75875     75874     75876         0         1
     75878     75877     75879         0         1
     75881     75880     75882         0         1
     75884     75883     75885         0         1
     75887     75886     75888         0         1
     75890     75889     75891         0         1
     75893     75892     75894         0         1
     75896     75895     75897         0         1
     75899     75898     75900         0         1
     75902     75901     75903         0         1
     75905     75904     75906         0         1
     75908     75907     75909         0         1
     75911     75910     75912         0         1
     75914     75913     75915         0         1
     75917     75916     75918         0         1
     75920     75919     75921         0         1
     75923     75922     75924         0         1
     75926     75925     75927         0         1
     75929     75928     75930         0         1
     75932     75931     75933         0         1
     75935     75934     75936         0         1
     75938     75937     75939         0         1
     75941     75940     75942         0         1
     75944     75943     75945         0         1
     75947     75946     75948         0         1
     75950     75949     75951         0         1
     75953     75952     75954         0         1
     75956     75955     75957         0         1
     75959     75958     75960         0         1
     75962     75961     75963         0         1
     75965     75964     75966         0         1
     75968     75967     75969         0         1
     75971     75970     75972         0         1
     75974     75973     75975         0         1
     75977     75976     75978         0         1
     75980     75979     75981         0         1
     75983     75982     75984         0         1
     75986     75985     75987         0         1
     75989     75988     75990         0         1
     75992     75991     75993         0         1
     75995     75994     75996         0         1
     75998     75997     75999         0         1
     76001     76000     76002         0         1
     76004     76003     76005         0         1
     76007     76006     76008         0         1
     76010     76009     76011         0         1
     76013     76012     76014         0         1
     76016     76015     76017         0         1
     76019     76018     76020         0         1
     76022     76021     76023         0         1
     76025     76024     76026         0         1
     76028     76027     76029         0         1
     76031     76030     76032         0         1
     76034     76033     76035         0         1
     76037     76036     76038         0         1
     76040     76039     76041         0         1
     76043     76042     76044         0         1
     76046     76045     76047         0         1
     76049     76048     76050         0         1
     76052     76051     76053         0         1
     76055     76054     76056         0         1
     76058     76057     76059         0         1
     76061     76060     76062         0         1
     76064     76063     76065         0         1
     76067     76066     76068         0         1
     76070     76069     76071         0         1
     76073     76072     76074         0         1
     76076     76075     76077         0         1
     76079     76078     76080         0         1
     76082     76081     76083         0         1
     76085     76084     76086         0         1
     76088     76087     76089         0         1
     76091     76090     76092         0         1
     76094     76093     76095         0         1
     76097     76096     76098         0         1
     76100     76099     76101         0         1
     76103     76102     76104         0         1
     76106     76105     76107         0         1
     76109     76108     76110         0         1
     76112     76111     76113         0         1
     76115     76114     76116         0         1
     76118     76117     76119         0         1
     76121     76120     76122         0         1
     76124     76123     76125         0         1
     76127     76126     76128         0         1
     76130     76129     76131         0         1
     76133     76132     76134         0         1
     76136     76135     76137         0         1
     76139     76138     76140         0         1
     76142     76141     76143         0         1
     76145     76144     76146         0         1
     76148     76147     76149         0         1
     76151     76150     76152         0         1
     76154     76153     76155         0         1
     76157     76156     76158         0         1
     76160     76159     76161         0         1
     76163     76162     76164         0         1
     76166     76165     76167         0         1
     76169     76168     76170         0         1
     76172     76171     76173         0         1
     76175     76174     76176         0         1
     76178     76177     76179         0         1
     76181     76180     76182         0         1
     76184     76183     76185         0         1
     76187     76186     76188         0         1
     76190     76189     76191         0         1
     76193     76192     76194         0         1
     76196     76195     76197         0         1
     76199     76198     76200         0         1
     76202     76201     76203         0         1
     76205     76204     76206         0         1
     76208     76207     76209         0         1
     76211     76210     76212         0         1
     76214     76213     76215         0         1
     76217     76216     76218         0         1
     76220     76219     76221         0         1
     76223     76222     76224         0         1
     76226     76225     76227         0         1
     76229     76228     76230         0         1
     76232     76231     76233         0         1
     76235     76234     76236         0         1
     76238     76237     76239         0         1
     76241     76240     76242         0         1
     76244     76243     76245         0         1
     76247     76246     76248         0         1
     76250     76249     76251         0         1
     76253     76252     76254         0         1
     76256     76255     76257         0         1
     76259     76258     76260         0         1
     76262     76261     76263         0         1
     76265     76264     76266         0         1
     76268     76267     76269         0         1
     76271     76270     76272         0         1
     76274     76273     76275         0         1
     76277     76276     76278         0         1
     76280     76279     76281         0         1
     76283     76282     76284         0         1
     76286     76285     76287         0         1
     76289     76288     76290         0         1
     76292     76291     76293         0         1
     76295     76294     76296         0         1
     76298     76297     76299         0         1
     76301     76300     76302         0         1
     76304     76303     76305         0         1
     76307     76306     76308         0         1
     76310     76309     76311         0         1
     76313     76312     76314         0         1
     76316     76315     76317         0         1
     76319     76318     76320         0         1
     76322     76321     76323         0         1
     76325     76324     76326         0         1
     76328     76327     76329         0         1
     76331     76330     76332         0         1
     76334     76333     76335         0         1
     76337     76336     76338         0         1
     76340     76339     76341         0         1
     76343     76342     76344         0         1
     76346     76345     76347         0         1
     76349     76348     76350         0         1
     76352     76351     76353         0         1
     76355     76354     76356         0         1
     76358     76357     76359         0         1
     76361     76360     76362         0         1
     76364     76363     76365         0         1
     76367     76366     76368         0         1
     76370     76369     76371         0         1
     76373     76372     76374         0         1
     76376     76375     76377         0         1
     76379     76378     76380         0         1
     76382     76381     76383         0         1
     76385     76384     76386         0         1
     76388     76387     76389         0         1
     76391     76390     76392         0         1
     76394     76393     76395         0         1
     76397     76396     76398         0         1
     76400     76399     76401         0         1
     76403     76402     76404         0         1
     76406     76405     76407         0         1
     76409     76408     76410         0         1
     76412     76411     76413         0         1
     76415     76414     76416         0         1
     76418     76417     76419         0         1
     76421     76420     76422         0         1
     76424     76423     76425         0         1
     76427     76426     76428         0         1
     76430     76429     76431         0         1
     76433     76432     76434         0         1
     76436     76435     76437         0         1
     76439     76438     76440         0         1
     76442     76441     76443         0         1
     76445     76444     76446         0         1
     76448     76447     76449         0         1
     76451     76450     76452         0         1
     76454     76453     76455         0         1
     76457     76456     76458         0         1
     76460     76459     76461         0         1
     76463     76462     76464         0         1
     76466     76465     76467         0         1
     76469     76468     76470         0         1
     76472     76471     76473         0         1
     76475     76474     76476         0         1
     76478     76477     76479         0         1
     76481     76480     76482         0         1
     76484     76483     76485         0         1
     76487     76486     76488         0         1
     76490     76489     76491         0         1
     76493     76492     76494         0         1
     76496     76495     76497         0         1
     76499     76498     76500         0         1
     76502     76501     76503         0         1
     76505     76504     76506         0         1
     76508     76507     76509         0         1
     76511     76510     76512         0         1
     76514     76513     76515         0         1
     76517     76516     76518         0         1
     76520     76519     76521         0         1
     76523     76522     76524         0         1
     76526     76525     76527         0         1
     76529     76528     76530         0         1
     76532     76531     76533         0         1
     76535     76534     76536         0         1
     76538     76537     76539         0         1
     76541     76540     76542         0         1
     76544     76543     76545         0         1
     76547     76546     76548         0         1
     76550     76549     76551         0         1
     76553     76552     76554         0         1
     76556     76555     76557         0         1
     76559     76558     76560         0         1
     76562     76561     76563         0         1
     76565     76564     76566         0         1
     76568     76567     76569         0         1
     76571     76570     76572         0         1
     76574     76573     76575         0         1
     76577     76576     76578         0         1
     76580     76579     76581         0         1
     76583     76582     76584         0         1
     76586     76585     76587         0         1
     76589     76588     76590         0         1
     76592     76591     76593         0         1
     76595     76594     76596         0         1
     76598     76597     76599         0         1
     76601     76600     76602         0         1
     76604     76603     76605         0         1
     76607     76606     76608         0         1
     76610     76609     76611         0         1
     76613     76612     76614         0         1
     76616     76615     76617         0         1
     76619     76618     76620         0         1
     76622     76621     76623         0         1
     76625     76624     76626         0         1
     76628     76627     76629         0         1
     76631     76630     76632         0         1
     76634     76633     76635         0         1
     76637     76636     76638         0         1
     76640     76639     76641         0         1
     76643     76642     76644         0         1
     76646     76645     76647         0         1
     76649     76648     76650         0         1
     76652     76651     76653         0         1
     76655     76654     76656         0         1
     76658     76657     76659         0         1
     76661     76660     76662         0         1
     76664     76663     76665         0         1
     76667     76666     76668         0         1
     76670     76669     76671         0         1
     76673     76672     76674         0         1
     76676     76675     76677         0         1
     76679     76678     76680         0         1
     76682     76681     76683         0         1
     76685     76684     76686         0         1
     76688     76687     76689         0         1
     76691     76690     76692         0         1
     76694     76693     76695         0         1
     76697     76696     76698         0         1
     76700     76699     76701         0         1
     76703     76702     76704         0         1
     76706     76705     76707         0         1
     76709     76708     76710         0         1
     76712     76711     76713         0         1
     76715     76714     76716         0         1
     76718     76717     76719         0         1
     76721     76720     76722         0         1
     76724     76723     76725         0         1
     76727     76726     76728         0         1
     76730     76729     76731         0         1
     76733     76732     76734         0         1
     76736     76735     76737         0         1
     76739     76738     76740         0         1
     76742     76741     76743         0         1
     76745     76744     76746         0         1
     76748     76747     76749         0         1
     76751     76750     76752         0         1
     76754     76753     76755         0         1
     76757     76756     76758         0         1
     76760     76759     76761         0         1
     76763     76762     76764         0         1
     76766     76765     76767         0         1
     76769     76768     76770         0         1
     76772     76771     76773         0         1
     76775     76774     76776         0         1
     76778     76777     76779         0         1
     76781     76780     76782         0         1
     76784     76783     76785         0         1
     76787     76786     76788         0         1
     76790     76789     76791         0         1
     76793     76792     76794         0         1
     76796     76795     76797         0         1
     76799     76798     76800         0         1
     76802     76801     76803         0         1
     76805     76804     76806         0         1
     76808     76807     76809         0         1
     76811     76810     76812         0         1
     76814     76813     76815         0         1
     76817     76816     76818         0         1
     76820     76819     76821         0         1
     76823     76822     76824         0         1
     76826     76825     76827         0         1
     76829     76828     76830         0         1
     76832     76831     76833         0         1
     76835     76834     76836         0         1
     76838     76837     76839         0         1
     76841     76840     76842         0         1
     76844     76843     76845         0         1
     76847     76846     76848         0         1
     76850     76849     76851         0         1
     76853     76852     76854         0         1
     76856     76855     76857         0         1
     76859     76858     76860         0         1
     76862     76861     76863         0         1
     76865     76864     76866         0         1
     76868     76867     76869         0         1
     76871     76870     76872         0         1
     76874     76873     76875         0         1
     76877     76876     76878         0         1
     76880     76879     76881         0         1
     76883     76882     76884         0         1
     76886     76885     76887         0         1
     76889     76888     76890         0         1
     76892     76891     76893         0         1
     76895     76894     76896         0         1
     76898     76897     76899         0         1
     76901     76900     76902         0         1
     76904     76903     76905         0         1
     76907     76906     76908         0         1
     76910     76909     76911         0         1
     76913     76912     76914         0         1
     76916     76915     76917         0         1
     76919     76918     76920         0         1
     76922     76921     76923         0         1
     76925     76924     76926         0         1
     76928     76927     76929         0         1
     76931     76930     76932         0         1
     76934     76933     76935         0         1
     76937     76936     76938         0         1
     76940     76939     76941         0         1
     76943     76942     76944         0         1
     76946     76945     76947         0         1
     76949     76948     76950         0         1
     76952     76951     76953         0         1
     76955     76954     76956         0         1
     76958     76957     76959         0         1
     76961     76960     76962         0         1
     76964     76963     76965         0         1
     76967     76966     76968         0         1
     76970     76969     76971         0         1
     76973     76972     76974         0         1
     76976     76975     76977         0         1
     76979     76978     76980         0         1
     76982     76981     76983         0         1
     76985     76984     76986         0         1
     76988     76987     76989         0         1
     76991     76990     76992         0         1
     76994     76993     76995         0         1
     76997     76996     76998         0         1
     77000     76999     77001         0         1
     77003     77002     77004         0         1
     77006     77005     77007         0         1
     77009     77008     77010         0         1
     77012     77011     77013         0         1
     77015     77014     77016         0         1
     77018     77017     77019         0         1
     77021     77020     77022         0         1
     77024     77023     77025         0         1
     77027     77026     77028         0         1
     77030     77029     77031         0         1
     77033     77032     77034         0         1
     77036     77035     77037         0         1
     77039     77038     77040         0         1
     77042     77041     77043         0         1
     77045     77044     77046         0         1
     77048     77047     77049         0         1
     77051     77050     77052         0         1
     77054     77053     77055         0         1
     77057     77056     77058         0         1
     77060     77059     77061         0         1
     77063     77062     77064         0         1
     77066     77065     77067         0         1
     77069     77068     77070         0         1
     77072     77071     77073         0         1
     77075     77074     77076         0         1
     77078     77077     77079         0         1
     77081     77080     77082         0         1
     77084     77083     77085         0         1
     77087     77086     77088         0         1
     77090     77089     77091         0         1
     77093     77092     77094         0         1
     77096     77095     77097         0         1
     77099     77098     77100         0         1
     77102     77101     77103         0         1
     77105     77104     77106         0         1
     77108     77107     77109         0         1
     77111     77110     77112         0         1
     77114     77113     77115         0         1
     77117     77116     77118         0         1
     77120     77119     77121         0         1
     77123     77122     77124         0         1
     77126     77125     77127         0         1
     77129     77128     77130         0         1
     77132     77131     77133         0         1
     77135     77134     77136         0         1
     77138     77137     77139         0         1
     77141     77140     77142         0         1
     77144     77143     77145         0         1
     77147     77146     77148         0         1
     77150     77149     77151         0         1
     77153     77152     77154         0         1
     77156     77155     77157         0         1
     77159     77158     77160         0         1
     77162     77161     77163         0         1
     77165     77164     77166         0         1
     77168     77167     77169         0         1
     77171     77170     77172         0         1
     77174     77173     77175         0         1
     77177     77176     77178         0         1
     77180     77179     77181         0         1
     77183     77182     77184         0         1
     77186     77185     77187         0         1
     77189     77188     77190         0         1
     77192     77191     77193         0         1
     77195     77194     77196         0         1
     77198     77197     77199         0         1
     77201     77200     77202         0         1
     77204     77203     77205         0         1
     77207     77206     77208         0         1
     77210     77209     77211         0         1
     77213     77212     77214         0         1
     77216     77215     77217         0         1
     77219     77218     77220         0         1
     77222     77221     77223         0         1
     77225     77224     77226         0         1
     77228     77227     77229         0         1
     77231     77230     77232         0         1
     77234     77233     77235         0         1
     77237     77236     77238         0         1
     77240     77239     77241         0         1
     77243     77242     77244         0         1
     77246     77245     77247         0         1
     77249     77248     77250         0         1
     77252     77251     77253         0         1
     77255     77254     77256         0         1
     77258     77257     77259         0         1
     77261     77260     77262         0         1
     77264     77263     77265         0         1
     77267     77266     77268         0         1
     77270     77269     77271         0         1
     77273     77272     77274         0         1
     77276     77275     77277         0         1
     77279     77278     77280         0         1
     77282     77281     77283         0         1
     77285     77284     77286         0         1
     77288     77287     77289         0         1
     77291     77290     77292         0         1
     77294     77293     77295         0         1
     77297     77296     77298         0         1
     77300     77299     77301         0         1
     77303     77302     77304         0         1
     77306     77305     77307         0         1
     77309     77308     77310         0         1
     77312     77311     77313         0         1
     77315     77314     77316         0         1
     77318     77317     77319         0         1
     77321     77320     77322         0         1
     77324     77323     77325         0         1
     77327     77326     77328         0         1
     77330     77329     77331         0         1
     77333     77332     77334         0         1
     77336     77335     77337         0         1
     77339     77338     77340         0         1
     77342     77341     77343         0         1
     77345     77344     77346         0         1
     77348     77347     77349         0         1
     77351     77350     77352         0         1
     77354     77353     77355         0         1
     77357     77356     77358         0         1
     77360     77359     77361         0         1
     77363     77362     77364         0         1
     77366     77365     77367         0         1
     77369     77368     77370         0         1
     77372     77371     77373         0         1
     77375     77374     77376         0         1
     77378     77377     77379         0         1
     77381     77380     77382         0         1
     77384     77383     77385         0         1
     77387     77386     77388         0         1
     77390     77389     77391         0         1
     77393     77392     77394         0         1
     77396     77395     77397         0         1
     77399     77398     77400         0         1
     77402     77401     77403         0         1
     77405     77404     77406         0         1
     77408     77407     77409         0         1
     77411     77410     77412         0         1
     77414     77413     77415         0         1
     77417     77416     77418         0         1
     77420     77419     77421         0         1
     77423     77422     77424         0         1
     77426     77425     77427         0         1
     77429     77428     77430         0         1
     77432     77431     77433         0         1
     77435     77434     77436         0         1
     77438     77437     77439         0         1
     77441     77440     77442         0         1
     77444     77443     77445         0         1
     77447     77446     77448         0         1
     77450     77449     77451         0         1
     77453     77452     77454         0         1
     77456     77455     77457         0         1
     77459     77458     77460         0         1
     77462     77461     77463         0         1
     77465     77464     77466         0         1
     77468     77467     77469         0         1
     77471     77470     77472         0         1
     77474     77473     77475         0         1
     77477     77476     77478         0         1
     77480     77479     77481         0         1
     77483     77482     77484         0         1
     77486     77485     77487         0         1
     77489     77488     77490         0         1
     77492     77491     77493         0         1
     77495     77494     77496         0         1
     77498     77497     77499         0         1
     77501     77500     77502         0         1
     77504     77503     77505         0         1
     77507     77506     77508         0         1
     77510     77509     77511         0         1
     77513     77512     77514         0         1
     77516     77515     77517         0         1
     77519     77518     77520         0         1
     77522     77521     77523         0         1
     77525     77524     77526         0         1
     77528     77527     77529         0         1
     77531     77530     77532         0         1
     77534     77533     77535         0         1
     77537     77536     77538         0         1
     77540     77539     77541         0         1
     77543     77542     77544         0         1
     77546     77545     77547         0         1
     77549     77548     77550         0         1
     77552     77551     77553         0         1
     77555     77554     77556         0         1
     77558     77557     77559         0         1
     77561     77560     77562         0         1
     77564     77563     77565         0         1
     77567     77566     77568         0         1
     77570     77569     77571         0         1
     77573     77572     77574         0         1
     77576     77575     77577         0         1
     77579     77578     77580         0         1
     77582     77581     77583         0         1
     77585     77584     77586         0         1
     77588     77587     77589         0         1
     77591     77590     77592         0         1
     77594     77593     77595         0         1
     77597     77596     77598         0         1
     77600     77599     77601         0         1
     77603     77602     77604         0         1
     77606     77605     77607         0         1
     77609     77608     77610         0         1
     77612     77611     77613         0         1
     77615     77614     77616         0         1
     77618     77617     77619         0         1
     77621     77620     77622         0         1
     77624     77623     77625         0         1
     77627     77626     77628         0         1
     77630     77629     77631         0         1
     77633     77632     77634         0         1
     77636     77635     77637         0         1
     77639     77638     77640         0         1
     77642     77641     77643         0         1
     77645     77644     77646         0         1
     77648     77647     77649         0         1
     77651     77650     77652         0         1
     77654     77653     77655         0         1
     77657     77656     77658         0         1
     77660     77659     77661         0         1
     77663     77662     77664         0         1
     77666     77665     77667         0         1
     77669     77668     77670         0         1
     77672     77671     77673         0         1
     77675     77674     77676         0         1
     77678     77677     77679         0         1
     77681     77680     77682         0         1
     77684     77683     77685         0         1
     77687     77686     77688         0         1
     77690     77689     77691         0         1
     77693     77692     77694         0         1
     77696     77695     77697         0         1
     77699     77698     77700         0         1
     77702     77701     77703         0         1
     77705     77704     77706         0         1
     77708     77707     77709         0         1
     77711     77710     77712         0         1
     77714     77713     77715         0         1
     77717     77716     77718         0         1
     77720     77719     77721         0         1
     77723     77722     77724         0         1
     77726     77725     77727         0         1
     77729     77728     77730         0         1
     77732     77731     77733         0         1
     77735     77734     77736         0         1
     77738     77737     77739         0         1
     77741     77740     77742         0         1
     77744     77743     77745         0         1
     77747     77746     77748         0         1
     77750     77749     77751         0         1
     77753     77752     77754         0         1
     77756     77755     77757         0         1
     77759     77758     77760         0         1
     77762     77761     77763         0         1
     77765     77764     77766         0         1
     77768     77767     77769         0         1
     77771     77770     77772         0         1
     77774     77773     77775         0         1
     77777     77776     77778         0         1
     77780     77779     77781         0         1
     77783     77782     77784         0         1
     77786     77785     77787         0         1
     77789     77788     77790         0         1
     77792     77791     77793         0         1
     77795     77794     77796         0         1
     77798     77797     77799         0         1
     77801     77800     77802         0         1
     77804     77803     77805         0         1
     77807     77806     77808         0         1
     77810     77809     77811         0         1
     77813     77812     77814         0         1
     77816     77815     77817         0         1
     77819     77818     77820         0         1
     77822     77821     77823         0         1
     77825     77824     77826         0         1
     77828     77827     77829         0         1
     77831     77830     77832         0         1
     77834     77833     77835         0         1
     77837     77836     77838         0         1
     77840     77839     77841         0         1
     77843     77842     77844         0         1
     77846     77845     77847         0         1
     77849     77848     77850         0         1
     77852     77851     77853         0         1
     77855     77854     77856         0         1
     77858     77857     77859         0         1
     77861     77860     77862         0         1
     77864     77863     77865         0         1
     77867     77866     77868         0         1
     77870     77869     77871         0         1
     77873     77872     77874         0         1
     77876     77875     77877         0         1
     77879     77878     77880         0         1
     77882     77881     77883         0         1
     77885     77884     77886         0         1
     77888     77887     77889         0         1
     77891     77890     77892         0         1
     77894     77893     77895         0         1
     77897     77896     77898         0         1
     77900     77899     77901         0         1
     77903     77902     77904         0         1
     77906     77905     77907         0         1
     77909     77908     77910         0         1
     77912     77911     77913         0         1
     77915     77914     77916         0         1
     77918     77917     77919         0         1
     77921     77920     77922         0         1
     77924     77923     77925         0         1
     77927     77926     77928         0         1
     77930     77929     77931         0         1
     77933     77932     77934         0         1
     77936     77935     77937         0         1
     77939     77938     77940         0         1
     77942     77941     77943         0         1
     77945     77944     77946         0         1
     77948     77947     77949         0         1
     77951     77950     77952         0         1
     77954     77953     77955         0         1
     77957     77956     77958         0         1
     77960     77959     77961         0         1
     77963     77962     77964         0         1
     77966     77965     77967         0         1
     77969     77968     77970         0         1
     77972     77971     77973         0         1
     77975     77974     77976         0         1
     77978     77977     77979         0         1
     77981     77980     77982         0         1
     77984     77983     77985         0         1
     77987     77986     77988         0         1
     77990     77989     77991         0         1
     77993     77992     77994         0         1
     77996     77995     77997         0         1
     77999     77998     78000         0         1
     78002     78001     78003         0         1
     78005     78004     78006         0         1
     78008     78007     78009         0         1
     78011     78010     78012         0         1
     78014     78013     78015         0         1
     78017     78016     78018         0         1
     78020     78019     78021         0         1
     78023     78022     78024         0         1
     78026     78025     78027         0         1
     78029     78028     78030         0         1
     78032     78031     78033         0         1
     78035     78034     78036         0         1
     78038     78037     78039         0         1
     78041     78040     78042         0         1
     78044     78043     78045         0         1
     78047     78046     78048         0         1
     78050     78049     78051         0         1
     78053     78052     78054         0         1
     78056     78055     78057         0         1
     78059     78058     78060         0         1
     78062     78061     78063         0         1
     78065     78064     78066         0         1
     78068     78067     78069         0         1
     78071     78070     78072         0         1
     78074     78073     78075         0         1
     78077     78076     78078         0         1
     78080     78079     78081         0         1
     78083     78082     78084         0         1
     78086     78085     78087         0         1
     78089     78088     78090         0         1
     78092     78091     78093         0         1
     78095     78094     78096         0         1
     78098     78097     78099         0         1
     78101     78100     78102         0         1
     78104     78103     78105         0         1
     78107     78106     78108         0         1
     78110     78109     78111         0         1
     78113     78112     78114         0         1
     78116     78115     78117         0         1
     78119     78118     78120         0         1
     78122     78121     78123         0         1
     78125     78124     78126         0         1
     78128     78127     78129         0         1
     78131     78130     78132         0         1
     78134     78133     78135         0         1
     78137     78136     78138         0         1
     78140     78139     78141         0         1
     78143     78142     78144         0         1
     78146     78145     78147         0         1
     78149     78148     78150         0         1
     78152     78151     78153         0         1
     78155     78154     78156         0         1
     78158     78157     78159         0         1
     78161     78160     78162         0         1
     78164     78163     78165         0         1
     78167     78166     78168         0         1
     78170     78169     78171         0         1
     78173     78172     78174         0         1
     78176     78175     78177         0         1
     78179     78178     78180         0         1
     78182     78181     78183         0         1
     78185     78184     78186         0         1
     78188     78187     78189         0         1
     78191     78190     78192         0         1
     78194     78193     78195         0         1
     78197     78196     78198         0         1
     78200     78199     78201         0         1
     78203     78202     78204         0         1
     78206     78205     78207         0         1
     78209     78208     78210         0         1
     78212     78211     78213         0         1
     78215     78214     78216         0         1
     78218     78217     78219         0         1
     78221     78220     78222         0         1
     78224     78223     78225         0         1
     78227     78226     78228         0         1
     78230     78229     78231         0         1
     78233     78232     78234         0         1
     78236     78235     78237         0         1
     78239     78238     78240         0         1
     78242     78241     78243         0         1
     78245     78244     78246         0         1
     78248     78247     78249         0         1
     78251     78250     78252         0         1
     78254     78253     78255         0         1
     78257     78256     78258         0         1
     78260     78259     78261         0         1
     78263     78262     78264         0         1
     78266     78265     78267         0         1
     78269     78268     78270         0         1
     78272     78271     78273         0         1
     78275     78274     78276         0         1
     78278     78277     78279         0         1
     78281     78280     78282         0         1
     78284     78283     78285         0         1
     78287     78286     78288         0         1
     78290     78289     78291         0         1
     78293     78292     78294         0         1
     78296     78295     78297         0         1
     78299     78298     78300         0         1
     78302     78301     78303         0         1
     78305     78304     78306         0         1
     78308     78307     78309         0         1
     78311     78310     78312         0         1
     78314     78313     78315         0         1
     78317     78316     78318         0         1
     78320     78319     78321         0         1
     78323     78322     78324         0         1
     78326     78325     78327         0         1
     78329     78328     78330         0         1
     78332     78331     78333         0         1
     78335     78334     78336         0         1
     78338     78337     78339         0         1
     78341     78340     78342         0         1
     78344     78343     78345         0         1
     78347     78346     78348         0         1
     78350     78349     78351         0         1
     78353     78352     78354         0         1
     78356     78355     78357         0         1
     78359     78358     78360         0         1
     78362     78361     78363         0         1
     78365     78364     78366         0         1
     78368     78367     78369         0         1
     78371     78370     78372         0         1
     78374     78373     78375         0         1
     78377     78376     78378         0         1
     78380     78379     78381         0         1
     78383     78382     78384         0         1
     78386     78385     78387         0         1
     78389     78388     78390         0         1
     78392     78391     78393         0         1
     78395     78394     78396         0         1
     78398     78397     78399         0         1
     78401     78400     78402         0         1
     78404     78403     78405         0         1
     78407     78406     78408         0         1
     78410     78409     78411         0         1
     78413     78412     78414         0         1
     78416     78415     78417         0         1
     78419     78418     78420         0         1
     78422     78421     78423         0         1
     78425     78424     78426         0         1
     78428     78427     78429         0         1
     78431     78430     78432         0         1
     78434     78433     78435         0         1
     78437     78436     78438         0         1
     78440     78439     78441         0         1
     78443     78442     78444         0         1
     78446     78445     78447         0         1
     78449     78448     78450         0         1
     78452     78451     78453         0         1
     78455     78454     78456         0         1
     78458     78457     78459         0         1
     78461     78460     78462         0         1
     78464     78463     78465         0         1
     78467     78466     78468         0         1
     78470     78469     78471         0         1
     78473     78472     78474         0         1
     78476     78475     78477         0         1
     78479     78478     78480         0         1
     78482     78481     78483         0         1
     78485     78484     78486         0         1
     78488     78487     78489         0         1
     78491     78490     78492         0         1
     78494     78493     78495         0         1
     78497     78496     78498         0         1
     78500     78499     78501         0         1
     78503     78502     78504         0         1
     78506     78505     78507         0         1
     78509     78508     78510         0         1
     78512     78511     78513         0         1
     78515     78514     78516         0         1
     78518     78517     78519         0         1
     78521     78520     78522         0         1
     78524     78523     78525         0         1
     78527     78526     78528         0         1
     78530     78529     78531         0         1
     78533     78532     78534         0         1
     78536     78535     78537         0         1
     78539     78538     78540         0         1
     78542     78541     78543         0         1
     78545     78544     78546         0         1
     78548     78547     78549         0         1
     78551     78550     78552         0         1
     78554     78553     78555         0         1
     78557     78556     78558         0         1
     78560     78559     78561         0         1
     78563     78562     78564         0         1
     78566     78565     78567         0         1
     78569     78568     78570         0         1
     78572     78571     78573         0         1
     78575     78574     78576         0         1
     78578     78577     78579         0         1
     78581     78580     78582         0         1
     78584     78583     78585         0         1
     78587     78586     78588         0         1
     78590     78589     78591         0         1
     78593     78592     78594         0         1
     78596     78595     78597         0         1
     78599     78598     78600         0         1
     78602     78601     78603         0         1
     78605     78604     78606         0         1
     78608     78607     78609         0         1
     78611     78610     78612         0         1
     78614     78613     78615         0         1
     78617     78616     78618         0         1
     78620     78619     78621         0         1
     78623     78622     78624         0         1
     78626     78625     78627         0         1
     78629     78628     78630         0         1
     78632     78631     78633         0         1
     78635     78634     78636         0         1
     78638     78637     78639         0         1
     78641     78640     78642         0         1
     78644     78643     78645         0         1
     78647     78646     78648         0         1
     78650     78649     78651         0         1
     78653     78652     78654         0         1
     78656     78655     78657         0         1
     78659     78658     78660         0         1
     78662     78661     78663         0         1
     78665     78664     78666         0         1
     78668     78667     78669         0         1
     78671     78670     78672         0         1
     78674     78673     78675         0         1
     78677     78676     78678         0         1
     78680     78679     78681         0         1
     78683     78682     78684         0         1
     78686     78685     78687         0         1
     78689     78688     78690         0         1
     78692     78691     78693         0         1
     78695     78694     78696         0         1
     78698     78697     78699         0         1
     78701     78700     78702         0         1
     78704     78703     78705         0         1
     78707     78706     78708         0         1
     78710     78709     78711         0         1
     78713     78712     78714         0         1
     78716     78715     78717         0         1
     78719     78718     78720         0         1
     78722     78721     78723         0         1
     78725     78724     78726         0         1
     78728     78727     78729         0         1
     78731     78730     78732         0         1
     78734     78733     78735         0         1
     78737     78736     78738         0         1
     78740     78739     78741         0         1
     78743     78742     78744         0         1
     78746     78745     78747         0         1
     78749     78748     78750         0         1
     78752     78751     78753         0         1
     78755     78754     78756         0         1
     78758     78757     78759         0         1
     78761     78760     78762         0         1
     78764     78763     78765         0         1
     78767     78766     78768         0         1
     78770     78769     78771         0         1
     78773     78772     78774         0         1
     78776     78775     78777         0         1
     78779     78778     78780         0         1
     78782     78781     78783         0         1
     78785     78784     78786         0         1
     78788     78787     78789         0         1
     78791     78790     78792         0         1
     78794     78793     78795         0         1
     78797     78796     78798         0         1
     78800     78799     78801         0         1
     78803     78802     78804         0         1
     78806     78805     78807         0         1
     78809     78808     78810         0         1
     78812     78811     78813         0         1
     78815     78814     78816         0         1
     78818     78817     78819         0         1
     78821     78820     78822         0         1
     78824     78823     78825         0         1
     78827     78826     78828         0         1
     78830     78829     78831         0         1
     78833     78832     78834         0         1
     78836     78835     78837         0         1
     78839     78838     78840         0         1
     78842     78841     78843         0         1
     78845     78844     78846         0         1
     78848     78847     78849         0         1
     78851     78850     78852         0         1
     78854     78853     78855         0         1
     78857     78856     78858         0         1
     78860     78859     78861         0         1
     78863     78862     78864         0         1
     78866     78865     78867         0         1
     78869     78868     78870         0         1
     78872     78871     78873         0         1
     78875     78874     78876         0         1
     78878     78877     78879         0         1
     78881     78880     78882         0         1
     78884     78883     78885         0         1
     78887     78886     78888         0         1
     78890     78889     78891         0         1
     78893     78892     78894         0         1
     78896     78895     78897         0         1
     78899     78898     78900         0         1
     78902     78901     78903         0         1
     78905     78904     78906         0         1
     78908     78907     78909         0         1
     78911     78910     78912         0         1
     78914     78913     78915         0         1
     78917     78916     78918         0         1
     78920     78919     78921         0         1
     78923     78922     78924         0         1
     78926     78925     78927         0         1
     78929     78928     78930         0         1
     78932     78931     78933         0         1
     78935     78934     78936         0         1
     78938     78937     78939         0         1
     78941     78940     78942         0         1
     78944     78943     78945         0         1
     78947     78946     78948         0         1
     78950     78949     78951         0         1
     78953     78952     78954         0         1
     78956     78955     78957         0         1
     78959     78958     78960         0         1
     78962     78961     78963         0         1
     78965     78964     78966         0         1
     78968     78967     78969         0         1
     78971     78970     78972         0         1
     78974     78973     78975         0         1
     78977     78976     78978         0         1
     78980     78979     78981         0         1
     78983     78982     78984         0         1
     78986     78985     78987         0         1
     78989     78988     78990         0         1
     78992     78991     78993         0         1
     78995     78994     78996         0         1
     78998     78997     78999         0         1
     79001     79000     79002         0         1
     79004     79003     79005         0         1
     79007     79006     79008         0         1
     79010     79009     79011         0         1
     79013     79012     79014         0         1
     79016     79015     79017         0         1
     79019     79018     79020         0         1
     79022     79021     79023         0         1
     79025     79024     79026         0         1
     79028     79027     79029         0         1
     79031     79030     79032         0         1
     79034     79033     79035         0         1
     79037     79036     79038         0         1
     79040     79039     79041         0         1
     79043     79042     79044         0         1
     79046     79045     79047         0         1
     79049     79048     79050         0         1
     79052     79051     79053         0         1
     79055     79054     79056         0         1
     79058     79057     79059         0         1
     79061     79060     79062         0         1
     79064     79063     79065         0         1
     79067     79066     79068         0         1
     79070     79069     79071         0         1
     79073     79072     79074         0         1
     79076     79075     79077         0         1
     79079     79078     79080         0         1
     79082     79081     79083         0         1
     79085     79084     79086         0         1
     79088     79087     79089         0         1
     79091     79090     79092         0         1
     79094     79093     79095         0         1
     79097     79096     79098         0         1
     79100     79099     79101         0         1
     79103     79102     79104         0         1
     79106     79105     79107         0         1
     79109     79108     79110         0         1
     79112     79111     79113         0         1
     79115     79114     79116         0         1
     79118     79117     79119         0         1
     79121     79120     79122         0         1
     79124     79123     79125         0         1
     79127     79126     79128         0         1
     79130     79129     79131         0         1
     79133     79132     79134         0         1
     79136     79135     79137         0         1
     79139     79138     79140         0         1
     79142     79141     79143         0         1
     79145     79144     79146         0         1
     79148     79147     79149         0         1
     79151     79150     79152         0         1
     79154     79153     79155         0         1
     79157     79156     79158         0         1
     79160     79159     79161         0         1
     79163     79162     79164         0         1
     79166     79165     79167         0         1
     79169     79168     79170         0         1
     79172     79171     79173         0         1
     79175     79174     79176         0         1
     79178     79177     79179         0         1
     79181     79180     79182         0         1
     79184     79183     79185         0         1
     79187     79186     79188         0         1
     79190     79189     79191         0         1
     79193     79192     79194         0         1
     79196     79195     79197         0         1
     79199     79198     79200         0         1
     79202     79201     79203         0         1
     79205     79204     79206         0         1
     79208     79207     79209         0         1
     79211     79210     79212         0         1
     79214     79213     79215         0         1
     79217     79216     79218         0         1
     79220     79219     79221         0         1
     79223     79222     79224         0         1
     79226     79225     79227         0         1
     79229     79228     79230         0         1
     79232     79231     79233         0         1
     79235     79234     79236         0         1
     79238     79237     79239         0         1
     79241     79240     79242         0         1
     79244     79243     79245         0         1
     79247     79246     79248         0         1
     79250     79249     79251         0         1
     79253     79252     79254         0         1
     79256     79255     79257         0         1
     79259     79258     79260         0         1
     79262     79261     79263         0         1
     79265     79264     79266         0         1
     79268     79267     79269         0         1
     79271     79270     79272         0         1
     79274     79273     79275         0         1
     79277     79276     79278         0         1
     79280     79279     79281         0         1
     79283     79282     79284         0         1
     79286     79285     79287         0         1
     79289     79288     79290         0         1
     79292     79291     79293         0         1
     79295     79294     79296         0         1
     79298     79297     79299         0         1
     79301     79300     79302         0         1
     79304     79303     79305         0         1
     79307     79306     79308         0         1
     79310     79309     79311         0         1
     79313     79312     79314         0         1
     79316     79315     79317         0         1
     79319     79318     79320         0         1
     79322     79321     79323         0         1
     79325     79324     79326         0         1
     79328     79327     79329         0         1
     79331     79330     79332         0         1
     79334     79333     79335         0         1
     79337     79336     79338         0         1
     79340     79339     79341         0         1
     79343     79342     79344         0         1
     79346     79345     79347         0         1
     79349     79348     79350         0         1
     79352     79351     79353         0         1
     79355     79354     79356         0         1
     79358     79357     79359         0         1
     79361     79360     79362         0         1
     79364     79363     79365         0         1
     79367     79366     79368         0         1
     79370     79369     79371         0         1
     79373     79372     79374         0         1
     79376     79375     79377         0         1
     79379     79378     79380         0         1
     79382     79381     79383         0         1
     79385     79384     79386         0         1
     79388     79387     79389         0         1
     79391     79390     79392         0         1
     79394     79393     79395         0         1
     79397     79396     79398         0         1
     79400     79399     79401         0         1
     79403     79402     79404         0         1
     79406     79405     79407         0         1
     79409     79408     79410         0         1
     79412     79411     79413         0         1
     79415     79414     79416         0         1
     79418     79417     79419         0         1
     79421     79420     79422         0         1
     79424     79423     79425         0         1
     79427     79426     79428         0         1
     79430     79429     79431         0         1
     79433     79432     79434         0         1
     79436     79435     79437         0         1
     79439     79438     79440         0         1
     79442     79441     79443         0         1
     79445     79444     79446         0         1
     79448     79447     79449         0         1
     79451     79450     79452         0         1
     79454     79453     79455         0         1
     79457     79456     79458         0         1
     79460     79459     79461         0         1
     79463     79462     79464         0         1
     79466     79465     79467         0         1
     79469     79468     79470         0         1
     79472     79471     79473         0         1
     79475     79474     79476         0         1
     79478     79477     79479         0         1
     79481     79480     79482         0         1
     79484     79483     79485         0         1
     79487     79486     79488         0         1
     79490     79489     79491         0         1
     79493     79492     79494         0         1
     79496     79495     79497         0         1
     79499     79498     79500         0         1
     79502     79501     79503         0         1
     79505     79504     79506         0         1
     79508     79507     79509         0         1
     79511     79510     79512         0         1
     79514     79513     79515         0         1
     79517     79516     79518         0         1
     79520     79519     79521         0         1
     79523     79522     79524         0         1
     79526     79525     79527         0         1
     79529     79528     79530         0         1
     79532     79531     79533         0         1
     79535     79534     79536         0         1
     79538     79537     79539         0         1
     79541     79540     79542         0         1
     79544     79543     79545         0         1
     79547     79546     79548         0         1
     79550     79549     79551         0         1
     79553     79552     79554         0         1
     79556     79555     79557         0         1
     79559     79558     79560         0         1
     79562     79561     79563         0         1
     79565     79564     79566         0         1
     79568     79567     79569         0         1
     79571     79570     79572         0         1
     79574     79573     79575         0         1
     79577     79576     79578         0         1
     79580     79579     79581         0         1
     79583     79582     79584         0         1
     79586     79585     79587         0         1
     79589     79588     79590         0         1
     79592     79591     79593         0         1
     79595     79594     79596         0         1
     79598     79597     79599         0         1
     79601     79600     79602         0         1
     79604     79603     79605         0         1
     79607     79606     79608         0         1
     79610     79609     79611         0         1
     79613     79612     79614         0         1
     79616     79615     79617         0         1
     79619     79618     79620         0         1
     79622     79621     79623         0         1
     79625     79624     79626         0         1
     79628     79627     79629         0         1
     79631     79630     79632         0         1
     79634     79633     79635         0         1
     79637     79636     79638         0         1
     79640     79639     79641         0         1
     79643     79642     79644         0         1
     79646     79645     79647         0         1
     79649     79648     79650         0         1
     79652     79651     79653         0         1
     79655     79654     79656         0         1
     79658     79657     79659         0         1
     79661     79660     79662         0         1
     79664     79663     79665         0         1
     79667     79666     79668         0         1
     79670     79669     79671         0         1
     79673     79672     79674         0         1
     79676     79675     79677         0         1
     79679     79678     79680         0         1
     79682     79681     79683         0         1
     79685     79684     79686         0         1
     79688     79687     79689         0         1
     79691     79690     79692         0         1
     79694     79693     79695         0         1
     79697     79696     79698         0         1
     79700     79699     79701         0         1
     79703     79702     79704         0         1
     79706     79705     79707         0         1
     79709     79708     79710         0         1
     79712     79711     79713         0         1
     79715     79714     79716         0         1
     79718     79717     79719         0         1
     79721     79720     79722         0         1
     79724     79723     79725         0         1
     79727     79726     79728         0         1
     79730     79729     79731         0         1
     79733     79732     79734         0         1
     79736     79735     79737         0         1
     79739     79738     79740         0         1
     79742     79741     79743         0         1
     79745     79744     79746         0         1
     79748     79747     79749         0         1
     79751     79750     79752         0         1
     79754     79753     79755         0         1
     79757     79756     79758         0         1
     79760     79759     79761         0         1
     79763     79762     79764         0         1
     79766     79765     79767         0         1
     79769     79768     79770         0         1
     79772     79771     79773         0         1
     79775     79774     79776         0         1
     79778     79777     79779         0         1
     79781     79780     79782         0         1
     79784     79783     79785         0         1
     79787     79786     79788         0         1
     79790     79789     79791         0         1
     79793     79792     79794         0         1
     79796     79795     79797         0         1
     79799     79798     79800         0         1
     79802     79801     79803         0         1
     79805     79804     79806         0         1
     79808     79807     79809         0         1
     79811     79810     79812         0         1
     79814     79813     79815         0         1
     79817     79816     79818         0         1
     79820     79819     79821         0         1
     79823     79822     79824         0         1
     79826     79825     79827         0         1
     79829     79828     79830         0         1
     79832     79831     79833         0         1
     79835     79834     79836         0         1
     79838     79837     79839         0         1
     79841     79840     79842         0         1
     79844     79843     79845         0         1
     79847     79846     79848         0         1
     79850     79849     79851         0         1
     79853     79852     79854         0         1
     79856     79855     79857         0         1
     79859     79858     79860         0         1
     79862     79861     79863         0         1
     79865     79864     79866         0         1
     79868     79867     79869         0         1
     79871     79870     79872         0         1
     79874     79873     79875         0         1
     79877     79876     79878         0         1
     79880     79879     79881         0         1
     79883     79882     79884         0         1
     79886     79885     79887         0         1
     79889     79888     79890         0         1
     79892     79891     79893         0         1
     79895     79894     79896         0         1
     79898     79897     79899         0         1
     79901     79900     79902         0         1
     79904     79903     79905         0         1
     79907     79906     79908         0         1
     79910     79909     79911         0         1
     79913     79912     79914         0         1
     79916     79915     79917         0         1
     79919     79918     79920         0         1
     79922     79921     79923         0         1
     79925     79924     79926         0         1
     79928     79927     79929         0         1
     79931     79930     79932         0         1
     79934     79933     79935         0         1
     79937     79936     79938         0         1
     79940     79939     79941         0         1
     79943     79942     79944         0         1
     79946     79945     79947         0         1
     79949     79948     79950         0         1
     79952     79951     79953         0         1
     79955     79954     79956         0         1
     79958     79957     79959         0         1
     79961     79960     79962         0         1
     79964     79963     79965         0         1
     79967     79966     79968         0         1
     79970     79969     79971         0         1
     79973     79972     79974         0         1
     79976     79975     79977         0         1
     79979     79978     79980         0         1
     79982     79981     79983         0         1
     79985     79984     79986         0         1
     79988     79987     79989         0         1
     79991     79990     79992         0         1
     79994     79993     79995         0         1
     79997     79996     79998         0         1
     80000     79999     80001         0         1
     80003     80002     80004         0         1
     80006     80005     80007         0         1
     80009     80008     80010         0         1
     80012     80011     80013         0         1
     80015     80014     80016         0         1
     80018     80017     80019         0         1
     80021     80020     80022         0         1
     80024     80023     80025         0         1
     80027     80026     80028         0         1
     80030     80029     80031         0         1
     80033     80032     80034         0         1
     80036     80035     80037         0         1
     80039     80038     80040         0         1
     80042     80041     80043         0         1
     80045     80044     80046         0         1
     80048     80047     80049         0         1
     80051     80050     80052         0         1
     80054     80053     80055         0         1
     80057     80056     80058         0         1
     80060     80059     80061         0         1
     80063     80062     80064         0         1
     80066     80065     80067         0         1
     80069     80068     80070         0         1
     80072     80071     80073         0         1
     80075     80074     80076         0         1
     80078     80077     80079         0         1
     80081     80080     80082         0         1
     80084     80083     80085         0         1
     80087     80086     80088         0         1
     80090     80089     80091         0         1
     80093     80092     80094         0         1
     80096     80095     80097         0         1
     80099     80098     80100         0         1
     80102     80101     80103         0         1
     80105     80104     80106         0         1
     80108     80107     80109         0         1
     80111     80110     80112         0         1
     80114     80113     80115         0         1
     80117     80116     80118         0         1
     80120     80119     80121         0         1
     80123     80122     80124         0         1
     80126     80125     80127         0         1
     80129     80128     80130         0         1
     80132     80131     80133         0         1
     80135     80134     80136         0         1
     80138     80137     80139         0         1
     80141     80140     80142         0         1
     80144     80143     80145         0         1
     80147     80146     80148         0         1
     80150     80149     80151         0         1
     80153     80152     80154         0         1
     80156     80155     80157         0         1
     80159     80158     80160         0         1
     80162     80161     80163         0         1
     80165     80164     80166         0         1
     80168     80167     80169         0         1
     80171     80170     80172         0         1
     80174     80173     80175         0         1
     80177     80176     80178         0         1
     80180     80179     80181         0         1
     80183     80182     80184         0         1
     80186     80185     80187         0         1
     80189     80188     80190         0         1
     80192     80191     80193         0         1
     80195     80194     80196         0         1
     80198     80197     80199         0         1
     80201     80200     80202         0         1
     80204     80203     80205         0         1
     80207     80206     80208         0         1
     80210     80209     80211         0         1
     80213     80212     80214         0         1
     80216     80215     80217         0         1
     80219     80218     80220         0         1
     80222     80221     80223         0         1
     80225     80224     80226         0         1
     80228     80227     80229         0         1
     80231     80230     80232         0         1
     80234     80233     80235         0         1
     80237     80236     80238         0         1
     80240     80239     80241         0         1
     80243     80242     80244         0         1
     80246     80245     80247         0         1
     80249     80248     80250         0         1
     80252     80251     80253         0         1
     80255     80254     80256         0         1
     80258     80257     80259         0         1
     80261     80260     80262         0         1
     80264     80263     80265         0         1
     80267     80266     80268         0         1
     80270     80269     80271         0         1
     80273     80272     80274         0         1
     80276     80275     80277         0         1
     80279     80278     80280         0         1
     80282     80281     80283         0         1
     80285     80284     80286         0         1
     80288     80287     80289         0         1
     80291     80290     80292         0         1
     80294     80293     80295         0         1
     80297     80296     80298         0         1
     80300     80299     80301         0         1
     80303     80302     80304         0         1
     80306     80305     80307         0         1
     80309     80308     80310         0         1
     80312     80311     80313         0         1
     80315     80314     80316         0         1
     80318     80317     80319         0         1
     80321     80320     80322         0         1
     80324     80323     80325         0         1
     80327     80326     80328         0         1
     80330     80329     80331         0         1
     80333     80332     80334         0         1
     80336     80335     80337         0         1
     80339     80338     80340         0         1
     80342     80341     80343         0         1
     80345     80344     80346         0         1
     80348     80347     80349         0         1
     80351     80350     80352         0         1
     80354     80353     80355         0         1
     80357     80356     80358         0         1
     80360     80359     80361         0         1
     80363     80362     80364         0         1
     80366     80365     80367         0         1
     80369     80368     80370         0         1
     80372     80371     80373         0         1
     80375     80374     80376         0         1
     80378     80377     80379         0         1
     80381     80380     80382         0         1
     80384     80383     80385         0         1
     80387     80386     80388         0         1
     80390     80389     80391         0         1
     80393     80392     80394         0         1
     80396     80395     80397         0         1
     80399     80398     80400         0         1
     80402     80401     80403         0         1
     80405     80404     80406         0         1
     80408     80407     80409         0         1
     80411     80410     80412         0         1
     80414     80413     80415         0         1
     80417     80416     80418         0         1
     80420     80419     80421         0         1
     80423     80422     80424         0         1
     80426     80425     80427         0         1
     80429     80428     80430         0         1
     80432     80431     80433         0         1
     80435     80434     80436         0         1
     80438     80437     80439         0         1
     80441     80440     80442         0         1
     80444     80443     80445         0         1
     80447     80446     80448         0         1
     80450     80449     80451         0         1
     80453     80452     80454         0         1
     80456     80455     80457         0         1
     80459     80458     80460         0         1
     80462     80461     80463         0         1
     80465     80464     80466         0         1
     80468     80467     80469         0         1
     80471     80470     80472         0         1
     80474     80473     80475         0         1
     80477     80476     80478         0         1
     80480     80479     80481         0         1
     80483     80482     80484         0         1
     80486     80485     80487         0         1
     80489     80488     80490         0         1
     80492     80491     80493         0         1
     80495     80494     80496         0         1
     80498     80497     80499         0         1
     80501     80500     80502         0         1
     80504     80503     80505         0         1
     80507     80506     80508         0         1
     80510     80509     80511         0         1
     80513     80512     80514         0         1
     80516     80515     80517         0         1
     80519     80518     80520         0         1
     80522     80521     80523         0         1
     80525     80524     80526         0         1
     80528     80527     80529         0         1
     80531     80530     80532         0         1
     80534     80533     80535         0         1
     80537     80536     80538         0         1
     80540     80539     80541         0         1
     80543     80542     80544         0         1
     80546     80545     80547         0         1
     80549     80548     80550         0         1
     80552     80551     80553         0         1
     80555     80554     80556         0         1
     80558     80557     80559         0         1
     80561     80560     80562         0         1
     80564     80563     80565         0         1
     80567     80566     80568         0         1
     80570     80569     80571         0         1
     80573     80572     80574         0         1
     80576     80575     80577         0         1
     80579     80578     80580         0         1
     80582     80581     80583         0         1
     80585     80584     80586         0         1
     80588     80587     80589         0         1
     80591     80590     80592         0         1
     80594     80593     80595         0         1
     80597     80596     80598         0         1
     80600     80599     80601         0         1
     80603     80602     80604         0         1
     80606     80605     80607         0         1
     80609     80608     80610         0         1
     80612     80611     80613         0         1
     80615     80614     80616         0         1
     80618     80617     80619         0         1
     80621     80620     80622         0         1
     80624     80623     80625         0         1
     80627     80626     80628         0         1
     80630     80629     80631         0         1
     80633     80632     80634         0         1
     80636     80635     80637         0         1
     80639     80638     80640         0         1
     80642     80641     80643         0         1
     80645     80644     80646         0         1
     80648     80647     80649         0         1
     80651     80650     80652         0         1
     80654     80653     80655         0         1
     80657     80656     80658         0         1
     80660     80659     80661         0         1
     80663     80662     80664         0         1
     80666     80665     80667         0         1
     80669     80668     80670         0         1
     80672     80671     80673         0         1
     80675     80674     80676         0         1
     80678     80677     80679         0         1
     80681     80680     80682         0         1
     80684     80683     80685         0         1
     80687     80686     80688         0         1
     80690     80689     80691         0         1
     80693     80692     80694         0         1
     80696     80695     80697         0         1
     80699     80698     80700         0         1
     80702     80701     80703         0         1
     80705     80704     80706         0         1
     80708     80707     80709         0         1
     80711     80710     80712         0         1
     80714     80713     80715         0         1
     80717     80716     80718         0         1
     80720     80719     80721         0         1
     80723     80722     80724         0         1
     80726     80725     80727         0         1
     80729     80728     80730         0         1
     80732     80731     80733         0         1
     80735     80734     80736         0         1
     80738     80737     80739         0         1
     80741     80740     80742         0         1
     80744     80743     80745         0         1
     80747     80746     80748         0         1
     80750     80749     80751         0         1
     80753     80752     80754         0         1
     80756     80755     80757         0         1
     80759     80758     80760         0         1
     80762     80761     80763         0         1
     80765     80764     80766         0         1
     80768     80767     80769         0         1
     80771     80770     80772         0         1
     80774     80773     80775         0         1
     80777     80776     80778         0         1
     80780     80779     80781         0         1
     80783     80782     80784         0         1
     80786     80785     80787         0         1
     80789     80788     80790         0         1
     80792     80791     80793         0         1
     80795     80794     80796         0         1
     80798     80797     80799         0         1
     80801     80800     80802         0         1
     80804     80803     80805         0         1
     80807     80806     80808         0         1
     80810     80809     80811         0         1
     80813     80812     80814         0         1
     80816     80815     80817         0         1
     80819     80818     80820         0         1
     80822     80821     80823         0         1
     80825     80824     80826         0         1
     80828     80827     80829         0         1
     80831     80830     80832         0         1
     80834     80833     80835         0         1
     80837     80836     80838         0         1
     80840     80839     80841         0         1
     80843     80842     80844         0         1
     80846     80845     80847         0         1
     80849     80848     80850         0         1
     80852     80851     80853         0         1
     80855     80854     80856         0         1
     80858     80857     80859         0         1
     80861     80860     80862         0         1
     80864     80863     80865         0         1
     80867     80866     80868         0         1
     80870     80869     80871         0         1
     80873     80872     80874         0         1
     80876     80875     80877         0         1
     80879     80878     80880         0         1
     80882     80881     80883         0         1
